Generated by trjconv : CNT in water t= 133.00000
33518
    1C        C    1   2.839   2.767   4.746
    1C        C    2   2.893   2.715   4.866
    1C        C    3   2.841   2.773   4.983
    1C        C    4   2.848   2.770   4.259
    1C        C    5   2.895   2.719   4.382
    1C        C    6   2.839   2.767   4.502
    1C        C    7   3.008   2.638   4.623
    1C        C    8   2.893   2.720   4.624
    1C        C    9   3.070   2.598   4.743
    1C        C   10   3.003   2.626   4.863
    1C        C   11   3.178   2.491   4.969
    1C        C   12   3.058   2.562   4.975
    1C        C   13   2.844   2.763   3.770
    1C        C   14   2.895   2.713   3.892
    1C        C   15   2.846   2.770   4.011
    1C        C   16   3.011   2.640   4.137
    1C        C   17   2.898   2.724   4.135
    1C        C   18   3.074   2.606   4.258
    1C        C   19   3.011   2.639   4.380
    1C        C   20   3.204   2.556   4.501
    1C        C   21   3.070   2.599   4.502
    1C        C   22   3.274   2.537   4.623
    1C        C   23   3.203   2.545   4.744
    1C        C   24   3.414   2.489   4.860
    1C        C   25   3.271   2.502   4.861
    1C        C   26   3.487   2.476   4.979
    1C        C   27   2.849   2.764   3.282
    1C        C   28   2.900   2.717   3.405
    1C        C   29   2.846   2.766   3.526
    1C        C   30   3.010   2.630   3.649
    1C        C   31   2.897   2.715   3.648
    1C        C   32   3.070   2.593   3.771
    1C        C   33   3.009   2.629   3.893
    1C        C   34   3.205   2.550   4.015
    1C        C   35   3.072   2.600   4.016
    1C        C   36   3.272   2.531   4.138
    1C        C   37   3.204   2.550   4.260
    1C        C   38   3.412   2.502   4.378
    1C        C   39   3.273   2.525   4.381
    1C        C   40   3.483   2.505   4.501
    1C        C   41   3.411   2.504   4.623
    1C        C   42   3.629   2.480   4.741
    1C        C   43   3.487   2.478   4.739
    1C        C   44   3.704   2.481   4.861
    1C        C   45   3.626   2.472   4.978
    1C        C   46   2.834   2.744   2.791
    1C        C   47   2.889   2.703   2.914
    1C        C   48   2.839   2.755   3.036
    1C        C   49   3.009   2.631   3.161
    1C        C   50   2.894   2.712   3.158
    1C        C   51   3.072   2.596   3.282
    1C        C   52   3.010   2.629   3.405
    1C        C   53   3.203   2.539   3.524
    1C        C   54   3.073   2.595   3.527
    1C        C   55   3.270   2.523   3.647
    1C        C   56   3.201   2.540   3.770
    1C        C   57   3.409   2.507   3.891
    1C        C   58   3.269   2.523   3.892
    1C        C   59   3.480   2.499   4.013
    1C        C   60   3.410   2.501   4.136
    1C        C   61   3.624   2.508   4.255
    1C        C   62   3.483   2.495   4.256
    1C        C   63   3.694   2.513   4.378
    1C        C   64   3.624   2.512   4.500
    1C        C   65   3.834   2.541   4.619
    1C        C   66   3.697   2.507   4.620
    1C        C   67   3.903   2.562   4.740
    1C        C   68   3.840   2.519   4.859
    1C        C   69   4.053   2.574   4.971
    1C        C   70   3.920   2.531   4.973
    1C        C   71   2.825   2.734   2.305
    1C        C   72   2.881   2.692   2.427
    1C        C   73   2.830   2.744   2.548
    1C        C   74   3.006   2.621   2.669
    1C        C   75   2.888   2.698   2.669
    1C        C   76   3.068   2.591   2.793
    1C        C   77   3.005   2.623   2.915
    1C        C   78   3.199   2.540   3.036
    1C        C   79   3.067   2.590   3.038
    1C        C   80   3.269   2.521   3.157
    1C        C   81   3.203   2.543   3.280
    1C        C   82   3.411   2.503   3.400
    1C        C   83   3.271   2.523   3.402
    1C        C   84   3.482   2.498   3.523
    1C        C   85   3.410   2.505   3.644
    1C        C   86   3.619   2.498   3.767
    1C        C   87   3.478   2.500   3.768
    1C        C   88   3.691   2.507   3.889
    1C        C   89   3.621   2.507   4.011
    1C        C   90   3.830   2.555   4.132
    1C        C   91   3.693   2.521   4.133
    1C        C   92   3.898   2.572   4.254
    1C        C   93   3.831   2.550   4.376
    1C        C   94   4.027   2.634   4.496
    1C        C   95   3.899   2.574   4.498
    1C        C   96   4.092   2.666   4.617
    1C        C   97   4.029   2.628   4.737
    1C        C   98   4.187   2.764   4.856
    1C        C   99   4.095   2.654   4.860
    1C        C  100   4.215   2.838   4.972
    1C        C  101   2.818   2.724   2.068
    1C        C  102   2.990   2.590   2.184
    1C        C  103   2.872   2.672   2.186
    1C        C  104   3.061   2.572   2.306
    1C        C  105   2.998   2.612   2.426
    1C        C  106   3.197   2.531   2.548
    1C        C  107   3.065   2.582   2.547
    1C        C  108   3.267   2.519   2.670
    1C        C  109   3.198   2.535   2.792
    1C        C  110   3.406   2.494   2.914
    1C        C  111   3.267   2.516   2.914
    1C        C  112   3.479   2.492   3.035
    1C        C  113   3.409   2.498   3.157
    1C        C  114   3.623   2.503   3.276
    1C        C  115   3.482   2.495   3.278
    1C        C  116   3.691   2.513   3.399
    1C        C  117   3.623   2.503   3.522
    1C        C  118   3.827   2.550   3.644
    1C        C  119   3.690   2.513   3.646
    1C        C  120   3.891   2.578   3.766
    1C        C  121   3.826   2.550   3.888
    1C        C  122   4.023   2.637   4.008
    1C        C  123   3.896   2.575   4.008
    1C        C  124   4.084   2.669   4.131
    1C        C  125   4.025   2.634   4.255
    1C        C  126   4.196   2.764   4.372
    1C        C  127   4.089   2.672   4.375
    1C        C  128   4.240   2.821   4.493
    1C        C  129   4.195   2.763   4.614
    1C        C  130   4.326   2.930   4.738
    1C        C  131   4.244   2.814   4.736
    1C        C  132   4.354   3.002   4.856
    1C        C  133   4.287   2.957   4.971
    1C        C  134   3.173   2.465   2.077
    1C        C  135   3.038   2.504   2.080
    1C        C  136   3.256   2.473   2.189
    1C        C  137   3.190   2.512   2.307
    1C        C  138   3.402   2.478   2.424
    1C        C  139   3.263   2.499   2.427
    1C        C  140   3.476   2.481   2.544
    1C        C  141   3.407   2.496   2.666
    1C        C  142   3.616   2.496   2.788
    1C        C  143   3.475   2.494   2.790
    1C        C  144   3.690   2.510   2.908
    1C        C  145   3.620   2.502   3.030
    1C        C  146   3.828   2.545   3.151
    1C        C  147   3.691   2.508   3.152
    1C        C  148   3.892   2.569   3.275
    1C        C  149   3.828   2.546   3.398
    1C        C  150   4.024   2.624   3.518
    1C        C  151   3.896   2.564   3.521
    1C        C  152   4.080   2.668   3.640
    1C        C  153   4.020   2.636   3.764
    1C        C  154   4.186   2.769   3.888
    1C        C  155   4.080   2.676   3.885
    1C        C  156   4.241   2.814   4.010
    1C        C  157   4.193   2.760   4.132
    1C        C  158   4.340   2.921   4.250
    1C        C  159   4.248   2.813   4.250
    1C        C  160   4.376   2.983   4.372
    1C        C  161   4.328   2.932   4.495
    1C        C  162   4.443   3.109   4.613
    1C        C  163   4.366   2.991   4.617
    1C        C  164   4.472   3.177   4.734
    1C        C  165   4.432   3.119   4.856
    1C        C  166   4.512   3.317   4.972
    1C        C  167   4.477   3.182   4.973
    1C        C  168   3.473   2.428   2.071
    1C        C  169   3.396   2.455   2.185
    1C        C  170   3.616   2.470   2.304
    1C        C  171   3.474   2.462   2.303
    1C        C  172   3.690   2.489   2.422
    1C        C  173   3.617   2.490   2.543
    1C        C  174   3.821   2.547   2.664
    1C        C  175   3.686   2.507   2.666
    1C        C  176   3.894   2.560   2.785
    1C        C  177   3.828   2.537   2.908
    1C        C  178   4.024   2.623   3.030
    1C        C  179   3.897   2.562   3.029
    1C        C  180   4.085   2.661   3.152
    1C        C  181   4.021   2.628   3.274
    1C        C  182   4.193   2.750   3.397
    1C        C  183   4.085   2.660   3.396
    1C        C  184   4.238   2.806   3.519
    1C        C  185   4.189   2.758   3.642
    1C        C  186   4.331   2.917   3.761
    1C        C  187   4.241   2.808   3.764
    1C        C  188   4.376   2.974   3.882
    1C        C  189   4.336   2.918   4.006
    1C        C  190   4.448   3.101   4.127
    1C        C  191   4.377   2.979   4.127
    1C        C  192   4.478   3.167   4.248
    1C        C  193   4.448   3.104   4.371
    1C        C  194   4.505   3.312   4.486
    1C        C  195   4.470   3.176   4.491
    1C        C  196   4.520   3.381   4.609
    1C        C  197   4.517   3.312   4.732
    1C        C  198   4.554   3.528   4.850
    1C        C  199   4.531   3.387   4.852
    1C        C  200   4.575   3.614   4.962
    1C        C  201   3.612   2.417   2.072
    1C        C  202   3.827   2.504   2.182
    1C        C  203   3.691   2.459   2.184
    1C        C  204   3.897   2.541   2.301
    1C        C  205   3.828   2.518   2.422
    1C        C  206   4.016   2.624   2.540
    1C        C  207   3.892   2.557   2.542
    1C        C  208   4.078   2.658   2.662
    1C        C  209   4.020   2.623   2.786
    1C        C  210   4.196   2.745   2.905
    1C        C  211   4.083   2.660   2.907
    1C        C  212   4.246   2.795   3.027
    1C        C  213   4.194   2.750   3.150
    1C        C  214   4.338   2.903   3.272
    1C        C  215   4.244   2.798   3.274
    1C        C  216   4.373   2.968   3.392
    1C        C  217   4.329   2.914   3.515
    1C        C  218   4.430   3.101   3.638
    1C        C  219   4.369   2.973   3.637
    1C        C  220   4.465   3.163   3.760
    1C        C  221   4.442   3.099   3.883
    1C        C  222   4.505   3.303   4.000
    1C        C  223   4.473   3.165   4.004
    1C        C  224   4.514   3.376   4.121
    1C        C  225   4.504   3.305   4.243
    1C        C  226   4.519   3.521   4.365
    1C        C  227   4.514   3.380   4.362
    1C        C  228   4.518   3.594   4.486
    1C        C  229   4.533   3.522   4.606
    1C        C  230   4.500   3.733   4.722
    1C        C  231   4.538   3.597   4.726
    1C        C  232   4.486   3.811   4.839
    1C        C  233   4.537   3.749   4.954
    1C        C  234   4.017   2.604   2.058
    1C        C  235   3.898   2.534   2.065
    1C        C  236   4.084   2.643   2.175
    1C        C  237   4.019   2.613   2.297
    1C        C  238   4.198   2.732   2.418
    1C        C  239   4.081   2.652   2.418
    1C        C  240   4.252   2.780   2.540
    1C        C  241   4.191   2.742   2.662
    1C        C  242   4.339   2.900   2.782
    1C        C  243   4.247   2.793   2.782
    1C        C  244   4.380   2.958   2.904
    1C        C  245   4.337   2.903   3.027
    1C        C  246   4.440   3.088   3.145
    1C        C  247   4.379   2.961   3.149
    1C        C  248   4.463   3.155   3.267
    1C        C  249   4.434   3.095   3.392
    1C        C  250   4.494   3.299   3.513
    1C        C  251   4.456   3.163   3.514
    1C        C  252   4.508   3.369   3.635
    1C        C  253   4.497   3.301   3.759
    1C        C  254   4.523   3.514   3.877
    1C        C  255   4.516   3.373   3.878
    1C        C  256   4.520   3.587   3.998
    1C        C  257   4.522   3.517   4.120
    1C        C  258   4.482   3.727   4.239
    1C        C  259   4.515   3.590   4.241
    1C        C  260   4.466   3.799   4.360
    1C        C  261   4.491   3.732   4.482
    1C        C  262   4.421   3.935   4.600
    1C        C  263   4.476   3.804   4.602
    1C        C  264   4.393   4.003   4.720
    1C        C  265   4.430   3.940   4.841
    1C        C  266   4.316   4.126   4.955
    1C        C  267   4.392   4.010   4.956
    1C        C  268   4.262   2.775   2.060
    1C        C  269   4.195   2.731   2.176
    1C        C  270   4.346   2.883   2.297
    1C        C  271   4.254   2.774   2.296
    1C        C  272   4.383   2.947   2.418
    1C        C  273   4.343   2.887   2.539
    1C        C  274   4.450   3.077   2.657
    1C        C  275   4.382   2.953   2.658
    1C        C  276   4.473   3.147   2.778
    1C        C  277   4.439   3.086   2.900
    1C        C  278   4.506   3.288   3.021
    1C        C  279   4.465   3.153   3.022
    1C        C  280   4.514   3.358   3.143
    1C        C  281   4.498   3.292   3.267
    1C        C  282   4.515   3.505   3.388
    1C        C  283   4.509   3.364   3.388
    1C        C  284   4.515   3.579   3.509
    1C        C  285   4.520   3.509   3.632
    1C        C  286   4.491   3.721   3.748
    1C        C  287   4.518   3.582   3.753
    1C        C  288   4.469   3.790   3.869
    1C        C  289   4.489   3.725   3.993
    1C        C  290   4.423   3.927   4.114
    1C        C  291   4.467   3.793   4.115
    1C        C  292   4.392   3.995   4.234
    1C        C  293   4.418   3.932   4.358
    1C        C  294   4.320   4.121   4.474
    1C        C  295   4.392   4.000   4.478
    1C        C  296   4.279   4.182   4.595
    1C        C  297   4.320   4.125   4.718
    1C        C  298   4.196   4.308   4.834
    1C        C  299   4.280   4.192   4.837
    1C        C  300   4.167   4.396   4.943
    1C        C  301   4.355   2.877   2.058
    1C        C  302   4.469   3.063   2.176
    1C        C  303   4.394   2.941   2.176
    1C        C  304   4.484   3.137   2.297
    1C        C  305   4.452   3.070   2.417
    1C        C  306   4.509   3.280   2.536
    1C        C  307   4.479   3.142   2.536
    1C        C  308   4.521   3.353   2.657
    1C        C  309   4.508   3.284   2.779
    1C        C  310   4.525   3.499   2.897
    1C        C  311   4.521   3.358   2.899
    1C        C  312   4.517   3.570   3.019
    1C        C  313   4.517   3.499   3.142
    1C        C  314   4.480   3.710   3.258
    1C        C  315   4.504   3.571   3.263
    1C        C  316   4.466   3.782   3.379
    1C        C  317   4.487   3.717   3.503
    1C        C  318   4.427   3.921   3.625
    1C        C  319   4.471   3.787   3.625
    1C        C  320   4.389   3.984   3.746
    1C        C  321   4.417   3.921   3.869
    1C        C  322   4.317   4.108   3.988
    1C        C  323   4.394   3.990   3.990
    1C        C  324   4.277   4.171   4.108
    1C        C  325   4.319   4.116   4.231
    1C        C  326   4.183   4.282   4.352
    1C        C  327   4.279   4.178   4.352
    1C        C  328   4.132   4.337   4.471
    1C        C  329   4.183   4.286   4.593
    1C        C  330   4.022   4.432   4.711
    1C        C  331   4.132   4.342   4.712
    1C        C  332   3.968   4.487   4.829
    1C        C  333   4.052   4.477   4.941
    1C        C  334   4.549   3.264   2.064
    1C        C  335   4.533   3.125   2.065
    1C        C  336   4.534   3.348   2.175
    1C        C  337   4.514   3.276   2.295
    1C        C  338   4.522   3.492   2.409
    1C        C  339   4.518   3.351   2.414
    1C        C  340   4.521   3.565   2.530
    1C        C  341   4.524   3.494   2.652
    1C        C  342   4.490   3.705   2.771
    1C        C  343   4.515   3.566   2.773
    1C        C  344   4.473   3.775   2.892
    1C        C  345   4.492   3.709   3.015
    1C        C  346   4.417   3.910   3.133
    1C        C  347   4.465   3.778   3.135
    1C        C  348   4.387   3.976   3.254
    1C        C  349   4.421   3.915   3.377
    1C        C  350   4.315   4.096   3.499
    1C        C  351   4.395   3.979   3.500
    1C        C  352   4.272   4.156   3.619
    1C        C  353   4.317   4.105   3.743
    1C        C  354   4.172   4.261   3.863
    1C        C  355   4.271   4.160   3.865
    1C        C  356   4.120   4.309   3.985
    1C        C  357   4.173   4.266   4.109
    1C        C  358   4.005   4.399   4.227
    1C        C  359   4.123   4.320   4.230
    1C        C  360   3.947   4.442   4.348
    1C        C  361   4.014   4.415   4.469
    1C        C  362   3.827   4.518   4.590
    1C        C  363   3.957   4.463   4.589
    1C        C  364   3.760   4.543   4.712
    1C        C  365   3.837   4.540   4.830
    1C        C  366   3.630   4.588   4.946
    1C        C  367   3.769   4.579   4.946
    1C        C  368   4.510   3.558   2.050
    1C        C  369   4.528   3.489   2.170
    1C        C  370   4.498   3.704   2.281
    1C        C  371   4.523   3.566   2.288
    1C        C  372   4.477   3.773   2.403
    1C        C  373   4.493   3.704   2.524
    1C        C  374   4.420   3.901   2.645
    1C        C  375   4.474   3.771   2.647
    1C        C  376   4.387   3.967   2.765
    1C        C  377   4.422   3.907   2.889
    1C        C  378   4.318   4.095   3.009
    1C        C  379   4.393   3.975   3.009
    1C        C  380   4.266   4.148   3.130
    1C        C  381   4.305   4.091   3.253
    1C        C  382   4.169   4.249   3.375
    1C        C  383   4.267   4.148   3.377
    1C        C  384   4.116   4.299   3.496
    1C        C  385   4.171   4.255   3.618
    1C        C  386   4.000   4.381   3.739
    1C        C  387   4.115   4.300   3.740
    1C        C  388   3.940   4.423   3.860
    1C        C  389   4.001   4.385   3.982
    1C        C  390   3.818   4.492   4.103
    1C        C  391   3.944   4.428   4.104
    1C        C  392   3.751   4.522   4.225
    1C        C  393   3.819   4.503   4.347
    1C        C  394   3.615   4.552   4.472
    1C        C  395   3.755   4.533   4.469
    1C        C  396   3.543   4.559   4.594
    1C        C  397   3.620   4.558   4.712
    1C        C  398   3.410   4.544   4.836
    1C        C  399   3.549   4.568   4.834
    1C        C  400   3.338   4.518   4.953
    1C        C  401   4.492   3.695   2.045
    1C        C  402   4.448   3.912   2.163
    1C        C  403   4.483   3.776   2.160
    1C        C  404   4.408   3.975   2.283
    1C        C  405   4.433   3.907   2.405
    1C        C  406   4.318   4.090   2.523
    1C        C  407   4.394   3.971   2.525
    1C        C  408   4.268   4.143   2.644
    1C        C  409   4.306   4.083   2.765
    1C        C  410   4.172   4.247   2.886
    1C        C  411   4.270   4.146   2.887
    1C        C  412   4.120   4.297   3.007
    1C        C  413   4.170   4.251   3.131
    1C        C  414   3.995   4.371   3.251
    1C        C  415   4.113   4.295   3.253
    1C        C  416   3.938   4.415   3.373
    1C        C  417   3.997   4.375   3.495
    1C        C  418   3.811   4.478   3.616
    1C        C  419   3.937   4.414   3.617
    1C        C  420   3.746   4.503   3.739
    1C        C  421   3.813   4.483   3.862
    1C        C  422   3.607   4.537   3.981
    1C        C  423   3.746   4.512   3.983
    1C        C  424   3.540   4.546   4.105
    1C        C  425   3.611   4.539   4.227
    1C        C  426   3.403   4.544   4.352
    1C        C  427   3.544   4.553   4.350
    1C        C  428   3.330   4.541   4.473
    1C        C  429   3.402   4.550   4.595
    1C        C  430   3.192   4.518   4.720
    1C        C  431   3.333   4.540   4.718
    1C        C  432   3.123   4.494   4.841
    1C        C  433   3.201   4.494   4.957
    1C        C  434   4.385   4.119   2.050
    1C        C  435   4.451   3.996   2.050
    1C        C  436   4.303   4.161   2.160
    1C        C  437   4.333   4.095   2.283
    1C        C  438   4.173   4.245   2.400
    1C        C  439   4.277   4.149   2.401
    1C        C  440   4.117   4.291   2.521
    1C        C  441   4.169   4.244   2.643
    1C        C  442   3.998   4.372   2.764
    1C        C  443   4.114   4.291   2.765
    1C        C  444   3.937   4.408   2.886
    1C        C  445   3.999   4.372   3.007
    1C        C  446   3.810   4.473   3.128
    1C        C  447   3.935   4.408   3.128
    1C        C  448   3.744   4.500   3.250
    1C        C  449   3.810   4.476   3.373
    1C        C  450   3.605   4.533   3.495
    1C        C  451   3.743   4.502   3.494
    1C        C  452   3.536   4.546   3.617
    1C        C  453   3.608   4.535   3.739
    1C        C  454   3.395   4.541   3.863
    1C        C  455   3.536   4.543   3.860
    1C        C  456   3.327   4.535   3.987
    1C        C  457   3.398   4.543   4.108
    1C        C  458   3.193   4.498   4.234
    1C        C  459   3.331   4.532   4.231
    1C        C  460   3.123   4.479   4.356
    1C        C  461   3.193   4.504   4.476
    1C        C  462   2.999   4.426   4.600
    1C        C  463   3.127   4.485   4.599
    1C        C  464   2.933   4.395   4.721
    1C        C  465   2.990   4.441   4.843
    1C        C  466   2.800   4.336   4.959
    1C        C  467   2.908   4.425   4.960
    1C        C  468   4.124   4.283   2.039
    1C        C  469   4.188   4.246   2.159
    1C        C  470   4.005   4.372   2.277
    1C        C  471   4.122   4.291   2.276
    1C        C  472   3.939   4.407   2.397
    1C        C  473   4.002   4.373   2.519
    1C        C  474   3.811   4.466   2.641
    1C        C  475   3.941   4.412   2.641
    1C        C  476   3.744   4.491   2.763
    1C        C  477   3.809   4.469   2.886
    1C        C  478   3.603   4.525   3.005
    1C        C  479   3.741   4.496   3.007
    1C        C  480   3.534   4.534   3.128
    1C        C  481   3.606   4.529   3.249
    1C        C  482   3.395   4.532   3.372
    1C        C  483   3.536   4.535   3.372
    1C        C  484   3.324   4.532   3.495
    1C        C  485   3.395   4.547   3.617
    1C        C  486   3.189   4.499   3.741
    1C        C  487   3.326   4.535   3.740
    1C        C  488   3.128   4.471   3.865
    1C        C  489   3.191   4.496   3.989
    1C        C  490   3.002   4.408   4.113
    1C        C  491   3.125   4.476   4.113
    1C        C  492   2.942   4.373   4.236
    1C        C  493   2.995   4.419   4.358
    1C        C  494   2.821   4.301   4.481
    1C        C  495   2.936   4.382   4.481
    1C        C  496   2.771   4.254   4.605
    1C        C  497   2.817   4.312   4.725
    1C        C  498   2.664   4.163   4.844
    1C        C  499   2.751   4.274   4.843
    1C        C  500   2.597   4.116   4.958
    1C        C  501   4.005   4.354   2.040
    1C        C  502   3.817   4.470   2.154
    1C        C  503   3.943   4.405   2.155
    1C        C  504   3.744   4.485   2.274
    1C        C  505   3.809   4.462   2.397
    1C        C  506   3.603   4.508   2.519
    1C        C  507   3.743   4.488   2.519
    1C        C  508   3.531   4.516   2.640
    1C        C  509   3.605   4.516   2.761
    1C        C  510   3.392   4.526   2.882
    1C        C  511   3.534   4.524   2.882
    1C        C  512   3.320   4.521   3.004
    1C        C  513   3.393   4.528   3.125
    1C        C  514   3.189   4.488   3.254
    1C        C  515   3.326   4.521   3.249
    1C        C  516   3.122   4.463   3.376
    1C        C  517   3.189   4.490   3.497
    1C        C  518   2.998   4.406   3.624
    1C        C  519   3.122   4.473   3.620
    1C        C  520   2.940   4.366   3.746
    1C        C  521   3.004   4.403   3.867
    1C        C  522   2.836   4.277   3.995
    1C        C  523   2.945   4.366   3.990
    1C        C  524   2.784   4.231   4.118
    1C        C  525   2.832   4.284   4.240
    1C        C  526   2.685   4.132   4.364
    1C        C  527   2.776   4.240   4.362
    1C        C  528   2.643   4.078   4.487
    1C        C  529   2.688   4.140   4.606
    1C        C  530   2.585   3.955   4.730
    1C        C  531   2.644   4.084   4.728
    1C        C  532   2.538   3.898   4.852
    1C        C  533   2.529   3.994   4.957
    1C        C  534   3.616   4.561   2.036
    1C        C  535   3.748   4.514   2.041
    1C        C  536   3.536   4.532   2.152
    1C        C  537   3.605   4.515   2.274
    1C        C  538   3.393   4.519   2.400
    1C        C  539   3.534   4.520   2.396
    1C        C  540   3.318   4.516   2.520
    1C        C  541   3.390   4.515   2.642
    1C        C  542   3.181   4.480   2.761
    1C        C  543   3.317   4.516   2.763
    1C        C  544   3.119   4.457   2.886
    1C        C  545   3.183   4.487   3.009
    1C        C  546   2.994   4.400   3.137
    1C        C  547   3.120   4.463   3.133
    1C        C  548   2.932   4.365   3.259
    1C        C  549   2.994   4.402   3.380
    1C        C  550   2.830   4.273   3.502
    1C        C  551   2.936   4.365   3.504
    1C        C  552   2.778   4.229   3.627
    1C        C  553   2.827   4.281   3.749
    1C        C  554   2.693   4.120   3.873
    1C        C  555   2.781   4.230   3.873
    1C        C  556   2.654   4.061   3.996
    1C        C  557   2.693   4.123   4.117
    1C        C  558   2.595   3.940   4.243
    1C        C  559   2.656   4.068   4.241
    1C        C  560   2.568   3.878   4.367
    1C        C  561   2.584   3.950   4.487
    1C        C  562   2.533   3.746   4.613
    1C        C  563   2.562   3.884   4.610
    1C        C  564   2.514   3.678   4.736
    1C        C  565   2.518   3.756   4.855
    1C        C  566   2.528   3.545   4.976
    1C        C  567   2.521   3.684   4.975
    1C        C  568   3.326   4.473   2.039
    1C        C  569   3.396   4.508   2.155
    1C        C  570   3.185   4.472   2.278
    1C        C  571   3.324   4.506   2.278
    1C        C  572   3.115   4.451   2.399
    1C        C  573   3.182   4.480   2.520
    1C        C  574   2.987   4.391   2.648
    1C        C  575   3.112   4.456   2.640
    1C        C  576   2.929   4.353   2.771
    1C        C  577   2.991   4.397   2.890
    1C        C  578   2.829   4.267   3.014
    1C        C  579   2.938   4.357   3.015
    1C        C  580   2.776   4.220   3.136
    1C        C  581   2.824   4.273   3.258
    1C        C  582   2.698   4.104   3.381
    1C        C  583   2.783   4.218   3.381
    1C        C  584   2.663   4.050   3.507
    1C        C  585   2.695   4.115   3.628
    1C        C  586   2.588   3.935   3.752
    1C        C  587   2.654   4.060   3.752
    1C        C  588   2.564   3.869   3.875
    1C        C  589   2.590   3.935   3.997
    1C        C  590   2.533   3.735   4.125
    1C        C  591   2.568   3.872   4.122
    1C        C  592   2.517   3.670   4.249
    1C        C  593   2.528   3.742   4.370
    1C        C  594   2.510   3.532   4.495
    1C        C  595   2.519   3.673   4.493
    1C        C  596   2.512   3.463   4.618
    1C        C  597   2.514   3.536   4.739
    1C        C  598   2.533   3.325   4.859
    1C        C  599   2.526   3.466   4.861
    1C        C  600   2.534   3.249   4.977
    1C        C  601   3.196   4.425   2.045
    1C        C  602   2.982   4.388   2.157
    1C        C  603   3.116   4.437   2.159
    1C        C  604   2.922   4.357   2.283
    1C        C  605   2.986   4.393   2.404
    1C        C  606   2.815   4.269   2.527
    1C        C  607   2.924   4.358   2.526
    1C        C  608   2.763   4.219   2.648
    1C        C  609   2.817   4.267   2.769
    1C        C  610   2.684   4.108   2.893
    1C        C  611   2.771   4.219   2.894
    1C        C  612   2.652   4.046   3.016
    1C        C  613   2.692   4.107   3.137
    1C        C  614   2.586   3.923   3.264
    1C        C  615   2.655   4.047   3.260
    1C        C  616   2.562   3.862   3.389
    1C        C  617   2.593   3.928   3.510
    1C        C  618   2.524   3.729   3.635
    1C        C  619   2.559   3.866   3.632
    1C        C  620   2.517   3.661   3.758
    1C        C  621   2.531   3.732   3.879
    1C        C  622   2.512   3.524   4.007
    1C        C  623   2.521   3.665   4.003
    1C        C  624   2.511   3.454   4.130
    1C        C  625   2.509   3.529   4.250
    1C        C  626   2.533   3.320   4.376
    1C        C  627   2.514   3.460   4.373
    1C        C  628   2.553   3.251   4.498
    1C        C  629   2.533   3.323   4.618
    1C        C  630   2.595   3.118   4.742
    1C        C  631   2.548   3.252   4.739
    1C        C  632   2.614   3.048   4.864
    1C        C  633   2.564   3.112   4.982
    1C        C  634   2.779   4.298   2.051
    1C        C  635   2.891   4.383   2.047
    1C        C  636   2.747   4.225   2.166
    1C        C  637   2.808   4.273   2.284
    1C        C  638   2.673   4.108   2.408
    1C        C  639   2.761   4.219   2.406
    1C        C  640   2.638   4.044   2.529
    1C        C  641   2.680   4.105   2.650
    1C        C  642   2.584   3.918   2.775
    1C        C  643   2.642   4.047   2.773
    1C        C  644   2.560   3.853   2.899
    1C        C  645   2.585   3.922   3.019
    1C        C  646   2.520   3.722   3.145
    1C        C  647   2.555   3.859   3.142
    1C        C  648   2.514   3.653   3.269
    1C        C  649   2.530   3.724   3.390
    1C        C  650   2.507   3.516   3.515
    1C        C  651   2.516   3.657   3.513
    1C        C  652   2.510   3.447   3.639
    1C        C  653   2.510   3.519   3.760
    1C        C  654   2.538   3.313   3.888
    1C        C  655   2.513   3.453   3.885
    1C        C  656   2.555   3.247   4.011
    1C        C  657   2.531   3.314   4.133
    1C        C  658   2.604   3.117   4.254
    1C        C  659   2.551   3.248   4.256
    1C        C  660   2.638   3.055   4.377
    1C        C  661   2.605   3.120   4.498
    1C        C  662   2.706   2.935   4.624
    1C        C  663   2.631   3.055   4.621
    1C        C  664   2.744   2.873   4.745
    1C        C  665   2.693   2.929   4.865
    1C        C  666   2.738   2.866   4.982
    1C        C  667   2.672   4.021   2.052
    1C        C  668   2.677   4.103   2.166
    1C        C  669   2.588   3.910   2.289
    1C        C  670   2.639   4.043   2.288
    1C        C  671   2.555   3.847   2.411
    1C        C  672   2.582   3.914   2.532
    1C        C  673   2.512   3.716   2.658
    1C        C  674   2.553   3.851   2.655
    1C        C  675   2.504   3.646   2.780
    1C        C  676   2.526   3.716   2.902
    1C        C  677   2.505   3.507   3.027
    1C        C  678   2.514   3.648   3.025
    1C        C  679   2.507   3.437   3.150
    1C        C  680   2.502   3.512   3.269
    1C        C  681   2.529   3.306   3.399
    1C        C  682   2.504   3.445   3.393
    1C        C  683   2.557   3.242   3.521
    1C        C  684   2.536   3.308   3.644
    1C        C  685   2.599   3.108   3.767
    1C        C  686   2.550   3.240   3.767
    1C        C  687   2.632   3.049   3.891
    1C        C  688   2.598   3.112   4.013
    1C        C  689   2.711   2.931   4.137
    1C        C  690   2.633   3.049   4.134
    1C        C  691   2.751   2.873   4.259
    1C        C  692   2.713   2.936   4.380
    1C        C  693   2.755   2.881   4.503
    1C        C  694   2.625   3.889   2.056
    1C        C  695   2.523   3.700   2.172
    1C        C  696   2.571   3.833   2.172
    1C        C  697   2.496   3.639   2.297
    1C        C  698   2.512   3.712   2.416
    1C        C  699   2.488   3.501   2.540
    1C        C  700   2.499   3.642   2.538
    1C        C  701   2.503   3.433   2.663
    1C        C  702   2.498   3.505   2.784
    1C        C  703   2.538   3.297   2.908
    1C        C  704   2.507   3.435   2.906
    1C        C  705   2.552   3.230   3.031
    1C        C  706   2.531   3.297   3.153
    1C        C  707   2.595   3.102   3.276
    1C        C  708   2.543   3.233   3.278
    1C        C  709   2.630   3.042   3.399
    1C        C  710   2.607   3.110   3.521
    1C        C  711   2.711   2.928   3.647
    1C        C  712   2.634   3.047   3.644
    1C        C  713   2.756   2.874   3.769
    1C        C  714   2.713   2.933   3.890
    1C        C  715   2.755   2.878   4.013
    1C        C  716   2.442   3.494   2.061
    1C        C  717   2.493   3.625   2.058
    1C        C  718   2.459   3.420   2.183
    1C        C  719   2.473   3.499   2.300
    1C        C  720   2.513   3.288   2.421
    1C        C  721   2.480   3.426   2.421
    1C        C  722   2.540   3.222   2.543
    1C        C  723   2.525   3.293   2.664
    1C        C  724   2.595   3.093   2.785
    1C        C  725   2.545   3.226   2.786
    1C        C  726   2.625   3.033   2.909
    1C        C  727   2.599   3.096   3.032
    1C        C  728   2.704   2.917   3.156
    1C        C  729   2.626   3.034   3.156
    1C        C  730   2.751   2.865   3.279
    1C        C  731   2.710   2.925   3.400
    1C        C  732   2.751   2.870   3.524
    1C        C  733   2.483   3.195   2.069
    1C        C  734   2.487   3.280   2.181
    1C        C  735   2.585   3.086   2.299
    1C        C  736   2.526   3.215   2.301
    1C        C  737   2.619   3.021   2.420
    1C        C  738   2.594   3.091   2.540
    1C        C  739   2.694   2.906   2.669
    1C        C  740   2.623   3.028   2.663
    1C        C  741   2.739   2.849   2.790
    1C        C  742   2.699   2.913   2.909
    1C        C  743   2.744   2.860   3.033
    1C        C  744   2.532   3.065   2.074
    1C        C  745   2.680   2.891   2.182
    1C        C  746   2.602   3.009   2.181
    1C        C  747   2.725   2.835   2.304
    1C        C  748   2.683   2.896   2.424
    1C        C  749   2.733   2.846   2.546
    1C        C  750   2.731   2.833   2.066
    1C        C  751   3.642   2.291   1.999
    1C        O  752   3.656   2.173   2.041
    1C        O  753   3.676   2.297   1.864
    1C        C  754   4.639   3.055   1.988
    1C        O  755   4.643   3.055   1.862
    1C        O  756   4.757   3.025   2.057
    1C        C  757   4.451   4.216   1.960
    1C        O  758   4.526   4.305   2.008
    1C        O  759   4.442   4.219   1.820
    1C        C  760   3.590   4.689   1.966
    1C        O  761   3.592   4.799   2.028
    1C        O  762   3.530   4.695   1.839
    1C        C  763   2.863   4.497   1.957
    1C        O  764   2.839   4.487   1.834
    1C        O  765   2.837   4.623   2.014
    1C        C  766   2.322   3.480   1.977
    1C        O  767   2.334   3.422   1.866
    1C        O  768   2.212   3.565   1.993
    1C        C  769   4.694   3.594   5.048
    1C        O  770   4.692   3.542   5.163
    1C        O  771   4.819   3.611   4.988
    1C        C  772   4.273   4.440   5.037
    1C        O  773   4.278   4.409   5.159
    1C        O  774   4.364   4.538   4.994
    1C        C  775   4.148   2.488   5.045
    1C        O  776   4.226   2.410   4.983
    1C        O  777   4.178   2.502   5.181
    1C        C  778   2.892   4.530   5.063
    1C        O  779   2.865   4.646   5.024
    1C        O  780   2.905   4.494   5.198
    1C        C  781   2.471   3.052   5.081
    1C        O  782   2.349   3.032   5.057
    1C        O  783   2.494   3.037   5.217
    1C        C  784   2.406   4.007   5.038
    1C        O  785   2.320   4.093   5.005
    1C        O  786   2.412   3.981   5.176
    1C        C  787   2.949   2.405   2.015
    1C        O  788   2.901   2.428   1.901
    1C        O  789   2.952   2.269   2.045
    1C        C  790   3.195   2.376   5.061
    1C        O  791   3.139   2.271   5.021
    1C        O  792   3.167   2.401   5.196
    1C        H  793   4.259   3.034   5.040
    1C        H  794   4.165   2.813   5.063
    1C        H  795   4.514   3.120   5.051
    1C        H  796   4.577   3.346   5.051
    1C        H  797   4.580   3.819   5.022
    1C        H  798   4.412   3.962   5.050
    1C        H  799   4.244   4.136   5.034
    1C        H  800   4.048   4.561   5.006
    1C        H  801   3.820   4.636   5.021
    1C        H  802   3.586   4.640   5.029
    1C        H  803   3.391   4.501   5.045
    1C        H  804   3.151   4.526   5.046
    1C        H  805   3.889   2.474   5.059
    1C        H  806   3.675   2.435   5.066
    1C        H  807   3.016   2.579   5.072
    1C        H  808   3.439   2.423   5.059
    1C        H  809   2.896   2.763   5.074
    1C        H  810   2.694   2.882   5.078
    1C        H  811   2.527   3.294   5.074
    1C        H  812   2.529   3.497   5.072
    1C        H  813   2.578   3.727   5.054
    1C        H  814   2.598   4.168   5.052
    1C        H  815   2.749   4.317   5.051
    1C        H  816   2.699   2.871   1.971
    1C        H  817   2.833   2.664   1.981
    1C        H  818   3.199   2.401   1.995
    1C        H  819   3.417   2.382   1.993
    1C        H  820   3.878   2.471   1.980
    1C        H  821   4.031   2.662   1.969
    1C        H  822   4.278   2.699   1.987
    1C        H  823   4.370   2.929   1.965
    1C        H  824   4.569   3.309   1.969
    1C        H  825   4.538   3.510   1.958
    1C        H  826   4.502   3.742   1.950
    1C        H  827   3.808   4.527   1.954
    1C        H  828   3.968   4.379   1.943
    1C        H  829   4.191   4.292   1.956
    1C        H  830   4.467   3.952   1.954
    1C        H  831   2.679   3.816   2.000
    1C        H  832   2.727   4.050   1.965
    1C        H  833   2.730   4.275   1.959
    1C        H  834   3.382   4.449   1.951
    1C        H  835   3.137   4.439   1.957
    1C        H  836   2.491   2.997   2.002
    1C        H  837   2.414   3.219   1.991
    1C        H  838   2.537   3.652   1.964
    2V3OU   H29  839   2.797   3.545   1.597
    2V3OU   C27  840   2.782   3.501   1.699
    2V3OU   H27  841   2.719   3.574   1.755
    2V3OU   H28  842   2.724   3.405   1.695
    2V3OU   O11  843   2.906   3.479   1.767
    2V3OU   C15  844   2.917   3.396   1.876
    2V3OU   C13  845   3.046   3.375   1.929
    2V3OU   C14  846   3.073   3.269   2.017
    2V3OU   C16  847   2.969   3.185   2.052
    2V3OU    H6  848   2.988   3.100   2.120
    2V3OU   C12  849   3.210   3.226   2.053
    2V3OU    O2  850   3.237   3.129   2.126
    2V3OU   C10  851   3.322   3.307   2.002
    2V3OU    C8  852   3.454   3.271   2.027
    2V3OU   O10  853   3.487   3.158   2.095
    2V3OU   H26  854   3.407   3.112   2.127
    2V3OU    C6  855   3.560   3.351   1.974
    2V3OU    C5  856   3.537   3.465   1.897
    2V3OU    C4  857   3.697   3.292   1.967
    2V3OU    H4  858   3.720   3.219   2.050
    2V3OU    H5  859   3.703   3.225   1.876
    2V3OU    C2  860   3.810   3.395   1.960
    2V3OU    O6  861   3.810   3.476   2.077
    2V3OU   H21  862   3.758   3.556   2.063
    2V3OU    C3  863   3.779   3.492   1.845
    2V3OU    H2  864   3.863   3.566   1.847
    2V3OU    H3  865   3.785   3.433   1.750
    2V3OU   C25  866   3.946   3.325   1.944
    2V3OU    O7  867   3.998   3.298   1.835
    2V3OU   C26  868   4.024   3.288   2.068
    2V3OU   H22  869   4.065   3.378   2.120
    2V3OU   H23  870   4.113   3.226   2.039
    2V3OU    O8  871   3.959   3.207   2.163
    2V3OU   H24  872   3.921   3.267   2.230
    2V3OU    C1  873   3.644   3.561   1.856
    2V3OU    H1  874   3.625   3.615   1.758
    2V3OU    O3  875   3.662   3.657   1.960
    2V3OU   C19  876   3.616   3.793   1.948
    2V3OU    H9  877   3.513   3.797   1.903
    2V3OU    O4  878   3.713   3.848   1.861
    2V3OU   C20  879   3.842   3.863   1.921
    2V3OU   H10  880   3.903   3.769   1.928
    2V3OU   C24  881   3.608   3.854   2.088
    2V3OU   H16  882   3.542   3.790   2.152
    2V3OU   H17  883   3.562   3.956   2.080
    2V3OU   C23  884   3.748   3.873   2.146
    2V3OU   H15  885   3.787   3.769   2.170
    2V3OU    N1  886   3.735   3.946   2.270
    2V3OU   H19  887   3.811   3.929   2.332
    2V3OU   H20  888   3.651   3.932   2.323
    2V3OU   C21  889   3.850   3.944   2.050
    2V3OU   H11  890   3.949   3.930   2.102
    2V3OU    O5  891   3.821   4.083   2.048
    2V3OU   H18  892   3.783   4.101   2.136
    2V3OU   C22  893   3.909   3.947   1.813
    2V3OU   H12  894   3.861   4.048   1.809
    2V3OU   H13  895   3.897   3.896   1.714
    2V3OU   H14  896   4.019   3.953   1.831
    2V3OU   C11  897   3.157   3.466   1.897
    2V3OU    O1  898   3.131   3.588   1.897
    2V3OU    C9  899   3.296   3.426   1.930
    2V3OU    C7  900   3.400   3.501   1.877
    2V3OU    O9  901   3.386   3.608   1.792
    2V3OU   H25  902   3.293   3.634   1.805
    2V3OU   C17  903   2.810   3.313   1.916
    2V3OU    H7  904   2.709   3.334   1.881
    2V3OU   C18  905   2.841   3.210   2.004
    2V3OU    H8  906   2.752   3.152   2.032
    3SOL     OW  907   2.286   3.939   0.979
    3SOL    HW1  908   2.193   3.971   0.998
    3SOL    HW2  909   2.299   3.849   1.021
    4SOL     OW  910   6.959   5.840   1.873
    4SOL    HW1  911   6.960   5.890   1.786
    4SOL    HW2  912   7.005   5.752   1.862
    5SOL     OW  913   3.998   1.498   2.038
    5SOL    HW1  914   3.946   1.571   1.994
    5SOL    HW2  915   4.032   1.530   2.126
    6SOL     OW  916   3.589   2.098   2.287
    6SOL    HW1  917   3.666   2.120   2.346
    6SOL    HW2  918   3.610   2.125   2.193
    7SOL     OW  919   6.404   2.587   1.739
    7SOL    HW1  920   6.326   2.581   1.676
    7SOL    HW2  921   6.460   2.505   1.729
    8SOL     OW  922   2.265   6.690   5.340
    8SOL    HW1  923   2.203   6.748   5.287
    8SOL    HW2  924   2.359   6.718   5.325
    9SOL     OW  925   1.347   5.599   5.745
    9SOL    HW1  926   1.346   5.544   5.829
    9SOL    HW2  927   1.278   5.564   5.681
   10SOL     OW  928   0.364   4.080   5.981
   10SOL    HW1  929   0.451   4.116   5.949
   10SOL    HW2  930   0.373   4.047   6.075
   11SOL     OW  931   2.991   0.311   0.456
   11SOL    HW1  932   3.011   0.298   0.553
   11SOL    HW2  933   2.894   0.295   0.439
   12SOL     OW  934   4.711   6.327   3.296
   12SOL    HW1  935   4.630   6.360   3.247
   12SOL    HW2  936   4.704   6.228   3.308
   13SOL     OW  937   3.340   6.191   4.350
   13SOL    HW1  938   3.249   6.172   4.388
   13SOL    HW2  939   3.374   6.110   4.303
   14SOL     OW  940   3.829   5.941   6.104
   14SOL    HW1  941   3.794   5.847   6.099
   14SOL    HW2  942   3.863   5.958   6.196
   15SOL     OW  943   1.546   5.960   0.237
   15SOL    HW1  944   1.618   5.920   0.180
   15SOL    HW2  945   1.560   5.932   0.332
   16SOL     OW  946   6.494   1.925   5.761
   16SOL    HW1  947   6.476   1.938   5.663
   16SOL    HW2  948   6.423   1.866   5.800
   17SOL     OW  949   5.351   6.089   4.627
   17SOL    HW1  950   5.320   6.082   4.532
   17SOL    HW2  951   5.298   6.159   4.675
   18SOL     OW  952   2.948   2.415   6.593
   18SOL    HW1  953   2.970   2.495   6.537
   18SOL    HW2  954   3.014   2.342   6.572
   19SOL     OW  955   0.218   6.800   3.265
   19SOL    HW1  956   0.186   6.895   3.260
   19SOL    HW2  957   0.172   6.753   3.340
   20SOL     OW  958   3.339   0.788   4.177
   20SOL    HW1  959   3.323   0.885   4.163
   20SOL    HW2  960   3.339   0.740   4.089
   21SOL     OW  961   2.884   1.720   2.463
   21SOL    HW1  962   2.946   1.650   2.500
   21SOL    HW2  963   2.790   1.685   2.464
   22SOL     OW  964   1.753   0.421   0.147
   22SOL    HW1  965   1.679   0.363   0.113
   22SOL    HW2  966   1.814   0.443   0.071
   23SOL     OW  967   4.337   6.789   3.421
   23SOL    HW1  968   4.397   6.813   3.497
   23SOL    HW2  969   4.331   6.690   3.413
   24SOL     OW  970   5.027   1.220   4.557
   24SOL    HW1  971   5.026   1.231   4.458
   24SOL    HW2  972   5.032   1.310   4.601
   25SOL     OW  973   3.022   5.791   6.138
   25SOL    HW1  974   3.016   5.889   6.120
   25SOL    HW2  975   3.083   5.774   6.216
   26SOL     OW  976   6.140   1.349   1.325
   26SOL    HW1  977   6.146   1.313   1.232
   26SOL    HW2  978   6.216   1.412   1.342
   27SOL     OW  979   0.098   0.705   2.416
   27SOL    HW1  980   0.034   0.748   2.479
   27SOL    HW2  981   0.048   0.656   2.345
   28SOL     OW  982   4.732   0.768   6.799
   28SOL    HW1  983   4.647   0.772   6.747
   28SOL    HW2  984   4.747   0.855   6.846
   29SOL     OW  985   4.886   2.619   2.057
   29SOL    HW1  986   4.972   2.615   2.006
   29SOL    HW2  987   4.827   2.543   2.029
   30SOL     OW  988   2.786   6.893   5.738
   30SOL    HW1  989   2.763   6.969   5.676
   30SOL    HW2  990   2.826   6.819   5.685
   31SOL     OW  991   0.624   1.295   5.596
   31SOL    HW1  992   0.652   1.384   5.559
   31SOL    HW2  993   0.704   1.234   5.598
   32SOL     OW  994   0.252   2.543   2.861
   32SOL    HW1  995   0.316   2.471   2.833
   32SOL    HW2  996   0.215   2.521   2.952
   33SOL     OW  997   1.890   2.832   6.116
   33SOL    HW1  998   1.842   2.797   6.035
   33SOL    HW2  999   1.857   2.924   6.137
   34SOL     OW 1000   1.678   0.393   4.808
   34SOL    HW1 1001   1.712   0.455   4.879
   34SOL    HW2 1002   1.712   0.301   4.825
   35SOL     OW 1003   4.552   2.617   6.326
   35SOL    HW1 1004   4.545   2.706   6.282
   35SOL    HW2 1005   4.545   2.545   6.257
   36SOL     OW 1006   0.580   0.576   6.349
   36SOL    HW1 1007   0.592   0.673   6.330
   36SOL    HW2 1008   0.525   0.534   6.276
   37SOL     OW 1009   2.447   6.674   0.907
   37SOL    HW1 1010   2.472   6.578   0.921
   37SOL    HW2 1011   2.435   6.719   0.995
   38SOL     OW 1012   0.446   5.932   3.013
   38SOL    HW1 1013   0.417   5.927   3.109
   38SOL    HW2 1014   0.381   5.988   2.962
   39SOL     OW 1015   6.380   4.009   6.292
   39SOL    HW1 1016   6.391   3.919   6.334
   39SOL    HW2 1017   6.391   4.080   6.362
   40SOL     OW 1018   6.376   2.452   2.369
   40SOL    HW1 1019   6.373   2.541   2.324
   40SOL    HW2 1020   6.321   2.455   2.452
   41SOL     OW 1021   1.639   6.430   4.329
   41SOL    HW1 1022   1.601   6.475   4.409
   41SOL    HW2 1023   1.578   6.443   4.251
   42SOL     OW 1024   2.891   6.753   6.046
   42SOL    HW1 1025   2.934   6.836   6.010
   42SOL    HW2 1026   2.936   6.727   6.132
   43SOL     OW 1027   5.835   5.909   6.194
   43SOL    HW1 1028   5.800   5.845   6.261
   43SOL    HW2 1029   5.875   5.859   6.117
   44SOL     OW 1030   6.733   2.763   6.357
   44SOL    HW1 1031   6.662   2.811   6.409
   44SOL    HW2 1032   6.752   2.674   6.400
   45SOL     OW 1033   3.652   0.291   2.994
   45SOL    HW1 1034   3.670   0.205   3.043
   45SOL    HW2 1035   3.702   0.365   3.038
   46SOL     OW 1036   0.856   3.791   4.404
   46SOL    HW1 1037   0.786   3.735   4.448
   46SOL    HW2 1038   0.919   3.732   4.352
   47SOL     OW 1039   5.920   3.251   3.537
   47SOL    HW1 1040   5.916   3.298   3.626
   47SOL    HW2 1041   6.016   3.245   3.508
   48SOL     OW 1042   0.930   2.335   4.907
   48SOL    HW1 1043   0.861   2.403   4.934
   48SOL    HW2 1044   0.884   2.252   4.877
   49SOL     OW 1045   4.689   3.937   1.702
   49SOL    HW1 1046   4.669   4.021   1.653
   49SOL    HW2 1047   4.729   3.959   1.791
   50SOL     OW 1048   6.679   2.869   4.714
   50SOL    HW1 1049   6.684   2.814   4.797
   50SOL    HW2 1050   6.695   2.965   4.736
   51SOL     OW 1051   2.862   5.595   2.821
   51SOL    HW1 1052   2.932   5.528   2.847
   51SOL    HW2 1053   2.904   5.686   2.816
   52SOL     OW 1054   3.962   1.539   3.664
   52SOL    HW1 1055   3.965   1.620   3.605
   52SOL    HW2 1056   3.971   1.566   3.760
   53SOL     OW 1057   4.356   0.723   3.665
   53SOL    HW1 1058   4.380   0.710   3.569
   53SOL    HW2 1059   4.422   0.675   3.723
   54SOL     OW 1060   2.746   5.042   6.320
   54SOL    HW1 1061   2.690   4.979   6.265
   54SOL    HW2 1062   2.703   5.132   6.322
   55SOL     OW 1063   3.825   1.492   6.109
   55SOL    HW1 1064   3.830   1.578   6.159
   55SOL    HW2 1065   3.732   1.454   6.116
   56SOL     OW 1066   1.718   0.627   1.646
   56SOL    HW1 1067   1.818   0.634   1.637
   56SOL    HW2 1068   1.689   0.535   1.618
   57SOL     OW 1069   5.066   0.431   0.705
   57SOL    HW1 1070   5.164   0.447   0.720
   57SOL    HW2 1071   5.054   0.355   0.642
   58SOL     OW 1072   0.419   5.606   6.376
   58SOL    HW1 1073   0.376   5.617   6.465
   58SOL    HW2 1074   0.517   5.622   6.384
   59SOL     OW 1075   1.909   1.063   6.138
   59SOL    HW1 1076   1.949   0.980   6.177
   59SOL    HW2 1077   1.810   1.064   6.157
   60SOL     OW 1078   5.139   0.683   5.806
   60SOL    HW1 1079   5.175   0.633   5.727
   60SOL    HW2 1080   5.200   0.758   5.828
   61SOL     OW 1081   5.062   1.071   4.065
   61SOL    HW1 1082   4.981   1.051   4.010
   61SOL    HW2 1083   5.144   1.049   4.013
   62SOL     OW 1084   0.734   1.150   3.669
   62SOL    HW1 1085   0.810   1.208   3.698
   62SOL    HW2 1086   0.675   1.201   3.606
   63SOL     OW 1087   6.637   1.797   3.727
   63SOL    HW1 1088   6.644   1.804   3.628
   63SOL    HW2 1089   6.727   1.780   3.766
   64SOL     OW 1090   6.714   3.688   6.415
   64SOL    HW1 1091   6.750   3.781   6.404
   64SOL    HW2 1092   6.789   3.626   6.440
   65SOL     OW 1093   6.219   4.080   5.491
   65SOL    HW1 1094   6.295   4.016   5.498
   65SOL    HW2 1095   6.254   4.173   5.479
   66SOL     OW 1096   3.265   0.838   6.704
   66SOL    HW1 1097   3.284   0.867   6.797
   66SOL    HW2 1098   3.216   0.751   6.705
   67SOL     OW 1099   5.599   5.968   5.517
   67SOL    HW1 1100   5.671   6.029   5.551
   67SOL    HW2 1101   5.611   5.954   5.419
   68SOL     OW 1102   6.142   0.946   6.612
   68SOL    HW1 1103   6.106   0.884   6.682
   68SOL    HW2 1104   6.198   1.017   6.655
   69SOL     OW 1105   1.453   4.253   6.181
   69SOL    HW1 1106   1.522   4.315   6.219
   69SOL    HW2 1107   1.497   4.190   6.117
   70SOL     OW 1108   6.420   5.671   3.175
   70SOL    HW1 1109   6.336   5.705   3.134
   70SOL    HW2 1110   6.483   5.747   3.190
   71SOL     OW 1111   3.096   2.169   3.021
   71SOL    HW1 1112   3.146   2.162   2.934
   71SOL    HW2 1113   3.000   2.191   3.002
   72SOL     OW 1114   2.412   6.306   4.582
   72SOL    HW1 1115   2.443   6.228   4.637
   72SOL    HW2 1116   2.490   6.348   4.536
   73SOL     OW 1117   3.258   2.144   0.080
   73SOL    HW1 1118   3.344   2.195   0.087
   73SOL    HW2 1119   3.234   2.106   0.169
   74SOL     OW 1120   5.258   6.587   0.374
   74SOL    HW1 1121   5.319   6.648   0.323
   74SOL    HW2 1122   5.177   6.566   0.318
   75SOL     OW 1123   3.412   5.354   5.374
   75SOL    HW1 1124   3.464   5.388   5.295
   75SOL    HW2 1125   3.475   5.309   5.437
   76SOL     OW 1126   1.884   2.558   1.353
   76SOL    HW1 1127   1.961   2.592   1.300
   76SOL    HW2 1128   1.917   2.510   1.435
   77SOL     OW 1129   4.695   5.442   4.471
   77SOL    HW1 1130   4.690   5.402   4.379
   77SOL    HW2 1131   4.701   5.369   4.539
   78SOL     OW 1132   0.064   6.465   6.101
   78SOL    HW1 1133   0.061   6.427   6.193
   78SOL    HW2 1134   6.993   6.454   6.057
   79SOL     OW 1135   2.721   6.782   0.392
   79SOL    HW1 1136   2.802   6.777   0.450
   79SOL    HW2 1137   2.746   6.822   0.303
   80SOL     OW 1138   6.006   0.660   4.522
   80SOL    HW1 1139   6.064   0.742   4.514
   80SOL    HW2 1140   5.963   0.642   4.433
   81SOL     OW 1141   2.262   0.283   2.778
   81SOL    HW1 1142   2.187   0.339   2.814
   81SOL    HW2 1143   2.237   0.186   2.786
   82SOL     OW 1144   6.882   5.514   0.180
   82SOL    HW1 1145   6.791   5.480   0.156
   82SOL    HW2 1146   6.920   5.459   0.254
   83SOL     OW 1147   6.522   0.073   0.692
   83SOL    HW1 1148   6.578   7.010   0.676
   83SOL    HW2 1149   6.542   0.142   0.622
   84SOL     OW 1150   4.920   3.530   2.910
   84SOL    HW1 1151   4.956   3.572   2.827
   84SOL    HW2 1152   4.893   3.436   2.891
   85SOL     OW 1153   0.409   1.631   5.173
   85SOL    HW1 1154   0.417   1.730   5.176
   85SOL    HW2 1155   0.484   1.590   5.225
   86SOL     OW 1156   0.919   0.637   5.856
   86SOL    HW1 1157   1.018   0.653   5.859
   86SOL    HW2 1158   0.892   0.580   5.934
   87SOL     OW 1159   4.685   2.916   0.526
   87SOL    HW1 1160   4.627   2.859   0.584
   87SOL    HW2 1161   4.664   2.900   0.430
   88SOL     OW 1162   4.557   2.111   0.411
   88SOL    HW1 1163   4.471   2.060   0.408
   88SOL    HW2 1164   4.555   2.184   0.342
   89SOL     OW 1165   1.926   2.903   6.835
   89SOL    HW1 1166   1.871   2.975   6.879
   89SOL    HW2 1167   2.011   2.943   6.800
   90SOL     OW 1168   4.939   0.206   3.893
   90SOL    HW1 1169   4.927   0.157   3.980
   90SOL    HW2 1170   4.869   0.277   3.885
   91SOL     OW 1171   4.605   4.465   4.021
   91SOL    HW1 1172   4.565   4.474   4.112
   91SOL    HW2 1173   4.645   4.552   3.993
   92SOL     OW 1174   3.018   5.177   0.358
   92SOL    HW1 1175   3.021   5.123   0.442
   92SOL    HW2 1176   2.997   5.117   0.280
   93SOL     OW 1177   2.376   4.302   6.101
   93SOL    HW1 1178   2.402   4.396   6.124
   93SOL    HW2 1179   2.279   4.299   6.079
   94SOL     OW 1180   2.635   5.630   6.577
   94SOL    HW1 1181   2.705   5.649   6.507
   94SOL    HW2 1182   2.544   5.637   6.536
   95SOL     OW 1183   0.592   2.254   3.402
   95SOL    HW1 1184   0.591   2.185   3.330
   95SOL    HW2 1185   0.539   2.220   3.480
   96SOL     OW 1186   2.782   0.195   6.039
   96SOL    HW1 1187   2.854   0.260   6.065
   96SOL    HW2 1188   2.784   0.181   5.940
   97SOL     OW 1189   6.980   4.192   5.443
   97SOL    HW1 1190   0.005   4.230   5.361
   97SOL    HW2 1191   7.005   4.095   5.452
   98SOL     OW 1192   6.488   3.686   6.924
   98SOL    HW1 1193   6.447   3.713   6.837
   98SOL    HW2 1194   6.570   3.631   6.906
   99SOL     OW 1195   4.545   3.533   1.332
   99SOL    HW1 1196   4.606   3.485   1.395
   99SOL    HW2 1197   4.488   3.597   1.384
  100SOL     OW 1198   0.515   0.032   6.259
  100SOL    HW1 1199   0.511   6.974   6.325
  100SOL    HW2 1200   0.430   0.084   6.264
  101SOL     OW 1201   0.896   5.690   2.277
  101SOL    HW1 1202   0.972   5.734   2.326
  101SOL    HW2 1203   0.827   5.758   2.256
  102SOL     OW 1204   4.926   1.179   2.361
  102SOL    HW1 1205   4.852   1.228   2.314
  102SOL    HW2 1206   4.894   1.089   2.390
  103SOL     OW 1207   4.314   1.611   1.878
  103SOL    HW1 1208   4.346   1.671   1.805
  103SOL    HW2 1209   4.222   1.577   1.855
  104SOL     OW 1210   0.047   5.560   2.656
  104SOL    HW1 1211   0.123   5.495   2.662
  104SOL    HW2 1212   0.059   5.618   2.575
  105SOL     OW 1213   6.406   1.682   6.747
  105SOL    HW1 1214   6.307   1.670   6.752
  105SOL    HW2 1215   6.441   1.705   6.838
  106SOL     OW 1216   3.134   0.083   6.122
  106SOL    HW1 1217   3.082   0.024   6.062
  106SOL    HW2 1218   3.161   0.033   6.204
  107SOL     OW 1219   1.709   2.191   1.686
  107SOL    HW1 1220   1.698   2.265   1.752
  107SOL    HW2 1221   1.803   2.158   1.688
  108SOL     OW 1222   5.107   4.646   6.973
  108SOL    HW1 1223   5.096   4.601   6.884
  108SOL    HW2 1224   5.024   4.699   6.993
  109SOL     OW 1225   0.456   0.295   1.259
  109SOL    HW1 1226   0.500   0.254   1.179
  109SOL    HW2 1227   0.472   0.394   1.258
  110SOL     OW 1228   4.034   6.234   5.353
  110SOL    HW1 1229   4.071   6.277   5.271
  110SOL    HW2 1230   3.961   6.291   5.391
  111SOL     OW 1231   3.828   0.748   4.127
  111SOL    HW1 1232   3.733   0.738   4.158
  111SOL    HW2 1233   3.889   0.745   4.206
  112SOL     OW 1234   6.165   5.947   6.267
  112SOL    HW1 1235   6.145   5.986   6.357
  112SOL    HW2 1236   6.106   5.868   6.251
  113SOL     OW 1237   6.718   4.848   3.364
  113SOL    HW1 1238   6.815   4.845   3.388
  113SOL    HW2 1239   6.707   4.838   3.265
  114SOL     OW 1240   0.892   0.042   0.434
  114SOL    HW1 1241   0.904   6.998   0.357
  114SOL    HW2 1242   0.811   0.015   0.486
  115SOL     OW 1243   4.587   1.219   4.172
  115SOL    HW1 1244   4.641   1.147   4.216
  115SOL    HW2 1245   4.505   1.236   4.227
  116SOL     OW 1246   5.906   5.742   2.324
  116SOL    HW1 1247   5.839   5.801   2.278
  116SOL    HW2 1248   5.984   5.797   2.354
  117SOL     OW 1249   0.646   1.334   6.479
  117SOL    HW1 1250   0.558   1.313   6.437
  117SOL    HW2 1251   0.631   1.374   6.569
  118SOL     OW 1252   0.206   1.778   2.290
  118SOL    HW1 1253   0.141   1.713   2.250
  118SOL    HW2 1254   0.297   1.761   2.252
  119SOL     OW 1255   0.880   2.599   6.628
  119SOL    HW1 1256   0.917   2.561   6.543
  119SOL    HW2 1257   0.929   2.561   6.706
  120SOL     OW 1258   0.065   6.691   0.898
  120SOL    HW1 1259   7.008   6.755   0.888
  120SOL    HW2 1260   0.069   6.658   0.992
  121SOL     OW 1261   2.661   3.465   0.310
  121SOL    HW1 1262   2.614   3.391   0.261
  121SOL    HW2 1263   2.664   3.547   0.253
  122SOL     OW 1264   1.233   4.306   6.009
  122SOL    HW1 1265   1.305   4.289   6.076
  122SOL    HW2 1266   1.248   4.250   5.928
  123SOL     OW 1267   0.368   1.853   1.653
  123SOL    HW1 1268   0.387   1.756   1.664
  123SOL    HW2 1269   0.453   1.901   1.629
  124SOL     OW 1270   5.441   3.404   0.295
  124SOL    HW1 1271   5.442   3.477   0.363
  124SOL    HW2 1272   5.477   3.439   0.208
  125SOL     OW 1273   2.224   1.864   2.691
  125SOL    HW1 1274   2.159   1.791   2.714
  125SOL    HW2 1275   2.263   1.847   2.601
  126SOL     OW 1276   2.784   5.260   0.739
  126SOL    HW1 1277   2.830   5.190   0.685
  126SOL    HW2 1278   2.687   5.239   0.745
  127SOL     OW 1279   0.194   4.801   6.305
  127SOL    HW1 1280   0.288   4.768   6.316
  127SOL    HW2 1281   0.140   4.773   6.384
  128SOL     OW 1282   4.292   2.772   1.475
  128SOL    HW1 1283   4.345   2.826   1.540
  128SOL    HW2 1284   4.264   2.830   1.399
  129SOL     OW 1285   4.148   3.706   5.721
  129SOL    HW1 1286   4.206   3.624   5.722
  129SOL    HW2 1287   4.064   3.688   5.773
  130SOL     OW 1288   0.817   0.808   4.214
  130SOL    HW1 1289   0.856   0.861   4.139
  130SOL    HW2 1290   0.889   0.757   4.261
  131SOL     OW 1291   4.895   0.621   2.421
  131SOL    HW1 1292   4.853   0.671   2.496
  131SOL    HW2 1293   4.993   0.613   2.435
  132SOL     OW 1294   1.746   2.986   0.670
  132SOL    HW1 1295   1.825   2.997   0.730
  132SOL    HW2 1296   1.712   3.076   0.643
  133SOL     OW 1297   5.528   6.979   3.249
  133SOL    HW1 1298   5.463   6.955   3.177
  133SOL    HW2 1299   5.482   0.018   3.317
  134SOL     OW 1300   5.712   2.279   3.077
  134SOL    HW1 1301   5.669   2.189   3.083
  134SOL    HW2 1302   5.645   2.346   3.043
  135SOL     OW 1303   5.041   2.667   2.556
  135SOL    HW1 1304   5.056   2.604   2.480
  135SOL    HW2 1305   5.032   2.761   2.521
  136SOL     OW 1306   4.500   4.104   6.941
  136SOL    HW1 1307   4.419   4.066   6.985
  136SOL    HW2 1308   4.524   4.191   6.984
  137SOL     OW 1309   4.113   0.177   5.452
  137SOL    HW1 1310   4.067   0.131   5.529
  137SOL    HW2 1311   4.141   0.109   5.385
  138SOL     OW 1312   0.358   4.741   4.274
  138SOL    HW1 1313   0.381   4.838   4.282
  138SOL    HW2 1314   0.428   4.686   4.320
  139SOL     OW 1315   2.225   6.076   5.144
  139SOL    HW1 1316   2.292   6.005   5.162
  139SOL    HW2 1317   2.143   6.036   5.103
  140SOL     OW 1318   6.859   5.838   3.785
  140SOL    HW1 1319   6.948   5.816   3.745
  140SOL    HW2 1320   6.786   5.805   3.725
  141SOL     OW 1321   7.005   1.877   5.255
  141SOL    HW1 1322   0.009   1.972   5.235
  141SOL    HW2 1323   6.967   1.834   5.173
  142SOL     OW 1324   2.015   6.037   1.155
  142SOL    HW1 1325   1.921   6.069   1.146
  142SOL    HW2 1326   2.065   6.054   1.070
  143SOL     OW 1327   5.153   4.783   2.305
  143SOL    HW1 1328   5.132   4.746   2.396
  143SOL    HW2 1329   5.194   4.710   2.249
  144SOL     OW 1330   1.804   6.498   6.032
  144SOL    HW1 1331   1.720   6.454   6.000
  144SOL    HW2 1332   1.825   6.576   5.973
  145SOL     OW 1333   0.944   4.837   0.737
  145SOL    HW1 1334   1.002   4.831   0.655
  145SOL    HW2 1335   0.853   4.867   0.710
  146SOL     OW 1336   4.347   6.614   6.035
  146SOL    HW1 1337   4.403   6.605   6.117
  146SOL    HW2 1338   4.266   6.668   6.055
  147SOL     OW 1339   6.046   2.721   0.407
  147SOL    HW1 1340   6.046   2.806   0.460
  147SOL    HW2 1341   6.137   2.680   0.411
  148SOL     OW 1342   0.504   4.802   6.210
  148SOL    HW1 1343   0.491   4.756   6.298
  148SOL    HW2 1344   0.484   4.899   6.220
  149SOL     OW 1345   2.767   1.400   4.157
  149SOL    HW1 1346   2.783   1.315   4.207
  149SOL    HW2 1347   2.679   1.439   4.185
  150SOL     OW 1348   6.483   4.988   6.189
  150SOL    HW1 1349   6.547   5.036   6.129
  150SOL    HW2 1350   6.414   5.053   6.223
  151SOL     OW 1351   3.840   2.208   1.181
  151SOL    HW1 1352   3.856   2.143   1.256
  151SOL    HW2 1353   3.927   2.230   1.137
  152SOL     OW 1354   1.718   1.199   4.431
  152SOL    HW1 1355   1.713   1.298   4.436
  152SOL    HW2 1356   1.648   1.159   4.490
  153SOL     OW 1357   2.623   0.102   1.736
  153SOL    HW1 1358   2.620   0.201   1.754
  153SOL    HW2 1359   2.531   0.070   1.713
  154SOL     OW 1360   0.071   3.165   2.318
  154SOL    HW1 1361   0.122   3.230   2.261
  154SOL    HW2 1362   0.043   3.087   2.262
  155SOL     OW 1363   0.531   1.447   3.660
  155SOL    HW1 1364   0.566   1.393   3.736
  155SOL    HW2 1365   0.604   1.464   3.594
  156SOL     OW 1366   6.815   1.809   1.531
  156SOL    HW1 1367   6.792   1.741   1.600
  156SOL    HW2 1368   6.780   1.898   1.559
  157SOL     OW 1369   5.837   3.307   1.869
  157SOL    HW1 1370   5.860   3.233   1.806
  157SOL    HW2 1371   5.920   3.356   1.895
  158SOL     OW 1372   2.552   0.112   2.234
  158SOL    HW1 1373   2.597   0.029   2.265
  158SOL    HW2 1374   2.610   0.160   2.168
  159SOL     OW 1375   4.737   4.659   1.210
  159SOL    HW1 1376   4.758   4.648   1.113
  159SOL    HW2 1377   4.653   4.713   1.220
  160SOL     OW 1378   0.051   4.729   6.550
  160SOL    HW1 1379   0.070   4.728   6.649
  160SOL    HW2 1380   6.973   4.704   6.535
  161SOL     OW 1381   1.969   4.829   4.782
  161SOL    HW1 1382   1.924   4.876   4.858
  161SOL    HW2 1383   1.948   4.732   4.786
  162SOL     OW 1384   4.161   6.667   0.386
  162SOL    HW1 1385   4.133   6.762   0.395
  162SOL    HW2 1386   4.246   6.661   0.335
  163SOL     OW 1387   4.924   5.993   1.390
  163SOL    HW1 1388   4.850   5.956   1.447
  163SOL    HW2 1389   4.910   6.091   1.376
  164SOL     OW 1390   0.011   3.886   1.768
  164SOL    HW1 1391   0.042   3.959   1.706
  164SOL    HW2 1392   0.017   3.918   1.862
  165SOL     OW 1393   4.992   3.097   1.240
  165SOL    HW1 1394   4.965   3.002   1.256
  165SOL    HW2 1395   5.044   3.102   1.155
  166SOL     OW 1396   0.038   5.209   3.511
  166SOL    HW1 1397   0.003   5.241   3.423
  166SOL    HW2 1398   0.007   5.116   3.528
  167SOL     OW 1399   6.109   1.925   0.523
  167SOL    HW1 1400   6.143   1.867   0.597
  167SOL    HW2 1401   6.028   1.974   0.555
  168SOL     OW 1402   2.856   3.646   1.085
  168SOL    HW1 1403   2.807   3.597   1.156
  168SOL    HW2 1404   2.854   3.744   1.104
  169SOL     OW 1405   3.707   0.195   1.988
  169SOL    HW1 1406   3.653   0.130   1.933
  169SOL    HW2 1407   3.648   0.267   2.023
  170SOL     OW 1408   0.455   1.766   3.723
  170SOL    HW1 1409   0.358   1.792   3.717
  170SOL    HW2 1410   0.462   1.666   3.728
  171SOL     OW 1411   3.541   4.033   0.143
  171SOL    HW1 1412   3.614   4.060   0.081
  171SOL    HW2 1413   3.546   4.087   0.226
  172SOL     OW 1414   5.677   1.205   4.452
  172SOL    HW1 1415   5.729   1.247   4.378
  172SOL    HW2 1416   5.632   1.276   4.506
  173SOL     OW 1417   6.240   0.322   4.681
  173SOL    HW1 1418   6.271   0.414   4.704
  173SOL    HW2 1419   6.313   0.272   4.635
  174SOL     OW 1420   2.946   5.448   3.615
  174SOL    HW1 1421   2.890   5.381   3.664
  174SOL    HW2 1422   2.947   5.534   3.664
  175SOL     OW 1423   1.948   0.030   1.921
  175SOL    HW1 1424   1.998   0.061   2.002
  175SOL    HW2 1425   1.936   6.949   1.925
  176SOL     OW 1426   1.996   3.818   0.697
  176SOL    HW1 1427   2.039   3.807   0.787
  176SOL    HW2 1428   1.994   3.915   0.673
  177SOL     OW 1429   5.432   2.831   2.890
  177SOL    HW1 1430   5.511   2.781   2.853
  177SOL    HW2 1431   5.364   2.844   2.818
  178SOL     OW 1432   4.827   3.598   6.299
  178SOL    HW1 1433   4.924   3.590   6.324
  178SOL    HW2 1434   4.806   3.693   6.274
  179SOL     OW 1435   2.998   1.608   6.090
  179SOL    HW1 1436   3.083   1.604   6.038
  179SOL    HW2 1437   2.976   1.517   6.124
  180SOL     OW 1438   1.196   0.943   6.598
  180SOL    HW1 1439   1.279   0.889   6.606
  180SOL    HW2 1440   1.208   1.032   6.643
  181SOL     OW 1441   3.441   1.272   6.874
  181SOL    HW1 1442   3.383   1.354   6.874
  181SOL    HW2 1443   3.398   1.201   6.928
  182SOL     OW 1444   4.122   2.255   4.638
  182SOL    HW1 1445   4.041   2.301   4.673
  182SOL    HW2 1446   4.198   2.268   4.702
  183SOL     OW 1447   3.613   0.880   3.095
  183SOL    HW1 1448   3.595   0.964   3.043
  183SOL    HW2 1449   3.676   0.900   3.170
  184SOL     OW 1450   1.502   5.823   3.626
  184SOL    HW1 1451   1.463   5.799   3.537
  184SOL    HW2 1452   1.478   5.918   3.649
  185SOL     OW 1453   1.608   2.795   6.350
  185SOL    HW1 1454   1.596   2.753   6.260
  185SOL    HW2 1455   1.539   2.760   6.413
  186SOL     OW 1456   6.621   1.177   3.735
  186SOL    HW1 1457   6.682   1.097   3.738
  186SOL    HW2 1458   6.533   1.150   3.697
  187SOL     OW 1459   5.091   1.227   2.980
  187SOL    HW1 1460   5.060   1.207   3.073
  187SOL    HW2 1461   5.189   1.206   2.972
  188SOL     OW 1462   5.944   2.432   3.009
  188SOL    HW1 1463   5.961   2.454   3.105
  188SOL    HW2 1464   5.858   2.382   3.001
  189SOL     OW 1465   1.751   5.254   2.831
  189SOL    HW1 1466   1.742   5.340   2.881
  189SOL    HW2 1467   1.794   5.272   2.742
  190SOL     OW 1468   3.896   1.531   5.062
  190SOL    HW1 1469   3.906   1.545   5.160
  190SOL    HW2 1470   3.800   1.515   5.040
  191SOL     OW 1471   5.703   5.480   6.433
  191SOL    HW1 1472   5.732   5.460   6.526
  191SOL    HW2 1473   5.708   5.397   6.377
  192SOL     OW 1474   0.211   6.442   2.124
  192SOL    HW1 1475   0.275   6.437   2.047
  192SOL    HW2 1476   0.151   6.521   2.112
  193SOL     OW 1477   5.097   2.638   5.907
  193SOL    HW1 1478   5.038   2.636   5.987
  193SOL    HW2 1479   5.112   2.545   5.874
  194SOL     OW 1480   3.749   0.609   3.058
  194SOL    HW1 1481   3.842   0.632   3.033
  194SOL    HW2 1482   3.686   0.674   3.016
  195SOL     OW 1483   1.806   5.968   3.712
  195SOL    HW1 1484   1.739   6.037   3.685
  195SOL    HW2 1485   1.783   5.932   3.802
  196SOL     OW 1486   2.477   2.922   6.838
  196SOL    HW1 1487   2.558   2.879   6.878
  196SOL    HW2 1488   2.405   2.853   6.826
  197SOL     OW 1489   2.380   1.732   1.368
  197SOL    HW1 1490   2.430   1.652   1.403
  197SOL    HW2 1491   2.351   1.715   1.274
  198SOL     OW 1492   4.261   1.188   3.004
  198SOL    HW1 1493   4.182   1.209   3.062
  198SOL    HW2 1494   4.276   1.264   2.940
  199SOL     OW 1495   1.279   2.737   3.779
  199SOL    HW1 1496   1.263   2.777   3.689
  199SOL    HW2 1497   1.193   2.736   3.831
  200SOL     OW 1498   0.552   2.726   1.046
  200SOL    HW1 1499   0.452   2.725   1.055
  200SOL    HW2 1500   0.582   2.818   1.021
  201SOL     OW 1501   0.284   0.181   6.033
  201SOL    HW1 1502   0.219   0.255   6.016
  201SOL    HW2 1503   0.377   0.216   6.025
  202SOL     OW 1504   4.456   0.928   6.432
  202SOL    HW1 1505   4.481   0.891   6.521
  202SOL    HW2 1506   4.386   0.998   6.443
  203SOL     OW 1507   6.111   2.435   5.655
  203SOL    HW1 1508   6.191   2.394   5.700
  203SOL    HW2 1509   6.096   2.391   5.567
  204SOL     OW 1510   0.551   0.238   5.647
  204SOL    HW1 1511   0.579   0.154   5.693
  204SOL    HW2 1512   0.627   0.276   5.595
  205SOL     OW 1513   1.556   2.154   3.080
  205SOL    HW1 1514   1.461   2.153   3.110
  205SOL    HW2 1515   1.572   2.234   3.021
  206SOL     OW 1516   0.757   3.142   1.788
  206SOL    HW1 1517   0.670   3.191   1.797
  206SOL    HW2 1518   0.742   3.045   1.806
  207SOL     OW 1519   5.395   1.331   3.106
  207SOL    HW1 1520   5.354   1.296   3.190
  207SOL    HW2 1521   5.328   1.390   3.059
  208SOL     OW 1522   6.855   4.211   5.769
  208SOL    HW1 1523   6.878   4.116   5.748
  208SOL    HW2 1524   6.851   4.264   5.684
  209SOL     OW 1525   6.658   4.387   2.764
  209SOL    HW1 1526   6.704   4.307   2.725
  209SOL    HW2 1527   6.621   4.443   2.691
  210SOL     OW 1528   4.074   2.108   0.282
  210SOL    HW1 1529   3.999   2.127   0.346
  210SOL    HW2 1530   4.073   2.175   0.208
  211SOL     OW 1531   0.910   0.096   2.537
  211SOL    HW1 1532   0.977   0.160   2.574
  211SOL    HW2 1533   0.821   0.140   2.532
  212SOL     OW 1534   1.457   3.788   2.750
  212SOL    HW1 1535   1.449   3.810   2.653
  212SOL    HW2 1536   1.554   3.785   2.775
  213SOL     OW 1537   2.054   5.563   0.665
  213SOL    HW1 1538   1.976   5.549   0.727
  213SOL    HW2 1539   2.075   5.661   0.660
  214SOL     OW 1540   3.954   5.131   2.388
  214SOL    HW1 1541   3.858   5.113   2.363
  214SOL    HW2 1542   3.972   5.094   2.479
  215SOL     OW 1543   2.502   4.621   1.102
  215SOL    HW1 1544   2.556   4.681   1.043
  215SOL    HW2 1545   2.418   4.668   1.128
  216SOL     OW 1546   0.977   0.075   3.023
  216SOL    HW1 1547   0.929   0.144   3.078
  216SOL    HW2 1548   0.910   0.016   2.979
  217SOL     OW 1549   1.250   2.631   5.353
  217SOL    HW1 1550   1.208   2.555   5.404
  217SOL    HW2 1551   1.239   2.615   5.255
  218SOL     OW 1552   1.050   1.908   4.845
  218SOL    HW1 1553   1.060   1.974   4.771
  218SOL    HW2 1554   1.083   1.819   4.815
  219SOL     OW 1555   4.528   0.723   0.630
  219SOL    HW1 1556   4.431   0.737   0.611
  219SOL    HW2 1557   4.552   0.627   0.613
  220SOL     OW 1558   2.613   0.236   0.976
  220SOL    HW1 1559   2.704   0.198   0.961
  220SOL    HW2 1560   2.613   0.291   1.060
  221SOL     OW 1561   6.423   4.793   1.635
  221SOL    HW1 1562   6.346   4.766   1.577
  221SOL    HW2 1563   6.481   4.713   1.652
  222SOL     OW 1564   1.558   4.402   6.626
  222SOL    HW1 1565   1.644   4.364   6.661
  222SOL    HW2 1566   1.481   4.348   6.662
  223SOL     OW 1567   0.131   2.726   4.834
  223SOL    HW1 1568   0.088   2.784   4.902
  223SOL    HW2 1569   0.101   2.754   4.742
  224SOL     OW 1570   3.307   2.127   6.116
  224SOL    HW1 1571   3.308   2.076   6.202
  224SOL    HW2 1572   3.250   2.079   6.049
  225SOL     OW 1573   4.138   3.333   5.849
  225SOL    HW1 1574   4.083   3.291   5.921
  225SOL    HW2 1575   4.151   3.430   5.870
  226SOL     OW 1576   0.756   1.716   6.362
  226SOL    HW1 1577   0.732   1.665   6.445
  226SOL    HW2 1578   0.854   1.735   6.362
  227SOL     OW 1579   2.274   4.397   2.685
  227SOL    HW1 1580   2.302   4.383   2.780
  227SOL    HW2 1581   2.332   4.342   2.624
  228SOL     OW 1582   2.222   0.909   3.154
  228SOL    HW1 1583   2.184   0.935   3.065
  228SOL    HW2 1584   2.148   0.880   3.215
  229SOL     OW 1585   5.317   5.146   6.490
  229SOL    HW1 1586   5.328   5.125   6.587
  229SOL    HW2 1587   5.254   5.222   6.479
  230SOL     OW 1588   4.298   5.998   4.674
  230SOL    HW1 1589   4.292   6.052   4.590
  230SOL    HW2 1590   4.319   5.903   4.651
  231SOL     OW 1591   5.776   1.404   6.684
  231SOL    HW1 1592   5.778   1.470   6.758
  231SOL    HW2 1593   5.767   1.451   6.596
  232SOL     OW 1594   6.742   3.081   6.290
  232SOL    HW1 1595   6.657   3.061   6.338
  232SOL    HW2 1596   6.800   3.141   6.346
  233SOL     OW 1597   3.589   2.128   3.700
  233SOL    HW1 1598   3.577   2.128   3.799
  233SOL    HW2 1599   3.500   2.125   3.655
  234SOL     OW 1600   5.995   0.778   6.293
  234SOL    HW1 1601   5.971   0.846   6.224
  234SOL    HW2 1602   6.091   0.752   6.282
  235SOL     OW 1603   5.328   3.294   2.384
  235SOL    HW1 1604   5.275   3.261   2.307
  235SOL    HW2 1605   5.409   3.343   2.351
  236SOL     OW 1606   5.049   2.967   0.044
  236SOL    HW1 1607   5.008   2.958   6.971
  236SOL    HW2 1608   5.141   3.005   0.036
  237SOL     OW 1609   0.163   4.354   1.837
  237SOL    HW1 1610   0.200   4.261   1.831
  237SOL    HW2 1611   0.238   4.420   1.830
  238SOL     OW 1612   6.589   1.269   0.784
  238SOL    HW1 1613   6.546   1.274   0.694
  238SOL    HW2 1614   6.605   1.173   0.807
  239SOL     OW 1615   0.824   3.786   0.209
  239SOL    HW1 1616   0.724   3.788   0.214
  239SOL    HW2 1617   0.861   3.872   0.244
  240SOL     OW 1618   0.252   2.869   3.383
  240SOL    HW1 1619   0.225   2.934   3.312
  240SOL    HW2 1620   0.222   2.901   3.472
  241SOL     OW 1621   2.433   2.387   4.419
  241SOL    HW1 1622   2.442   2.436   4.332
  241SOL    HW2 1623   2.419   2.290   4.401
  242SOL     OW 1624   3.338   3.757   3.156
  242SOL    HW1 1625   3.252   3.807   3.151
  242SOL    HW2 1626   3.401   3.804   3.217
  243SOL     OW 1627   4.479   1.763   6.873
  243SOL    HW1 1628   4.530   1.715   6.944
  243SOL    HW2 1629   4.544   1.805   6.809
  244SOL     OW 1630   5.834   3.593   6.203
  244SOL    HW1 1631   5.881   3.580   6.116
  244SOL    HW2 1632   5.778   3.513   6.224
  245SOL     OW 1633   4.170   1.907   3.774
  245SOL    HW1 1634   4.263   1.888   3.744
  245SOL    HW2 1635   4.170   1.984   3.837
  246SOL     OW 1636   4.970   1.916   3.096
  246SOL    HW1 1637   4.887   1.887   3.049
  246SOL    HW2 1638   4.949   1.994   3.156
  247SOL     OW 1639   2.825   1.869   1.210
  247SOL    HW1 1640   2.812   1.966   1.231
  247SOL    HW2 1641   2.862   1.860   1.118
  248SOL     OW 1642   1.947   0.641   2.860
  248SOL    HW1 1643   1.983   0.668   2.950
  248SOL    HW2 1644   1.868   0.698   2.838
  249SOL     OW 1645   5.244   0.104   5.161
  249SOL    HW1 1646   5.163   0.152   5.195
  249SOL    HW2 1647   5.279   0.150   5.080
  250SOL     OW 1648   3.959   3.704   0.663
  250SOL    HW1 1649   3.860   3.690   0.663
  250SOL    HW2 1650   4.004   3.619   0.637
  251SOL     OW 1651   4.668   3.424   5.423
  251SOL    HW1 1652   4.617   3.341   5.400
  251SOL    HW2 1653   4.672   3.483   5.342
  252SOL     OW 1654   6.014   6.895   5.502
  252SOL    HW1 1655   6.108   6.860   5.505
  252SOL    HW2 1656   6.010   6.975   5.443
  253SOL     OW 1657   3.809   4.983   6.174
  253SOL    HW1 1658   3.719   4.996   6.215
  253SOL    HW2 1659   3.862   5.068   6.183
  254SOL     OW 1660   7.014   2.173   3.650
  254SOL    HW1 1661   6.993   2.124   3.565
  254SOL    HW2 1662   6.933   2.174   3.708
  255SOL     OW 1663   1.439   4.489   5.931
  255SOL    HW1 1664   1.361   4.427   5.946
  255SOL    HW2 1665   1.524   4.442   5.955
  256SOL     OW 1666   5.438   3.170   6.049
  256SOL    HW1 1667   5.429   3.071   6.054
  256SOL    HW2 1668   5.468   3.205   6.138
  257SOL     OW 1669   5.256   6.966   2.613
  257SOL    HW1 1670   5.249   6.894   2.681
  257SOL    HW2 1671   5.184   0.016   2.629
  258SOL     OW 1672   2.390   3.770   5.358
  258SOL    HW1 1673   2.469   3.779   5.418
  258SOL    HW2 1674   2.392   3.843   5.289
  259SOL     OW 1675   5.816   1.079   1.845
  259SOL    HW1 1676   5.790   1.133   1.925
  259SOL    HW2 1677   5.747   1.091   1.774
  260SOL     OW 1678   3.765   5.584   3.110
  260SOL    HW1 1679   3.864   5.585   3.100
  260SOL    HW2 1680   3.724   5.639   3.037
  261SOL     OW 1681   5.675   4.685   1.471
  261SOL    HW1 1682   5.635   4.745   1.401
  261SOL    HW2 1683   5.647   4.591   1.452
  262SOL     OW 1684   1.724   3.958   0.801
  262SOL    HW1 1685   1.795   3.895   0.769
  262SOL    HW2 1686   1.649   3.906   0.841
  263SOL     OW 1687   1.598   0.336   4.497
  263SOL    HW1 1688   1.667   0.400   4.530
  263SOL    HW2 1689   1.620   0.244   4.531
  264SOL     OW 1690   6.389   2.534   0.380
  264SOL    HW1 1691   6.390   2.603   0.307
  264SOL    HW2 1692   6.451   2.563   0.454
  265SOL     OW 1693   6.550   6.296   2.816
  265SOL    HW1 1694   6.559   6.315   2.914
  265SOL    HW2 1695   6.515   6.203   2.803
  266SOL     OW 1696   4.597   2.931   5.861
  266SOL    HW1 1697   4.577   2.837   5.834
  266SOL    HW2 1698   4.512   2.978   5.885
  267SOL     OW 1699   0.903   1.335   5.447
  267SOL    HW1 1700   0.929   1.394   5.524
  267SOL    HW2 1701   0.815   1.363   5.411
  268SOL     OW 1702   2.965   1.203   6.561
  268SOL    HW1 1703   2.912   1.181   6.643
  268SOL    HW2 1704   3.014   1.289   6.576
  269SOL     OW 1705   2.391   2.904   0.717
  269SOL    HW1 1706   2.393   2.838   0.643
  269SOL    HW2 1707   2.483   2.918   0.752
  270SOL     OW 1708   0.671   6.283   0.148
  270SOL    HW1 1709   0.575   6.257   0.157
  270SOL    HW2 1710   0.725   6.243   0.222
  271SOL     OW 1711   0.134   1.519   6.664
  271SOL    HW1 1712   0.045   1.487   6.696
  271SOL    HW2 1713   0.150   1.612   6.699
  272SOL     OW 1714   3.731   6.406   3.825
  272SOL    HW1 1715   3.768   6.376   3.912
  272SOL    HW2 1716   3.657   6.344   3.797
  273SOL     OW 1717   1.909   4.851   5.126
  273SOL    HW1 1718   1.957   4.857   5.213
  273SOL    HW2 1719   1.899   4.943   5.087
  274SOL     OW 1720   3.378   1.314   3.469
  274SOL    HW1 1721   3.465   1.349   3.505
  274SOL    HW2 1722   3.395   1.230   3.418
  275SOL     OW 1723   6.802   6.168   2.709
  275SOL    HW1 1724   6.884   6.205   2.664
  275SOL    HW2 1725   6.740   6.243   2.731
  276SOL     OW 1726   0.218   6.773   3.754
  276SOL    HW1 1727   0.230   6.755   3.657
  276SOL    HW2 1728   0.125   6.747   3.782
  277SOL     OW 1729   1.789   3.852   6.874
  277SOL    HW1 1730   1.725   3.828   6.948
  277SOL    HW2 1731   1.876   3.805   6.889
  278SOL     OW 1732   0.010   3.261   2.588
  278SOL    HW1 1733   6.938   3.288   2.623
  278SOL    HW2 1734   0.002   3.237   2.491
  279SOL     OW 1735   5.219   2.695   4.368
  279SOL    HW1 1736   5.165   2.682   4.285
  279SOL    HW2 1737   5.316   2.705   4.344
  280SOL     OW 1738   2.627   5.435   1.768
  280SOL    HW1 1739   2.654   5.531   1.754
  280SOL    HW2 1740   2.708   5.377   1.762
  281SOL     OW 1741   1.977   4.482   1.724
  281SOL    HW1 1742   1.941   4.544   1.794
  281SOL    HW2 1743   2.017   4.401   1.768
  282SOL     OW 1744   3.230   1.076   5.472
  282SOL    HW1 1745   3.164   1.149   5.460
  282SOL    HW2 1746   3.204   0.997   5.416
  283SOL     OW 1747   5.719   2.566   6.756
  283SOL    HW1 1748   5.649   2.637   6.764
  283SOL    HW2 1749   5.787   2.592   6.688
  284SOL     OW 1750   1.566   3.304   3.977
  284SOL    HW1 1751   1.527   3.314   3.886
  284SOL    HW2 1752   1.613   3.389   4.003
  285SOL     OW 1753   5.399   5.073   4.253
  285SOL    HW1 1754   5.303   5.047   4.266
  285SOL    HW2 1755   5.434   5.029   4.170
  286SOL     OW 1756   3.243   4.318   6.771
  286SOL    HW1 1757   3.221   4.301   6.675
  286SOL    HW2 1758   3.322   4.378   6.777
  287SOL     OW 1759   1.667   3.083   1.097
  287SOL    HW1 1760   1.723   3.075   1.180
  287SOL    HW2 1761   1.601   3.008   1.093
  288SOL     OW 1762   4.110   1.754   6.166
  288SOL    HW1 1763   4.010   1.763   6.165
  288SOL    HW2 1764   4.147   1.810   6.241
  289SOL     OW 1765   1.729   4.117   5.334
  289SOL    HW1 1766   1.678   4.197   5.301
  289SOL    HW2 1767   1.683   4.034   5.304
  290SOL     OW 1768   6.598   1.295   5.196
  290SOL    HW1 1769   6.680   1.263   5.149
  290SOL    HW2 1770   6.543   1.217   5.225
  291SOL     OW 1771   0.859   1.419   3.782
  291SOL    HW1 1772   0.784   1.429   3.847
  291SOL    HW2 1773   0.898   1.509   3.762
  292SOL     OW 1774   2.165   1.162   3.383
  292SOL    HW1 1775   2.095   1.146   3.314
  292SOL    HW2 1776   2.165   1.258   3.410
  293SOL     OW 1777   4.699   6.049   3.331
  293SOL    HW1 1778   4.772   5.996   3.289
  293SOL    HW2 1779   4.711   6.048   3.431
  294SOL     OW 1780   6.077   6.222   0.027
  294SOL    HW1 1781   6.071   6.263   6.954
  294SOL    HW2 1782   6.114   6.129   0.020
  295SOL     OW 1783   4.192   0.475   2.736
  295SOL    HW1 1784   4.123   0.531   2.689
  295SOL    HW2 1785   4.181   0.485   2.835
  296SOL     OW 1786   3.686   1.789   2.811
  296SOL    HW1 1787   3.712   1.708   2.760
  296SOL    HW2 1788   3.621   1.764   2.883
  297SOL     OW 1789   2.447   4.333   3.287
  297SOL    HW1 1790   2.361   4.283   3.289
  297SOL    HW2 1791   2.491   4.328   3.377
  298SOL     OW 1792   5.879   5.759   0.715
  298SOL    HW1 1793   5.885   5.784   0.619
  298SOL    HW2 1794   5.857   5.840   0.770
  299SOL     OW 1795   6.379   2.604   4.821
  299SOL    HW1 1796   6.363   2.514   4.863
  299SOL    HW2 1797   6.366   2.597   4.722
  300SOL     OW 1798   6.753   0.492   3.139
  300SOL    HW1 1799   6.813   0.474   3.217
  300SOL    HW2 1800   6.747   0.591   3.125
  301SOL     OW 1801   5.653   3.588   6.870
  301SOL    HW1 1802   5.687   3.586   6.777
  301SOL    HW2 1803   5.658   3.682   6.905
  302SOL     OW 1804   0.790   0.649   3.766
  302SOL    HW1 1805   0.773   0.739   3.727
  302SOL    HW2 1806   0.886   0.640   3.791
  303SOL     OW 1807   5.162   0.717   2.434
  303SOL    HW1 1808   5.171   0.807   2.478
  303SOL    HW2 1809   5.226   0.711   2.358
  304SOL     OW 1810   1.955   0.402   3.188
  304SOL    HW1 1811   1.942   0.407   3.287
  304SOL    HW2 1812   1.878   0.354   3.146
  305SOL     OW 1813   0.973   3.633   6.839
  305SOL    HW1 1814   0.987   3.568   6.914
  305SOL    HW2 1815   1.061   3.652   6.794
  306SOL     OW 1816   1.747   1.178   4.101
  306SOL    HW1 1817   1.722   1.182   4.198
  306SOL    HW2 1818   1.847   1.174   4.093
  307SOL     OW 1819   4.790   0.282   1.036
  307SOL    HW1 1820   4.864   0.247   1.092
  307SOL    HW2 1821   4.706   0.232   1.056
  308SOL     OW 1822   0.596   6.044   3.247
  308SOL    HW1 1823   0.678   6.033   3.303
  308SOL    HW2 1824   0.537   6.113   3.289
  309SOL     OW 1825   3.706   4.648   5.337
  309SOL    HW1 1826   3.606   4.652   5.325
  309SOL    HW2 1827   3.737   4.554   5.321
  310SOL     OW 1828   6.993   6.444   5.710
  310SOL    HW1 1829   6.967   6.526   5.762
  310SOL    HW2 1830   6.997   6.366   5.772
  311SOL     OW 1831   6.731   5.613   1.664
  311SOL    HW1 1832   6.632   5.605   1.648
  311SOL    HW2 1833   6.751   5.700   1.709
  312SOL     OW 1834   4.882   1.540   4.989
  312SOL    HW1 1835   4.874   1.461   5.051
  312SOL    HW2 1836   4.975   1.577   4.994
  313SOL     OW 1837   2.345   4.336   1.845
  313SOL    HW1 1838   2.360   4.405   1.915
  313SOL    HW2 1839   2.248   4.312   1.842
  314SOL     OW 1840   3.423   5.487   0.541
  314SOL    HW1 1841   3.345   5.541   0.572
  314SOL    HW2 1842   3.507   5.526   0.578
  315SOL     OW 1843   0.664   2.734   3.545
  315SOL    HW1 1844   0.646   2.797   3.469
  315SOL    HW2 1845   0.618   2.647   3.528
  316SOL     OW 1846   2.322   2.807   4.146
  316SOL    HW1 1847   2.327   2.883   4.082
  316SOL    HW2 1848   2.244   2.749   4.124
  317SOL     OW 1849   0.267   1.160   0.064
  317SOL    HW1 1850   0.241   1.211   0.146
  317SOL    HW2 1851   0.221   1.199   7.002
  318SOL     OW 1852   1.648   4.580   0.826
  318SOL    HW1 1853   1.693   4.586   0.737
  318SOL    HW2 1854   1.575   4.648   0.832
  319SOL     OW 1855   0.915   6.749   1.351
  319SOL    HW1 1856   0.885   6.672   1.408
  319SOL    HW2 1857   0.886   6.835   1.393
  320SOL     OW 1858   6.217   3.099   0.915
  320SOL    HW1 1859   6.284   3.045   0.966
  320SOL    HW2 1860   6.160   3.150   0.980
  321SOL     OW 1861   1.509   2.160   2.008
  321SOL    HW1 1862   1.547   2.209   1.930
  321SOL    HW2 1863   1.454   2.083   1.975
  322SOL     OW 1864   3.688   2.828   5.058
  322SOL    HW1 1865   3.641   2.883   4.989
  322SOL    HW2 1866   3.623   2.765   5.101
  323SOL     OW 1867   0.297   4.401   0.622
  323SOL    HW1 1868   0.202   4.383   0.597
  323SOL    HW2 1869   0.307   4.495   0.654
  324SOL     OW 1870   1.039   3.081   4.717
  324SOL    HW1 1871   1.053   3.159   4.656
  324SOL    HW2 1872   1.072   3.105   4.809
  325SOL     OW 1873   1.693   2.933   1.609
  325SOL    HW1 1874   1.630   2.984   1.667
  325SOL    HW2 1875   1.764   2.892   1.665
  326SOL     OW 1876   1.851   6.657   6.681
  326SOL    HW1 1877   1.832   6.593   6.606
  326SOL    HW2 1878   1.932   6.711   6.658
  327SOL     OW 1879   0.130   4.623   4.728
  327SOL    HW1 1880   0.049   4.682   4.739
  327SOL    HW2 1881   0.170   4.639   4.638
  328SOL     OW 1882   4.370   5.020   2.317
  328SOL    HW1 1883   4.411   5.000   2.228
  328SOL    HW2 1884   4.279   4.979   2.322
  329SOL     OW 1885   3.132   3.386   3.069
  329SOL    HW1 1886   3.231   3.395   3.081
  329SOL    HW2 1887   3.113   3.324   2.993
  330SOL     OW 1888   3.508   6.653   1.493
  330SOL    HW1 1889   3.530   6.696   1.406
  330SOL    HW2 1890   3.457   6.718   1.550
  331SOL     OW 1891   4.492   5.437   5.871
  331SOL    HW1 1892   4.519   5.480   5.957
  331SOL    HW2 1893   4.393   5.447   5.859
  332SOL     OW 1894   3.038   1.694   3.812
  332SOL    HW1 1895   3.030   1.600   3.779
  332SOL    HW2 1896   3.026   1.695   3.912
  333SOL     OW 1897   3.929   6.627   5.984
  333SOL    HW1 1898   3.971   6.564   5.919
  333SOL    HW2 1899   3.832   6.639   5.962
  334SOL     OW 1900   3.514   6.593   2.193
  334SOL    HW1 1901   3.485   6.683   2.161
  334SOL    HW2 1902   3.539   6.599   2.290
  335SOL     OW 1903   3.579   5.626   3.669
  335SOL    HW1 1904   3.495   5.576   3.688
  335SOL    HW2 1905   3.638   5.570   3.610
  336SOL     OW 1906   2.880   1.007   3.563
  336SOL    HW1 1907   2.857   0.979   3.470
  336SOL    HW2 1908   2.827   0.954   3.628
  337SOL     OW 1909   0.502   3.263   1.807
  337SOL    HW1 1910   0.449   3.291   1.727
  337SOL    HW2 1911   0.495   3.333   1.878
  338SOL     OW 1912   3.044   3.093   1.627
  338SOL    HW1 1913   2.974   3.031   1.660
  338SOL    HW2 1914   3.135   3.056   1.648
  339SOL     OW 1915   4.058   0.095   3.317
  339SOL    HW1 1916   4.022   0.004   3.336
  339SOL    HW2 1917   4.012   0.133   3.236
  340SOL     OW 1918   5.353   4.464   4.590
  340SOL    HW1 1919   5.294   4.542   4.570
  340SOL    HW2 1920   5.360   4.406   4.509
  341SOL     OW 1921   5.105   5.828   4.109
  341SOL    HW1 1922   5.045   5.868   4.040
  341SOL    HW2 1923   5.200   5.838   4.080
  342SOL     OW 1924   5.681   4.661   0.204
  342SOL    HW1 1925   5.635   4.633   0.289
  342SOL    HW2 1926   5.638   4.744   0.169
  343SOL     OW 1927   3.688   6.506   2.019
  343SOL    HW1 1928   3.760   6.471   2.079
  343SOL    HW2 1929   3.613   6.541   2.075
  344SOL     OW 1930   2.036   5.287   0.517
  344SOL    HW1 1931   2.123   5.324   0.549
  344SOL    HW2 1932   1.996   5.230   0.588
  345SOL     OW 1933   0.746   0.368   5.531
  345SOL    HW1 1934   0.739   0.338   5.436
  345SOL    HW2 1935   0.788   0.459   5.534
  346SOL     OW 1936   1.457   0.244   2.994
  346SOL    HW1 1937   1.512   0.328   2.991
  346SOL    HW2 1938   1.495   0.177   2.930
  347SOL     OW 1939   5.604   6.977   6.652
  347SOL    HW1 1940   5.522   6.929   6.683
  347SOL    HW2 1941   5.578   0.046   6.610
  348SOL     OW 1942   3.978   5.120   1.293
  348SOL    HW1 1943   4.061   5.099   1.242
  348SOL    HW2 1944   3.996   5.197   1.355
  349SOL     OW 1945   0.457   4.517   2.644
  349SOL    HW1 1946   0.358   4.512   2.636
  349SOL    HW2 1947   0.494   4.570   2.568
  350SOL     OW 1948   3.936   3.491   1.551
  350SOL    HW1 1949   3.963   3.533   1.464
  350SOL    HW2 1950   3.968   3.548   1.626
  351SOL     OW 1951   2.550   1.721   0.393
  351SOL    HW1 1952   2.517   1.769   0.475
  351SOL    HW2 1953   2.511   1.629   0.391
  352SOL     OW 1954   3.200   0.466   5.935
  352SOL    HW1 1955   3.277   0.420   5.892
  352SOL    HW2 1956   3.204   0.564   5.915
  353SOL     OW 1957   1.827   6.157   0.838
  353SOL    HW1 1958   1.813   6.114   0.927
  353SOL    HW2 1959   1.873   6.094   0.777
  354SOL     OW 1960   4.248   1.911   6.909
  354SOL    HW1 1961   4.324   1.847   6.912
  354SOL    HW2 1962   4.178   1.876   6.847
  355SOL     OW 1963   6.586   3.136   2.585
  355SOL    HW1 1964   6.547   3.134   2.494
  355SOL    HW2 1965   6.644   3.217   2.596
  356SOL     OW 1966   4.329   4.612   4.386
  356SOL    HW1 1967   4.373   4.532   4.347
  356SOL    HW2 1968   4.257   4.644   4.325
  357SOL     OW 1969   0.515   5.647   5.369
  357SOL    HW1 1970   0.544   5.553   5.386
  357SOL    HW2 1971   0.422   5.661   5.405
  358SOL     OW 1972   6.081   0.271   1.479
  358SOL    HW1 1973   6.118   0.313   1.396
  358SOL    HW2 1974   6.135   0.300   1.558
  359SOL     OW 1975   1.564   2.289   2.606
  359SOL    HW1 1976   1.546   2.377   2.650
  359SOL    HW2 1977   1.647   2.295   2.551
  360SOL     OW 1978   4.638   6.882   6.817
  360SOL    HW1 1979   4.623   6.857   6.912
  360SOL    HW2 1980   4.719   6.941   6.810
  361SOL     OW 1981   5.463   5.837   3.306
  361SOL    HW1 1982   5.430   5.931   3.317
  361SOL    HW2 1983   5.411   5.776   3.365
  362SOL     OW 1984   2.474   4.103   0.884
  362SOL    HW1 1985   2.466   4.199   0.914
  362SOL    HW2 1986   2.405   4.048   0.931
  363SOL     OW 1987   4.098   5.115   4.426
  363SOL    HW1 1988   4.078   5.025   4.465
  363SOL    HW2 1989   4.156   5.167   4.488
  364SOL     OW 1990   1.137   5.377   5.485
  364SOL    HW1 1991   1.100   5.294   5.444
  364SOL    HW2 1992   1.235   5.383   5.466
  365SOL     OW 1993   5.331   6.046   2.492
  365SOL    HW1 1994   5.423   6.031   2.529
  365SOL    HW2 1995   5.275   6.093   2.560
  366SOL     OW 1996   6.163   1.068   6.906
  366SOL    HW1 1997   6.225   0.993   6.884
  366SOL    HW2 1998   6.201   1.122   6.981
  367SOL     OW 1999   5.525   3.268   1.113
  367SOL    HW1 2000   5.552   3.363   1.099
  367SOL    HW2 2001   5.449   3.245   1.052
  368SOL     OW 2002   1.530   4.323   5.183
  368SOL    HW1 2003   1.600   4.302   5.115
  368SOL    HW2 2004   1.491   4.414   5.165
  369SOL     OW 2005   0.333   4.520   1.452
  369SOL    HW1 2006   0.272   4.440   1.452
  369SOL    HW2 2007   0.285   4.599   1.416
  370SOL     OW 2008   2.513   0.787   6.146
  370SOL    HW1 2009   2.491   0.875   6.186
  370SOL    HW2 2010   2.600   0.754   6.183
  371SOL     OW 2011   3.098   3.187   0.164
  371SOL    HW1 2012   3.193   3.212   0.181
  371SOL    HW2 2013   3.049   3.179   0.251
  372SOL     OW 2014   6.829   6.644   5.808
  372SOL    HW1 2015   6.783   6.663   5.895
  372SOL    HW2 2016   6.870   6.729   5.773
  373SOL     OW 2017   0.386   6.160   0.789
  373SOL    HW1 2018   0.365   6.256   0.805
  373SOL    HW2 2019   0.445   6.152   0.709
  374SOL     OW 2020   3.382   6.996   2.414
  374SOL    HW1 2021   3.480   7.014   2.407
  374SOL    HW2 2022   3.352   7.012   2.508
  375SOL     OW 2023   6.523   4.717   3.518
  375SOL    HW1 2024   6.595   4.746   3.455
  375SOL    HW2 2025   6.446   4.680   3.466
  376SOL     OW 2026   1.434   2.534   3.850
  376SOL    HW1 2027   1.527   2.569   3.863
  376SOL    HW2 2028   1.372   2.611   3.833
  377SOL     OW 2029   5.042   2.166   2.675
  377SOL    HW1 2030   4.956   2.114   2.677
  377SOL    HW2 2031   5.021   2.263   2.662
  378SOL     OW 2032   4.271   3.223   5.621
  378SOL    HW1 2033   4.298   3.304   5.571
  378SOL    HW2 2034   4.235   3.250   5.711
  379SOL     OW 2035   5.726   3.867   1.438
  379SOL    HW1 2036   5.702   3.873   1.342
  379SOL    HW2 2037   5.694   3.949   1.486
  380SOL     OW 2038   1.699   1.562   1.290
  380SOL    HW1 2039   1.618   1.615   1.264
  380SOL    HW2 2040   1.771   1.625   1.319
  381SOL     OW 2041   3.254   4.536   1.216
  381SOL    HW1 2042   3.162   4.508   1.186
  381SOL    HW2 2043   3.255   4.635   1.231
  382SOL     OW 2044   3.446   5.833   0.426
  382SOL    HW1 2045   3.350   5.857   0.415
  382SOL    HW2 2046   3.461   5.790   0.515
  383SOL     OW 2047   6.625   2.423   6.953
  383SOL    HW1 2048   6.636   2.521   6.967
  383SOL    HW2 2049   6.587   2.382   0.018
  384SOL     OW 2050   0.916   5.290   5.108
  384SOL    HW1 2051   0.842   5.352   5.134
  384SOL    HW2 2052   0.889   5.196   5.126
  385SOL     OW 2053   4.599   6.266   0.272
  385SOL    HW1 2054   4.696   6.254   0.250
  385SOL    HW2 2055   4.552   6.178   0.262
  386SOL     OW 2056   3.859   6.411   5.483
  386SOL    HW1 2057   3.788   6.397   5.552
  386SOL    HW2 2058   3.839   6.495   5.431
  387SOL     OW 2059   0.251   0.558   5.240
  387SOL    HW1 2060   0.191   0.584   5.164
  387SOL    HW2 2061   0.237   0.461   5.261
  388SOL     OW 2062   6.993   2.145   5.202
  388SOL    HW1 2063   6.990   2.181   5.296
  388SOL    HW2 2064   6.953   2.212   5.139
  389SOL     OW 2065   4.290   4.686   1.521
  389SOL    HW1 2066   4.221   4.625   1.561
  389SOL    HW2 2067   4.245   4.753   1.462
  390SOL     OW 2068   3.866   1.590   0.350
  390SOL    HW1 2069   3.849   1.686   0.373
  390SOL    HW2 2070   3.894   1.584   0.254
  391SOL     OW 2071   2.952   3.782   6.295
  391SOL    HW1 2072   3.039   3.807   6.252
  391SOL    HW2 2073   2.877   3.822   6.243
  392SOL     OW 2074   1.437   3.960   2.485
  392SOL    HW1 2075   1.537   3.961   2.493
  392SOL    HW2 2076   1.403   4.054   2.478
  393SOL     OW 2077   0.896   4.194   1.061
  393SOL    HW1 2078   0.855   4.212   1.151
  393SOL    HW2 2079   0.943   4.276   1.029
  394SOL     OW 2080   6.572   1.824   6.547
  394SOL    HW1 2081   6.488   1.773   6.564
  394SOL    HW2 2082   6.613   1.793   6.461
  395SOL     OW 2083   5.428   4.992   1.620
  395SOL    HW1 2084   5.330   5.006   1.635
  395SOL    HW2 2085   5.445   4.895   1.600
  396SOL     OW 2086   2.820   1.619   2.986
  396SOL    HW1 2087   2.800   1.603   2.889
  396SOL    HW2 2088   2.802   1.536   3.038
  397SOL     OW 2089   4.243   1.471   5.490
  397SOL    HW1 2090   4.161   1.458   5.546
  397SOL    HW2 2091   4.273   1.566   5.497
  398SOL     OW 2092   2.381   0.533   4.822
  398SOL    HW1 2093   2.333   0.487   4.897
  398SOL    HW2 2094   2.465   0.483   4.801
  399SOL     OW 2095   5.448   6.233   3.927
  399SOL    HW1 2096   5.464   6.284   3.843
  399SOL    HW2 2097   5.350   6.227   3.945
  400SOL     OW 2098   6.284   0.359   4.983
  400SOL    HW1 2099   6.241   0.447   4.962
  400SOL    HW2 2100   6.213   0.291   5.001
  401SOL     OW 2101   6.901   5.568   5.577
  401SOL    HW1 2102   6.911   5.666   5.593
  401SOL    HW2 2103   6.977   5.520   5.618
  402SOL     OW 2104   6.937   0.302   2.655
  402SOL    HW1 2105   6.978   0.233   2.595
  402SOL    HW2 2106   6.995   0.314   2.736
  403SOL     OW 2107   3.034   1.015   6.040
  403SOL    HW1 2108   3.082   1.091   5.996
  403SOL    HW2 2109   2.994   0.956   5.970
  404SOL     OW 2110   4.121   5.102   4.733
  404SOL    HW1 2111   4.173   5.029   4.688
  404SOL    HW2 2112   4.167   5.129   4.817
  405SOL     OW 2113   2.601   4.621   3.747
  405SOL    HW1 2114   2.684   4.619   3.802
  405SOL    HW2 2115   2.624   4.637   3.651
  406SOL     OW 2116   0.131   5.288   5.919
  406SOL    HW1 2117   0.117   5.295   6.018
  406SOL    HW2 2118   0.123   5.193   5.890
  407SOL     OW 2119   1.608   3.001   4.352
  407SOL    HW1 2120   1.703   2.980   4.330
  407SOL    HW2 2121   1.575   3.073   4.290
  408SOL     OW 2122   3.062   1.366   3.744
  408SOL    HW1 2123   3.022   1.374   3.836
  408SOL    HW2 2124   3.162   1.358   3.752
  409SOL     OW 2125   1.037   3.744   2.638
  409SOL    HW1 2126   0.995   3.680   2.573
  409SOL    HW2 2127   0.975   3.758   2.715
  410SOL     OW 2128   1.936   2.050   1.355
  410SOL    HW1 2129   2.032   2.071   1.336
  410SOL    HW2 2130   1.929   2.001   1.442
  411SOL     OW 2131   0.570   2.019   1.544
  411SOL    HW1 2132   0.643   1.975   1.491
  411SOL    HW2 2133   0.516   2.079   1.485
  412SOL     OW 2134   1.779   4.753   1.841
  412SOL    HW1 2135   1.681   4.769   1.857
  412SOL    HW2 2136   1.810   4.679   1.900
  413SOL     OW 2137   4.681   5.349   2.694
  413SOL    HW1 2138   4.659   5.441   2.661
  413SOL    HW2 2139   4.777   5.329   2.674
  414SOL     OW 2140   2.706   6.281   3.584
  414SOL    HW1 2141   2.645   6.359   3.570
  414SOL    HW2 2142   2.775   6.280   3.512
  415SOL     OW 2143   6.519   0.471   0.379
  415SOL    HW1 2144   6.479   0.512   0.461
  415SOL    HW2 2145   6.555   0.543   0.320
  416SOL     OW 2146   4.869   3.451   4.508
  416SOL    HW1 2147   4.793   3.508   4.479
  416SOL    HW2 2148   4.889   3.469   4.605
  417SOL     OW 2149   3.457   2.345   6.688
  417SOL    HW1 2150   3.381   2.364   6.626
  417SOL    HW2 2151   3.536   2.401   6.662
  418SOL     OW 2152   4.186   6.375   4.608
  418SOL    HW1 2153   4.104   6.423   4.639
  418SOL    HW2 2154   4.255   6.375   4.680
  419SOL     OW 2155   0.867   6.959   1.773
  419SOL    HW1 2156   0.886   0.004   1.849
  419SOL    HW2 2157   0.769   6.937   1.773
  420SOL     OW 2158   5.918   0.994   6.121
  420SOL    HW1 2159   5.856   1.067   6.150
  420SOL    HW2 2160   5.871   0.933   6.058
  421SOL     OW 2161   5.368   3.961   2.860
  421SOL    HW1 2162   5.404   3.896   2.793
  421SOL    HW2 2163   5.276   3.933   2.887
  422SOL     OW 2164   5.025   3.233   1.666
  422SOL    HW1 2165   5.027   3.329   1.641
  422SOL    HW2 2166   4.932   3.198   1.655
  423SOL     OW 2167   3.339   1.391   5.966
  423SOL    HW1 2168   3.397   1.452   5.912
  423SOL    HW2 2169   3.284   1.334   5.905
  424SOL     OW 2170   1.112   4.095   2.855
  424SOL    HW1 2171   1.209   4.078   2.838
  424SOL    HW2 2172   1.075   4.024   2.914
  425SOL     OW 2173   2.469   0.257   5.486
  425SOL    HW1 2174   2.487   0.164   5.519
  425SOL    HW2 2175   2.434   0.253   5.392
  426SOL     OW 2176   2.467   2.653   4.322
  426SOL    HW1 2177   2.431   2.730   4.269
  426SOL    HW2 2178   2.463   2.675   4.420
  427SOL     OW 2179   3.912   2.139   3.427
  427SOL    HW1 2180   3.896   2.112   3.522
  427SOL    HW2 2181   3.835   2.193   3.394
  428SOL     OW 2182   2.833   1.195   5.910
  428SOL    HW1 2183   2.788   1.276   5.946
  428SOL    HW2 2184   2.813   1.117   5.969
  429SOL     OW 2185   1.211   5.949   4.131
  429SOL    HW1 2186   1.227   6.011   4.055
  429SOL    HW2 2187   1.182   6.001   4.211
  430SOL     OW 2188   1.351   0.070   3.465
  430SOL    HW1 2189   1.407   7.009   3.490
  430SOL    HW2 2190   1.259   0.039   3.440
  431SOL     OW 2191   2.991   1.646   1.949
  431SOL    HW1 2192   2.935   1.714   1.901
  431SOL    HW2 2193   3.022   1.683   2.036
  432SOL     OW 2194   4.217   1.893   1.622
  432SOL    HW1 2195   4.247   1.948   1.544
  432SOL    HW2 2196   4.258   1.802   1.617
  433SOL     OW 2197   2.297   6.336   0.314
  433SOL    HW1 2198   2.361   6.395   0.265
  433SOL    HW2 2199   2.233   6.393   0.367
  434SOL     OW 2200   4.021   6.049   3.423
  434SOL    HW1 2201   3.969   6.035   3.339
  434SOL    HW2 2202   4.011   6.143   3.453
  435SOL     OW 2203   3.168   1.356   6.211
  435SOL    HW1 2204   3.137   1.264   6.239
  435SOL    HW2 2205   3.230   1.347   6.134
  436SOL     OW 2206   4.957   0.141   2.862
  436SOL    HW1 2207   4.937   0.108   2.954
  436SOL    HW2 2208   4.907   0.227   2.846
  437SOL     OW 2209   6.541   0.244   4.838
  437SOL    HW1 2210   6.509   0.179   4.768
  437SOL    HW2 2211   6.462   0.286   4.883
  438SOL     OW 2212   0.346   3.752   2.772
  438SOL    HW1 2213   0.284   3.673   2.771
  438SOL    HW2 2214   0.343   3.794   2.863
  439SOL     OW 2215   5.939   0.628   3.497
  439SOL    HW1 2216   5.840   0.641   3.503
  439SOL    HW2 2217   5.959   0.530   3.498
  440SOL     OW 2218   4.611   1.052   0.464
  440SOL    HW1 2219   4.623   1.104   0.380
  440SOL    HW2 2220   4.697   1.007   0.488
  441SOL     OW 2221   0.035   4.203   3.139
  441SOL    HW1 2222   0.102   4.273   3.116
  441SOL    HW2 2223   7.011   4.169   3.055
  442SOL     OW 2224   5.695   3.348   6.202
  442SOL    HW1 2225   5.713   3.281   6.273
  442SOL    HW2 2226   5.749   3.327   6.120
  443SOL     OW 2227   4.888   3.390   2.538
  443SOL    HW1 2228   4.886   3.395   2.438
  443SOL    HW2 2229   4.874   3.296   2.567
  444SOL     OW 2230   4.416   0.878   1.275
  444SOL    HW1 2231   4.355   0.905   1.201
  444SOL    HW2 2232   4.390   0.926   1.359
  445SOL     OW 2233   1.386   5.451   2.419
  445SOL    HW1 2234   1.317   5.523   2.422
  445SOL    HW2 2235   1.342   5.361   2.427
  446SOL     OW 2236   5.677   0.004   1.465
  446SOL    HW1 2237   5.700   6.946   1.404
  446SOL    HW2 2238   5.727   0.086   1.436
  447SOL     OW 2239   6.522   4.389   0.723
  447SOL    HW1 2240   6.545   4.399   0.626
  447SOL    HW2 2241   6.451   4.320   0.734
  448SOL     OW 2242   2.497   6.501   2.990
  448SOL    HW1 2243   2.437   6.565   2.942
  448SOL    HW2 2244   2.502   6.527   3.087
  449SOL     OW 2245   2.094   3.758   4.743
  449SOL    HW1 2246   2.092   3.749   4.843
  449SOL    HW2 2247   2.113   3.853   4.718
  450SOL     OW 2248   1.018   4.997   3.242
  450SOL    HW1 2249   1.024   4.936   3.321
  450SOL    HW2 2250   0.923   5.025   3.229
  451SOL     OW 2251   0.600   2.095   2.611
  451SOL    HW1 2252   0.658   2.102   2.692
  451SOL    HW2 2253   0.657   2.089   2.529
  452SOL     OW 2254   5.034   5.916   2.542
  452SOL    HW1 2255   5.016   5.908   2.444
  452SOL    HW2 2256   5.125   5.956   2.556
  453SOL     OW 2257   3.497   0.660   6.822
  453SOL    HW1 2258   3.583   0.620   6.790
  453SOL    HW2 2259   3.514   0.754   6.852
  454SOL     OW 2260   6.897   3.589   6.618
  454SOL    HW1 2261   6.957   3.667   6.633
  454SOL    HW2 2262   6.933   3.509   6.666
  455SOL     OW 2263   5.834   4.553   6.461
  455SOL    HW1 2264   5.859   4.636   6.510
  455SOL    HW2 2265   5.889   4.476   6.494
  456SOL     OW 2266   3.136   0.351   2.231
  456SOL    HW1 2267   3.224   0.323   2.192
  456SOL    HW2 2268   3.103   0.433   2.184
  457SOL     OW 2269   2.633   0.625   0.114
  457SOL    HW1 2270   2.644   0.659   0.207
  457SOL    HW2 2271   2.552   0.666   0.073
  458SOL     OW 2272   2.858   1.281   3.540
  458SOL    HW1 2273   2.858   1.184   3.564
  458SOL    HW2 2274   2.921   1.330   3.601
  459SOL     OW 2275   2.755   0.490   3.761
  459SOL    HW1 2276   2.843   0.443   3.751
  459SOL    HW2 2277   2.768   0.573   3.816
  460SOL     OW 2278   1.048   1.771   5.492
  460SOL    HW1 2279   1.142   1.774   5.525
  460SOL    HW2 2280   1.048   1.773   5.392
  461SOL     OW 2281   0.817   5.058   6.007
  461SOL    HW1 2282   0.718   5.074   6.004
  461SOL    HW2 2283   0.835   4.971   6.054
  462SOL     OW 2284   3.149   3.981   4.300
  462SOL    HW1 2285   3.201   4.041   4.239
  462SOL    HW2 2286   3.172   4.003   4.395
  463SOL     OW 2287   5.523   6.846   2.514
  463SOL    HW1 2288   5.434   6.882   2.540
  463SOL    HW2 2289   5.581   6.838   2.595
  464SOL     OW 2290   3.664   5.450   5.719
  464SOL    HW1 2291   3.623   5.363   5.693
  464SOL    HW2 2292   3.682   5.450   5.817
  465SOL     OW 2293   1.046   3.337   0.315
  465SOL    HW1 2294   1.127   3.323   0.373
  465SOL    HW2 2295   1.046   3.430   0.280
  466SOL     OW 2296   4.021   5.759   4.686
  466SOL    HW1 2297   4.004   5.842   4.632
  466SOL    HW2 2298   4.070   5.693   4.630
  467SOL     OW 2299   6.401   0.066   1.332
  467SOL    HW1 2300   6.415   0.135   1.260
  467SOL    HW2 2301   6.315   0.018   1.315
  468SOL     OW 2302   3.743   0.236   6.818
  468SOL    HW1 2303   3.643   0.243   6.815
  468SOL    HW2 2304   3.782   0.288   6.742
  469SOL     OW 2305   2.975   4.995   6.046
  469SOL    HW1 2306   2.888   5.043   6.051
  469SOL    HW2 2307   2.964   4.911   5.994
  470SOL     OW 2308   2.090   5.112   2.778
  470SOL    HW1 2309   2.145   5.123   2.695
  470SOL    HW2 2310   2.149   5.088   2.855
  471SOL     OW 2311   2.191   2.567   4.468
  471SOL    HW1 2312   2.247   2.485   4.465
  471SOL    HW2 2313   2.246   2.644   4.501
  472SOL     OW 2314   5.709   3.807   6.138
  472SOL    HW1 2315   5.709   3.805   6.038
  472SOL    HW2 2316   5.769   3.735   6.173
  473SOL     OW 2317   0.043   2.922   2.160
  473SOL    HW1 2318   0.032   2.921   2.061
  473SOL    HW2 2319   0.117   2.860   2.187
  474SOL     OW 2320   4.975   6.176   3.672
  474SOL    HW1 2321   4.949   6.268   3.701
  474SOL    HW2 2322   4.894   6.124   3.646
  475SOL     OW 2323   6.241   1.798   0.734
  475SOL    HW1 2324   6.336   1.806   0.765
  475SOL    HW2 2325   6.202   1.712   0.769
  476SOL     OW 2326   0.935   4.721   1.366
  476SOL    HW1 2327   0.907   4.711   1.462
  476SOL    HW2 2328   1.034   4.732   1.361
  477SOL     OW 2329   1.548   4.620   3.915
  477SOL    HW1 2330   1.579   4.525   3.908
  477SOL    HW2 2331   1.456   4.623   3.952
  478SOL     OW 2332   4.850   6.288   1.533
  478SOL    HW1 2333   4.806   6.238   1.608
  478SOL    HW2 2334   4.781   6.341   1.484
  479SOL     OW 2335   3.510   3.752   3.372
  479SOL    HW1 2336   3.419   3.742   3.412
  479SOL    HW2 2337   3.552   3.662   3.363
  480SOL     OW 2338   1.681   0.008   2.892
  480SOL    HW1 2339   1.762   6.982   2.852
  480SOL    HW2 2340   1.614   6.955   2.914
  481SOL     OW 2341   0.272   0.070   0.936
  481SOL    HW1 2342   0.280   0.028   1.026
  481SOL    HW2 2343   0.333   0.149   0.931
  482SOL     OW 2344   4.080   5.300   1.464
  482SOL    HW1 2345   4.145   5.231   1.497
  482SOL    HW2 2346   4.128   5.387   1.451
  483SOL     OW 2347   5.103   1.966   3.358
  483SOL    HW1 2348   5.138   2.059   3.366
  483SOL    HW2 2349   5.090   1.943   3.262
  484SOL     OW 2350   2.312   4.470   4.436
  484SOL    HW1 2351   2.272   4.559   4.412
  484SOL    HW2 2352   2.351   4.476   4.529
  485SOL     OW 2353   5.183   3.362   1.895
  485SOL    HW1 2354   5.245   3.426   1.848
  485SOL    HW2 2355   5.128   3.313   1.828
  486SOL     OW 2356   5.911   6.047   6.474
  486SOL    HW1 2357   5.825   6.096   6.494
  486SOL    HW2 2358   5.889   5.954   6.443
  487SOL     OW 2359   6.655   6.798   5.309
  487SOL    HW1 2360   6.670   6.718   5.369
  487SOL    HW2 2361   6.743   6.829   5.274
  488SOL     OW 2362   1.408   6.224   3.068
  488SOL    HW1 2363   1.429   6.198   3.162
  488SOL    HW2 2364   1.433   6.319   3.053
  489SOL     OW 2365   1.147   5.984   5.924
  489SOL    HW1 2366   1.067   5.953   5.872
  489SOL    HW2 2367   1.117   6.036   6.004
  490SOL     OW 2368   1.035   3.926   5.390
  490SOL    HW1 2369   1.126   3.963   5.374
  490SOL    HW2 2370   1.029   3.833   5.354
  491SOL     OW 2371   0.804   2.406   0.390
  491SOL    HW1 2372   0.882   2.441   0.442
  491SOL    HW2 2373   0.754   2.339   0.445
  492SOL     OW 2374   1.756   2.203   5.703
  492SOL    HW1 2375   1.672   2.201   5.649
  492SOL    HW2 2376   1.743   2.262   5.783
  493SOL     OW 2377   2.107   5.654   4.724
  493SOL    HW1 2378   2.061   5.570   4.753
  493SOL    HW2 2379   2.039   5.716   4.684
  494SOL     OW 2380   2.713   6.249   5.108
  494SOL    HW1 2381   2.661   6.267   5.025
  494SOL    HW2 2382   2.794   6.308   5.111
  495SOL     OW 2383   3.612   4.595   5.855
  495SOL    HW1 2384   3.698   4.643   5.834
  495SOL    HW2 2385   3.555   4.591   5.773
  496SOL     OW 2386   4.857   1.787   2.875
  496SOL    HW1 2387   4.811   1.711   2.922
  496SOL    HW2 2388   4.923   1.750   2.810
  497SOL     OW 2389   3.240   1.676   0.244
  497SOL    HW1 2390   3.210   1.618   0.320
  497SOL    HW2 2391   3.339   1.681   0.243
  498SOL     OW 2392   0.797   6.569   1.535
  498SOL    HW1 2393   0.806   6.470   1.524
  498SOL    HW2 2394   0.832   6.597   1.624
  499SOL     OW 2395   2.755   5.831   6.373
  499SOL    HW1 2396   2.803   5.904   6.324
  499SOL    HW2 2397   2.820   5.759   6.399
  500SOL     OW 2398   6.129   2.427   0.410
  500SOL    HW1 2399   6.081   2.506   0.372
  500SOL    HW2 2400   6.226   2.448   0.419
  501SOL     OW 2401   1.052   0.632   3.931
  501SOL    HW1 2402   1.114   0.653   4.007
  501SOL    HW2 2403   1.101   0.578   3.863
  502SOL     OW 2404   2.177   5.064   6.550
  502SOL    HW1 2405   2.079   5.060   6.573
  502SOL    HW2 2406   2.228   5.100   6.629
  503SOL     OW 2407   3.865   4.737   6.815
  503SOL    HW1 2408   3.867   4.736   6.715
  503SOL    HW2 2409   3.779   4.778   6.845
  504SOL     OW 2410   5.860   6.442   2.196
  504SOL    HW1 2411   5.859   6.513   2.125
  504SOL    HW2 2412   5.831   6.481   2.283
  505SOL     OW 2413   4.986   6.859   5.119
  505SOL    HW1 2414   5.017   6.765   5.124
  505SOL    HW2 2415   4.937   6.883   5.203
  506SOL     OW 2416   4.269   5.135   3.081
  506SOL    HW1 2417   4.171   5.131   3.100
  506SOL    HW2 2418   4.292   5.074   3.005
  507SOL     OW 2419   3.203   0.982   0.472
  507SOL    HW1 2420   3.149   0.914   0.422
  507SOL    HW2 2421   3.182   0.976   0.569
  508SOL     OW 2422   6.933   4.951   3.507
  508SOL    HW1 2423   6.859   5.017   3.521
  508SOL    HW2 2424   6.928   4.880   3.577
  509SOL     OW 2425   4.838   6.830   5.875
  509SOL    HW1 2426   4.749   6.868   5.901
  509SOL    HW2 2427   4.897   6.903   5.842
  510SOL     OW 2428   6.737   3.771   0.293
  510SOL    HW1 2429   6.661   3.780   0.229
  510SOL    HW2 2430   6.776   3.679   0.286
  511SOL     OW 2431   0.850   2.030   0.539
  511SOL    HW1 2432   0.896   1.991   0.459
  511SOL    HW2 2433   0.754   2.005   0.539
  512SOL     OW 2434   6.631   2.523   5.799
  512SOL    HW1 2435   6.566   2.478   5.861
  512SOL    HW2 2436   6.677   2.597   5.848
  513SOL     OW 2437   5.410   0.610   2.609
  513SOL    HW1 2438   5.403   0.601   2.708
  513SOL    HW2 2439   5.482   0.675   2.586
  514SOL     OW 2440   6.299   6.647   4.214
  514SOL    HW1 2441   6.268   6.626   4.121
  514SOL    HW2 2442   6.265   6.737   4.241
  515SOL     OW 2443   3.723   0.165   5.957
  515SOL    HW1 2444   3.751   0.222   6.035
  515SOL    HW2 2445   3.646   0.107   5.984
  516SOL     OW 2446   2.202   5.700   1.655
  516SOL    HW1 2447   2.118   5.747   1.627
  516SOL    HW2 2448   2.279   5.764   1.649
  517SOL     OW 2449   3.310   5.562   1.789
  517SOL    HW1 2450   3.360   5.563   1.875
  517SOL    HW2 2451   3.220   5.519   1.803
  518SOL     OW 2452   2.112   3.360   3.661
  518SOL    HW1 2453   2.038   3.301   3.631
  518SOL    HW2 2454   2.196   3.306   3.670
  519SOL     OW 2455   0.377   0.172   3.045
  519SOL    HW1 2456   0.350   0.167   2.949
  519SOL    HW2 2457   0.298   0.149   3.103
  520SOL     OW 2458   1.138   2.999   0.192
  520SOL    HW1 2459   1.134   2.958   0.101
  520SOL    HW2 2460   1.160   3.096   0.184
  521SOL     OW 2461   6.105   5.684   4.565
  521SOL    HW1 2462   6.149   5.671   4.654
  521SOL    HW2 2463   6.011   5.649   4.569
  522SOL     OW 2464   3.993   3.656   1.319
  522SOL    HW1 2465   4.050   3.657   1.237
  522SOL    HW2 2466   3.900   3.684   1.296
  523SOL     OW 2467   0.542   6.603   1.437
  523SOL    HW1 2468   0.622   6.623   1.494
  523SOL    HW2 2469   0.564   6.530   1.373
  524SOL     OW 2470   6.887   2.128   1.677
  524SOL    HW1 2471   6.917   2.068   1.752
  524SOL    HW2 2472   6.793   2.105   1.651
  525SOL     OW 2473   1.695   3.545   5.999
  525SOL    HW1 2474   1.690   3.620   5.933
  525SOL    HW2 2475   1.751   3.573   6.077
  526SOL     OW 2476   2.943   6.628   4.176
  526SOL    HW1 2477   2.890   6.705   4.211
  526SOL    HW2 2478   2.964   6.644   4.079
  527SOL     OW 2479   0.947   1.638   0.166
  527SOL    HW1 2480   0.980   1.717   0.114
  527SOL    HW2 2481   0.847   1.639   0.166
  528SOL     OW 2482   6.843   3.357   4.256
  528SOL    HW1 2483   6.930   3.333   4.299
  528SOL    HW2 2484   6.859   3.424   4.183
  529SOL     OW 2485   1.923   0.479   6.656
  529SOL    HW1 2486   2.011   0.518   6.627
  529SOL    HW2 2487   1.939   0.398   6.712
  530SOL     OW 2488   4.124   3.848   0.486
  530SOL    HW1 2489   4.073   3.833   0.571
  530SOL    HW2 2490   4.174   3.765   0.463
  531SOL     OW 2491   1.489   0.600   1.433
  531SOL    HW1 2492   1.492   0.616   1.335
  531SOL    HW2 2493   1.502   0.502   1.452
  532SOL     OW 2494   2.696   2.253   1.013
  532SOL    HW1 2495   2.668   2.237   0.918
  532SOL    HW2 2496   2.721   2.349   1.024
  533SOL     OW 2497   3.680   0.463   4.107
  533SOL    HW1 2498   3.676   0.379   4.053
  533SOL    HW2 2499   3.759   0.461   4.167
  534SOL     OW 2500   1.255   5.234   1.466
  534SOL    HW1 2501   1.187   5.200   1.531
  534SOL    HW2 2502   1.214   5.307   1.411
  535SOL     OW 2503   5.442   3.604   3.878
  535SOL    HW1 2504   5.435   3.506   3.858
  535SOL    HW2 2505   5.367   3.631   3.938
  536SOL     OW 2506   6.428   6.132   2.422
  536SOL    HW1 2507   6.476   6.070   2.484
  536SOL    HW2 2508   6.475   6.135   2.334
  537SOL     OW 2509   2.989   1.415   4.410
  537SOL    HW1 2510   2.901   1.437   4.451
  537SOL    HW2 2511   2.999   1.316   4.402
  538SOL     OW 2512   2.759   4.541   5.604
  538SOL    HW1 2513   2.825   4.578   5.668
  538SOL    HW2 2514   2.700   4.614   5.569
  539SOL     OW 2515   1.124   0.162   0.146
  539SOL    HW1 2516   1.148   0.100   0.220
  539SOL    HW2 2517   1.078   0.243   0.184
  540SOL     OW 2518   0.548   0.650   4.238
  540SOL    HW1 2519   0.589   0.647   4.147
  540SOL    HW2 2520   0.578   0.570   4.291
  541SOL     OW 2521   4.471   6.110   4.357
  541SOL    HW1 2522   4.391   6.138   4.410
  541SOL    HW2 2523   4.504   6.022   4.390
  542SOL     OW 2524   3.054   0.430   6.626
  542SOL    HW1 2525   3.086   0.377   6.548
  542SOL    HW2 2526   2.980   0.491   6.597
  543SOL     OW 2527   5.757   2.030   3.969
  543SOL    HW1 2528   5.711   2.116   3.987
  543SOL    HW2 2529   5.811   2.003   4.050
  544SOL     OW 2530   1.303   4.270   1.138
  544SOL    HW1 2531   1.343   4.357   1.166
  544SOL    HW2 2532   1.221   4.285   1.084
  545SOL     OW 2533   6.019   1.800   1.285
  545SOL    HW1 2534   5.973   1.713   1.298
  545SOL    HW2 2535   6.008   1.830   1.190
  546SOL     OW 2536   0.552   3.804   2.609
  546SOL    HW1 2537   0.588   3.878   2.665
  546SOL    HW2 2538   0.462   3.776   2.643
  547SOL     OW 2539   4.001   1.267   6.245
  547SOL    HW1 2540   3.934   1.317   6.190
  547SOL    HW2 2541   3.998   1.170   6.220
  548SOL     OW 2542   3.115   3.000   6.863
  548SOL    HW1 2543   3.131   3.009   6.765
  548SOL    HW2 2544   3.035   3.053   6.889
  549SOL     OW 2545   6.296   2.109   1.222
  549SOL    HW1 2546   6.220   2.111   1.157
  549SOL    HW2 2547   6.326   2.015   1.235
  550SOL     OW 2548   0.180   5.537   3.308
  550SOL    HW1 2549   0.161   5.536   3.209
  550SOL    HW2 2550   0.187   5.631   3.339
  551SOL     OW 2551   6.455   1.269   0.514
  551SOL    HW1 2552   6.376   1.208   0.513
  551SOL    HW2 2553   6.473   1.301   0.421
  552SOL     OW 2554   6.039   5.203   5.688
  552SOL    HW1 2555   6.007   5.236   5.599
  552SOL    HW2 2556   6.080   5.278   5.739
  553SOL     OW 2557   3.157   0.529   5.530
  553SOL    HW1 2558   3.203   0.491   5.610
  553SOL    HW2 2559   3.068   0.486   5.519
  554SOL     OW 2560   5.786   5.958   0.885
  554SOL    HW1 2561   5.776   6.018   0.964
  554SOL    HW2 2562   5.787   6.012   0.801
  555SOL     OW 2563   1.807   4.594   5.749
  555SOL    HW1 2564   1.798   4.672   5.687
  555SOL    HW2 2565   1.733   4.598   5.817
  556SOL     OW 2566   5.127   1.106   3.708
  556SOL    HW1 2567   5.186   1.187   3.702
  556SOL    HW2 2568   5.176   1.033   3.755
  557SOL     OW 2569   6.814   4.636   6.492
  557SOL    HW1 2570   6.749   4.654   6.418
  557SOL    HW2 2571   6.854   4.545   6.480
  558SOL     OW 2572   3.267   3.824   2.384
  558SOL    HW1 2573   3.196   3.874   2.433
  558SOL    HW2 2574   3.354   3.872   2.393
  559SOL     OW 2575   6.181   6.457   5.471
  559SOL    HW1 2576   6.276   6.429   5.484
  559SOL    HW2 2577   6.171   6.502   5.383
  560SOL     OW 2578   6.304   3.376   2.550
  560SOL    HW1 2579   6.299   3.474   2.568
  560SOL    HW2 2580   6.275   3.358   2.456
  561SOL     OW 2581   1.081   3.099   6.521
  561SOL    HW1 2582   1.050   3.043   6.444
  561SOL    HW2 2583   1.179   3.088   6.533
  562SOL     OW 2584   4.024   0.617   5.550
  562SOL    HW1 2585   4.032   0.528   5.504
  562SOL    HW2 2586   4.000   0.687   5.483
  563SOL     OW 2587   1.931   1.828   4.442
  563SOL    HW1 2588   1.949   1.817   4.344
  563SOL    HW2 2589   2.017   1.830   4.492
  564SOL     OW 2590   0.144   1.967   4.891
  564SOL    HW1 2591   0.063   1.982   4.835
  564SOL    HW2 2592   0.131   1.885   4.948
  565SOL     OW 2593   3.474   3.216   3.574
  565SOL    HW1 2594   3.506   3.121   3.578
  565SOL    HW2 2595   3.450   3.239   3.479
  566SOL     OW 2596   3.153   6.411   3.054
  566SOL    HW1 2597   3.071   6.375   3.010
  566SOL    HW2 2598   3.161   6.376   3.147
  567SOL     OW 2599   2.438   3.280   6.527
  567SOL    HW1 2600   2.514   3.253   6.467
  567SOL    HW2 2601   2.432   3.216   6.603
  568SOL     OW 2602   6.847   6.789   0.389
  568SOL    HW1 2603   6.854   6.834   0.479
  568SOL    HW2 2604   6.939   6.781   0.350
  569SOL     OW 2605   6.971   2.029   0.428
  569SOL    HW1 2606   6.969   1.934   0.457
  569SOL    HW2 2607   6.960   2.089   0.508
  570SOL     OW 2608   2.728   0.288   5.745
  570SOL    HW1 2609   2.808   0.332   5.786
  570SOL    HW2 2610   2.654   0.355   5.735
  571SOL     OW 2611   2.601   4.968   2.228
  571SOL    HW1 2612   2.591   4.999   2.133
  571SOL    HW2 2613   2.688   5.000   2.265
  572SOL     OW 2614   2.377   6.749   3.911
  572SOL    HW1 2615   2.439   6.754   3.990
  572SOL    HW2 2616   2.399   6.669   3.856
  573SOL     OW 2617   6.767   1.373   5.600
  573SOL    HW1 2618   6.834   1.299   5.600
  573SOL    HW2 2619   6.739   1.394   5.693
  574SOL     OW 2620   2.849   1.840   5.727
  574SOL    HW1 2621   2.755   1.849   5.694
  574SOL    HW2 2622   2.888   1.931   5.739
  575SOL     OW 2623   2.978   3.802   0.862
  575SOL    HW1 2624   3.073   3.773   0.847
  575SOL    HW2 2625   2.921   3.722   0.881
  576SOL     OW 2626   2.044   3.104   3.021
  576SOL    HW1 2627   2.090   3.052   2.948
  576SOL    HW2 2628   2.096   3.187   3.041
  577SOL     OW 2629   0.678   1.483   1.912
  577SOL    HW1 2630   0.770   1.446   1.925
  577SOL    HW2 2631   0.637   1.445   1.830
  578SOL     OW 2632   2.154   5.817   6.510
  578SOL    HW1 2633   2.159   5.769   6.423
  578SOL    HW2 2634   2.063   5.856   6.522
  579SOL     OW 2635   2.294   4.876   2.010
  579SOL    HW1 2636   2.245   4.963   2.009
  579SOL    HW2 2637   2.391   4.892   1.991
  580SOL     OW 2638   4.301   5.127   4.931
  580SOL    HW1 2639   4.362   5.064   4.978
  580SOL    HW2 2640   4.261   5.190   4.998
  581SOL     OW 2641   1.377   2.960   3.896
  581SOL    HW1 2642   1.292   3.013   3.894
  581SOL    HW2 2643   1.362   2.872   3.851
  582SOL     OW 2644   5.645   5.139   3.631
  582SOL    HW1 2645   5.654   5.123   3.729
  582SOL    HW2 2646   5.585   5.217   3.615
  583SOL     OW 2647   3.513   5.038   5.725
  583SOL    HW1 2648   3.496   4.972   5.652
  583SOL    HW2 2649   3.436   5.038   5.789
  584SOL     OW 2650   4.461   0.777   6.698
  584SOL    HW1 2651   4.420   0.719   6.628
  584SOL    HW2 2652   4.391   0.800   6.766
  585SOL     OW 2653   2.483   6.525   1.373
  585SOL    HW1 2654   2.493   6.429   1.399
  585SOL    HW2 2655   2.568   6.574   1.393
  586SOL     OW 2656   4.275   6.792   1.173
  586SOL    HW1 2657   4.359   6.770   1.224
  586SOL    HW2 2658   4.233   6.873   1.213
  587SOL     OW 2659   5.345   2.126   2.178
  587SOL    HW1 2660   5.252   2.158   2.161
  587SOL    HW2 2661   5.407   2.165   2.109
  588SOL     OW 2662   1.026   5.468   2.186
  588SOL    HW1 2663   0.992   5.560   2.168
  588SOL    HW2 2664   1.098   5.445   2.119
  589SOL     OW 2665   3.524   6.152   1.506
  589SOL    HW1 2666   3.471   6.233   1.533
  589SOL    HW2 2667   3.477   6.070   1.538
  590SOL     OW 2668   4.780   1.793   0.062
  590SOL    HW1 2669   4.853   1.855   0.031
  590SOL    HW2 2670   4.722   1.841   0.128
  591SOL     OW 2671   4.206   6.138   4.450
  591SOL    HW1 2672   4.196   6.156   4.353
  591SOL    HW2 2673   4.174   6.217   4.502
  592SOL     OW 2674   4.475   2.499   4.490
  592SOL    HW1 2675   4.496   2.532   4.582
  592SOL    HW2 2676   4.534   2.546   4.423
  593SOL     OW 2677   3.432   1.499   5.578
  593SOL    HW1 2678   3.482   1.491   5.491
  593SOL    HW2 2679   3.498   1.506   5.653
  594SOL     OW 2680   6.118   1.300   1.629
  594SOL    HW1 2681   6.128   1.215   1.578
  594SOL    HW2 2682   6.160   1.375   1.578
  595SOL     OW 2683   5.261   5.992   2.830
  595SOL    HW1 2684   5.266   5.933   2.910
  595SOL    HW2 2685   5.301   6.082   2.852
  596SOL     OW 2686   6.660   4.009   3.710
  596SOL    HW1 2687   6.670   4.102   3.745
  596SOL    HW2 2688   6.675   3.943   3.783
  597SOL     OW 2689   2.821   0.170   6.543
  597SOL    HW1 2690   2.834   0.252   6.487
  597SOL    HW2 2691   2.726   0.139   6.534
  598SOL     OW 2692   3.093   3.140   4.385
  598SOL    HW1 2693   3.060   3.170   4.475
  598SOL    HW2 2694   3.023   3.158   4.316
  599SOL     OW 2695   1.005   5.834   2.013
  599SOL    HW1 2696   1.081   5.847   1.950
  599SOL    HW2 2697   0.926   5.797   1.963
  600SOL     OW 2698   6.901   3.964   4.928
  600SOL    HW1 2699   6.979   3.913   4.891
  600SOL    HW2 2700   6.833   3.900   4.961
  601SOL     OW 2701   1.288   0.789   5.326
  601SOL    HW1 2702   1.213   0.726   5.301
  601SOL    HW2 2703   1.358   0.738   5.376
  602SOL     OW 2704   2.843   6.061   4.313
  602SOL    HW1 2705   2.852   5.965   4.286
  602SOL    HW2 2706   2.783   6.068   4.392
  603SOL     OW 2707   1.940   0.874   5.431
  603SOL    HW1 2708   1.939   0.936   5.510
  603SOL    HW2 2709   1.967   0.925   5.349
  604SOL     OW 2710   6.558   2.780   1.882
  604SOL    HW1 2711   6.500   2.730   1.818
  604SOL    HW2 2712   6.649   2.794   1.841
  605SOL     OW 2713   0.067   5.070   2.609
  605SOL    HW1 2714   7.001   5.050   2.662
  605SOL    HW2 2715   0.075   5.005   2.534
  606SOL     OW 2716   3.554   0.137   4.798
  606SOL    HW1 2717   3.499   0.138   4.714
  606SOL    HW2 2718   3.549   0.227   4.842
  607SOL     OW 2719   1.243   4.617   6.243
  607SOL    HW1 2720   1.184   4.579   6.171
  607SOL    HW2 2721   1.295   4.693   6.205
  608SOL     OW 2722   3.476   0.715   5.615
  608SOL    HW1 2723   3.398   0.681   5.563
  608SOL    HW2 2724   3.548   0.743   5.552
  609SOL     OW 2725   4.008   2.486   1.675
  609SOL    HW1 2726   4.024   2.584   1.667
  609SOL    HW2 2727   4.059   2.438   1.603
  610SOL     OW 2728   4.670   3.478   0.796
  610SOL    HW1 2729   4.615   3.425   0.861
  610SOL    HW2 2730   4.731   3.415   0.746
  611SOL     OW 2731   3.855   0.090   2.196
  611SOL    HW1 2732   3.935   0.055   2.146
  611SOL    HW2 2733   3.817   0.168   2.146
  612SOL     OW 2734   3.967   4.370   5.994
  612SOL    HW1 2735   3.971   4.275   6.024
  612SOL    HW2 2736   3.978   4.375   5.895
  613SOL     OW 2737   4.219   5.610   5.251
  613SOL    HW1 2738   4.291   5.613   5.321
  613SOL    HW2 2739   4.220   5.695   5.199
  614SOL     OW 2740   5.214   5.797   5.889
  614SOL    HW1 2741   5.238   5.725   5.824
  614SOL    HW2 2742   5.297   5.836   5.929
  615SOL     OW 2743   0.189   5.108   1.137
  615SOL    HW1 2744   0.116   5.056   1.093
  615SOL    HW2 2745   0.215   5.185   1.078
  616SOL     OW 2746   5.894   3.048   3.190
  616SOL    HW1 2747   5.844   2.993   3.123
  616SOL    HW2 2748   5.832   3.073   3.264
  617SOL     OW 2749   2.256   5.040   6.042
  617SOL    HW1 2750   2.255   4.943   6.016
  617SOL    HW2 2751   2.300   5.050   6.131
  618SOL     OW 2752   1.135   1.153   2.119
  618SOL    HW1 2753   1.148   1.091   2.041
  618SOL    HW2 2754   1.181   1.240   2.100
  619SOL     OW 2755   0.981   1.487   6.457
  619SOL    HW1 2756   1.006   1.495   6.554
  619SOL    HW2 2757   1.002   1.395   6.425
  620SOL     OW 2758   4.929   3.421   0.331
  620SOL    HW1 2759   4.840   3.380   0.309
  620SOL    HW2 2760   5.002   3.363   0.295
  621SOL     OW 2761   0.583   4.749   0.780
  621SOL    HW1 2762   0.598   4.691   0.860
  621SOL    HW2 2763   0.572   4.844   0.808
  622SOL     OW 2764   2.011   1.458   0.405
  622SOL    HW1 2765   1.932   1.458   0.343
  622SOL    HW2 2766   2.072   1.533   0.381
  623SOL     OW 2767   0.784   4.695   6.404
  623SOL    HW1 2768   0.875   4.713   6.441
  623SOL    HW2 2769   0.727   4.653   6.475
  624SOL     OW 2770   0.825   2.539   2.914
  624SOL    HW1 2771   0.847   2.519   3.009
  624SOL    HW2 2772   0.903   2.584   2.870
  625SOL     OW 2773   2.817   1.203   2.307
  625SOL    HW1 2774   2.861   1.120   2.274
  625SOL    HW2 2775   2.875   1.282   2.285
  626SOL     OW 2776   2.131   6.693   4.413
  626SOL    HW1 2777   2.106   6.597   4.423
  626SOL    HW2 2778   2.102   6.727   4.324
  627SOL     OW 2779   5.214   0.851   0.352
  627SOL    HW1 2780   5.312   0.853   0.369
  627SOL    HW2 2781   5.169   0.921   0.408
  628SOL     OW 2782   4.880   3.925   4.058
  628SOL    HW1 2783   4.883   3.920   4.158
  628SOL    HW2 2784   4.959   3.977   4.025
  629SOL     OW 2785   0.540   6.909   1.361
  629SOL    HW1 2786   0.576   6.992   1.319
  629SOL    HW2 2787   0.527   6.924   1.459
  630SOL     OW 2788   4.427   1.459   1.001
  630SOL    HW1 2789   4.432   1.399   0.921
  630SOL    HW2 2790   4.462   1.550   0.977
  631SOL     OW 2791   2.232   6.984   5.649
  631SOL    HW1 2792   2.300   6.970   5.577
  631SOL    HW2 2793   2.271   0.022   5.721
  632SOL     OW 2794   2.388   1.136   1.053
  632SOL    HW1 2795   2.354   1.218   1.099
  632SOL    HW2 2796   2.354   1.055   1.099
  633SOL     OW 2797   3.006   6.750   6.293
  633SOL    HW1 2798   3.040   6.837   6.327
  633SOL    HW2 2799   3.039   6.676   6.352
  634SOL     OW 2800   4.129   5.801   0.989
  634SOL    HW1 2801   4.119   5.900   0.986
  634SOL    HW2 2802   4.070   5.759   0.920
  635SOL     OW 2803   2.834   6.965   2.740
  635SOL    HW1 2804   2.906   6.936   2.677
  635SOL    HW2 2805   2.800   6.885   2.789
  636SOL     OW 2806   4.911   5.348   6.586
  636SOL    HW1 2807   4.918   5.301   6.674
  636SOL    HW2 2808   4.848   5.298   6.527
  637SOL     OW 2809   4.950   4.694   1.378
  637SOL    HW1 2810   4.864   4.680   1.330
  637SOL    HW2 2811   4.940   4.670   1.474
  638SOL     OW 2812   4.851   1.139   1.963
  638SOL    HW1 2813   4.902   1.107   1.884
  638SOL    HW2 2814   4.855   1.070   2.035
  639SOL     OW 2815   4.145   4.789   2.238
  639SOL    HW1 2816   4.219   4.736   2.196
  639SOL    HW2 2817   4.078   4.813   2.168
  640SOL     OW 2818   3.228   4.107   5.214
  640SOL    HW1 2819   3.181   4.025   5.183
  640SOL    HW2 2820   3.161   4.174   5.248
  641SOL     OW 2821   6.991   6.051   5.013
  641SOL    HW1 2822   6.994   5.962   4.968
  641SOL    HW2 2823   6.982   6.123   4.943
  642SOL     OW 2824   0.300   4.901   4.750
  642SOL    HW1 2825   0.391   4.928   4.784
  642SOL    HW2 2826   0.295   4.801   4.745
  643SOL     OW 2827   6.347   5.295   5.995
  643SOL    HW1 2828   6.370   5.310   6.091
  643SOL    HW2 2829   6.248   5.304   5.983
  644SOL     OW 2830   0.376   6.958   2.415
  644SOL    HW1 2831   0.351   6.868   2.451
  644SOL    HW2 2832   0.474   6.959   2.395
  645SOL     OW 2833   5.709   2.647   3.922
  645SOL    HW1 2834   5.631   2.669   3.980
  645SOL    HW2 2835   5.794   2.674   3.968
  646SOL     OW 2836   1.456   1.264   4.734
  646SOL    HW1 2837   1.394   1.190   4.706
  646SOL    HW2 2838   1.402   1.343   4.763
  647SOL     OW 2839   5.888   2.990   0.345
  647SOL    HW1 2840   5.970   3.015   0.397
  647SOL    HW2 2841   5.807   3.008   0.401
  648SOL     OW 2842   5.854   4.176   2.095
  648SOL    HW1 2843   5.912   4.173   2.176
  648SOL    HW2 2844   5.761   4.145   2.118
  649SOL     OW 2845   3.984   4.821   0.742
  649SOL    HW1 2846   4.044   4.792   0.816
  649SOL    HW2 2847   3.896   4.849   0.779
  650SOL     OW 2848   4.719   4.216   0.460
  650SOL    HW1 2849   4.755   4.286   0.522
  650SOL    HW2 2850   4.726   4.126   0.503
  651SOL     OW 2851   0.841   6.118   0.351
  651SOL    HW1 2852   0.799   6.037   0.391
  651SOL    HW2 2853   0.847   6.190   0.420
  652SOL     OW 2854   4.496   1.368   2.343
  652SOL    HW1 2855   4.454   1.369   2.434
  652SOL    HW2 2856   4.436   1.415   2.278
  653SOL     OW 2857   3.738   4.988   4.061
  653SOL    HW1 2858   3.650   4.943   4.048
  653SOL    HW2 2859   3.727   5.066   4.122
  654SOL     OW 2860   0.046   5.067   6.901
  654SOL    HW1 2861   0.079   5.009   6.975
  654SOL    HW2 2862   0.036   5.013   6.818
  655SOL     OW 2863   0.793   0.738   0.744
  655SOL    HW1 2864   0.797   0.653   0.692
  655SOL    HW2 2865   0.874   0.745   0.802
  656SOL     OW 2866   2.251   6.478   2.503
  656SOL    HW1 2867   2.179   6.486   2.573
  656SOL    HW2 2868   2.241   6.552   2.437
  657SOL     OW 2869   3.570   1.210   0.508
  657SOL    HW1 2870   3.644   1.196   0.443
  657SOL    HW2 2871   3.550   1.125   0.555
  658SOL     OW 2872   3.095   3.937   6.688
  658SOL    HW1 2873   3.085   3.847   6.730
  658SOL    HW2 2874   3.192   3.952   6.665
  659SOL     OW 2875   3.293   6.873   6.886
  659SOL    HW1 2876   3.217   6.915   6.936
  659SOL    HW2 2877   3.265   6.783   6.853
  660SOL     OW 2878   3.487   5.527   2.606
  660SOL    HW1 2879   3.579   5.561   2.629
  660SOL    HW2 2880   3.493   5.470   2.524
  661SOL     OW 2881   4.459   5.611   2.970
  661SOL    HW1 2882   4.494   5.674   2.900
  661SOL    HW2 2883   4.364   5.633   2.990
  662SOL     OW 2884   3.566   1.372   6.126
  662SOL    HW1 2885   3.563   1.453   6.184
  662SOL    HW2 2886   3.479   1.364   6.076
  663SOL     OW 2887   2.441   5.037   5.412
  663SOL    HW1 2888   2.398   4.951   5.383
  663SOL    HW2 2889   2.540   5.030   5.402
  664SOL     OW 2890   6.858   0.428   6.831
  664SOL    HW1 2891   6.760   0.445   6.829
  664SOL    HW2 2892   6.889   0.421   6.926
  665SOL     OW 2893   2.631   5.276   3.439
  665SOL    HW1 2894   2.557   5.272   3.372
  665SOL    HW2 2895   2.718   5.288   3.391
  666SOL     OW 2896   3.880   0.592   1.707
  666SOL    HW1 2897   3.883   0.498   1.741
  666SOL    HW2 2898   3.973   0.627   1.697
  667SOL     OW 2899   0.978   6.310   1.974
  667SOL    HW1 2900   0.926   6.291   2.058
  667SOL    HW2 2901   0.967   6.234   1.910
  668SOL     OW 2902   5.440   4.114   6.232
  668SOL    HW1 2903   5.503   4.164   6.171
  668SOL    HW2 2904   5.458   4.016   6.224
  669SOL     OW 2905   5.213   0.957   2.555
  669SOL    HW1 2906   5.223   1.056   2.568
  669SOL    HW2 2907   5.135   0.924   2.608
  670SOL     OW 2908   1.105   2.377   3.786
  670SOL    HW1 2909   1.032   2.446   3.787
  670SOL    HW2 2910   1.155   2.380   3.872
  671SOL     OW 2911   2.292   6.199   1.488
  671SOL    HW1 2912   2.220   6.255   1.530
  671SOL    HW2 2913   2.266   6.103   1.495
  672SOL     OW 2914   0.699   6.745   1.958
  672SOL    HW1 2915   0.632   6.812   1.929
  672SOL    HW2 2916   0.658   6.683   2.026
  673SOL     OW 2917   5.478   6.525   0.974
  673SOL    HW1 2918   5.497   6.563   0.883
  673SOL    HW2 2919   5.442   6.596   1.034
  674SOL     OW 2920   0.121   0.620   5.017
  674SOL    HW1 2921   0.119   0.557   4.939
  674SOL    HW2 2922   0.028   0.652   5.038
  675SOL     OW 2923   6.206   2.531   2.574
  675SOL    HW1 2924   6.272   2.473   2.622
  675SOL    HW2 2925   6.127   2.547   2.633
  676SOL     OW 2926   2.350   4.592   5.593
  676SOL    HW1 2927   2.286   4.561   5.522
  676SOL    HW2 2928   2.337   4.538   5.676
  677SOL     OW 2929   4.691   1.059   1.111
  677SOL    HW1 2930   4.707   1.154   1.138
  677SOL    HW2 2931   4.706   0.999   1.190
  678SOL     OW 2932   2.266   4.106   5.560
  678SOL    HW1 2933   2.294   4.129   5.466
  678SOL    HW2 2934   2.166   4.097   5.563
  679SOL     OW 2935   4.980   1.935   5.197
  679SOL    HW1 2936   5.037   1.956   5.118
  679SOL    HW2 2937   4.894   1.895   5.167
  680SOL     OW 2938   5.079   6.608   4.258
  680SOL    HW1 2939   5.130   6.522   4.268
  680SOL    HW2 2940   5.059   6.645   4.349
  681SOL     OW 2941   5.000   5.835   1.942
  681SOL    HW1 2942   5.088   5.813   1.984
  681SOL    HW2 2943   5.005   5.820   1.843
  682SOL     OW 2944   0.984   0.913   2.772
  682SOL    HW1 2945   1.060   0.970   2.803
  682SOL    HW2 2946   1.013   0.857   2.694
  683SOL     OW 2947   4.173   3.655   1.090
  683SOL    HW1 2948   4.237   3.705   1.147
  683SOL    HW2 2949   4.208   3.563   1.072
  684SOL     OW 2950   6.260   0.013   6.369
  684SOL    HW1 2951   6.330   0.005   6.298
  684SOL    HW2 2952   6.183   0.065   6.334
  685SOL     OW 2953   3.646   0.623   3.335
  685SOL    HW1 2954   3.678   0.631   3.241
  685SOL    HW2 2955   3.548   0.642   3.338
  686SOL     OW 2956   4.097   1.209   4.129
  686SOL    HW1 2957   4.010   1.258   4.130
  686SOL    HW2 2958   4.105   1.152   4.211
  687SOL     OW 2959   1.081   2.107   4.592
  687SOL    HW1 2960   1.153   2.052   4.550
  687SOL    HW2 2961   1.003   2.113   4.530
  688SOL     OW 2962   6.732   1.690   6.820
  688SOL    HW1 2963   6.715   1.623   6.748
  688SOL    HW2 2964   6.697   1.779   6.791
  689SOL     OW 2965   1.510   5.159   5.622
  689SOL    HW1 2966   1.455   5.100   5.680
  689SOL    HW2 2967   1.584   5.199   5.676
  690SOL     OW 2968   6.271   3.618   2.652
  690SOL    HW1 2969   6.201   3.592   2.718
  690SOL    HW2 2970   6.253   3.710   2.618
  691SOL     OW 2971   4.123   1.833   6.690
  691SOL    HW1 2972   4.170   1.745   6.688
  691SOL    HW2 2973   4.033   1.823   6.648
  692SOL     OW 2974   2.935   1.606   5.160
  692SOL    HW1 2975   3.020   1.654   5.184
  692SOL    HW2 2976   2.891   1.652   5.083
  693SOL     OW 2977   5.050   6.108   3.313
  693SOL    HW1 2978   5.039   6.063   3.401
  693SOL    HW2 2979   4.999   6.194   3.312
  694SOL     OW 2980   4.347   5.735   4.607
  694SOL    HW1 2981   4.347   5.650   4.556
  694SOL    HW2 2982   4.368   5.716   4.703
  695SOL     OW 2983   3.180   6.621   3.970
  695SOL    HW1 2984   3.182   6.527   3.936
  695SOL    HW2 2985   3.085   6.653   3.971
  696SOL     OW 2986   5.120   3.908   2.951
  696SOL    HW1 2987   5.103   3.965   3.031
  696SOL    HW2 2988   5.035   3.900   2.898
  697SOL     OW 2989   0.708   4.985   2.371
  697SOL    HW1 2990   0.775   5.025   2.433
  697SOL    HW2 2991   0.635   5.051   2.354
  698SOL     OW 2992   5.288   6.825   1.386
  698SOL    HW1 2993   5.197   6.806   1.424
  698SOL    HW2 2994   5.281   6.897   1.318
  699SOL     OW 2995   2.875   2.059   0.625
  699SOL    HW1 2996   2.805   2.038   0.556
  699SOL    HW2 2997   2.939   1.983   0.631
  700SOL     OW 2998   3.460   0.163   2.826
  700SOL    HW1 2999   3.381   0.156   2.888
  700SOL    HW2 3000   3.538   0.200   2.877
  701SOL     OW 3001   6.190   4.928   1.743
  701SOL    HW1 3002   6.175   4.848   1.800
  701SOL    HW2 3003   6.274   4.916   1.690
  702SOL     OW 3004   2.773   1.171   4.292
  702SOL    HW1 3005   2.694   1.143   4.347
  702SOL    HW2 3006   2.855   1.170   4.349
  703SOL     OW 3007   3.217   2.696   5.769
  703SOL    HW1 3008   3.236   2.773   5.829
  703SOL    HW2 3009   3.125   2.662   5.786
  704SOL     OW 3010   1.801   3.108   6.094
  704SOL    HW1 3011   1.778   3.181   6.029
  704SOL    HW2 3012   1.718   3.055   6.114
  705SOL     OW 3013   6.891   6.047   4.242
  705SOL    HW1 3014   6.833   6.112   4.289
  705SOL    HW2 3015   6.907   5.967   4.301
  706SOL     OW 3016   4.583   1.273   5.114
  706SOL    HW1 3017   4.573   1.338   5.040
  706SOL    HW2 3018   4.497   1.221   5.125
  707SOL     OW 3019   3.310   4.953   3.340
  707SOL    HW1 3020   3.399   4.930   3.381
  707SOL    HW2 3021   3.307   4.916   3.247
  708SOL     OW 3022   3.154   1.023   3.634
  708SOL    HW1 3023   3.060   1.039   3.606
  708SOL    HW2 3024   3.216   1.049   3.560
  709SOL     OW 3025   2.127   0.136   1.753
  709SOL    HW1 3026   2.058   0.093   1.811
  709SOL    HW2 3027   2.216   0.134   1.799
  710SOL     OW 3028   4.493   2.899   1.687
  710SOL    HW1 3029   4.570   2.946   1.731
  710SOL    HW2 3030   4.519   2.875   1.593
  711SOL     OW 3031   0.352   2.172   5.882
  711SOL    HW1 3032   0.400   2.091   5.915
  711SOL    HW2 3033   0.272   2.190   5.939
  712SOL     OW 3034   4.568   3.187   0.572
  712SOL    HW1 3035   4.653   3.217   0.615
  712SOL    HW2 3036   4.589   3.120   0.501
  713SOL     OW 3037   4.130   2.709   5.316
  713SOL    HW1 3038   4.148   2.631   5.256
  713SOL    HW2 3039   4.067   2.772   5.271
  714SOL     OW 3040   5.997   4.514   3.240
  714SOL    HW1 3041   6.052   4.581   3.289
  714SOL    HW2 3042   5.901   4.524   3.267
  715SOL     OW 3043   6.530   5.180   5.809
  715SOL    HW1 3044   6.522   5.184   5.709
  715SOL    HW2 3045   6.441   5.199   5.850
  716SOL     OW 3046   2.062   0.880   2.584
  716SOL    HW1 3047   2.057   0.980   2.591
  716SOL    HW2 3048   2.127   0.846   2.653
  717SOL     OW 3049   5.448   4.960   3.989
  717SOL    HW1 3050   5.446   4.867   3.953
  717SOL    HW2 3051   5.519   5.013   3.942
  718SOL     OW 3052   5.171   1.812   4.135
  718SOL    HW1 3053   5.171   1.847   4.229
  718SOL    HW2 3054   5.108   1.865   4.079
  719SOL     OW 3055   6.045   0.560   2.594
  719SOL    HW1 3056   6.083   0.518   2.677
  719SOL    HW2 3057   5.955   0.599   2.616
  720SOL     OW 3058   1.903   1.117   0.226
  720SOL    HW1 3059   1.885   1.136   0.323
  720SOL    HW2 3060   1.821   1.079   0.183
  721SOL     OW 3061   6.902   2.418   2.958
  721SOL    HW1 3062   6.871   2.401   2.864
  721SOL    HW2 3063   6.986   2.366   2.975
  722SOL     OW 3064   4.200   0.005   6.929
  722SOL    HW1 3065   4.265   0.080   6.943
  722SOL    HW2 3066   4.107   0.039   6.941
  723SOL     OW 3067   2.342   6.230   3.915
  723SOL    HW1 3068   2.296   6.301   3.967
  723SOL    HW2 3069   2.440   6.249   3.912
  724SOL     OW 3070   1.075   1.031   3.890
  724SOL    HW1 3071   1.050   0.964   3.820
  724SOL    HW2 3072   1.093   0.983   3.977
  725SOL     OW 3073   1.880   4.548   1.989
  725SOL    HW1 3074   1.959   4.496   2.021
  725SOL    HW2 3075   1.798   4.517   2.038
  726SOL     OW 3076   2.244   5.084   0.677
  726SOL    HW1 3077   2.216   5.177   0.700
  726SOL    HW2 3078   2.251   5.030   0.761
  727SOL     OW 3079   4.645   5.225   5.785
  727SOL    HW1 3080   4.606   5.315   5.805
  727SOL    HW2 3081   4.669   5.221   5.688
  728SOL     OW 3082   6.896   3.155   4.975
  728SOL    HW1 3083   6.833   3.089   4.935
  728SOL    HW2 3084   6.913   3.131   5.071
  729SOL     OW 3085   0.198   3.470   1.298
  729SOL    HW1 3086   0.149   3.524   1.229
  729SOL    HW2 3087   0.143   3.391   1.323
  730SOL     OW 3088   4.892   0.723   2.702
  730SOL    HW1 3089   4.904   0.632   2.741
  730SOL    HW2 3090   4.965   0.783   2.735
  731SOL     OW 3091   4.605   4.447   6.970
  731SOL    HW1 3092   4.678   4.380   6.978
  731SOL    HW2 3093   4.604   4.505   0.033
  732SOL     OW 3094   4.772   1.560   2.994
  732SOL    HW1 3095   4.718   1.530   3.073
  732SOL    HW2 3096   4.844   1.492   2.976
  733SOL     OW 3097   6.435   6.343   3.362
  733SOL    HW1 3098   6.445   6.400   3.444
  733SOL    HW2 3099   6.429   6.247   3.389
  734SOL     OW 3100   6.069   5.546   2.798
  734SOL    HW1 3101   6.001   5.549   2.724
  734SOL    HW2 3102   6.048   5.617   2.865
  735SOL     OW 3103   5.354   0.501   1.932
  735SOL    HW1 3104   5.298   0.584   1.928
  735SOL    HW2 3105   5.314   0.432   1.871
  736SOL     OW 3106   1.550   1.754   4.395
  736SOL    HW1 3107   1.595   1.841   4.376
  736SOL    HW2 3108   1.612   1.695   4.448
  737SOL     OW 3109   5.318   1.220   6.255
  737SOL    HW1 3110   5.315   1.141   6.317
  737SOL    HW2 3111   5.255   1.205   6.179
  738SOL     OW 3112   2.431   4.342   1.199
  738SOL    HW1 3113   2.525   4.373   1.215
  738SOL    HW2 3114   2.368   4.397   1.254
  739SOL     OW 3115   3.053   6.855   4.812
  739SOL    HW1 3116   3.004   6.799   4.879
  739SOL    HW2 3117   2.987   6.905   4.755
  740SOL     OW 3118   5.692   1.988   3.080
  740SOL    HW1 3119   5.788   2.014   3.097
  740SOL    HW2 3120   5.674   1.899   3.122
  741SOL     OW 3121   2.519   0.703   3.718
  741SOL    HW1 3122   2.553   0.797   3.709
  741SOL    HW2 3123   2.593   0.639   3.700
  742SOL     OW 3124   1.695   6.706   1.359
  742SOL    HW1 3125   1.718   6.748   1.271
  742SOL    HW2 3126   1.599   6.679   1.358
  743SOL     OW 3127   1.036   6.200   3.694
  743SOL    HW1 3128   0.938   6.181   3.695
  743SOL    HW2 3129   1.086   6.117   3.669
  744SOL     OW 3130   5.406   1.282   0.497
  744SOL    HW1 3131   5.419   1.246   0.404
  744SOL    HW2 3132   5.451   1.220   0.562
  745SOL     OW 3133   2.118   5.603   5.033
  745SOL    HW1 3134   2.130   5.587   4.935
  745SOL    HW2 3135   2.093   5.518   5.078
  746SOL     OW 3136   5.620   4.695   5.751
  746SOL    HW1 3137   5.547   4.628   5.761
  746SOL    HW2 3138   5.701   4.664   5.801
  747SOL     OW 3139   5.549   5.380   3.226
  747SOL    HW1 3140   5.462   5.336   3.246
  747SOL    HW2 3141   5.618   5.311   3.207
  748SOL     OW 3142   5.263   5.704   2.666
  748SOL    HW1 3143   5.168   5.704   2.638
  748SOL    HW2 3144   5.318   5.652   2.601
  749SOL     OW 3145   5.320   4.320   3.674
  749SOL    HW1 3146   5.223   4.340   3.660
  749SOL    HW2 3147   5.333   4.221   3.682
  750SOL     OW 3148   2.530   1.664   1.896
  750SOL    HW1 3149   2.512   1.567   1.907
  750SOL    HW2 3150   2.549   1.684   1.800
  751SOL     OW 3151   4.707   1.200   0.216
  751SOL    HW1 3152   4.759   1.116   0.227
  751SOL    HW2 3153   4.644   1.190   0.139
  752SOL     OW 3154   3.247   2.638   5.339
  752SOL    HW1 3155   3.173   2.631   5.406
  752SOL    HW2 3156   3.250   2.554   5.283
  753SOL     OW 3157   3.847   4.125   4.918
  753SOL    HW1 3158   3.857   4.077   4.831
  753SOL    HW2 3159   3.852   4.224   4.903
  754SOL     OW 3160   5.234   0.712   6.210
  754SOL    HW1 3161   5.157   0.699   6.148
  754SOL    HW2 3162   5.244   0.631   6.268
  755SOL     OW 3163   3.472   4.361   5.461
  755SOL    HW1 3164   3.466   4.460   5.472
  755SOL    HW2 3165   3.389   4.319   5.498
  756SOL     OW 3166   2.551   5.252   6.376
  756SOL    HW1 3167   2.596   5.303   6.303
  756SOL    HW2 3168   2.473   5.304   6.411
  757SOL     OW 3169   1.869   6.998   2.697
  757SOL    HW1 3170   1.861   0.073   2.662
  757SOL    HW2 3171   1.795   6.942   2.658
  758SOL     OW 3172   3.297   1.582   3.985
  758SOL    HW1 3173   3.383   1.596   4.033
  758SOL    HW2 3174   3.231   1.653   4.013
  759SOL     OW 3175   0.413   3.060   4.384
  759SOL    HW1 3176   0.451   2.972   4.356
  759SOL    HW2 3177   0.472   3.134   4.352
  760SOL     OW 3178   6.603   6.787   3.885
  760SOL    HW1 3179   6.640   6.702   3.923
  760SOL    HW2 3180   6.514   6.768   3.843
  761SOL     OW 3181   4.512   4.120   5.682
  761SOL    HW1 3182   4.471   4.033   5.708
  761SOL    HW2 3183   4.451   4.168   5.619
  762SOL     OW 3184   2.631   5.893   4.716
  762SOL    HW1 3185   2.569   5.877   4.639
  762SOL    HW2 3186   2.606   5.832   4.792
  763SOL     OW 3187   5.840   0.822   6.513
  763SOL    HW1 3188   5.897   0.831   6.430
  763SOL    HW2 3189   5.847   0.907   6.566
  764SOL     OW 3190   5.354   6.855   5.153
  764SOL    HW1 3191   5.322   6.949   5.147
  764SOL    HW2 3192   5.372   6.831   5.248
  765SOL     OW 3193   0.707   6.597   0.862
  765SOL    HW1 3194   0.713   6.648   0.948
  765SOL    HW2 3195   0.759   6.644   0.791
  766SOL     OW 3196   1.514   2.614   5.202
  766SOL    HW1 3197   1.505   2.585   5.297
  766SOL    HW2 3198   1.437   2.579   5.149
  767SOL     OW 3199   0.024   6.728   4.028
  767SOL    HW1 3200   0.009   6.826   4.013
  767SOL    HW2 3201   6.994   6.675   3.958
  768SOL     OW 3202   2.540   6.221   2.294
  768SOL    HW1 3203   2.533   6.138   2.349
  768SOL    HW2 3204   2.627   6.222   2.245
  769SOL     OW 3205   2.940   2.042   4.953
  769SOL    HW1 3206   2.993   2.081   5.029
  769SOL    HW2 3207   2.925   2.112   4.884
  770SOL     OW 3208   2.128   4.787   4.567
  770SOL    HW1 3209   2.074   4.799   4.651
  770SOL    HW2 3210   2.077   4.825   4.490
  771SOL     OW 3211   1.064   5.285   2.671
  771SOL    HW1 3212   1.003   5.264   2.747
  771SOL    HW2 3213   1.133   5.351   2.700
  772SOL     OW 3214   4.944   4.967   6.732
  772SOL    HW1 3215   4.896   4.884   6.760
  772SOL    HW2 3216   4.929   5.039   6.799
  773SOL     OW 3217   0.925   3.626   3.607
  773SOL    HW1 3218   0.977   3.583   3.533
  773SOL    HW2 3219   0.947   3.581   3.693
  774SOL     OW 3220   2.408   1.107   3.485
  774SOL    HW1 3221   2.317   1.115   3.445
  774SOL    HW2 3222   2.474   1.158   3.429
  775SOL     OW 3223   2.142   4.030   4.342
  775SOL    HW1 3224   2.176   4.002   4.252
  775SOL    HW2 3225   2.117   3.948   4.395
  776SOL     OW 3226   2.221   6.294   6.477
  776SOL    HW1 3227   2.233   6.353   6.397
  776SOL    HW2 3228   2.130   6.253   6.474
  777SOL     OW 3229   2.221   4.007   6.961
  777SOL    HW1 3230   2.287   4.073   6.997
  777SOL    HW2 3231   2.267   3.947   6.895
  778SOL     OW 3232   3.190   6.743   1.611
  778SOL    HW1 3233   3.091   6.754   1.602
  778SOL    HW2 3234   3.210   6.659   1.660
  779SOL     OW 3235   0.389   2.191   2.303
  779SOL    HW1 3236   0.413   2.288   2.303
  779SOL    HW2 3237   0.290   2.181   2.313
  780SOL     OW 3238   1.292   1.681   5.631
  780SOL    HW1 3239   1.333   1.614   5.693
  780SOL    HW2 3240   1.302   1.650   5.536
  781SOL     OW 3241   0.635   3.862   0.910
  781SOL    HW1 3242   0.679   3.848   0.821
  781SOL    HW2 3243   0.643   3.958   0.935
  782SOL     OW 3244   1.648   3.861   6.277
  782SOL    HW1 3245   1.598   3.939   6.314
  782SOL    HW2 3246   1.731   3.846   6.331
  783SOL     OW 3247   5.503   4.425   6.826
  783SOL    HW1 3248   5.442   4.480   6.769
  783SOL    HW2 3249   5.598   4.447   6.804
  784SOL     OW 3250   3.267   6.184   0.842
  784SOL    HW1 3251   3.189   6.186   0.905
  784SOL    HW2 3252   3.326   6.262   0.861
  785SOL     OW 3253   0.631   0.415   4.412
  785SOL    HW1 3254   0.663   0.332   4.367
  785SOL    HW2 3255   0.709   0.464   4.453
  786SOL     OW 3256   6.721   0.958   3.312
  786SOL    HW1 3257   6.637   1.009   3.329
  786SOL    HW2 3258   6.800   1.016   3.333
  787SOL     OW 3259   2.718   0.127   0.476
  787SOL    HW1 3260   2.769   0.077   0.406
  787SOL    HW2 3261   2.632   0.161   0.436
  788SOL     OW 3262   3.749   3.339   0.721
  788SOL    HW1 3263   3.826   3.386   0.764
  788SOL    HW2 3264   3.709   3.273   0.785
  789SOL     OW 3265   4.726   5.624   1.307
  789SOL    HW1 3266   4.646   5.584   1.351
  789SOL    HW2 3267   4.702   5.712   1.267
  790SOL     OW 3268   0.434   3.042   2.082
  790SOL    HW1 3269   0.452   2.944   2.080
  790SOL    HW2 3270   0.411   3.073   1.990
  791SOL     OW 3271   3.174   5.146   5.196
  791SOL    HW1 3272   3.109   5.113   5.128
  791SOL    HW2 3273   3.258   5.177   5.151
  792SOL     OW 3274   1.081   1.066   0.924
  792SOL    HW1 3275   1.132   1.080   0.840
  792SOL    HW2 3276   1.134   1.006   0.985
  793SOL     OW 3277   3.451   5.999   3.912
  793SOL    HW1 3278   3.387   5.937   3.866
  793SOL    HW2 3279   3.539   5.996   3.866
  794SOL     OW 3280   3.478   3.260   3.291
  794SOL    HW1 3281   3.467   3.340   3.233
  794SOL    HW2 3282   3.462   3.177   3.237
  795SOL     OW 3283   3.916   0.493   6.378
  795SOL    HW1 3284   3.891   0.588   6.392
  795SOL    HW2 3285   3.885   0.438   6.456
  796SOL     OW 3286   1.566   3.528   6.815
  796SOL    HW1 3287   1.629   3.488   6.882
  796SOL    HW2 3288   1.509   3.456   6.776
  797SOL     OW 3289   4.938   0.113   0.754
  797SOL    HW1 3290   4.931   0.094   0.852
  797SOL    HW2 3291   4.853   0.087   0.709
  798SOL     OW 3292   3.914   6.892   0.205
  798SOL    HW1 3293   3.993   6.944   0.238
  798SOL    HW2 3294   3.836   6.953   0.194
  799SOL     OW 3295   1.481   1.969   6.731
  799SOL    HW1 3296   1.390   1.948   6.764
  799SOL    HW2 3297   1.519   1.890   6.684
  800SOL     OW 3298   6.241   2.271   1.463
  800SOL    HW1 3299   6.151   2.309   1.440
  800SOL    HW2 3300   6.275   2.216   1.386
  801SOL     OW 3301   1.789   5.447   5.491
  801SOL    HW1 3302   1.734   5.466   5.572
  801SOL    HW2 3303   1.882   5.425   5.518
  802SOL     OW 3304   5.426   2.307   0.032
  802SOL    HW1 3305   5.463   2.400   0.035
  802SOL    HW2 3306   5.352   2.303   6.983
  803SOL     OW 3307   2.644   0.851   5.527
  803SOL    HW1 3308   2.634   0.884   5.621
  803SOL    HW2 3309   2.598   0.913   5.464
  804SOL     OW 3310   6.499   0.454   1.523
  804SOL    HW1 3311   6.512   0.443   1.621
  804SOL    HW2 3312   6.493   0.364   1.480
  805SOL     OW 3313   3.199   0.575   3.681
  805SOL    HW1 3314   3.180   0.506   3.751
  805SOL    HW2 3315   3.296   0.570   3.655
  806SOL     OW 3316   1.504   6.432   5.104
  806SOL    HW1 3317   1.567   6.447   5.179
  806SOL    HW2 3318   1.437   6.363   5.129
  807SOL     OW 3319   0.528   6.423   5.575
  807SOL    HW1 3320   0.454   6.490   5.585
  807SOL    HW2 3321   0.560   6.394   5.665
  808SOL     OW 3322   5.446   3.005   0.237
  808SOL    HW1 3323   5.534   2.963   0.214
  808SOL    HW2 3324   5.460   3.073   0.309
  809SOL     OW 3325   1.269   5.057   0.316
  809SOL    HW1 3326   1.318   5.004   0.247
  809SOL    HW2 3327   1.226   4.995   0.382
  810SOL     OW 3328   2.965   3.450   0.411
  810SOL    HW1 3329   2.875   3.478   0.379
  810SOL    HW2 3330   3.035   3.484   0.349
  811SOL     OW 3331   5.558   4.771   4.466
  811SOL    HW1 3332   5.490   4.841   4.488
  811SOL    HW2 3333   5.534   4.727   4.379
  812SOL     OW 3334   0.716   2.663   2.237
  812SOL    HW1 3335   0.752   2.583   2.189
  812SOL    HW2 3336   0.696   2.639   2.332
  813SOL     OW 3337   1.596   1.903   5.148
  813SOL    HW1 3338   1.638   1.947   5.069
  813SOL    HW2 3339   1.528   1.836   5.117
  814SOL     OW 3340   1.151   5.423   3.231
  814SOL    HW1 3341   1.077   5.416   3.298
  814SOL    HW2 3342   1.160   5.336   3.182
  815SOL     OW 3343   4.922   2.228   3.852
  815SOL    HW1 3344   4.956   2.172   3.928
  815SOL    HW2 3345   4.826   2.207   3.835
  816SOL     OW 3346   5.423   3.639   0.449
  816SOL    HW1 3347   5.326   3.659   0.462
  816SOL    HW2 3348   5.471   3.723   0.422
  817SOL     OW 3349   1.154   4.794   0.122
  817SOL    HW1 3350   1.163   4.708   0.073
  817SOL    HW2 3351   1.244   4.825   0.152
  818SOL     OW 3352   6.035   2.611   3.843
  818SOL    HW1 3353   5.978   2.688   3.814
  818SOL    HW2 3354   6.020   2.534   3.782
  819SOL     OW 3355   5.144   2.588   1.893
  819SOL    HW1 3356   5.214   2.559   1.957
  819SOL    HW2 3357   5.146   2.688   1.883
  820SOL     OW 3358   2.240   1.871   5.259
  820SOL    HW1 3359   2.232   1.965   5.227
  820SOL    HW2 3360   2.333   1.838   5.248
  821SOL     OW 3361   5.342   3.970   5.139
  821SOL    HW1 3362   5.379   3.967   5.046
  821SOL    HW2 3363   5.355   3.881   5.184
  822SOL     OW 3364   0.642   4.370   3.522
  822SOL    HW1 3365   0.612   4.276   3.538
  822SOL    HW2 3366   0.588   4.411   3.449
  823SOL     OW 3367   0.776   3.375   5.719
  823SOL    HW1 3368   0.763   3.287   5.764
  823SOL    HW2 3369   0.867   3.410   5.741
  824SOL     OW 3370   5.416   1.231   5.130
  824SOL    HW1 3371   5.336   1.256   5.076
  824SOL    HW2 3372   5.413   1.279   5.218
  825SOL     OW 3373   6.942   6.007   1.281
  825SOL    HW1 3374   0.014   5.999   1.239
  825SOL    HW2 3375   6.871   5.990   1.213
  826SOL     OW 3376   3.801   1.314   5.471
  826SOL    HW1 3377   3.723   1.352   5.422
  826SOL    HW2 3378   3.772   1.284   5.562
  827SOL     OW 3379   3.404   3.870   4.016
  827SOL    HW1 3380   3.350   3.835   3.940
  827SOL    HW2 3381   3.354   3.942   4.063
  828SOL     OW 3382   5.973   5.624   4.875
  828SOL    HW1 3383   5.985   5.566   4.795
  828SOL    HW2 3384   6.026   5.708   4.864
  829SOL     OW 3385   3.387   2.870   2.725
  829SOL    HW1 3386   3.440   2.946   2.689
  829SOL    HW2 3387   3.307   2.906   2.774
  830SOL     OW 3388   6.690   4.610   0.145
  830SOL    HW1 3389   6.629   4.531   0.146
  830SOL    HW2 3390   6.646   4.687   0.192
  831SOL     OW 3391   5.700   6.136   1.110
  831SOL    HW1 3392   5.790   6.129   1.153
  831SOL    HW2 3393   5.674   6.232   1.102
  832SOL     OW 3394   3.244   2.072   4.902
  832SOL    HW1 3395   3.204   1.984   4.926
  832SOL    HW2 3396   3.190   2.146   4.943
  833SOL     OW 3397   1.936   3.131   6.335
  833SOL    HW1 3398   1.898   3.102   6.247
  833SOL    HW2 3399   1.946   3.051   6.394
  834SOL     OW 3400   4.958   3.507   6.731
  834SOL    HW1 3401   4.973   3.565   6.811
  834SOL    HW2 3402   4.967   3.411   6.758
  835SOL     OW 3403   1.096   0.348   4.368
  835SOL    HW1 3404   1.162   0.399   4.313
  835SOL    HW2 3405   1.145   0.286   4.431
  836SOL     OW 3406   3.053   1.093   5.001
  836SOL    HW1 3407   3.052   1.192   5.015
  836SOL    HW2 3408   2.985   1.068   4.933
  837SOL     OW 3409   1.667   0.569   0.900
  837SOL    HW1 3410   1.575   0.585   0.864
  837SOL    HW2 3411   1.731   0.636   0.861
  838SOL     OW 3412   2.020   5.780   3.684
  838SOL    HW1 3413   2.079   5.835   3.625
  838SOL    HW2 3414   1.949   5.838   3.723
  839SOL     OW 3415   1.420   1.634   0.842
  839SOL    HW1 3416   1.356   1.656   0.767
  839SOL    HW2 3417   1.379   1.660   0.929
  840SOL     OW 3418   5.049   5.767   0.275
  840SOL    HW1 3419   5.058   5.677   0.319
  840SOL    HW2 3420   4.984   5.761   0.199
  841SOL     OW 3421   3.743   4.867   5.730
  841SOL    HW1 3422   3.794   4.848   5.646
  841SOL    HW2 3423   3.668   4.930   5.710
  842SOL     OW 3424   3.122   0.557   0.410
  842SOL    HW1 3425   3.071   0.482   0.370
  842SOL    HW2 3426   3.183   0.523   0.481
  843SOL     OW 3427   1.182   1.628   2.139
  843SOL    HW1 3428   1.182   1.594   2.233
  843SOL    HW2 3429   1.249   1.577   2.085
  844SOL     OW 3430   6.416   6.889   0.990
  844SOL    HW1 3431   6.495   6.950   0.983
  844SOL    HW2 3432   6.334   6.937   0.959
  845SOL     OW 3433   3.538   1.620   2.568
  845SOL    HW1 3434   3.544   1.708   2.521
  845SOL    HW2 3435   3.481   1.630   2.649
  846SOL     OW 3436   2.613   1.714   0.151
  846SOL    HW1 3437   2.519   1.723   0.118
  846SOL    HW2 3438   2.614   1.719   0.251
  847SOL     OW 3439   2.419   4.109   1.466
  847SOL    HW1 3440   2.413   4.060   1.378
  847SOL    HW2 3441   2.365   4.193   1.460
  848SOL     OW 3442   6.567   6.248   6.476
  848SOL    HW1 3443   6.586   6.164   6.528
  848SOL    HW2 3444   6.616   6.245   6.389
  849SOL     OW 3445   6.097   4.109   0.558
  849SOL    HW1 3446   6.160   4.037   0.531
  849SOL    HW2 3447   6.093   4.178   0.486
  850SOL     OW 3448   6.934   0.750   5.575
  850SOL    HW1 3449   6.894   0.658   5.577
  850SOL    HW2 3450   7.011   0.751   5.511
  851SOL     OW 3451   6.614   3.212   6.050
  851SOL    HW1 3452   6.710   3.234   6.068
  851SOL    HW2 3453   6.556   3.282   6.092
  852SOL     OW 3454   0.013   3.646   2.146
  852SOL    HW1 3455   6.944   3.615   2.108
  852SOL    HW2 3456   0.084   3.640   2.077
  853SOL     OW 3457   2.103   3.934   0.187
  853SOL    HW1 3458   2.079   3.837   0.182
  853SOL    HW2 3459   2.167   3.956   0.113
  854SOL     OW 3460   5.955   6.478   0.086
  854SOL    HW1 3461   6.028   6.543   0.065
  854SOL    HW2 3462   5.995   6.387   0.101
  855SOL     OW 3463   6.546   1.165   0.233
  855SOL    HW1 3464   6.606   1.087   0.216
  855SOL    HW2 3465   6.561   1.235   0.164
  856SOL     OW 3466   2.253   6.762   6.943
  856SOL    HW1 3467   2.176   6.699   6.943
  856SOL    HW2 3468   2.311   6.743   0.004
  857SOL     OW 3469   6.799   5.270   4.282
  857SOL    HW1 3470   6.800   5.331   4.204
  857SOL    HW2 3471   6.706   5.266   4.321
  858SOL     OW 3472   3.738   3.474   0.351
  858SOL    HW1 3473   3.780   3.386   0.328
  858SOL    HW2 3474   3.640   3.469   0.333
  859SOL     OW 3475   3.829   0.003   5.121
  859SOL    HW1 3476   3.881   6.940   5.095
  859SOL    HW2 3477   3.815   0.003   5.221
  860SOL     OW 3478   5.642   2.827   5.384
  860SOL    HW1 3479   5.590   2.903   5.345
  860SOL    HW2 3480   5.648   2.839   5.483
  861SOL     OW 3481   2.339   6.030   2.558
  861SOL    HW1 3482   2.359   5.937   2.591
  861SOL    HW2 3483   2.278   6.024   2.480
  862SOL     OW 3484   1.708   4.324   3.644
  862SOL    HW1 3485   1.751   4.239   3.675
  862SOL    HW2 3486   1.635   4.349   3.708
  863SOL     OW 3487   0.403   0.628   6.550
  863SOL    HW1 3488   0.448   0.657   6.634
  863SOL    HW2 3489   0.472   0.603   6.482
  864SOL     OW 3490   4.968   0.148   5.210
  864SOL    HW1 3491   4.971   0.246   5.192
  864SOL    HW2 3492   4.935   0.099   5.129
  865SOL     OW 3493   1.640   5.863   4.389
  865SOL    HW1 3494   1.700   5.795   4.433
  865SOL    HW2 3495   1.620   5.834   4.296
  866SOL     OW 3496   2.295   6.512   1.909
  866SOL    HW1 3497   2.349   6.517   1.993
  866SOL    HW2 3498   2.353   6.534   1.831
  867SOL     OW 3499   5.656   2.203   0.133
  867SOL    HW1 3500   5.577   2.208   0.072
  867SOL    HW2 3501   5.639   2.262   0.213
  868SOL     OW 3502   6.645   2.266   2.048
  868SOL    HW1 3503   6.583   2.202   2.093
  868SOL    HW2 3504   6.602   2.356   2.043
  869SOL     OW 3505   0.098   4.021   3.636
  869SOL    HW1 3506   0.146   4.069   3.563
  869SOL    HW2 3507   0.140   4.045   3.724
  870SOL     OW 3508   3.374   5.072   1.529
  870SOL    HW1 3509   3.277   5.092   1.540
  870SOL    HW2 3510   3.427   5.137   1.584
  871SOL     OW 3511   4.834   1.836   3.432
  871SOL    HW1 3512   4.792   1.749   3.456
  871SOL    HW2 3513   4.933   1.830   3.446
  872SOL     OW 3514   6.843   2.720   4.024
  872SOL    HW1 3515   6.834   2.621   4.021
  872SOL    HW2 3516   6.797   2.760   3.945
  873SOL     OW 3517   4.489   6.653   5.790
  873SOL    HW1 3518   4.449   6.655   5.882
  873SOL    HW2 3519   4.529   6.563   5.774
  874SOL     OW 3520   5.683   3.898   0.683
  874SOL    HW1 3521   5.679   3.799   0.666
  874SOL    HW2 3522   5.736   3.942   0.610
  875SOL     OW 3523   5.082   5.409   1.216
  875SOL    HW1 3524   5.023   5.364   1.283
  875SOL    HW2 3525   5.119   5.341   1.153
  876SOL     OW 3526   0.432   5.930   2.139
  876SOL    HW1 3527   0.394   5.842   2.111
  876SOL    HW2 3528   0.436   5.991   2.059
  877SOL     OW 3529   3.108   4.535   6.903
  877SOL    HW1 3530   3.151   4.543   6.993
  877SOL    HW2 3531   3.151   4.461   6.851
  878SOL     OW 3532   3.831   0.032   4.029
  878SOL    HW1 3533   3.867   0.004   4.118
  878SOL    HW2 3534   3.878   6.998   3.957
  879SOL     OW 3535   4.595   0.557   0.389
  879SOL    HW1 3536   4.501   0.529   0.374
  879SOL    HW2 3537   4.648   0.478   0.422
  880SOL     OW 3538   2.984   3.422   3.304
  880SOL    HW1 3539   2.950   3.515   3.290
  880SOL    HW2 3540   3.035   3.393   3.223
  881SOL     OW 3541   4.847   2.459   5.362
  881SOL    HW1 3542   4.894   2.397   5.299
  881SOL    HW2 3543   4.763   2.416   5.394
  882SOL     OW 3544   1.112   3.267   4.955
  882SOL    HW1 3545   1.184   3.335   4.941
  882SOL    HW2 3546   1.153   3.181   4.985
  883SOL     OW 3547   2.944   0.315   2.707
  883SOL    HW1 3548   2.989   0.229   2.684
  883SOL    HW2 3549   3.012   0.387   2.715
  884SOL     OW 3550   4.898   2.932   4.956
  884SOL    HW1 3551   4.885   3.009   4.894
  884SOL    HW2 3552   4.852   2.950   5.043
  885SOL     OW 3553   3.115   1.273   5.854
  885SOL    HW1 3554   3.129   1.332   5.774
  885SOL    HW2 3555   3.018   1.255   5.865
  886SOL     OW 3556   3.447   0.669   0.104
  886SOL    HW1 3557   3.375   0.737   0.115
  886SOL    HW2 3558   3.469   0.659   0.007
  887SOL     OW 3559   3.926   0.500   3.676
  887SOL    HW1 3560   3.983   0.575   3.709
  887SOL    HW2 3561   3.984   0.423   3.649
  888SOL     OW 3562   0.846   1.061   2.968
  888SOL    HW1 3563   0.921   1.016   3.017
  888SOL    HW2 3564   0.870   1.071   2.872
  889SOL     OW 3565   0.930   3.855   6.963
  889SOL    HW1 3566   0.888   3.835   0.034
  889SOL    HW2 3567   0.929   3.773   6.907
  890SOL     OW 3568   1.935   5.531   3.881
  890SOL    HW1 3569   1.990   5.604   3.920
  890SOL    HW2 3570   1.875   5.568   3.811
  891SOL     OW 3571   5.059   5.036   0.885
  891SOL    HW1 3572   5.035   4.978   0.963
  891SOL    HW2 3573   5.158   5.047   0.880
  892SOL     OW 3574   2.428   3.996   5.738
  892SOL    HW1 3575   2.365   4.062   5.697
  892SOL    HW2 3576   2.404   3.904   5.710
  893SOL     OW 3577   2.053   6.190   3.038
  893SOL    HW1 3578   2.119   6.124   3.073
  893SOL    HW2 3579   2.079   6.219   2.946
  894SOL     OW 3580   1.338   3.570   1.583
  894SOL    HW1 3581   1.429   3.551   1.621
  894SOL    HW2 3582   1.348   3.628   1.502
  895SOL     OW 3583   0.592   5.294   3.190
  895SOL    HW1 3584   0.535   5.333   3.263
  895SOL    HW2 3585   0.668   5.355   3.172
  896SOL     OW 3586   6.641   5.388   0.189
  896SOL    HW1 3587   6.566   5.379   0.255
  896SOL    HW2 3588   6.666   5.297   0.155
  897SOL     OW 3589   5.005   1.055   0.452
  897SOL    HW1 3590   5.022   0.987   0.523
  897SOL    HW2 3591   4.942   1.017   0.384
  898SOL     OW 3592   3.276   5.526   2.768
  898SOL    HW1 3593   3.206   5.474   2.718
  898SOL    HW2 3594   3.353   5.543   2.707
  899SOL     OW 3595   0.991   5.492   6.248
  899SOL    HW1 3596   0.951   5.583   6.243
  899SOL    HW2 3597   0.941   5.430   6.187
  900SOL     OW 3598   5.849   6.794   6.947
  900SOL    HW1 3599   5.909   6.720   6.917
  900SOL    HW2 3600   5.830   6.783   0.027
  901SOL     OW 3601   1.986   0.448   2.595
  901SOL    HW1 3602   1.933   0.522   2.554
  901SOL    HW2 3603   1.967   0.444   2.693
  902SOL     OW 3604   6.555   3.204   0.226
  902SOL    HW1 3605   6.513   3.240   0.309
  902SOL    HW2 3606   6.644   3.165   0.248
  903SOL     OW 3607   7.007   2.415   6.547
  903SOL    HW1 3608   0.045   2.438   6.468
  903SOL    HW2 3609   0.042   2.357   6.609
  904SOL     OW 3610   3.062   2.241   3.630
  904SOL    HW1 3611   3.074   2.164   3.693
  904SOL    HW2 3612   3.004   2.310   3.673
  905SOL     OW 3613   5.519   2.519   0.552
  905SOL    HW1 3614   5.432   2.553   0.588
  905SOL    HW2 3615   5.576   2.597   0.525
  906SOL     OW 3616   0.693   1.972   5.852
  906SOL    HW1 3617   0.781   1.943   5.815
  906SOL    HW2 3618   0.624   1.903   5.833
  907SOL     OW 3619   5.100   3.657   6.958
  907SOL    HW1 3620   5.046   3.644   0.023
  907SOL    HW2 3621   5.182   3.710   6.980
  908SOL     OW 3622   2.703   4.680   2.251
  908SOL    HW1 3623   2.745   4.651   2.165
  908SOL    HW2 3624   2.643   4.759   2.234
  909SOL     OW 3625   4.327   4.981   6.592
  909SOL    HW1 3626   4.280   4.925   6.524
  909SOL    HW2 3627   4.363   5.063   6.547
  910SOL     OW 3628   2.548   3.003   1.214
  910SOL    HW1 3629   2.642   3.039   1.211
  910SOL    HW2 3630   2.549   2.911   1.251
  911SOL     OW 3631   1.669   5.723   6.051
  911SOL    HW1 3632   1.661   5.763   5.959
  911SOL    HW2 3633   1.698   5.794   6.115
  912SOL     OW 3634   5.316   3.281   3.622
  912SOL    HW1 3635   5.258   3.360   3.601
  912SOL    HW2 3636   5.295   3.207   3.557
  913SOL     OW 3637   5.688   6.755   3.373
  913SOL    HW1 3638   5.678   6.682   3.306
  913SOL    HW2 3639   5.637   6.835   3.343
  914SOL     OW 3640   2.560   0.442   6.926
  914SOL    HW1 3641   2.642   0.401   6.885
  914SOL    HW2 3642   2.583   0.478   7.016
  915SOL     OW 3643   5.850   5.137   0.196
  915SOL    HW1 3644   5.918   5.150   0.268
  915SOL    HW2 3645   5.804   5.224   0.177
  916SOL     OW 3646   0.974   2.532   2.497
  916SOL    HW1 3647   0.984   2.627   2.526
  916SOL    HW2 3648   1.006   2.522   2.403
  917SOL     OW 3649   0.280   6.796   0.391
  917SOL    HW1 3650   0.334   6.738   0.452
  917SOL    HW2 3651   0.329   6.881   0.374
  918SOL     OW 3652   2.557   6.420   0.956
  918SOL    HW1 3653   2.503   6.337   0.971
  918SOL    HW2 3654   2.654   6.397   0.956
  919SOL     OW 3655   5.782   1.907   3.503
  919SOL    HW1 3656   5.760   2.002   3.527
  919SOL    HW2 3657   5.737   1.845   3.568
  920SOL     OW 3658   2.671   4.624   1.444
  920SOL    HW1 3659   2.680   4.721   1.465
  920SOL    HW2 3660   2.636   4.575   1.524
  921SOL     OW 3661   5.287   5.731   4.614
  921SOL    HW1 3662   5.264   5.785   4.533
  921SOL    HW2 3663   5.370   5.678   4.597
  922SOL     OW 3664   3.766   3.793   3.982
  922SOL    HW1 3665   3.730   3.882   4.007
  922SOL    HW2 3666   3.693   3.724   3.988
  923SOL     OW 3667   2.235   2.960   5.500
  923SOL    HW1 3668   2.294   3.040   5.512
  923SOL    HW2 3669   2.291   2.877   5.499
  924SOL     OW 3670   6.809   4.013   2.064
  924SOL    HW1 3671   6.897   4.024   2.020
  924SOL    HW2 3672   6.821   4.002   2.163
  925SOL     OW 3673   6.606   1.736   0.274
  925SOL    HW1 3674   6.646   1.813   0.225
  925SOL    HW2 3675   6.547   1.770   0.347
  926SOL     OW 3676   0.455   2.032   2.079
  926SOL    HW1 3677   0.463   2.086   2.162
  926SOL    HW2 3678   0.442   2.094   2.001
  927SOL     OW 3679   5.563   4.044   3.841
  927SOL    HW1 3680   5.545   3.988   3.922
  927SOL    HW2 3681   5.480   4.050   3.786
  928SOL     OW 3682   3.414   6.016   6.580
  928SOL    HW1 3683   3.463   5.930   6.593
  928SOL    HW2 3684   3.460   6.089   6.630
  929SOL     OW 3685   6.420   1.535   6.381
  929SOL    HW1 3686   6.361   1.470   6.335
  929SOL    HW2 3687   6.405   1.530   6.480
  930SOL     OW 3688   4.373   4.817   6.301
  930SOL    HW1 3689   4.373   4.725   6.261
  930SOL    HW2 3690   4.452   4.868   6.267
  931SOL     OW 3691   6.304   2.394   3.261
  931SOL    HW1 3692   6.245   2.454   3.208
  931SOL    HW2 3693   6.395   2.433   3.267
  932SOL     OW 3694   3.920   0.577   3.394
  932SOL    HW1 3695   3.946   0.548   3.485
  932SOL    HW2 3696   3.821   0.591   3.390
  933SOL     OW 3697   1.738   4.856   2.924
  933SOL    HW1 3698   1.757   4.884   2.830
  933SOL    HW2 3699   1.812   4.887   2.983
  934SOL     OW 3700   2.186   5.321   6.296
  934SOL    HW1 3701   2.105   5.285   6.250
  934SOL    HW2 3702   2.253   5.351   6.229
  935SOL     OW 3703   5.521   3.648   3.311
  935SOL    HW1 3704   5.448   3.584   3.287
  935SOL    HW2 3705   5.552   3.695   3.228
  936SOL     OW 3706   1.765   0.193   6.107
  936SOL    HW1 3707   1.723   0.118   6.056
  936SOL    HW2 3708   1.815   0.156   6.186
  937SOL     OW 3709   4.486   0.749   5.565
  937SOL    HW1 3710   4.428   0.670   5.549
  937SOL    HW2 3711   4.440   0.812   5.628
  938SOL     OW 3712   6.798   5.420   4.041
  938SOL    HW1 3713   6.871   5.481   4.009
  938SOL    HW2 3714   6.769   5.362   3.965
  939SOL     OW 3715   0.097   6.913   5.217
  939SOL    HW1 3716   0.062   6.837   5.162
  939SOL    HW2 3717   0.118   6.990   5.158
  940SOL     OW 3718   2.084   4.889   0.555
  940SOL    HW1 3719   2.059   4.804   0.603
  940SOL    HW2 3720   2.106   4.959   0.623
  941SOL     OW 3721   3.911   0.094   6.546
  941SOL    HW1 3722   4.003   0.100   6.584
  941SOL    HW2 3723   3.913   0.042   6.460
  942SOL     OW 3724   0.091   5.550   0.585
  942SOL    HW1 3725   0.145   5.468   0.600
  942SOL    HW2 3726   0.105   5.614   0.661
  943SOL     OW 3727   2.959   4.862   2.518
  943SOL    HW1 3728   2.961   4.916   2.602
  943SOL    HW2 3729   2.869   4.820   2.508
  944SOL     OW 3730   0.380   6.503   4.280
  944SOL    HW1 3731   0.450   6.551   4.227
  944SOL    HW2 3732   0.420   6.473   4.367
  945SOL     OW 3733   0.932   5.716   5.803
  945SOL    HW1 3734   0.865   5.734   5.732
  945SOL    HW2 3735   0.980   5.630   5.784
  946SOL     OW 3736   4.811   4.293   4.003
  946SOL    HW1 3737   4.732   4.354   4.010
  946SOL    HW2 3738   4.885   4.340   3.955
  947SOL     OW 3739   3.834   4.070   3.938
  947SOL    HW1 3740   3.857   4.062   4.035
  947SOL    HW2 3741   3.896   4.013   3.885
  948SOL     OW 3742   4.738   1.503   2.361
  948SOL    HW1 3743   4.779   1.476   2.448
  948SOL    HW2 3744   4.650   1.457   2.350
  949SOL     OW 3745   3.213   6.584   6.923
  949SOL    HW1 3746   3.124   6.550   6.892
  949SOL    HW2 3747   3.268   6.508   6.957
  950SOL     OW 3748   6.791   6.037   2.365
  950SOL    HW1 3749   6.785   6.038   2.465
  950SOL    HW2 3750   6.874   5.989   2.337
  951SOL     OW 3751   1.557   0.219   3.255
  951SOL    HW1 3752   1.532   0.197   3.160
  951SOL    HW2 3753   1.484   0.188   3.316
  952SOL     OW 3754   4.389   1.960   1.956
  952SOL    HW1 3755   4.464   1.966   1.890
  952SOL    HW2 3756   4.305   1.994   1.914
  953SOL     OW 3757   0.135   5.404   4.700
  953SOL    HW1 3758   0.036   5.390   4.693
  953SOL    HW2 3759   0.176   5.322   4.742
  954SOL     OW 3760   4.985   5.632   2.645
  954SOL    HW1 3761   4.953   5.537   2.647
  954SOL    HW2 3762   4.945   5.679   2.565
  955SOL     OW 3763   1.021   4.466   6.663
  955SOL    HW1 3764   1.083   4.391   6.687
  955SOL    HW2 3765   1.057   4.514   6.583
  956SOL     OW 3766   6.431   0.543   1.056
  956SOL    HW1 3767   6.350   0.527   1.000
  956SOL    HW2 3768   6.475   0.628   1.029
  957SOL     OW 3769   6.394   2.343   3.545
  957SOL    HW1 3770   6.341   2.389   3.473
  957SOL    HW2 3771   6.472   2.296   3.503
  958SOL     OW 3772   5.593   6.959   2.197
  958SOL    HW1 3773   5.562   6.884   2.256
  958SOL    HW2 3774   5.535   0.021   2.213
  959SOL     OW 3775   3.343   6.957   3.846
  959SOL    HW1 3776   3.316   0.030   3.878
  959SOL    HW2 3777   3.376   6.903   3.924
  960SOL     OW 3778   0.967   0.416   0.178
  960SOL    HW1 3779   0.901   0.365   0.123
  960SOL    HW2 3780   0.950   0.514   0.169
  961SOL     OW 3781   3.358   6.481   3.329
  961SOL    HW1 3782   3.418   6.457   3.406
  961SOL    HW2 3783   3.330   6.576   3.338
  962SOL     OW 3784   6.578   0.026   5.453
  962SOL    HW1 3785   6.599   6.955   5.411
  962SOL    HW2 3786   6.603   0.024   5.549
  963SOL     OW 3787   4.666   2.546   1.091
  963SOL    HW1 3788   4.571   2.517   1.086
  963SOL    HW2 3789   4.671   2.646   1.089
  964SOL     OW 3790   5.059   4.123   5.331
  964SOL    HW1 3791   5.075   4.136   5.233
  964SOL    HW2 3792   5.035   4.211   5.372
  965SOL     OW 3793   5.451   2.096   3.156
  965SOL    HW1 3794   5.529   2.043   3.121
  965SOL    HW2 3795   5.368   2.068   3.108
  966SOL     OW 3796   5.280   1.970   3.859
  966SOL    HW1 3797   5.236   1.900   3.915
  966SOL    HW2 3798   5.258   1.956   3.763
  967SOL     OW 3799   4.748   4.187   6.233
  967SOL    HW1 3800   4.659   4.142   6.239
  967SOL    HW2 3801   4.793   4.162   6.148
  968SOL     OW 3802   3.795   0.175   1.504
  968SOL    HW1 3803   3.890   0.149   1.525
  968SOL    HW2 3804   3.793   0.268   1.468
  969SOL     OW 3805   3.405   4.635   5.621
  969SOL    HW1 3806   3.337   4.664   5.553
  969SOL    HW2 3807   3.358   4.615   5.707
  970SOL     OW 3808   5.955   0.444   5.998
  970SOL    HW1 3809   5.930   0.363   6.051
  970SOL    HW2 3810   5.873   0.496   5.976
  971SOL     OW 3811   6.301   4.308   2.974
  971SOL    HW1 3812   6.281   4.288   3.069
  971SOL    HW2 3813   6.320   4.406   2.964
  972SOL     OW 3814   0.089   2.488   1.093
  972SOL    HW1 3815   0.015   2.425   1.114
  972SOL    HW2 3816   0.175   2.437   1.087
  973SOL     OW 3817   6.714   3.908   6.152
  973SOL    HW1 3818   6.760   3.907   6.241
  973SOL    HW2 3819   6.733   3.822   6.104
  974SOL     OW 3820   7.018   4.851   4.384
  974SOL    HW1 3821   6.958   4.904   4.325
  974SOL    HW2 3822   0.060   4.912   4.435
  975SOL     OW 3823   2.078   0.079   2.174
  975SOL    HW1 3824   2.162   0.031   2.198
  975SOL    HW2 3825   2.054   0.143   2.247
  976SOL     OW 3826   6.435   4.358   1.980
  976SOL    HW1 3827   6.400   4.409   2.059
  976SOL    HW2 3828   6.527   4.392   1.958
  977SOL     OW 3829   0.434   1.290   2.714
  977SOL    HW1 3830   0.449   1.322   2.620
  977SOL    HW2 3831   0.399   1.366   2.770
  978SOL     OW 3832   5.431   2.524   2.319
  978SOL    HW1 3833   5.418   2.581   2.400
  978SOL    HW2 3834   5.516   2.472   2.329
  979SOL     OW 3835   6.832   3.528   0.262
  979SOL    HW1 3836   6.786   3.499   0.178
  979SOL    HW2 3837   6.828   3.454   0.330
  980SOL     OW 3838   3.605   1.452   5.071
  980SOL    HW1 3839   3.569   1.373   5.022
  980SOL    HW2 3840   3.578   1.536   5.024
  981SOL     OW 3841   6.571   6.949   4.976
  981SOL    HW1 3842   6.643   6.946   4.906
  981SOL    HW2 3843   6.599   7.011   5.049
  982SOL     OW 3844   0.212   1.449   5.168
  982SOL    HW1 3845   0.296   1.503   5.161
  982SOL    HW2 3846   0.152   1.470   5.091
  983SOL     OW 3847   0.662   3.732   3.524
  983SOL    HW1 3848   0.628   3.803   3.585
  983SOL    HW2 3849   0.760   3.718   3.541
  984SOL     OW 3850   1.863   1.708   2.583
  984SOL    HW1 3851   1.823   1.617   2.573
  984SOL    HW2 3852   1.803   1.766   2.637
  985SOL     OW 3853   6.296   3.404   4.040
  985SOL    HW1 3854   6.246   3.488   4.060
  985SOL    HW2 3855   6.293   3.386   3.941
  986SOL     OW 3856   5.295   4.482   1.439
  986SOL    HW1 3857   5.250   4.472   1.527
  986SOL    HW2 3858   5.392   4.463   1.448
  987SOL     OW 3859   5.977   5.008   3.535
  987SOL    HW1 3860   6.076   4.992   3.546
  987SOL    HW2 3861   5.962   5.101   3.503
  988SOL     OW 3862   3.416   3.864   1.517
  988SOL    HW1 3863   3.479   3.909   1.582
  988SOL    HW2 3864   3.327   3.854   1.560
  989SOL     OW 3865   0.185   1.841   1.112
  989SOL    HW1 3866   0.113   1.910   1.100
  989SOL    HW2 3867   0.153   1.770   1.176
  990SOL     OW 3868   3.620   0.144   3.237
  990SOL    HW1 3869   3.621   0.127   3.336
  990SOL    HW2 3870   3.538   0.102   3.197
  991SOL     OW 3871   0.072   4.332   3.975
  991SOL    HW1 3872   0.085   4.312   4.072
  991SOL    HW2 3873   6.998   4.306   3.948
  992SOL     OW 3874   0.619   2.727   1.327
  992SOL    HW1 3875   0.637   2.730   1.228
  992SOL    HW2 3876   0.618   2.820   1.363
  993SOL     OW 3877   2.043   5.268   1.002
  993SOL    HW1 3878   2.136   5.244   1.030
  993SOL    HW2 3879   1.978   5.230   1.068
  994SOL     OW 3880   3.325   6.553   0.861
  994SOL    HW1 3881   3.387   6.631   0.864
  994SOL    HW2 3882   3.377   6.469   0.875
  995SOL     OW 3883   4.951   3.882   5.428
  995SOL    HW1 3884   4.976   3.979   5.427
  995SOL    HW2 3885   4.954   3.846   5.335
  996SOL     OW 3886   3.795   6.100   5.539
  996SOL    HW1 3887   3.738   6.164   5.589
  996SOL    HW2 3888   3.874   6.074   5.595
  997SOL     OW 3889   1.597   6.127   4.266
  997SOL    HW1 3890   1.662   6.058   4.298
  997SOL    HW2 3891   1.640   6.182   4.195
  998SOL     OW 3892   5.670   0.338   6.247
  998SOL    HW1 3893   5.729   0.308   6.172
  998SOL    HW2 3894   5.684   0.436   6.262
  999SOL     OW 3895   4.892   3.416   1.902
  999SOL    HW1 3896   4.949   3.343   1.865
  999SOL    HW2 3897   4.807   3.422   1.849
 1000SOL     OW 3898   3.821   1.615   1.340
 1000SOL    HW1 3899   3.728   1.646   1.357
 1000SOL    HW2 3900   3.885   1.676   1.388
 1001SOL     OW 3901   2.803   0.060   2.395
 1001SOL    HW1 3902   2.829   0.097   2.485
 1001SOL    HW2 3903   2.882   0.065   2.334
 1002SOL     OW 3904   5.465   2.989   1.127
 1002SOL    HW1 3905   5.495   3.084   1.133
 1002SOL    HW2 3906   5.405   2.969   1.204
 1003SOL     OW 3907   1.314   5.745   2.120
 1003SOL    HW1 3908   1.241   5.795   2.167
 1003SOL    HW2 3909   1.284   5.651   2.101
 1004SOL     OW 3910   5.489   1.840   3.286
 1004SOL    HW1 3911   5.492   1.932   3.324
 1004SOL    HW2 3912   5.471   1.774   3.359
 1005SOL     OW 3913   1.386   4.899   4.383
 1005SOL    HW1 3914   1.323   4.930   4.455
 1005SOL    HW2 3915   1.389   4.966   4.310
 1006SOL     OW 3916   2.402   3.741   0.481
 1006SOL    HW1 3917   2.421   3.731   0.578
 1006SOL    HW2 3918   2.487   3.740   0.429
 1007SOL     OW 3919   4.569   1.887   6.480
 1007SOL    HW1 3920   4.667   1.909   6.486
 1007SOL    HW2 3921   4.551   1.837   6.396
 1008SOL     OW 3922   0.551   4.657   5.120
 1008SOL    HW1 3923   0.479   4.590   5.137
 1008SOL    HW2 3924   0.512   4.739   5.078
 1009SOL     OW 3925   6.258   5.064   5.548
 1009SOL    HW1 3926   6.307   5.151   5.547
 1009SOL    HW2 3927   6.170   5.076   5.594
 1010SOL     OW 3928   2.023   3.141   1.438
 1010SOL    HW1 3929   2.110   3.134   1.389
 1010SOL    HW2 3930   2.023   3.223   1.495
 1011SOL     OW 3931   0.931   4.688   2.645
 1011SOL    HW1 3932   1.000   4.630   2.602
 1011SOL    HW2 3933   0.974   4.770   2.683
 1012SOL     OW 3934   5.906   0.380   2.430
 1012SOL    HW1 3935   5.947   0.455   2.482
 1012SOL    HW2 3936   5.808   0.394   2.423
 1013SOL     OW 3937   6.891   1.120   6.133
 1013SOL    HW1 3938   6.880   1.033   6.084
 1013SOL    HW2 3939   6.967   1.171   6.092
 1014SOL     OW 3940   1.183   5.197   4.158
 1014SOL    HW1 3941   1.161   5.100   4.163
 1014SOL    HW2 3942   1.123   5.248   4.219
 1015SOL     OW 3943   3.398   0.189   6.373
 1015SOL    HW1 3944   3.447   0.123   6.316
 1015SOL    HW2 3945   3.328   0.141   6.426
 1016SOL     OW 3946   5.178   4.323   1.700
 1016SOL    HW1 3947   5.208   4.263   1.774
 1016SOL    HW2 3948   5.231   4.407   1.703
 1017SOL     OW 3949   2.265   1.435   2.416
 1017SOL    HW1 3950   2.167   1.417   2.427
 1017SOL    HW2 3951   2.282   1.478   2.327
 1018SOL     OW 3952   0.420   5.151   3.780
 1018SOL    HW1 3953   0.504   5.198   3.753
 1018SOL    HW2 3954   0.432   5.110   3.870
 1019SOL     OW 3955   0.192   4.950   0.555
 1019SOL    HW1 3956   0.096   4.950   0.527
 1019SOL    HW2 3957   0.234   4.862   0.532
 1020SOL     OW 3958   6.875   0.095   1.000
 1020SOL    HW1 3959   6.889   0.070   1.096
 1020SOL    HW2 3960   6.871   0.195   0.992
 1021SOL     OW 3961   6.061   5.845   1.520
 1021SOL    HW1 3962   6.017   5.785   1.453
 1021SOL    HW2 3963   6.158   5.854   1.497
 1022SOL     OW 3964   2.521   6.292   6.383
 1022SOL    HW1 3965   2.538   6.251   6.473
 1022SOL    HW2 3966   2.491   6.222   6.319
 1023SOL     OW 3967   0.167   1.762   3.533
 1023SOL    HW1 3968   0.210   1.788   3.446
 1023SOL    HW2 3969   0.143   1.665   3.530
 1024SOL     OW 3970   1.369   2.060   4.953
 1024SOL    HW1 3971   1.467   2.073   4.967
 1024SOL    HW2 3972   1.339   2.109   4.871
 1025SOL     OW 3973   4.966   3.661   0.173
 1025SOL    HW1 3974   4.940   3.592   0.240
 1025SOL    HW2 3975   5.034   3.722   0.213
 1026SOL     OW 3976   3.362   2.459   1.344
 1026SOL    HW1 3977   3.407   2.542   1.378
 1026SOL    HW2 3978   3.366   2.388   1.415
 1027SOL     OW 3979   1.274   6.536   1.372
 1027SOL    HW1 3980   1.195   6.474   1.372
 1027SOL    HW2 3981   1.295   6.562   1.467
 1028SOL     OW 3982   1.015   5.875   2.885
 1028SOL    HW1 3983   1.047   5.822   2.963
 1028SOL    HW2 3984   1.041   5.970   2.896
 1029SOL     OW 3985   1.488   1.986   5.743
 1029SOL    HW1 3986   1.512   2.032   5.829
 1029SOL    HW2 3987   1.388   1.981   5.735
 1030SOL     OW 3988   3.201   3.540   1.525
 1030SOL    HW1 3989   3.168   3.609   1.460
 1030SOL    HW2 3990   3.195   3.576   1.618
 1031SOL     OW 3991   3.541   3.316   1.621
 1031SOL    HW1 3992   3.560   3.407   1.585
 1031SOL    HW2 3993   3.443   3.297   1.617
 1032SOL     OW 3994   2.036   1.754   5.950
 1032SOL    HW1 3995   1.991   1.754   5.861
 1032SOL    HW2 3996   2.129   1.789   5.940
 1033SOL     OW 3997   0.882   6.021   2.180
 1033SOL    HW1 3998   0.791   5.986   2.201
 1033SOL    HW2 3999   0.935   5.949   2.135
 1034SOL     OW 4000   3.533   6.812   4.564
 1034SOL    HW1 4001   3.487   6.900   4.561
 1034SOL    HW2 4002   3.493   6.755   4.636
 1035SOL     OW 4003   0.389   1.497   5.653
 1035SOL    HW1 4004   0.476   1.449   5.650
 1035SOL    HW2 4005   0.375   1.546   5.566
 1036SOL     OW 4006   5.153   1.627   1.040
 1036SOL    HW1 4007   5.122   1.635   0.945
 1036SOL    HW2 4008   5.200   1.712   1.066
 1037SOL     OW 4009   1.859   2.656   2.737
 1037SOL    HW1 4010   1.914   2.634   2.817
 1037SOL    HW2 4011   1.893   2.741   2.695
 1038SOL     OW 4012   2.832   0.353   6.869
 1038SOL    HW1 4013   2.868   0.313   6.785
 1038SOL    HW2 4014   2.877   0.312   6.948
 1039SOL     OW 4015   3.795   3.264   3.719
 1039SOL    HW1 4016   3.855   3.296   3.645
 1039SOL    HW2 4017   3.817   3.169   3.741
 1040SOL     OW 4018   3.848   0.783   2.707
 1040SOL    HW1 4019   3.772   0.727   2.741
 1040SOL    HW2 4020   3.887   0.741   2.626
 1041SOL     OW 4021   6.509   6.181   5.382
 1041SOL    HW1 4022   6.492   6.258   5.444
 1041SOL    HW2 4023   6.528   6.216   5.290
 1042SOL     OW 4024   4.818   4.575   2.231
 1042SOL    HW1 4025   4.723   4.558   2.206
 1042SOL    HW2 4026   4.830   4.558   2.329
 1043SOL     OW 4027   3.133   1.396   3.476
 1043SOL    HW1 4028   3.228   1.366   3.473
 1043SOL    HW2 4029   3.091   1.365   3.561
 1044SOL     OW 4030   5.829   5.058   1.477
 1044SOL    HW1 4031   5.810   5.105   1.564
 1044SOL    HW2 4032   5.853   4.963   1.496
 1045SOL     OW 4033   2.330   0.509   3.916
 1045SOL    HW1 4034   2.389   0.454   3.975
 1045SOL    HW2 4035   2.387   0.569   3.859
 1046SOL     OW 4036   3.464   1.317   1.074
 1046SOL    HW1 4037   3.474   1.309   1.173
 1046SOL    HW2 4038   3.548   1.356   1.036
 1047SOL     OW 4039   3.406   6.996   3.161
 1047SOL    HW1 4040   3.391   6.992   3.259
 1047SOL    HW2 4041   3.336   0.034   3.117
 1048SOL     OW 4042   1.734   5.730   2.113
 1048SOL    HW1 4043   1.691   5.737   2.023
 1048SOL    HW2 4044   1.833   5.721   2.103
 1049SOL     OW 4045   3.584   0.132   5.143
 1049SOL    HW1 4046   3.518   0.116   5.069
 1049SOL    HW2 4047   3.675   0.104   5.114
 1050SOL     OW 4048   3.336   4.976   3.767
 1050SOL    HW1 4049   3.266   4.960   3.697
 1050SOL    HW2 4050   3.293   4.980   3.857
 1051SOL     OW 4051   0.213   0.234   0.411
 1051SOL    HW1 4052   0.275   0.157   0.394
 1051SOL    HW2 4053   0.215   0.297   0.333
 1052SOL     OW 4054   3.887   0.348   6.608
 1052SOL    HW1 4055   3.964   0.385   6.659
 1052SOL    HW2 4056   3.907   0.254   6.580
 1053SOL     OW 4057   6.098   3.611   2.355
 1053SOL    HW1 4058   6.109   3.666   2.272
 1053SOL    HW2 4059   6.100   3.671   2.435
 1054SOL     OW 4060   3.579   4.489   0.514
 1054SOL    HW1 4061   3.606   4.579   0.481
 1054SOL    HW2 4062   3.563   4.428   0.437
 1055SOL     OW 4063   4.151   5.858   6.721
 1055SOL    HW1 4064   4.148   5.958   6.711
 1055SOL    HW2 4065   4.198   5.835   6.806
 1056SOL     OW 4066   2.309   4.370   0.325
 1056SOL    HW1 4067   2.361   4.323   0.397
 1056SOL    HW2 4068   2.372   4.408   0.258
 1057SOL     OW 4069   3.638   1.961   1.491
 1057SOL    HW1 4070   3.651   1.878   1.545
 1057SOL    HW2 4071   3.623   2.038   1.554
 1058SOL     OW 4072   3.427   2.021   2.837
 1058SOL    HW1 4073   3.432   1.939   2.894
 1058SOL    HW2 4074   3.504   2.082   2.858
 1059SOL     OW 4075   2.422   5.899   1.619
 1059SOL    HW1 4076   2.392   5.974   1.677
 1059SOL    HW2 4077   2.482   5.933   1.547
 1060SOL     OW 4078   6.892   5.848   5.474
 1060SOL    HW1 4079   6.896   5.947   5.487
 1060SOL    HW2 4080   6.929   5.824   5.385
 1061SOL     OW 4081   0.026   4.335   0.571
 1061SOL    HW1 4082   0.031   4.366   0.476
 1061SOL    HW2 4083   0.019   4.236   0.573
 1062SOL     OW 4084   3.567   6.419   5.230
 1062SOL    HW1 4085   3.483   6.390   5.186
 1062SOL    HW2 4086   3.624   6.340   5.251
 1063SOL     OW 4087   1.630   6.708   5.738
 1063SOL    HW1 4088   1.660   6.642   5.669
 1063SOL    HW2 4089   1.627   6.800   5.698
 1064SOL     OW 4090   0.416   4.285   0.881
 1064SOL    HW1 4091   0.429   4.276   0.782
 1064SOL    HW2 4092   0.347   4.355   0.899
 1065SOL     OW 4093   3.575   0.439   4.490
 1065SOL    HW1 4094   3.581   0.395   4.580
 1065SOL    HW2 4095   3.593   0.537   4.499
 1066SOL     OW 4096   4.365   0.627   2.047
 1066SOL    HW1 4097   4.421   0.666   2.120
 1066SOL    HW2 4098   4.299   0.563   2.086
 1067SOL     OW 4099   2.821   1.375   0.318
 1067SOL    HW1 4100   2.830   1.454   0.379
 1067SOL    HW2 4101   2.886   1.304   0.346
 1068SOL     OW 4102   5.745   3.550   1.334
 1068SOL    HW1 4103   5.723   3.461   1.294
 1068SOL    HW2 4104   5.752   3.541   1.433
 1069SOL     OW 4105   6.486   4.368   1.010
 1069SOL    HW1 4106   6.419   4.320   1.066
 1069SOL    HW2 4107   6.446   4.392   0.922
 1070SOL     OW 4108   1.699   0.626   2.289
 1070SOL    HW1 4109   1.603   0.656   2.290
 1070SOL    HW2 4110   1.750   0.683   2.224
 1071SOL     OW 4111   6.676   2.514   4.854
 1071SOL    HW1 4112   6.721   2.579   4.915
 1071SOL    HW2 4113   6.583   2.544   4.834
 1072SOL     OW 4114   2.952   1.010   2.163
 1072SOL    HW1 4115   3.015   1.053   2.099
 1072SOL    HW2 4116   3.000   0.940   2.216
 1073SOL     OW 4117   5.220   2.015   3.045
 1073SOL    HW1 4118   5.208   2.114   3.053
 1073SOL    HW2 4119   5.135   1.969   3.070
 1074SOL     OW 4120   3.404   5.279   1.976
 1074SOL    HW1 4121   3.324   5.338   1.963
 1074SOL    HW2 4122   3.374   5.189   2.009
 1075SOL     OW 4123   5.836   2.328   5.233
 1075SOL    HW1 4124   5.749   2.339   5.184
 1075SOL    HW2 4125   5.845   2.233   5.263
 1076SOL     OW 4126   2.172   4.043   4.748
 1076SOL    HW1 4127   2.239   4.039   4.822
 1076SOL    HW2 4128   2.211   4.093   4.671
 1077SOL     OW 4129   6.611   0.535   6.953
 1077SOL    HW1 4130   6.580   0.502   6.864
 1077SOL    HW2 4131   6.599   0.464   0.004
 1078SOL     OW 4132   6.840   6.338   3.961
 1078SOL    HW1 4133   6.882   6.350   4.051
 1078SOL    HW2 4134   6.824   6.241   3.945
 1079SOL     OW 4135   1.157   5.585   2.448
 1079SOL    HW1 4136   1.092   5.553   2.379
 1079SOL    HW2 4137   1.118   5.569   2.539
 1080SOL     OW 4138   2.240   5.223   5.424
 1080SOL    HW1 4139   2.320   5.164   5.426
 1080SOL    HW2 4140   2.167   5.178   5.373
 1081SOL     OW 4141   6.116   5.705   4.232
 1081SOL    HW1 4142   6.109   5.759   4.316
 1081SOL    HW2 4143   6.050   5.631   4.234
 1082SOL     OW 4144   5.448   6.765   6.081
 1082SOL    HW1 4145   5.502   6.736   6.160
 1082SOL    HW2 4146   5.465   6.703   6.004
 1083SOL     OW 4147   5.235   4.207   1.172
 1083SOL    HW1 4148   5.172   4.284   1.162
 1083SOL    HW2 4149   5.287   4.195   1.087
 1084SOL     OW 4150   0.031   6.849   6.818
 1084SOL    HW1 4151   6.955   6.853   6.786
 1084SOL    HW2 4152   0.040   6.901   6.903
 1085SOL     OW 4153   2.168   3.950   4.074
 1085SOL    HW1 4154   2.189   3.864   4.026
 1085SOL    HW2 4155   2.154   4.022   4.007
 1086SOL     OW 4156   6.561   4.350   6.669
 1086SOL    HW1 4157   6.523   4.283   6.733
 1086SOL    HW2 4158   6.489   4.385   6.610
 1087SOL     OW 4159   1.801   0.547   5.556
 1087SOL    HW1 4160   1.871   0.612   5.586
 1087SOL    HW2 4161   1.748   0.516   5.635
 1088SOL     OW 4162   0.092   4.773   3.729
 1088SOL    HW1 4163   0.113   4.682   3.766
 1088SOL    HW2 4164   0.155   4.793   3.653
 1089SOL     OW 4165   6.550   4.943   4.997
 1089SOL    HW1 4166   6.462   4.901   4.980
 1089SOL    HW2 4167   6.542   5.011   5.069
 1090SOL     OW 4168   5.267   1.730   4.680
 1090SOL    HW1 4169   5.180   1.759   4.721
 1090SOL    HW2 4170   5.310   1.808   4.634
 1091SOL     OW 4171   2.268   2.908   3.709
 1091SOL    HW1 4172   2.256   2.957   3.795
 1091SOL    HW2 4173   2.345   2.845   3.717
 1092SOL     OW 4174   0.915   4.604   0.893
 1092SOL    HW1 4175   0.994   4.593   0.953
 1092SOL    HW2 4176   0.912   4.697   0.857
 1093SOL     OW 4177   2.306   6.542   1.144
 1093SOL    HW1 4178   2.287   6.444   1.154
 1093SOL    HW2 4179   2.375   6.569   1.210
 1094SOL     OW 4180   1.117   0.324   3.158
 1094SOL    HW1 4181   1.026   0.288   3.183
 1094SOL    HW2 4182   1.168   0.345   3.242
 1095SOL     OW 4183   6.822   2.983   0.023
 1095SOL    HW1 4184   6.874   3.068   0.018
 1095SOL    HW2 4185   6.797   2.954   6.948
 1096SOL     OW 4186   2.956   5.390   1.299
 1096SOL    HW1 4187   3.004   5.303   1.282
 1096SOL    HW2 4188   2.859   5.371   1.315
 1097SOL     OW 4189   2.182   5.136   3.872
 1097SOL    HW1 4190   2.143   5.052   3.910
 1097SOL    HW2 4191   2.280   5.139   3.893
 1098SOL     OW 4192   5.949   4.700   0.068
 1098SOL    HW1 4193   6.012   4.754   0.124
 1098SOL    HW2 4194   5.870   4.672   0.123
 1099SOL     OW 4195   4.668   1.359   6.073
 1099SOL    HW1 4196   4.762   1.326   6.069
 1099SOL    HW2 4197   4.657   1.437   6.011
 1100SOL     OW 4198   3.836   1.306   3.768
 1100SOL    HW1 4199   3.757   1.286   3.825
 1100SOL    HW2 4200   3.848   1.404   3.759
 1101SOL     OW 4201   5.876   3.261   5.393
 1101SOL    HW1 4202   5.889   3.176   5.343
 1101SOL    HW2 4203   5.788   3.301   5.366
 1102SOL     OW 4204   2.082   0.924   4.405
 1102SOL    HW1 4205   2.022   0.916   4.484
 1102SOL    HW2 4206   2.172   0.886   4.427
 1103SOL     OW 4207   2.984   0.862   6.559
 1103SOL    HW1 4208   3.076   0.900   6.549
 1103SOL    HW2 4209   2.935   0.910   6.632
 1104SOL     OW 4210   0.710   3.981   2.956
 1104SOL    HW1 4211   0.700   3.883   2.937
 1104SOL    HW2 4212   0.667   4.002   3.044
 1105SOL     OW 4213   5.518   1.522   4.989
 1105SOL    HW1 4214   5.585   1.455   5.020
 1105SOL    HW2 4215   5.457   1.546   5.064
 1106SOL     OW 4216   0.729   1.544   0.365
 1106SOL    HW1 4217   0.783   1.521   0.446
 1106SOL    HW2 4218   0.647   1.487   0.363
 1107SOL     OW 4219   0.959   0.867   6.793
 1107SOL    HW1 4220   0.956   0.966   6.787
 1107SOL    HW2 4221   0.990   0.829   6.706
 1108SOL     OW 4222   3.172   6.351   4.097
 1108SOL    HW1 4223   3.211   6.398   4.176
 1108SOL    HW2 4224   3.073   6.341   4.109
 1109SOL     OW 4225   5.461   1.753   4.167
 1109SOL    HW1 4226   5.365   1.779   4.176
 1109SOL    HW2 4227   5.494   1.777   4.076
 1110SOL     OW 4228   3.635   0.647   2.773
 1110SOL    HW1 4229   3.637   0.561   2.824
 1110SOL    HW2 4230   3.552   0.651   2.717
 1111SOL     OW 4231   4.767   3.850   6.234
 1111SOL    HW1 4232   4.738   3.905   6.156
 1111SOL    HW2 4233   4.782   3.909   6.313
 1112SOL     OW 4234   5.704   0.851   2.363
 1112SOL    HW1 4235   5.643   0.926   2.389
 1112SOL    HW2 4236   5.798   0.884   2.360
 1113SOL     OW 4237   6.474   4.537   2.574
 1113SOL    HW1 4238   6.434   4.623   2.541
 1113SOL    HW2 4239   6.401   4.469   2.583
 1114SOL     OW 4240   4.472   2.670   5.858
 1114SOL    HW1 4241   4.394   2.726   5.886
 1114SOL    HW2 4242   4.447   2.574   5.860
 1115SOL     OW 4243   2.914   4.033   5.899
 1115SOL    HW1 4244   2.993   4.084   5.864
 1115SOL    HW2 4245   2.852   4.011   5.824
 1116SOL     OW 4246   4.958   0.783   6.636
 1116SOL    HW1 4247   4.988   0.877   6.652
 1116SOL    HW2 4248   4.881   0.762   6.697
 1117SOL     OW 4249   1.251   2.575   1.650
 1117SOL    HW1 4250   1.270   2.671   1.629
 1117SOL    HW2 4251   1.312   2.517   1.597
 1118SOL     OW 4252   3.265   5.280   0.140
 1118SOL    HW1 4253   3.298   5.374   0.142
 1118SOL    HW2 4254   3.223   5.258   0.228
 1119SOL     OW 4255   4.183   4.747   3.395
 1119SOL    HW1 4256   4.259   4.687   3.419
 1119SOL    HW2 4257   4.186   4.830   3.451
 1120SOL     OW 4258   6.830   5.515   0.930
 1120SOL    HW1 4259   6.750   5.456   0.939
 1120SOL    HW2 4260   6.807   5.594   0.873
 1121SOL     OW 4261   0.776   4.485   4.253
 1121SOL    HW1 4262   0.729   4.427   4.187
 1121SOL    HW2 4263   0.865   4.512   4.217
 1122SOL     OW 4264   5.849   2.543   2.194
 1122SOL    HW1 4265   5.939   2.553   2.235
 1122SOL    HW2 4266   5.779   2.541   2.266
 1123SOL     OW 4267   4.286   2.261   3.092
 1123SOL    HW1 4268   4.293   2.164   3.117
 1123SOL    HW2 4269   4.212   2.303   3.144
 1124SOL     OW 4270   1.989   2.845   4.945
 1124SOL    HW1 4271   1.975   2.817   5.040
 1124SOL    HW2 4272   1.971   2.943   4.936
 1125SOL     OW 4273   1.581   3.719   4.124
 1125SOL    HW1 4274   1.647   3.779   4.168
 1125SOL    HW2 4275   1.629   3.642   4.082
 1126SOL     OW 4276   4.446   5.877   5.043
 1126SOL    HW1 4277   4.533   5.860   5.090
 1126SOL    HW2 4278   4.451   5.966   4.996
 1127SOL     OW 4279   5.339   5.622   3.462
 1127SOL    HW1 4280   5.412   5.564   3.427
 1127SOL    HW2 4281   5.318   5.597   3.557
 1128SOL     OW 4282   6.158   1.360   3.595
 1128SOL    HW1 4283   6.180   1.379   3.690
 1128SOL    HW2 4284   6.226   1.401   3.535
 1129SOL     OW 4285   1.687   0.198   1.210
 1129SOL    HW1 4286   1.626   0.235   1.140
 1129SOL    HW2 4287   1.744   0.127   1.171
 1130SOL     OW 4288   2.422   4.811   3.145
 1130SOL    HW1 4289   2.404   4.713   3.153
 1130SOL    HW2 4290   2.411   4.855   3.234
 1131SOL     OW 4291   0.917   6.812   4.015
 1131SOL    HW1 4292   0.919   6.714   4.036
 1131SOL    HW2 4293   1.000   6.836   3.965
 1132SOL     OW 4294   4.016   1.193   3.132
 1132SOL    HW1 4295   3.997   1.095   3.144
 1132SOL    HW2 4296   3.989   1.242   3.215
 1133SOL     OW 4297   1.219   6.588   5.099
 1133SOL    HW1 4298   1.278   6.532   5.157
 1133SOL    HW2 4299   1.123   6.562   5.114
 1134SOL     OW 4300   4.805   0.047   1.479
 1134SOL    HW1 4301   4.765   6.994   1.422
 1134SOL    HW2 4302   4.766   0.136   1.454
 1135SOL     OW 4303   2.000   6.323   3.533
 1135SOL    HW1 4304   1.959   6.406   3.497
 1135SOL    HW2 4305   1.981   6.247   3.471
 1136SOL     OW 4306   2.951   5.705   2.219
 1136SOL    HW1 4307   3.010   5.785   2.205
 1136SOL    HW2 4308   3.007   5.625   2.239
 1137SOL     OW 4309   0.392   5.891   6.284
 1137SOL    HW1 4310   0.362   5.807   6.330
 1137SOL    HW2 4311   0.465   5.870   6.220
 1138SOL     OW 4312   2.162   2.916   5.250
 1138SOL    HW1 4313   2.239   2.958   5.201
 1138SOL    HW2 4314   2.168   2.939   5.347
 1139SOL     OW 4315   2.991   4.831   4.168
 1139SOL    HW1 4316   3.016   4.927   4.186
 1139SOL    HW2 4317   3.004   4.777   4.250
 1140SOL     OW 4318   2.394   1.266   2.064
 1140SOL    HW1 4319   2.362   1.177   2.030
 1140SOL    HW2 4320   2.478   1.253   2.116
 1141SOL     OW 4321   6.277   4.889   6.037
 1141SOL    HW1 4322   6.261   4.793   6.058
 1141SOL    HW2 4323   6.359   4.920   6.086
 1142SOL     OW 4324   2.322   0.049   3.124
 1142SOL    HW1 4325   2.274   7.017   3.196
 1142SOL    HW2 4326   2.331   0.145   3.150
 1143SOL     OW 4327   0.821   3.918   1.582
 1143SOL    HW1 4328   0.875   3.908   1.498
 1143SOL    HW2 4329   0.838   4.007   1.622
 1144SOL     OW 4330   5.355   4.661   2.162
 1144SOL    HW1 4331   5.374   4.564   2.179
 1144SOL    HW2 4332   5.442   4.710   2.150
 1145SOL     OW 4333   1.033   1.719   0.446
 1145SOL    HW1 4334   0.985   1.691   0.362
 1145SOL    HW2 4335   1.122   1.756   0.423
 1146SOL     OW 4336   0.730   1.140   1.811
 1146SOL    HW1 4337   0.728   1.080   1.891
 1146SOL    HW2 4338   0.791   1.217   1.830
 1147SOL     OW 4339   3.205   6.095   1.288
 1147SOL    HW1 4340   3.160   6.146   1.216
 1147SOL    HW2 4341   3.217   6.000   1.259
 1148SOL     OW 4342   3.981   6.451   2.145
 1148SOL    HW1 4343   4.058   6.405   2.100
 1148SOL    HW2 4344   3.990   6.550   2.133
 1149SOL     OW 4345   5.671   2.564   1.496
 1149SOL    HW1 4346   5.683   2.471   1.530
 1149SOL    HW2 4347   5.616   2.617   1.560
 1150SOL     OW 4348   1.182   4.264   6.732
 1150SOL    HW1 4349   1.149   4.176   6.700
 1150SOL    HW2 4350   1.281   4.270   6.717
 1151SOL     OW 4351   6.585   5.069   3.940
 1151SOL    HW1 4352   6.536   5.034   3.860
 1151SOL    HW2 4353   6.523   5.073   4.018
 1152SOL     OW 4354   4.852   0.992   6.895
 1152SOL    HW1 4355   4.892   1.013   6.806
 1152SOL    HW2 4356   4.790   1.067   6.922
 1153SOL     OW 4357   6.641   6.898   1.319
 1153SOL    HW1 4358   6.707   6.937   1.383
 1153SOL    HW2 4359   6.551   6.938   1.335
 1154SOL     OW 4360   1.481   3.359   2.267
 1154SOL    HW1 4361   1.526   3.402   2.190
 1154SOL    HW2 4362   1.550   3.323   2.331
 1155SOL     OW 4363   2.383   6.561   4.675
 1155SOL    HW1 4364   2.361   6.469   4.644
 1155SOL    HW2 4365   2.298   6.613   4.689
 1156SOL     OW 4366   3.718   1.793   4.917
 1156SOL    HW1 4367   3.804   1.749   4.943
 1156SOL    HW2 4368   3.734   1.856   4.841
 1157SOL     OW 4369   4.227   0.375   5.734
 1157SOL    HW1 4370   4.325   0.356   5.739
 1157SOL    HW2 4371   4.177   0.289   5.718
 1158SOL     OW 4372   5.879   5.537   3.075
 1158SOL    HW1 4373   5.784   5.529   3.103
 1158SOL    HW2 4374   5.914   5.447   3.049
 1159SOL     OW 4375   6.587   6.040   2.615
 1159SOL    HW1 4376   6.666   6.090   2.650
 1159SOL    HW2 4377   6.608   5.942   2.614
 1160SOL     OW 4378   4.231   0.115   0.766
 1160SOL    HW1 4379   4.183   0.134   0.852
 1160SOL    HW2 4380   4.168   0.125   0.689
 1161SOL     OW 4381   6.841   5.791   0.104
 1161SOL    HW1 4382   6.795   5.723   0.162
 1161SOL    HW2 4383   6.928   5.754   0.073
 1162SOL     OW 4384   1.956   2.965   5.469
 1162SOL    HW1 4385   2.055   2.978   5.473
 1162SOL    HW2 4386   1.918   2.970   5.562
 1163SOL     OW 4387   6.165   4.471   1.965
 1163SOL    HW1 4388   6.077   4.427   1.943
 1163SOL    HW2 4389   6.236   4.401   1.972
 1164SOL     OW 4390   4.900   2.028   4.300
 1164SOL    HW1 4391   4.862   2.032   4.207
 1164SOL    HW2 4392   4.840   2.078   4.362
 1165SOL     OW 4393   4.310   6.516   3.415
 1165SOL    HW1 4394   4.273   6.441   3.469
 1165SOL    HW2 4395   4.410   6.514   3.418
 1166SOL     OW 4396   2.524   6.612   6.758
 1166SOL    HW1 4397   2.535   6.711   6.766
 1166SOL    HW2 4398   2.612   6.570   6.739
 1167SOL     OW 4399   5.216   4.066   2.132
 1167SOL    HW1 4400   5.209   3.967   2.143
 1167SOL    HW2 4401   5.205   4.111   2.221
 1168SOL     OW 4402   5.824   2.539   2.550
 1168SOL    HW1 4403   5.825   2.625   2.499
 1168SOL    HW2 4404   5.888   2.544   2.626
 1169SOL     OW 4405   5.356   0.853   5.495
 1169SOL    HW1 4406   5.270   0.847   5.545
 1169SOL    HW2 4407   5.346   0.805   5.407
 1170SOL     OW 4408   4.900   0.033   3.108
 1170SOL    HW1 4409   4.863   0.058   3.197
 1170SOL    HW2 4410   4.901   6.952   3.098
 1171SOL     OW 4411   1.456   0.577   0.717
 1171SOL    HW1 4412   1.433   0.492   0.670
 1171SOL    HW2 4413   1.507   0.637   0.655
 1172SOL     OW 4414   6.577   3.748   0.532
 1172SOL    HW1 4415   6.500   3.689   0.505
 1172SOL    HW2 4416   6.645   3.749   0.459
 1173SOL     OW 4417   3.226   1.256   1.377
 1173SOL    HW1 4418   3.184   1.346   1.388
 1173SOL    HW2 4419   3.325   1.263   1.392
 1174SOL     OW 4420   3.716   3.504   1.307
 1174SOL    HW1 4421   3.656   3.539   1.379
 1174SOL    HW2 4422   3.660   3.475   1.229
 1175SOL     OW 4423   4.026   3.068   5.581
 1175SOL    HW1 4424   4.116   3.107   5.561
 1175SOL    HW2 4425   3.955   3.127   5.543
 1176SOL     OW 4426   4.959   3.633   5.828
 1176SOL    HW1 4427   5.022   3.677   5.764
 1176SOL    HW2 4428   4.970   3.672   5.919
 1177SOL     OW 4429   6.291   2.013   4.983
 1177SOL    HW1 4430   6.198   2.050   4.983
 1177SOL    HW2 4431   6.355   2.084   4.952
 1178SOL     OW 4432   2.986   4.800   0.405
 1178SOL    HW1 4433   2.961   4.778   0.311
 1178SOL    HW2 4434   3.068   4.856   0.407
 1179SOL     OW 4435   2.428   5.923   0.279
 1179SOL    HW1 4436   2.439   5.946   0.376
 1179SOL    HW2 4437   2.413   5.824   0.269
 1180SOL     OW 4438   3.255   5.854   1.187
 1180SOL    HW1 4439   3.322   5.808   1.245
 1180SOL    HW2 4440   3.273   5.831   1.091
 1181SOL     OW 4441   0.576   5.463   6.731
 1181SOL    HW1 4442   0.637   5.464   6.652
 1181SOL    HW2 4443   0.483   5.486   6.701
 1182SOL     OW 4444   3.654   5.662   2.878
 1182SOL    HW1 4445   3.630   5.758   2.891
 1182SOL    HW2 4446   3.691   5.649   2.786
 1183SOL     OW 4447   1.516   4.363   6.920
 1183SOL    HW1 4448   1.491   4.282   6.866
 1183SOL    HW2 4449   1.504   4.343   7.017
 1184SOL     OW 4450   1.044   0.323   4.710
 1184SOL    HW1 4451   1.123   0.333   4.649
 1184SOL    HW2 4452   1.077   0.310   4.804
 1185SOL     OW 4453   6.884   1.186   6.415
 1185SOL    HW1 4454   6.874   1.166   6.317
 1185SOL    HW2 4455   6.817   1.255   6.443
 1186SOL     OW 4456   4.906   5.765   4.311
 1186SOL    HW1 4457   4.999   5.773   4.276
 1186SOL    HW2 4458   4.852   5.706   4.251
 1187SOL     OW 4459   6.803   6.882   6.717
 1187SOL    HW1 4460   6.818   6.978   6.739
 1187SOL    HW2 4461   6.734   6.875   6.645
 1188SOL     OW 4462   2.808   6.251   4.748
 1188SOL    HW1 4463   2.863   6.332   4.770
 1188SOL    HW2 4464   2.826   6.180   4.816
 1189SOL     OW 4465   6.360   3.296   3.002
 1189SOL    HW1 4466   6.265   3.317   3.022
 1189SOL    HW2 4467   6.370   3.271   2.906
 1190SOL     OW 4468   1.886   5.867   3.354
 1190SOL    HW1 4469   1.893   5.767   3.357
 1190SOL    HW2 4470   1.955   5.907   3.415
 1191SOL     OW 4471   3.868   4.877   3.346
 1191SOL    HW1 4472   3.885   4.973   3.325
 1191SOL    HW2 4473   3.954   4.826   3.339
 1192SOL     OW 4474   3.557   5.814   3.294
 1192SOL    HW1 4475   3.621   5.739   3.278
 1192SOL    HW2 4476   3.504   5.831   3.211
 1193SOL     OW 4477   5.973   4.616   4.334
 1193SOL    HW1 4478   5.899   4.632   4.399
 1193SOL    HW2 4479   6.058   4.658   4.368
 1194SOL     OW 4480   5.504   0.360   1.233
 1194SOL    HW1 4481   5.475   0.446   1.274
 1194SOL    HW2 4482   5.502   0.288   1.302
 1195SOL     OW 4483   6.150   5.014   2.170
 1195SOL    HW1 4484   6.080   4.950   2.140
 1195SOL    HW2 4485   6.179   4.991   2.263
 1196SOL     OW 4486   0.460   6.474   3.335
 1196SOL    HW1 4487   0.527   6.539   3.299
 1196SOL    HW2 4488   0.409   6.516   3.410
 1197SOL     OW 4489   3.374   1.014   6.954
 1197SOL    HW1 4490   3.473   0.999   6.951
 1197SOL    HW2 4491   3.339   0.988   0.025
 1198SOL     OW 4492   1.045   2.412   1.058
 1198SOL    HW1 4493   1.122   2.416   1.122
 1198SOL    HW2 4494   0.986   2.335   1.082
 1199SOL     OW 4495   4.580   5.217   1.648
 1199SOL    HW1 4496   4.660   5.268   1.679
 1199SOL    HW2 4497   4.597   5.119   1.661
 1200SOL     OW 4498   3.304   3.147   2.647
 1200SOL    HW1 4499   3.256   3.115   2.565
 1200SOL    HW2 4500   3.391   3.188   2.620
 1201SOL     OW 4501   1.312   1.048   4.864
 1201SOL    HW1 4502   1.267   1.102   4.936
 1201SOL    HW2 4503   1.344   0.962   4.902
 1202SOL     OW 4504   1.027   5.660   6.477
 1202SOL    HW1 4505   1.044   5.754   6.448
 1202SOL    HW2 4506   1.008   5.603   6.396
 1203SOL     OW 4507   4.889   5.921   6.221
 1203SOL    HW1 4508   4.881   6.004   6.167
 1203SOL    HW2 4509   4.875   5.841   6.162
 1204SOL     OW 4510   2.411   0.275   1.551
 1204SOL    HW1 4511   2.342   0.206   1.527
 1204SOL    HW2 4512   2.374   0.337   1.620
 1205SOL     OW 4513   4.932   4.213   1.599
 1205SOL    HW1 4514   4.851   4.217   1.658
 1205SOL    HW2 4515   5.007   4.264   1.642
 1206SOL     OW 4516   3.337   2.934   4.817
 1206SOL    HW1 4517   3.314   2.903   4.909
 1206SOL    HW2 4518   3.434   2.958   4.813
 1207SOL     OW 4519   2.723   6.963   1.511
 1207SOL    HW1 4520   2.681   0.010   1.574
 1207SOL    HW2 4521   2.675   6.965   1.424
 1208SOL     OW 4522   3.320   3.937   0.040
 1208SOL    HW1 4523   3.282   4.002   6.991
 1208SOL    HW2 4524   3.403   3.976   0.080
 1209SOL     OW 4525   3.707   0.336   5.531
 1209SOL    HW1 4526   3.803   0.353   5.510
 1209SOL    HW2 4527   3.688   0.363   5.625
 1210SOL     OW 4528   2.801   6.698   3.537
 1210SOL    HW1 4529   2.797   6.623   3.471
 1210SOL    HW2 4530   2.895   6.732   3.544
 1211SOL     OW 4531   1.243   3.760   0.843
 1211SOL    HW1 4532   1.340   3.782   0.846
 1211SOL    HW2 4533   1.193   3.832   0.795
 1212SOL     OW 4534   0.318   0.183   6.393
 1212SOL    HW1 4535   0.385   0.148   6.458
 1212SOL    HW2 4536   0.228   0.147   6.416
 1213SOL     OW 4537   5.846   2.669   0.220
 1213SOL    HW1 4538   5.936   2.698   0.251
 1213SOL    HW2 4539   5.851   2.577   0.181
 1214SOL     OW 4540   0.024   2.047   1.084
 1214SOL    HW1 4541   0.041   2.070   0.988
 1214SOL    HW2 4542   0.072   2.112   1.143
 1215SOL     OW 4543   1.608   4.495   4.306
 1215SOL    HW1 4544   1.693   4.444   4.318
 1215SOL    HW2 4545   1.629   4.587   4.272
 1216SOL     OW 4546   4.129   0.564   0.216
 1216SOL    HW1 4547   4.091   0.536   0.304
 1216SOL    HW2 4548   4.110   0.493   0.148
 1217SOL     OW 4549   1.915   4.441   0.601
 1217SOL    HW1 4550   1.914   4.425   0.700
 1217SOL    HW2 4551   1.852   4.516   0.579
 1218SOL     OW 4552   1.237   5.229   3.879
 1218SOL    HW1 4553   1.321   5.180   3.857
 1218SOL    HW2 4554   1.216   5.217   3.976
 1219SOL     OW 4555   4.892   6.077   2.115
 1219SOL    HW1 4556   4.828   6.107   2.186
 1219SOL    HW2 4557   4.845   6.074   2.027
 1220SOL     OW 4558   1.445   5.013   3.040
 1220SOL    HW1 4559   1.474   5.065   2.960
 1220SOL    HW2 4560   1.517   5.015   3.109
 1221SOL     OW 4561   5.318   3.063   5.704
 1221SOL    HW1 4562   5.381   2.995   5.744
 1221SOL    HW2 4563   5.299   3.134   5.772
 1222SOL     OW 4564   6.053   6.640   6.810
 1222SOL    HW1 4565   6.124   6.571   6.794
 1222SOL    HW2 4566   6.078   6.725   6.764
 1223SOL     OW 4567   3.980   0.507   0.422
 1223SOL    HW1 4568   3.945   0.599   0.435
 1223SOL    HW2 4569   3.972   0.455   0.507
 1224SOL     OW 4570   2.457   6.941   1.047
 1224SOL    HW1 4571   2.455   6.994   0.962
 1224SOL    HW2 4572   2.552   6.921   1.072
 1225SOL     OW 4573   3.242   4.007   5.982
 1225SOL    HW1 4574   3.338   3.994   5.956
 1225SOL    HW2 4575   3.213   4.099   5.955
 1226SOL     OW 4576   2.296   4.553   1.317
 1226SOL    HW1 4577   2.228   4.581   1.384
 1226SOL    HW2 4578   2.352   4.632   1.291
 1227SOL     OW 4579   6.979   3.378   6.744
 1227SOL    HW1 4580   7.007   3.306   6.680
 1227SOL    HW2 4581   0.032   3.391   6.812
 1228SOL     OW 4582   3.723   2.690   6.454
 1228SOL    HW1 4583   3.770   2.774   6.429
 1228SOL    HW2 4584   3.715   2.684   6.553
 1229SOL     OW 4585   4.779   4.594   6.669
 1229SOL    HW1 4586   4.777   4.652   6.750
 1229SOL    HW2 4587   4.733   4.640   6.594
 1230SOL     OW 4588   4.033   0.577   4.015
 1230SOL    HW1 4589   3.946   0.620   4.041
 1230SOL    HW2 4590   4.090   0.567   4.096
 1231SOL     OW 4591   2.182   3.685   5.053
 1231SOL    HW1 4592   2.278   3.656   5.050
 1231SOL    HW2 4593   2.176   3.779   5.087
 1232SOL     OW 4594   1.020   2.756   5.515
 1232SOL    HW1 4595   0.985   2.722   5.428
 1232SOL    HW2 4596   1.032   2.855   5.510
 1233SOL     OW 4597   1.248   2.696   5.653
 1233SOL    HW1 4598   1.161   2.697   5.603
 1233SOL    HW2 4599   1.318   2.742   5.599
 1234SOL     OW 4600   6.695   4.354   4.691
 1234SOL    HW1 4601   6.702   4.256   4.707
 1234SOL    HW2 4602   6.715   4.403   4.776
 1235SOL     OW 4603   6.624   5.533   2.780
 1235SOL    HW1 4604   6.705   5.475   2.774
 1235SOL    HW2 4605   6.553   5.498   2.719
 1236SOL     OW 4606   5.268   0.959   6.374
 1236SOL    HW1 4607   5.247   0.889   6.306
 1236SOL    HW2 4608   5.333   0.924   6.441
 1237SOL     OW 4609   2.412   4.571   6.133
 1237SOL    HW1 4610   2.448   4.616   6.214
 1237SOL    HW2 4611   2.363   4.637   6.076
 1238SOL     OW 4612   1.935   1.096   1.399
 1238SOL    HW1 4613   1.921   1.017   1.459
 1238SOL    HW2 4614   2.007   1.154   1.438
 1239SOL     OW 4615   0.184   6.083   6.334
 1239SOL    HW1 4616   0.239   6.000   6.342
 1239SOL    HW2 4617   0.131   6.095   6.418
 1240SOL     OW 4618   5.455   6.125   1.540
 1240SOL    HW1 4619   5.435   6.174   1.455
 1240SOL    HW2 4620   5.413   6.174   1.617
 1241SOL     OW 4621   6.492   3.170   4.464
 1241SOL    HW1 4622   6.453   3.239   4.525
 1241SOL    HW2 4623   6.444   3.172   4.376
 1242SOL     OW 4624   1.351   3.467   0.157
 1242SOL    HW1 4625   1.267   3.520   0.146
 1242SOL    HW2 4626   1.430   3.523   0.132
 1243SOL     OW 4627   2.018   5.366   5.138
 1243SOL    HW1 4628   2.037   5.278   5.183
 1243SOL    HW2 4629   1.946   5.353   5.069
 1244SOL     OW 4630   0.415   0.637   3.234
 1244SOL    HW1 4631   0.496   0.636   3.175
 1244SOL    HW2 4632   0.341   0.586   3.191
 1245SOL     OW 4633   3.036   3.576   6.666
 1245SOL    HW1 4634   3.064   3.595   6.760
 1245SOL    HW2 4635   3.018   3.478   6.656
 1246SOL     OW 4636   2.340   6.853   2.001
 1246SOL    HW1 4637   2.372   6.770   1.955
 1246SOL    HW2 4638   2.264   6.830   2.061
 1247SOL     OW 4639   3.055   6.772   6.618
 1247SOL    HW1 4640   3.062   6.842   6.547
 1247SOL    HW2 4641   2.970   6.785   6.669
 1248SOL     OW 4642   1.695   6.137   3.541
 1248SOL    HW1 4643   1.735   6.228   3.541
 1248SOL    HW2 4644   1.738   6.081   3.470
 1249SOL     OW 4645   5.851   3.499   3.243
 1249SOL    HW1 4646   5.758   3.507   3.278
 1249SOL    HW2 4647   5.851   3.506   3.144
 1250SOL     OW 4648   1.278   4.819   4.055
 1250SOL    HW1 4649   1.257   4.727   4.089
 1250SOL    HW2 4650   1.224   4.886   4.104
 1251SOL     OW 4651   4.285   0.955   4.565
 1251SOL    HW1 4652   4.256   0.921   4.475
 1251SOL    HW2 4653   4.355   0.894   4.602
 1252SOL     OW 4654   3.337   3.448   6.009
 1252SOL    HW1 4655   3.289   3.536   5.999
 1252SOL    HW2 4656   3.384   3.427   5.923
 1253SOL     OW 4657   3.617   5.406   2.360
 1253SOL    HW1 4658   3.672   5.373   2.437
 1253SOL    HW2 4659   3.616   5.337   2.288
 1254SOL     OW 4660   6.297   2.132   3.192
 1254SOL    HW1 4661   6.294   2.050   3.250
 1254SOL    HW2 4662   6.275   2.213   3.248
 1255SOL     OW 4663   0.354   0.163   5.502
 1255SOL    HW1 4664   0.417   0.202   5.569
 1255SOL    HW2 4665   0.295   0.235   5.465
 1256SOL     OW 4666   6.213   0.120   2.578
 1256SOL    HW1 4667   6.293   0.180   2.571
 1256SOL    HW2 4668   6.216   0.070   2.665
 1257SOL     OW 4669   6.884   0.498   3.400
 1257SOL    HW1 4670   6.801   0.553   3.408
 1257SOL    HW2 4671   6.932   0.497   3.488
 1258SOL     OW 4672   0.788   6.582   3.193
 1258SOL    HW1 4673   0.716   6.633   3.147
 1258SOL    HW2 4674   0.824   6.636   3.269
 1259SOL     OW 4675   3.969   1.501   5.327
 1259SOL    HW1 4676   4.062   1.534   5.340
 1259SOL    HW2 4677   3.965   1.403   5.348
 1260SOL     OW 4678   0.983   1.053   0.084
 1260SOL    HW1 4679   0.885   1.046   0.103
 1260SOL    HW2 4680   1.028   0.966   0.106
 1261SOL     OW 4681   0.460   5.046   0.259
 1261SOL    HW1 4682   0.375   5.096   0.272
 1261SOL    HW2 4683   0.448   4.951   0.287
 1262SOL     OW 4684   5.238   5.769   2.047
 1262SOL    HW1 4685   5.323   5.764   1.993
 1262SOL    HW2 4686   5.261   5.791   2.142
 1263SOL     OW 4687   0.803   2.154   2.790
 1263SOL    HW1 4688   0.889   2.200   2.769
 1263SOL    HW2 4689   0.816   2.095   2.870
 1264SOL     OW 4690   1.008   3.007   5.425
 1264SOL    HW1 4691   1.087   3.064   5.402
 1264SOL    HW2 4692   0.976   3.030   5.517
 1265SOL     OW 4693   6.000   5.828   5.466
 1265SOL    HW1 4694   6.011   5.923   5.496
 1265SOL    HW2 4695   6.091   5.788   5.452
 1266SOL     OW 4696   1.437   0.592   5.055
 1266SOL    HW1 4697   1.537   0.595   5.055
 1266SOL    HW2 4698   1.401   0.685   5.047
 1267SOL     OW 4699   4.655   0.583   2.239
 1267SOL    HW1 4700   4.625   0.489   2.221
 1267SOL    HW2 4701   4.744   0.581   2.284
 1268SOL     OW 4702   3.973   2.402   5.338
 1268SOL    HW1 4703   4.062   2.435   5.308
 1268SOL    HW2 4704   3.925   2.475   5.388
 1269SOL     OW 4705   5.982   2.402   3.669
 1269SOL    HW1 4706   6.022   2.485   3.629
 1269SOL    HW2 4707   5.885   2.398   3.647
 1270SOL     OW 4708   1.566   4.406   2.492
 1270SOL    HW1 4709   1.495   4.361   2.545
 1270SOL    HW2 4710   1.525   4.453   2.414
 1271SOL     OW 4711   1.825   1.523   1.616
 1271SOL    HW1 4712   1.738   1.493   1.577
 1271SOL    HW2 4713   1.810   1.601   1.676
 1272SOL     OW 4714   6.757   4.041   0.081
 1272SOL    HW1 4715   6.784   4.137   0.085
 1272SOL    HW2 4716   6.809   3.994   0.009
 1273SOL     OW 4717   1.224   4.236   5.122
 1273SOL    HW1 4718   1.303   4.262   5.177
 1273SOL    HW2 4719   1.185   4.318   5.079
 1274SOL     OW 4720   0.843   4.699   2.223
 1274SOL    HW1 4721   0.758   4.689   2.273
 1274SOL    HW2 4722   0.865   4.796   2.213
 1275SOL     OW 4723   3.154   0.816   3.040
 1275SOL    HW1 4724   3.137   0.904   2.996
 1275SOL    HW2 4725   3.073   0.758   3.031
 1276SOL     OW 4726   5.155   4.629   4.525
 1276SOL    HW1 4727   5.099   4.711   4.526
 1276SOL    HW2 4728   5.119   4.564   4.458
 1277SOL     OW 4729   0.216   5.689   6.589
 1277SOL    HW1 4730   0.267   5.757   6.642
 1277SOL    HW2 4731   0.167   5.736   6.515
 1278SOL     OW 4732   1.224   5.869   2.655
 1278SOL    HW1 4733   1.153   5.859   2.725
 1278SOL    HW2 4734   1.269   5.958   2.667
 1279SOL     OW 4735   3.299   2.805   6.609
 1279SOL    HW1 4736   3.274   2.884   6.552
 1279SOL    HW2 4737   3.225   2.785   6.673
 1280SOL     OW 4738   3.241   1.662   3.496
 1280SOL    HW1 4739   3.146   1.693   3.490
 1280SOL    HW2 4740   3.243   1.563   3.498
 1281SOL     OW 4741   3.536   6.251   3.989
 1281SOL    HW1 4742   3.500   6.158   4.001
 1281SOL    HW2 4743   3.627   6.256   4.030
 1282SOL     OW 4744   6.886   2.797   0.631
 1282SOL    HW1 4745   6.970   2.751   0.601
 1282SOL    HW2 4746   6.910   2.879   0.683
 1283SOL     OW 4747   5.815   3.380   5.089
 1283SOL    HW1 4748   5.770   3.451   5.143
 1283SOL    HW2 4749   5.914   3.398   5.088
 1284SOL     OW 4750   3.956   1.492   1.162
 1284SOL    HW1 4751   4.003   1.555   1.101
 1284SOL    HW2 4752   3.920   1.543   1.241
 1285SOL     OW 4753   3.386   1.954   4.425
 1285SOL    HW1 4754   3.345   2.026   4.481
 1285SOL    HW2 4755   3.430   1.887   4.485
 1286SOL     OW 4756   5.095   2.018   1.797
 1286SOL    HW1 4757   5.053   2.047   1.883
 1286SOL    HW2 4758   5.078   2.087   1.727
 1287SOL     OW 4759   6.881   4.481   4.860
 1287SOL    HW1 4760   6.896   4.546   4.786
 1287SOL    HW2 4761   6.958   4.417   4.864
 1288SOL     OW 4762   4.586   3.788   6.525
 1288SOL    HW1 4763   4.658   3.727   6.556
 1288SOL    HW2 4764   4.574   3.863   6.591
 1289SOL     OW 4765   6.986   0.618   1.808
 1289SOL    HW1 4766   0.067   0.618   1.796
 1289SOL    HW2 4767   6.947   0.537   1.764
 1290SOL     OW 4768   1.379   0.318   6.791
 1290SOL    HW1 4769   1.355   0.353   6.701
 1290SOL    HW2 4770   1.300   0.327   6.852
 1291SOL     OW 4771   6.445   4.877   3.023
 1291SOL    HW1 4772   6.369   4.824   2.984
 1291SOL    HW2 4773   6.478   4.943   2.955
 1292SOL     OW 4774   0.985   6.106   1.785
 1292SOL    HW1 4775   1.058   6.038   1.773
 1292SOL    HW2 4776   0.896   6.062   1.776
 1293SOL     OW 4777   2.638   1.639   6.662
 1293SOL    HW1 4778   2.718   1.607   6.612
 1293SOL    HW2 4779   2.660   1.648   6.759
 1294SOL     OW 4780   1.939   4.180   5.549
 1294SOL    HW1 4781   1.877   4.152   5.476
 1294SOL    HW2 4782   1.959   4.278   5.540
 1295SOL     OW 4783   0.015   3.298   1.382
 1295SOL    HW1 4784   6.998   3.208   1.408
 1295SOL    HW2 4785   0.004   3.362   1.458
 1296SOL     OW 4786   5.461   6.610   5.844
 1296SOL    HW1 4787   5.531   6.545   5.816
 1296SOL    HW2 4788   5.467   6.692   5.788
 1297SOL     OW 4789   0.319   0.846   2.555
 1297SOL    HW1 4790   0.302   0.911   2.481
 1297SOL    HW2 4791   0.297   0.753   2.523
 1298SOL     OW 4792   5.733   5.429   2.744
 1298SOL    HW1 4793   5.794   5.501   2.709
 1298SOL    HW2 4794   5.642   5.467   2.758
 1299SOL     OW 4795   2.150   3.284   4.225
 1299SOL    HW1 4796   2.165   3.187   4.244
 1299SOL    HW2 4797   2.156   3.336   4.311
 1300SOL     OW 4798   2.186   4.263   1.453
 1300SOL    HW1 4799   2.090   4.248   1.433
 1300SOL    HW2 4800   2.209   4.359   1.436
 1301SOL     OW 4801   1.072   0.699   1.806
 1301SOL    HW1 4802   0.995   0.750   1.845
 1301SOL    HW2 4803   1.042   0.607   1.780
 1302SOL     OW 4804   5.192   6.057   6.189
 1302SOL    HW1 4805   5.119   5.997   6.156
 1302SOL    HW2 4806   5.175   6.151   6.158
 1303SOL     OW 4807   4.524   6.848   1.559
 1303SOL    HW1 4808   4.528   6.762   1.610
 1303SOL    HW2 4809   4.441   6.850   1.503
 1304SOL     OW 4810   0.673   0.921   1.252
 1304SOL    HW1 4811   0.737   0.966   1.190
 1304SOL    HW2 4812   0.684   0.960   1.344
 1305SOL     OW 4813   5.611   4.339   0.155
 1305SOL    HW1 4814   5.571   4.427   0.132
 1305SOL    HW2 4815   5.572   4.269   0.094
 1306SOL     OW 4816   1.550   5.245   4.594
 1306SOL    HW1 4817   1.555   5.337   4.557
 1306SOL    HW2 4818   1.466   5.233   4.646
 1307SOL     OW 4819   1.649   2.911   3.861
 1307SOL    HW1 4820   1.654   2.811   3.858
 1307SOL    HW2 4821   1.559   2.939   3.893
 1308SOL     OW 4822   6.706   5.351   6.201
 1308SOL    HW1 4823   6.714   5.293   6.282
 1308SOL    HW2 4824   6.641   5.424   6.219
 1309SOL     OW 4825   5.430   4.339   6.393
 1309SOL    HW1 4826   5.397   4.287   6.314
 1309SOL    HW2 4827   5.403   4.293   6.477
 1310SOL     OW 4828   1.298   3.686   4.015
 1310SOL    HW1 4829   1.303   3.701   3.916
 1310SOL    HW2 4830   1.381   3.720   4.059
 1311SOL     OW 4831   6.834   5.593   0.474
 1311SOL    HW1 4832   6.899   5.664   0.450
 1311SOL    HW2 4833   6.748   5.607   0.425
 1312SOL     OW 4834   1.551   0.724   5.690
 1312SOL    HW1 4835   1.565   0.633   5.728
 1312SOL    HW2 4836   1.533   0.789   5.763
 1313SOL     OW 4837   6.740   4.822   3.085
 1313SOL    HW1 4838   6.740   4.742   3.025
 1313SOL    HW2 4839   6.651   4.866   3.082
 1314SOL     OW 4840   2.826   1.704   4.870
 1314SOL    HW1 4841   2.808   1.674   4.776
 1314SOL    HW2 4842   2.759   1.773   4.896
 1315SOL     OW 4843   5.734   0.121   4.281
 1315SOL    HW1 4844   5.740   0.044   4.217
 1315SOL    HW2 4845   5.754   0.206   4.233
 1316SOL     OW 4846   4.132   0.686   4.830
 1316SOL    HW1 4847   4.081   0.631   4.896
 1316SOL    HW2 4848   4.118   0.783   4.849
 1317SOL     OW 4849   2.860   3.208   5.567
 1317SOL    HW1 4850   2.825   3.292   5.527
 1317SOL    HW2 4851   2.944   3.181   5.519
 1318SOL     OW 4852   2.054   2.565   0.042
 1318SOL    HW1 4853   2.065   2.651   7.010
 1318SOL    HW2 4854   2.051   2.584   0.140
 1319SOL     OW 4855   0.093   6.250   0.448
 1319SOL    HW1 4856   0.046   6.225   0.363
 1319SOL    HW2 4857   0.105   6.349   0.451
 1320SOL     OW 4858   3.524   2.900   6.221
 1320SOL    HW1 4859   3.460   2.835   6.262
 1320SOL    HW2 4860   3.568   2.858   6.142
 1321SOL     OW 4861   5.724   2.026   6.370
 1321SOL    HW1 4862   5.819   2.056   6.366
 1321SOL    HW2 4863   5.720   1.930   6.395
 1322SOL     OW 4864   3.065   1.464   6.687
 1322SOL    HW1 4865   3.046   1.525   6.611
 1322SOL    HW2 4866   2.982   1.451   6.741
 1323SOL     OW 4867   3.381   0.264   0.389
 1323SOL    HW1 4868   3.446   0.189   0.376
 1323SOL    HW2 4869   3.406   0.340   0.330
 1324SOL     OW 4870   1.451   3.755   6.894
 1324SOL    HW1 4871   1.518   3.820   6.929
 1324SOL    HW2 4872   1.497   3.671   6.865
 1325SOL     OW 4873   2.048   6.001   6.189
 1325SOL    HW1 4874   2.015   6.061   6.116
 1325SOL    HW2 4875   2.144   6.020   6.207
 1326SOL     OW 4876   4.852   4.028   4.424
 1326SOL    HW1 4877   4.822   4.002   4.515
 1326SOL    HW2 4878   4.930   3.972   4.397
 1327SOL     OW 4879   0.322   6.422   0.819
 1327SOL    HW1 4880   0.264   6.480   0.763
 1327SOL    HW2 4881   0.345   6.470   0.904
 1328SOL     OW 4882   1.031   3.459   5.739
 1328SOL    HW1 4883   1.030   3.531   5.808
 1328SOL    HW2 4884   1.048   3.499   5.649
 1329SOL     OW 4885   0.209   2.486   3.489
 1329SOL    HW1 4886   0.169   2.395   3.493
 1329SOL    HW2 4887   0.186   2.537   3.572
 1330SOL     OW 4888   6.743   2.325   0.864
 1330SOL    HW1 4889   6.798   2.331   0.947
 1330SOL    HW2 4890   6.690   2.240   0.866
 1331SOL     OW 4891   4.070   2.219   2.570
 1331SOL    HW1 4892   4.095   2.245   2.663
 1331SOL    HW2 4893   4.142   2.164   2.529
 1332SOL     OW 4894   1.990   0.417   0.750
 1332SOL    HW1 4895   1.919   0.382   0.688
 1332SOL    HW2 4896   1.968   0.511   0.777
 1333SOL     OW 4897   3.607   4.110   2.958
 1333SOL    HW1 4898   3.567   4.108   3.049
 1333SOL    HW2 4899   3.543   4.152   2.894
 1334SOL     OW 4900   6.801   1.582   2.770
 1334SOL    HW1 4901   6.848   1.650   2.713
 1334SOL    HW2 4902   6.704   1.605   2.775
 1335SOL     OW 4903   2.052   4.234   1.813
 1335SOL    HW1 4904   2.049   4.158   1.748
 1335SOL    HW2 4905   2.024   4.201   1.903
 1336SOL     OW 4906   3.856   0.694   5.200
 1336SOL    HW1 4907   3.849   0.733   5.292
 1336SOL    HW2 4908   3.773   0.716   5.149
 1337SOL     OW 4909   5.899   1.635   3.602
 1337SOL    HW1 4910   5.930   1.633   3.507
 1337SOL    HW2 4911   5.920   1.724   3.642
 1338SOL     OW 4912   6.147   4.056   4.385
 1338SOL    HW1 4913   6.089   4.137   4.393
 1338SOL    HW2 4914   6.228   4.078   4.331
 1339SOL     OW 4915   0.402   0.377   6.881
 1339SOL    HW1 4916   0.349   0.382   6.796
 1339SOL    HW2 4917   0.389   0.287   6.923
 1340SOL     OW 4918   5.252   1.131   1.702
 1340SOL    HW1 4919   5.330   1.071   1.713
 1340SOL    HW2 4920   5.172   1.092   1.749
 1341SOL     OW 4921   4.423   6.993   6.703
 1341SOL    HW1 4922   4.343   6.995   6.763
 1341SOL    HW2 4923   4.498   6.946   6.750
 1342SOL     OW 4924   3.331   5.711   0.927
 1342SOL    HW1 4925   3.411   5.757   0.966
 1342SOL    HW2 4926   3.325   5.732   0.830
 1343SOL     OW 4927   5.188   4.962   3.233
 1343SOL    HW1 4928   5.257   4.890   3.229
 1343SOL    HW2 4929   5.146   4.973   3.143
 1344SOL     OW 4930   6.906   0.018   4.564
 1344SOL    HW1 4931   6.838   0.003   4.493
 1344SOL    HW2 4932   6.996   0.029   4.522
 1345SOL     OW 4933   0.380   5.273   1.788
 1345SOL    HW1 4934   0.343   5.329   1.714
 1345SOL    HW2 4935   0.480   5.271   1.781
 1346SOL     OW 4936   2.273   4.815   5.727
 1346SOL    HW1 4937   2.323   4.835   5.811
 1346SOL    HW2 4938   2.319   4.741   5.678
 1347SOL     OW 4939   1.610   0.307   6.942
 1347SOL    HW1 4940   1.522   0.306   6.896
 1347SOL    HW2 4941   1.684   0.299   6.875
 1348SOL     OW 4942   0.228   6.160   5.281
 1348SOL    HW1 4943   0.210   6.067   5.312
 1348SOL    HW2 4944   0.143   6.212   5.280
 1349SOL     OW 4945   5.438   3.886   4.025
 1349SOL    HW1 4946   5.352   3.838   4.042
 1349SOL    HW2 4947   5.515   3.831   4.058
 1350SOL     OW 4948   3.146   3.815   0.455
 1350SOL    HW1 4949   3.070   3.874   0.427
 1350SOL    HW2 4950   3.142   3.729   0.404
 1351SOL     OW 4951   6.455   2.436   4.387
 1351SOL    HW1 4952   6.480   2.446   4.291
 1351SOL    HW2 4953   6.361   2.405   4.394
 1352SOL     OW 4954   0.008   0.123   2.479
 1352SOL    HW1 4955   0.011   0.025   2.459
 1352SOL    HW2 4956   0.100   0.156   2.501
 1353SOL     OW 4957   0.613   1.705   1.263
 1353SOL    HW1 4958   0.681   1.633   1.275
 1353SOL    HW2 4959   0.633   1.781   1.324
 1354SOL     OW 4960   6.032   4.199   2.326
 1354SOL    HW1 4961   5.993   4.232   2.412
 1354SOL    HW2 4962   6.110   4.140   2.346
 1355SOL     OW 4963   6.030   3.338   4.371
 1355SOL    HW1 4964   6.110   3.384   4.332
 1355SOL    HW2 4965   5.966   3.406   4.406
 1356SOL     OW 4966   3.648   2.841   2.177
 1356SOL    HW1 4967   3.648   2.751   2.134
 1356SOL    HW2 4968   3.741   2.878   2.177
 1357SOL     OW 4969   6.750   3.192   5.431
 1357SOL    HW1 4970   6.721   3.261   5.364
 1357SOL    HW2 4971   6.671   3.136   5.458
 1358SOL     OW 4972   1.329   6.640   0.182
 1358SOL    HW1 4973   1.271   6.604   0.108
 1358SOL    HW2 4974   1.382   6.565   0.222
 1359SOL     OW 4975   6.505   4.305   1.545
 1359SOL    HW1 4976   6.437   4.246   1.502
 1359SOL    HW2 4977   6.593   4.258   1.548
 1360SOL     OW 4978   3.226   2.918   6.361
 1360SOL    HW1 4979   3.270   2.991   6.308
 1360SOL    HW2 4980   3.196   2.846   6.299
 1361SOL     OW 4981   6.928   3.869   4.384
 1361SOL    HW1 4982   7.013   3.920   4.396
 1361SOL    HW2 4983   6.919   3.801   4.456
 1362SOL     OW 4984   3.662   2.890   2.462
 1362SOL    HW1 4985   3.672   2.849   2.372
 1362SOL    HW2 4986   3.568   2.922   2.475
 1363SOL     OW 4987   0.267   5.641   5.470
 1363SOL    HW1 4988   0.279   5.603   5.562
 1363SOL    HW2 4989   0.203   5.584   5.418
 1364SOL     OW 4990   4.485   4.398   0.325
 1364SOL    HW1 4991   4.564   4.374   0.380
 1364SOL    HW2 4992   4.500   4.488   0.283
 1365SOL     OW 4993   0.809   3.571   6.345
 1365SOL    HW1 4994   0.793   3.474   6.363
 1365SOL    HW2 4995   0.786   3.624   6.427
 1366SOL     OW 4996   2.244   0.387   5.002
 1366SOL    HW1 4997   2.149   0.396   4.971
 1366SOL    HW2 4998   2.268   0.290   5.006
 1367SOL     OW 4999   2.233   0.758   2.406
 1367SOL    HW1 5000   2.162   0.791   2.468
 1367SOL    HW2 5001   2.315   0.735   2.458
 1368SOL     OW 5002   6.017   6.736   4.669
 1368SOL    HW1 5003   6.080   6.697   4.736
 1368SOL    HW2 5004   6.066   6.798   4.609
 1369SOL     OW 5005   0.830   0.818   3.172
 1369SOL    HW1 5006   0.793   0.800   3.081
 1369SOL    HW2 5007   0.777   0.890   3.216
 1370SOL     OW 5008   3.281   1.050   1.773
 1370SOL    HW1 5009   3.309   1.079   1.865
 1370SOL    HW2 5010   3.328   0.965   1.749
 1371SOL     OW 5011   3.540   0.367   6.078
 1371SOL    HW1 5012   3.472   0.412   6.136
 1371SOL    HW2 5013   3.500   0.283   6.040
 1372SOL     OW 5014   2.609   1.866   2.229
 1372SOL    HW1 5015   2.519   1.862   2.185
 1372SOL    HW2 5016   2.605   1.821   2.318
 1373SOL     OW 5017   0.754   5.640   1.339
 1373SOL    HW1 5018   0.659   5.618   1.318
 1373SOL    HW2 5019   0.814   5.604   1.267
 1374SOL     OW 5020   4.209   2.412   0.328
 1374SOL    HW1 5021   4.145   2.470   0.278
 1374SOL    HW2 5022   4.270   2.366   0.263
 1375SOL     OW 5023   7.002   4.026   6.095
 1375SOL    HW1 5024   6.904   4.014   6.107
 1375SOL    HW2 5025   0.000   4.095   6.024
 1376SOL     OW 5026   4.821   3.066   2.956
 1376SOL    HW1 5027   4.824   3.075   3.056
 1376SOL    HW2 5028   4.807   2.970   2.932
 1377SOL     OW 5029   6.878   5.484   5.116
 1377SOL    HW1 5030   6.857   5.485   5.214
 1377SOL    HW2 5031   6.946   5.413   5.097
 1378SOL     OW 5032   1.635   2.653   0.166
 1378SOL    HW1 5033   1.555   2.616   0.214
 1378SOL    HW2 5034   1.707   2.583   0.164
 1379SOL     OW 5035   4.139   6.490   2.855
 1379SOL    HW1 5036   4.050   6.469   2.895
 1379SOL    HW2 5037   4.207   6.497   2.928
 1380SOL     OW 5038   6.398   6.882   2.709
 1380SOL    HW1 5039   6.352   6.807   2.662
 1380SOL    HW2 5040   6.497   6.867   2.708
 1381SOL     OW 5041   6.938   1.805   0.835
 1381SOL    HW1 5042   7.001   1.881   0.818
 1381SOL    HW2 5043   6.859   1.814   0.775
 1382SOL     OW 5044   5.442   4.602   6.483
 1382SOL    HW1 5045   5.415   4.510   6.455
 1382SOL    HW2 5046   5.497   4.644   6.411
 1383SOL     OW 5047   2.658   0.012   0.749
 1383SOL    HW1 5048   2.570   0.043   0.786
 1383SOL    HW2 5049   2.671   0.049   0.657
 1384SOL     OW 5050   3.091   2.142   2.500
 1384SOL    HW1 5051   3.175   2.108   2.458
 1384SOL    HW2 5052   3.017   2.140   2.432
 1385SOL     OW 5053   6.776   3.269   3.332
 1385SOL    HW1 5054   6.741   3.297   3.243
 1385SOL    HW2 5055   6.798   3.172   3.331
 1386SOL     OW 5056   2.113   2.192   4.348
 1386SOL    HW1 5057   2.135   2.145   4.263
 1386SOL    HW2 5058   2.189   2.181   4.413
 1387SOL     OW 5059   2.543   7.001   4.936
 1387SOL    HW1 5060   2.604   0.042   4.883
 1387SOL    HW2 5061   2.467   0.038   4.971
 1388SOL     OW 5062   6.172   0.894   4.245
 1388SOL    HW1 5063   6.089   0.840   4.230
 1388SOL    HW2 5064   6.240   0.838   4.293
 1389SOL     OW 5065   5.834   6.998   4.499
 1389SOL    HW1 5066   5.770   6.927   4.528
 1389SOL    HW2 5067   5.800   0.025   4.416
 1390SOL     OW 5068   4.959   2.159   2.314
 1390SOL    HW1 5069   4.938   2.256   2.328
 1390SOL    HW2 5070   5.054   2.141   2.342
 1391SOL     OW 5071   5.013   0.904   4.304
 1391SOL    HW1 5072   5.080   0.916   4.377
 1391SOL    HW2 5073   5.039   0.960   4.225
 1392SOL     OW 5074   4.868   5.844   6.843
 1392SOL    HW1 5075   4.881   5.763   6.786
 1392SOL    HW2 5076   4.824   5.916   6.788
 1393SOL     OW 5077   6.459   0.789   6.399
 1393SOL    HW1 5078   6.394   0.808   6.325
 1393SOL    HW2 5079   6.410   0.752   6.478
 1394SOL     OW 5080   4.603   0.103   4.022
 1394SOL    HW1 5081   4.690   0.084   4.068
 1394SOL    HW2 5082   4.528   0.092   4.087
 1395SOL     OW 5083   1.409   4.856   2.175
 1395SOL    HW1 5084   1.414   4.849   2.275
 1395SOL    HW2 5085   1.384   4.768   2.137
 1396SOL     OW 5086   2.080   1.571   4.032
 1396SOL    HW1 5087   2.116   1.477   4.039
 1396SOL    HW2 5088   2.144   1.627   3.980
 1397SOL     OW 5089   0.171   5.227   4.083
 1397SOL    HW1 5090   0.142   5.184   3.997
 1397SOL    HW2 5091   0.250   5.177   4.119
 1398SOL     OW 5092   0.352   0.898   0.920
 1398SOL    HW1 5093   0.414   0.847   0.861
 1398SOL    HW2 5094   0.342   0.991   0.885
 1399SOL     OW 5095   4.363   0.408   0.371
 1399SOL    HW1 5096   4.341   0.372   0.462
 1399SOL    HW2 5097   4.287   0.391   0.309
 1400SOL     OW 5098   6.137   6.915   5.064
 1400SOL    HW1 5099   6.125   7.001   5.114
 1400SOL    HW2 5100   6.207   6.860   5.111
 1401SOL     OW 5101   5.230   0.528   3.308
 1401SOL    HW1 5102   5.160   0.514   3.238
 1401SOL    HW2 5103   5.302   0.461   3.297
 1402SOL     OW 5104   0.095   4.793   2.097
 1402SOL    HW1 5105   0.104   4.695   2.117
 1402SOL    HW2 5106   0.184   4.829   2.068
 1403SOL     OW 5107   3.055   3.028   6.589
 1403SOL    HW1 5108   3.133   3.034   6.526
 1403SOL    HW2 5109   2.973   3.001   6.539
 1404SOL     OW 5110   4.397   6.678   0.239
 1404SOL    HW1 5111   4.389   6.740   0.160
 1404SOL    HW2 5112   4.434   6.591   0.208
 1405SOL     OW 5113   1.291   3.496   1.117
 1405SOL    HW1 5114   1.284   3.549   1.032
 1405SOL    HW2 5115   1.204   3.499   1.166
 1406SOL     OW 5116   2.261   3.056   1.190
 1406SOL    HW1 5117   2.349   3.020   1.158
 1406SOL    HW2 5118   2.275   3.139   1.244
 1407SOL     OW 5119   0.273   3.105   0.885
 1407SOL    HW1 5120   0.328   3.022   0.898
 1407SOL    HW2 5121   0.176   3.081   0.889
 1408SOL     OW 5122   6.247   6.206   0.752
 1408SOL    HW1 5123   6.193   6.249   0.680
 1408SOL    HW2 5124   6.260   6.270   0.828
 1409SOL     OW 5125   6.187   1.770   5.753
 1409SOL    HW1 5126   6.199   1.704   5.679
 1409SOL    HW2 5127   6.201   1.862   5.718
 1410SOL     OW 5128   4.001   1.916   5.742
 1410SOL    HW1 5129   3.984   1.963   5.828
 1410SOL    HW2 5130   3.981   1.818   5.753
 1411SOL     OW 5131   3.837   4.991   0.168
 1411SOL    HW1 5132   3.775   5.070   0.179
 1411SOL    HW2 5133   3.791   4.908   0.201
 1412SOL     OW 5134   1.978   3.344   0.570
 1412SOL    HW1 5135   2.031   3.303   0.495
 1412SOL    HW2 5136   1.897   3.287   0.588
 1413SOL     OW 5137   1.543   1.556   5.298
 1413SOL    HW1 5138   1.589   1.644   5.291
 1413SOL    HW2 5139   1.594   1.497   5.362
 1414SOL     OW 5140   1.303   4.217   2.463
 1414SOL    HW1 5141   1.212   4.177   2.454
 1414SOL    HW2 5142   1.320   4.237   2.560
 1415SOL     OW 5143   2.152   1.822   4.613
 1415SOL    HW1 5144   2.238   1.872   4.602
 1415SOL    HW2 5145   2.165   1.749   4.680
 1416SOL     OW 5146   3.950   0.341   4.734
 1416SOL    HW1 5147   3.948   0.314   4.830
 1416SOL    HW2 5148   3.911   0.268   4.678
 1417SOL     OW 5149   3.236   2.918   5.993
 1417SOL    HW1 5150   3.335   2.934   5.989
 1417SOL    HW2 5151   3.192   2.991   6.044
 1418SOL     OW 5152   3.412   4.438   6.392
 1418SOL    HW1 5153   3.485   4.503   6.412
 1418SOL    HW2 5154   3.435   4.387   6.309
 1419SOL     OW 5155   2.441   4.748   2.565
 1419SOL    HW1 5156   2.400   4.816   2.503
 1419SOL    HW2 5157   2.380   4.735   2.644
 1420SOL     OW 5158   2.831   6.576   3.100
 1420SOL    HW1 5159   2.809   6.528   3.185
 1420SOL    HW2 5160   2.819   6.514   3.023
 1421SOL     OW 5161   1.251   4.885   6.015
 1421SOL    HW1 5162   1.254   4.984   6.001
 1421SOL    HW2 5163   1.177   4.845   5.961
 1422SOL     OW 5164   2.068   3.992   6.192
 1422SOL    HW1 5165   2.129   3.940   6.131
 1422SOL    HW2 5166   1.986   4.020   6.141
 1423SOL     OW 5167   4.375   0.437   5.244
 1423SOL    HW1 5168   4.279   0.456   5.221
 1423SOL    HW2 5169   4.407   0.357   5.192
 1424SOL     OW 5170   6.531   2.972   6.928
 1424SOL    HW1 5171   6.501   3.067   6.933
 1424SOL    HW2 5172   6.473   2.921   6.863
 1425SOL     OW 5173   4.939   6.401   3.412
 1425SOL    HW1 5174   4.853   6.374   3.370
 1425SOL    HW2 5175   4.925   6.482   3.468
 1426SOL     OW 5176   3.629   2.222   0.315
 1426SOL    HW1 5177   3.587   2.299   0.267
 1426SOL    HW2 5178   3.574   2.199   0.395
 1427SOL     OW 5179   1.411   1.311   4.243
 1427SOL    HW1 5180   1.473   1.347   4.174
 1427SOL    HW2 5181   1.332   1.268   4.198
 1428SOL     OW 5182   0.854   3.474   4.109
 1428SOL    HW1 5183   0.782   3.541   4.124
 1428SOL    HW2 5184   0.890   3.444   4.198
 1429SOL     OW 5185   6.046   1.243   1.085
 1429SOL    HW1 5186   6.056   1.213   0.990
 1429SOL    HW2 5187   6.045   1.164   1.145
 1430SOL     OW 5188   2.109   3.693   3.949
 1430SOL    HW1 5189   2.125   3.606   3.997
 1430SOL    HW2 5190   2.126   3.680   3.852
 1431SOL     OW 5191   2.348   1.042   6.076
 1431SOL    HW1 5192   2.319   1.083   6.162
 1431SOL    HW2 5193   2.330   0.944   6.077
 1432SOL     OW 5194   2.755   0.744   2.484
 1432SOL    HW1 5195   2.768   0.843   2.484
 1432SOL    HW2 5196   2.793   0.705   2.568
 1433SOL     OW 5197   2.698   6.855   3.733
 1433SOL    HW1 5198   2.612   6.825   3.776
 1433SOL    HW2 5199   2.729   6.785   3.669
 1434SOL     OW 5200   0.306   3.364   0.859
 1434SOL    HW1 5201   0.306   3.264   0.865
 1434SOL    HW2 5202   0.314   3.391   0.763
 1435SOL     OW 5203   1.270   6.830   3.750
 1435SOL    HW1 5204   1.246   6.924   3.723
 1435SOL    HW2 5205   1.311   6.832   3.842
 1436SOL     OW 5206   5.401   1.992   0.001
 1436SOL    HW1 5207   5.388   2.006   0.099
 1436SOL    HW2 5208   5.353   2.064   6.968
 1437SOL     OW 5209   3.646   0.380   5.784
 1437SOL    HW1 5210   3.663   0.325   5.866
 1437SOL    HW2 5211   3.662   0.476   5.804
 1438SOL     OW 5212   2.816   0.377   2.107
 1438SOL    HW1 5213   2.792   0.424   2.192
 1438SOL    HW2 5214   2.809   0.278   2.120
 1439SOL     OW 5215   0.186   4.860   0.029
 1439SOL    HW1 5216   0.272   4.815   0.050
 1439SOL    HW2 5217   0.127   4.859   0.110
 1440SOL     OW 5218   3.853   3.184   2.943
 1440SOL    HW1 5219   3.813   3.266   2.983
 1440SOL    HW2 5220   3.781   3.118   2.920
 1441SOL     OW 5221   6.127   2.613   3.529
 1441SOL    HW1 5222   6.188   2.651   3.598
 1441SOL    HW2 5223   6.081   2.687   3.480
 1442SOL     OW 5224   5.491   5.194   0.621
 1442SOL    HW1 5225   5.489   5.271   0.685
 1442SOL    HW2 5226   5.583   5.156   0.617
 1443SOL     OW 5227   0.443   2.757   2.963
 1443SOL    HW1 5228   0.514   2.716   3.021
 1443SOL    HW2 5229   0.405   2.686   2.903
 1444SOL     OW 5230   4.639   1.171   3.811
 1444SOL    HW1 5231   4.726   1.174   3.761
 1444SOL    HW2 5232   4.568   1.132   3.753
 1445SOL     OW 5233   6.538   2.004   0.769
 1445SOL    HW1 5234   6.530   1.949   0.852
 1445SOL    HW2 5235   6.460   2.065   0.761
 1446SOL     OW 5236   4.580   0.684   1.405
 1446SOL    HW1 5237   4.624   0.606   1.361
 1446SOL    HW2 5238   4.538   0.742   1.336
 1447SOL     OW 5239   5.930   0.746   5.547
 1447SOL    HW1 5240   5.832   0.731   5.561
 1447SOL    HW2 5241   5.976   0.658   5.539
 1448SOL     OW 5242   5.419   0.720   6.722
 1448SOL    HW1 5243   5.423   0.671   6.809
 1448SOL    HW2 5244   5.334   0.695   6.674
 1449SOL     OW 5245   4.554   5.830   1.224
 1449SOL    HW1 5246   4.507   5.903   1.273
 1449SOL    HW2 5247   4.556   5.850   1.126
 1450SOL     OW 5248   5.532   2.873   3.283
 1450SOL    HW1 5249   5.622   2.834   3.306
 1450SOL    HW2 5250   5.540   2.973   3.276
 1451SOL     OW 5251   1.432   6.476   2.966
 1451SOL    HW1 5252   1.379   6.502   2.885
 1451SOL    HW2 5253   1.408   6.537   3.042
 1452SOL     OW 5254   4.316   1.224   5.174
 1452SOL    HW1 5255   4.320   1.246   5.272
 1452SOL    HW2 5256   4.230   1.258   5.136
 1453SOL     OW 5257   5.675   4.578   5.257
 1453SOL    HW1 5258   5.707   4.642   5.187
 1453SOL    HW2 5259   5.663   4.626   5.344
 1454SOL     OW 5260   4.054   3.799   0.901
 1454SOL    HW1 5261   4.029   3.761   0.812
 1454SOL    HW2 5262   4.107   3.730   0.952
 1455SOL     OW 5263   1.859   2.727   1.705
 1455SOL    HW1 5264   1.816   2.657   1.647
 1455SOL    HW2 5265   1.912   2.682   1.776
 1456SOL     OW 5266   6.500   6.252   3.748
 1456SOL    HW1 5267   6.470   6.187   3.818
 1456SOL    HW2 5268   6.586   6.220   3.707
 1457SOL     OW 5269   1.308   0.600   3.079
 1457SOL    HW1 5270   1.233   0.553   3.125
 1457SOL    HW2 5271   1.366   0.532   3.032
 1458SOL     OW 5272   5.867   5.248   6.893
 1458SOL    HW1 5273   5.879   5.149   6.897
 1458SOL    HW2 5274   5.909   5.290   6.973
 1459SOL     OW 5275   2.080   0.052   0.493
 1459SOL    HW1 5276   2.036   6.980   0.497
 1459SOL    HW2 5277   2.081   0.084   0.398
 1460SOL     OW 5278   1.181   0.084   6.894
 1460SOL    HW1 5279   1.266   0.031   6.898
 1460SOL    HW2 5280   1.138   0.083   6.984
 1461SOL     OW 5281   5.661   5.058   1.807
 1461SOL    HW1 5282   5.657   5.138   1.868
 1461SOL    HW2 5283   5.589   5.066   1.738
 1462SOL     OW 5284   5.474   0.703   6.059
 1462SOL    HW1 5285   5.390   0.717   6.112
 1462SOL    HW2 5286   5.520   0.791   6.046
 1463SOL     OW 5287   0.617   1.260   4.775
 1463SOL    HW1 5288   0.536   1.202   4.771
 1463SOL    HW2 5289   0.674   1.232   4.853
 1464SOL     OW 5290   0.682   6.331   0.874
 1464SOL    HW1 5291   0.620   6.321   0.952
 1464SOL    HW2 5292   0.679   6.425   0.841
 1465SOL     OW 5293   0.130   6.886   4.647
 1465SOL    HW1 5294   0.209   6.828   4.629
 1465SOL    HW2 5295   0.053   6.830   4.678
 1466SOL     OW 5296   5.561   5.413   3.987
 1466SOL    HW1 5297   5.505   5.330   3.978
 1466SOL    HW2 5298   5.620   5.422   3.907
 1467SOL     OW 5299   0.314   2.607   3.276
 1467SOL    HW1 5300   0.284   2.702   3.282
 1467SOL    HW2 5301   0.275   2.555   3.352
 1468SOL     OW 5302   5.883   5.703   3.453
 1468SOL    HW1 5303   5.833   5.779   3.494
 1468SOL    HW2 5304   5.900   5.722   3.356
 1469SOL     OW 5305   0.526   1.400   3.054
 1469SOL    HW1 5306   0.433   1.365   3.047
 1469SOL    HW2 5307   0.581   1.364   2.980
 1470SOL     OW 5308   0.057   1.185   3.340
 1470SOL    HW1 5309   0.054   1.085   3.336
 1470SOL    HW2 5310   0.145   1.214   3.380
 1471SOL     OW 5311   0.285   0.135   6.977
 1471SOL    HW1 5312   0.190   0.114   7.000
 1471SOL    HW2 5313   0.345   0.060   7.008
 1472SOL     OW 5314   4.329   0.543   5.513
 1472SOL    HW1 5315   4.259   0.506   5.574
 1472SOL    HW2 5316   4.378   0.468   5.469
 1473SOL     OW 5317   6.209   4.069   4.024
 1473SOL    HW1 5318   6.137   4.118   4.073
 1473SOL    HW2 5319   6.298   4.090   4.065
 1474SOL     OW 5320   4.666   5.720   3.635
 1474SOL    HW1 5321   4.568   5.734   3.626
 1474SOL    HW2 5322   4.703   5.681   3.551
 1475SOL     OW 5323   0.364   1.023   2.779
 1475SOL    HW1 5324   0.353   0.963   2.699
 1475SOL    HW2 5325   0.384   1.116   2.748
 1476SOL     OW 5326   6.655   1.989   1.921
 1476SOL    HW1 5327   6.726   2.019   1.985
 1476SOL    HW2 5328   6.568   1.981   1.969
 1477SOL     OW 5329   2.645   6.007   3.613
 1477SOL    HW1 5330   2.668   6.104   3.604
 1477SOL    HW2 5331   2.669   5.976   3.706
 1478SOL     OW 5332   6.623   4.407   1.283
 1478SOL    HW1 5333   6.635   4.370   1.375
 1478SOL    HW2 5334   6.528   4.393   1.254
 1479SOL     OW 5335   1.689   5.319   0.700
 1479SOL    HW1 5336   1.756   5.256   0.662
 1479SOL    HW2 5337   1.735   5.388   0.756
 1480SOL     OW 5338   2.757   1.058   0.003
 1480SOL    HW1 5339   2.823   1.110   0.057
 1480SOL    HW2 5340   2.665   1.075   0.037
 1481SOL     OW 5341   6.143   2.383   6.111
 1481SOL    HW1 5342   6.182   2.457   6.056
 1481SOL    HW2 5343   6.082   2.328   6.053
 1482SOL     OW 5344   5.745   0.592   6.320
 1482SOL    HW1 5345   5.818   0.633   6.264
 1482SOL    HW2 5346   5.694   0.665   6.365
 1483SOL     OW 5347   6.078   2.007   6.709
 1483SOL    HW1 5348   6.130   2.024   6.625
 1483SOL    HW2 5349   6.073   2.091   6.762
 1484SOL     OW 5350   6.252   5.852   2.971
 1484SOL    HW1 5351   6.162   5.839   2.929
 1484SOL    HW2 5352   6.245   5.920   3.044
 1485SOL     OW 5353   5.171   3.067   3.800
 1485SOL    HW1 5354   5.086   3.050   3.850
 1485SOL    HW2 5355   5.161   3.149   3.744
 1486SOL     OW 5356   4.953   1.813   2.138
 1486SOL    HW1 5357   5.013   1.752   2.086
 1486SOL    HW2 5358   4.861   1.775   2.139
 1487SOL     OW 5359   6.165   1.296   5.275
 1487SOL    HW1 5360   6.257   1.301   5.314
 1487SOL    HW2 5361   6.154   1.210   5.226
 1488SOL     OW 5362   4.188   1.921   3.044
 1488SOL    HW1 5363   4.213   1.968   2.959
 1488SOL    HW2 5364   4.178   1.823   3.027
 1489SOL     OW 5365   4.102   6.070   4.879
 1489SOL    HW1 5366   4.042   6.001   4.918
 1489SOL    HW2 5367   4.148   6.033   4.798
 1490SOL     OW 5368   1.949   2.792   0.387
 1490SOL    HW1 5369   1.927   2.742   0.471
 1490SOL    HW2 5370   2.035   2.842   0.399
 1491SOL     OW 5371   0.440   2.938   5.047
 1491SOL    HW1 5372   0.386   2.856   5.031
 1491SOL    HW2 5373   0.414   2.980   5.134
 1492SOL     OW 5374   5.166   2.373   2.311
 1492SOL    HW1 5375   5.093   2.441   2.307
 1492SOL    HW2 5376   5.255   2.419   2.305
 1493SOL     OW 5377   4.805   0.978   5.106
 1493SOL    HW1 5378   4.835   1.054   5.049
 1493SOL    HW2 5379   4.751   1.013   5.182
 1494SOL     OW 5380   4.849   2.845   5.925
 1494SOL    HW1 5381   4.767   2.895   5.898
 1494SOL    HW2 5382   4.867   2.771   5.861
 1495SOL     OW 5383   1.842   3.197   2.704
 1495SOL    HW1 5384   1.800   3.106   2.707
 1495SOL    HW2 5385   1.941   3.189   2.697
 1496SOL     OW 5386   0.743   0.929   2.293
 1496SOL    HW1 5387   0.739   0.834   2.263
 1496SOL    HW2 5388   0.662   0.977   2.260
 1497SOL     OW 5389   5.789   5.338   5.248
 1497SOL    HW1 5390   5.693   5.367   5.241
 1497SOL    HW2 5391   5.838   5.365   5.165
 1498SOL     OW 5392   2.595   6.325   0.625
 1498SOL    HW1 5393   2.641   6.413   0.617
 1498SOL    HW2 5394   2.502   6.339   0.661
 1499SOL     OW 5395   0.307   4.197   5.555
 1499SOL    HW1 5396   0.304   4.295   5.535
 1499SOL    HW2 5397   0.223   4.153   5.523
 1500SOL     OW 5398   4.846   0.289   6.172
 1500SOL    HW1 5399   4.904   0.352   6.121
 1500SOL    HW2 5400   4.750   0.311   6.155
 1501SOL     OW 5401   3.896   6.931   6.319
 1501SOL    HW1 5402   3.956   6.851   6.318
 1501SOL    HW2 5403   3.898   6.975   6.230
 1502SOL     OW 5404   6.714   6.063   0.199
 1502SOL    HW1 5405   6.719   6.110   0.111
 1502SOL    HW2 5406   6.772   5.981   0.197
 1503SOL     OW 5407   3.237   3.189   5.805
 1503SOL    HW1 5408   3.232   3.103   5.754
 1503SOL    HW2 5409   3.236   3.170   5.903
 1504SOL     OW 5410   2.295   5.904   4.611
 1504SOL    HW1 5411   2.212   5.850   4.594
 1504SOL    HW2 5412   2.355   5.897   4.531
 1505SOL     OW 5413   4.885   5.577   0.495
 1505SOL    HW1 5414   4.921   5.579   0.588
 1505SOL    HW2 5415   4.954   5.539   0.434
 1506SOL     OW 5416   0.623   5.957   4.015
 1506SOL    HW1 5417   0.612   5.915   4.105
 1506SOL    HW2 5418   0.696   6.026   4.018
 1507SOL     OW 5419   1.900   1.864   6.564
 1507SOL    HW1 5420   1.992   1.880   6.529
 1507SOL    HW2 5421   1.842   1.828   6.491
 1508SOL     OW 5422   5.252   0.089   0.370
 1508SOL    HW1 5423   5.271   0.013   0.307
 1508SOL    HW2 5424   5.276   0.175   0.326
 1509SOL     OW 5425   5.059   2.166   0.459
 1509SOL    HW1 5426   5.052   2.075   0.418
 1509SOL    HW2 5427   5.150   2.204   0.443
 1510SOL     OW 5428   6.843   1.538   3.756
 1510SOL    HW1 5429   6.878   1.630   3.738
 1510SOL    HW2 5430   6.860   1.514   3.852
 1511SOL     OW 5431   1.959   2.489   0.616
 1511SOL    HW1 5432   2.054   2.519   0.604
 1511SOL    HW2 5433   1.926   2.518   0.706
 1512SOL     OW 5434   6.651   0.593   2.185
 1512SOL    HW1 5435   6.633   0.539   2.267
 1512SOL    HW2 5436   6.601   0.554   2.107
 1513SOL     OW 5437   3.555   0.945   2.260
 1513SOL    HW1 5438   3.640   0.979   2.222
 1513SOL    HW2 5439   3.559   0.949   2.360
 1514SOL     OW 5440   4.726   1.686   4.838
 1514SOL    HW1 5441   4.775   1.627   4.903
 1514SOL    HW2 5442   4.752   1.662   4.745
 1515SOL     OW 5443   0.040   4.283   4.320
 1515SOL    HW1 5444   6.988   4.318   4.383
 1515SOL    HW2 5445   0.111   4.353   4.308
 1516SOL     OW 5446   0.630   1.881   1.042
 1516SOL    HW1 5447   0.655   1.824   1.120
 1516SOL    HW2 5448   0.575   1.829   0.977
 1517SOL     OW 5449   3.976   5.768   3.138
 1517SOL    HW1 5450   3.996   5.735   3.230
 1517SOL    HW2 5451   4.059   5.762   3.082
 1518SOL     OW 5452   0.830   4.528   1.182
 1518SOL    HW1 5453   0.868   4.593   1.247
 1518SOL    HW2 5454   0.818   4.439   1.227
 1519SOL     OW 5455   6.554   4.797   0.713
 1519SOL    HW1 5456   6.515   4.790   0.804
 1519SOL    HW2 5457   6.654   4.789   0.718
 1520SOL     OW 5458   1.249   3.025   2.910
 1520SOL    HW1 5459   1.247   3.083   2.828
 1520SOL    HW2 5460   1.240   3.082   2.991
 1521SOL     OW 5461   2.687   3.923   6.650
 1521SOL    HW1 5462   2.758   3.861   6.620
 1521SOL    HW2 5463   2.662   3.985   6.575
 1522SOL     OW 5464   6.150   2.543   6.775
 1522SOL    HW1 5465   6.167   2.458   6.725
 1522SOL    HW2 5466   6.193   2.537   6.865
 1523SOL     OW 5467   0.359   2.082   0.775
 1523SOL    HW1 5468   0.360   2.089   0.875
 1523SOL    HW2 5469   0.381   1.988   0.748
 1524SOL     OW 5470   6.919   0.795   2.582
 1524SOL    HW1 5471   6.826   0.788   2.547
 1524SOL    HW2 5472   6.923   0.864   2.653
 1525SOL     OW 5473   4.607   2.097   6.195
 1525SOL    HW1 5474   4.621   2.000   6.215
 1525SOL    HW2 5475   4.670   2.152   6.249
 1526SOL     OW 5476   6.856   2.510   1.540
 1526SOL    HW1 5477   6.780   2.447   1.546
 1526SOL    HW2 5478   6.915   2.500   1.620
 1527SOL     OW 5479   2.973   1.626   5.566
 1527SOL    HW1 5480   3.037   1.566   5.614
 1527SOL    HW2 5481   2.917   1.675   5.633
 1528SOL     OW 5482   5.275   6.154   3.620
 1528SOL    HW1 5483   5.177   6.178   3.621
 1528SOL    HW2 5484   5.328   6.233   3.652
 1529SOL     OW 5485   2.930   0.417   5.852
 1529SOL    HW1 5486   2.917   0.501   5.906
 1529SOL    HW2 5487   3.024   0.412   5.820
 1530SOL     OW 5488   3.948   6.660   1.859
 1530SOL    HW1 5489   3.950   6.688   1.955
 1530SOL    HW2 5490   3.879   6.588   1.848
 1531SOL     OW 5491   6.737   6.904   4.769
 1531SOL    HW1 5492   6.802   6.921   4.695
 1531SOL    HW2 5493   6.769   6.828   4.825
 1532SOL     OW 5494   3.120   1.795   5.196
 1532SOL    HW1 5495   3.168   1.745   5.268
 1532SOL    HW2 5496   3.117   1.892   5.219
 1533SOL     OW 5497   5.929   2.553   6.938
 1533SOL    HW1 5498   6.007   2.583   6.883
 1533SOL    HW2 5499   5.845   2.563   6.885
 1534SOL     OW 5500   0.014   6.480   1.567
 1534SOL    HW1 5501   6.999   6.391   1.534
 1534SOL    HW2 5502   0.015   6.545   1.492
 1535SOL     OW 5503   4.666   5.154   4.249
 1535SOL    HW1 5504   4.588   5.182   4.193
 1535SOL    HW2 5505   4.695   5.062   4.222
 1536SOL     OW 5506   2.683   6.144   4.543
 1536SOL    HW1 5507   2.745   6.222   4.551
 1536SOL    HW2 5508   2.684   6.092   4.629
 1537SOL     OW 5509   1.644   5.464   4.434
 1537SOL    HW1 5510   1.595   5.432   4.353
 1537SOL    HW2 5511   1.650   5.564   4.431
 1538SOL     OW 5512   2.366   5.621   6.491
 1538SOL    HW1 5513   2.293   5.665   6.544
 1538SOL    HW2 5514   2.355   5.522   6.496
 1539SOL     OW 5515   3.329   4.822   1.753
 1539SOL    HW1 5516   3.338   4.894   1.684
 1539SOL    HW2 5517   3.421   4.795   1.784
 1540SOL     OW 5518   0.824   6.421   4.457
 1540SOL    HW1 5519   0.898   6.404   4.521
 1540SOL    HW2 5520   0.808   6.520   4.450
 1541SOL     OW 5521   5.145   2.297   1.147
 1541SOL    HW1 5522   5.218   2.285   1.080
 1541SOL    HW2 5523   5.181   2.282   1.239
 1542SOL     OW 5524   0.883   6.389   0.502
 1542SOL    HW1 5525   0.866   6.485   0.523
 1542SOL    HW2 5526   0.912   6.341   0.585
 1543SOL     OW 5527   3.019   3.910   4.067
 1543SOL    HW1 5528   3.066   3.923   4.154
 1543SOL    HW2 5529   2.997   3.999   4.027
 1544SOL     OW 5530   3.614   4.122   2.502
 1544SOL    HW1 5531   3.625   4.220   2.520
 1544SOL    HW2 5532   3.698   4.074   2.526
 1545SOL     OW 5533   5.571   0.317   4.686
 1545SOL    HW1 5534   5.533   0.229   4.658
 1545SOL    HW2 5535   5.671   0.311   4.688
 1546SOL     OW 5536   0.909   6.631   5.990
 1546SOL    HW1 5537   0.972   6.620   6.066
 1546SOL    HW2 5538   0.852   6.712   6.004
 1547SOL     OW 5539   3.533   6.101   0.077
 1547SOL    HW1 5540   3.490   6.022   0.121
 1547SOL    HW2 5541   3.574   6.073   7.008
 1548SOL     OW 5542   5.475   3.974   4.905
 1548SOL    HW1 5543   5.523   3.926   4.832
 1548SOL    HW2 5544   5.508   4.068   4.911
 1549SOL     OW 5545   6.919   1.666   1.266
 1549SOL    HW1 5546   6.834   1.663   1.319
 1549SOL    HW2 5547   6.990   1.709   1.321
 1550SOL     OW 5548   2.301   5.913   4.888
 1550SOL    HW1 5549   2.301   5.928   4.790
 1550SOL    HW2 5550   2.207   5.919   4.923
 1551SOL     OW 5551   1.989   2.472   0.320
 1551SOL    HW1 5552   1.909   2.439   0.271
 1551SOL    HW2 5553   1.979   2.452   0.418
 1552SOL     OW 5554   0.735   0.908   0.536
 1552SOL    HW1 5555   0.736   0.849   0.617
 1552SOL    HW2 5556   0.690   0.861   0.461
 1553SOL     OW 5557   6.110   1.081   6.380
 1553SOL    HW1 5558   6.148   1.025   6.453
 1553SOL    HW2 5559   6.052   1.025   6.322
 1554SOL     OW 5560   3.358   1.946   1.507
 1554SOL    HW1 5561   3.387   1.985   1.419
 1554SOL    HW2 5562   3.432   1.954   1.573
 1555SOL     OW 5563   4.018   1.460   5.661
 1555SOL    HW1 5564   3.922   1.466   5.632
 1555SOL    HW2 5565   4.029   1.508   5.748
 1556SOL     OW 5566   3.714   1.429   1.015
 1556SOL    HW1 5567   3.750   1.438   0.921
 1556SOL    HW2 5568   3.777   1.475   1.078
 1557SOL     OW 5569   1.864   2.217   0.575
 1557SOL    HW1 5570   1.897   2.168   0.656
 1557SOL    HW2 5571   1.868   2.315   0.591
 1558SOL     OW 5572   5.959   2.998   6.132
 1558SOL    HW1 5573   6.021   3.076   6.125
 1558SOL    HW2 5574   5.961   2.945   6.047
 1559SOL     OW 5575   2.012   4.449   3.644
 1559SOL    HW1 5576   1.946   4.388   3.688
 1559SOL    HW2 5577   2.064   4.498   3.714
 1560SOL     OW 5578   4.288   1.511   1.369
 1560SOL    HW1 5579   4.287   1.477   1.463
 1560SOL    HW2 5580   4.213   1.468   1.317
 1561SOL     OW 5581   6.371   5.828   0.999
 1561SOL    HW1 5582   6.331   5.759   1.060
 1561SOL    HW2 5583   6.434   5.885   1.051
 1562SOL     OW 5584   3.993   6.754   2.104
 1562SOL    HW1 5585   4.049   6.791   2.179
 1562SOL    HW2 5586   3.899   6.786   2.114
 1563SOL     OW 5587   4.083   2.273   3.874
 1563SOL    HW1 5588   4.102   2.290   3.971
 1563SOL    HW2 5589   4.153   2.319   3.819
 1564SOL     OW 5590   1.773   2.374   3.090
 1564SOL    HW1 5591   1.679   2.394   3.063
 1564SOL    HW2 5592   1.829   2.357   3.009
 1565SOL     OW 5593   3.778   1.117   4.515
 1565SOL    HW1 5594   3.781   1.126   4.614
 1565SOL    HW2 5595   3.822   1.196   4.472
 1566SOL     OW 5596   4.523   4.574   3.145
 1566SOL    HW1 5597   4.512   4.514   3.224
 1566SOL    HW2 5598   4.433   4.607   3.116
 1567SOL     OW 5599   4.907   0.040   4.954
 1567SOL    HW1 5600   4.943   6.970   4.985
 1567SOL    HW2 5601   4.937   0.057   4.860
 1568SOL     OW 5602   2.280   5.556   2.472
 1568SOL    HW1 5603   2.332   5.563   2.387
 1568SOL    HW2 5604   2.313   5.625   2.536
 1569SOL     OW 5605   3.103   0.292   3.192
 1569SOL    HW1 5606   3.087   0.265   3.287
 1569SOL    HW2 5607   3.016   0.290   3.141
 1570SOL     OW 5608   3.535   6.605   6.867
 1570SOL    HW1 5609   3.487   6.548   6.935
 1570SOL    HW2 5610   3.476   6.617   6.787
 1571SOL     OW 5611   0.840   2.079   4.862
 1571SOL    HW1 5612   0.903   2.002   4.853
 1571SOL    HW2 5613   0.786   2.089   4.778
 1572SOL     OW 5614   1.958   5.109   1.710
 1572SOL    HW1 5615   1.909   5.102   1.797
 1572SOL    HW2 5616   1.978   5.205   1.691
 1573SOL     OW 5617   5.114   5.447   0.867
 1573SOL    HW1 5618   5.207   5.463   0.901
 1573SOL    HW2 5619   5.068   5.535   0.856
 1574SOL     OW 5620   6.852   3.368   3.567
 1574SOL    HW1 5621   6.824   3.347   3.473
 1574SOL    HW2 5622   6.859   3.468   3.578
 1575SOL     OW 5623   0.182   1.291   0.281
 1575SOL    HW1 5624   0.100   1.346   0.266
 1575SOL    HW2 5625   0.234   1.329   0.357
 1576SOL     OW 5626   0.487   0.273   2.156
 1576SOL    HW1 5627   0.550   0.202   2.124
 1576SOL    HW2 5628   0.403   0.230   2.190
 1577SOL     OW 5629   4.484   6.069   5.290
 1577SOL    HW1 5630   4.395   6.025   5.300
 1577SOL    HW2 5631   4.477   6.144   5.223
 1578SOL     OW 5632   4.835   1.230   0.652
 1578SOL    HW1 5633   4.903   1.199   0.585
 1578SOL    HW2 5634   4.834   1.330   0.654
 1579SOL     OW 5635   1.599   2.594   1.351
 1579SOL    HW1 5636   1.578   2.551   1.264
 1579SOL    HW2 5637   1.696   2.586   1.370
 1580SOL     OW 5638   3.099   3.674   2.580
 1580SOL    HW1 5639   3.044   3.735   2.637
 1580SOL    HW2 5640   3.120   3.720   2.493
 1581SOL     OW 5641   6.485   4.234   5.823
 1581SOL    HW1 5642   6.524   4.303   5.884
 1581SOL    HW2 5643   6.491   4.144   5.866
 1582SOL     OW 5644   4.377   6.415   5.303
 1582SOL    HW1 5645   4.324   6.493   5.269
 1582SOL    HW2 5646   4.410   6.361   5.225
 1583SOL     OW 5647   1.250   6.313   5.199
 1583SOL    HW1 5648   1.194   6.253   5.257
 1583SOL    HW2 5649   1.276   6.263   5.116
 1584SOL     OW 5650   0.222   5.236   6.813
 1584SOL    HW1 5651   0.309   5.202   6.777
 1584SOL    HW2 5652   0.169   5.159   6.849
 1585SOL     OW 5653   4.079   6.651   3.126
 1585SOL    HW1 5654   4.061   6.555   3.145
 1585SOL    HW2 5655   3.995   6.697   3.097
 1586SOL     OW 5656   2.866   4.926   3.913
 1586SOL    HW1 5657   2.898   4.915   3.819
 1586SOL    HW2 5658   2.908   4.857   3.972
 1587SOL     OW 5659   1.937   6.096   5.963
 1587SOL    HW1 5660   1.941   6.003   5.926
 1587SOL    HW2 5661   1.883   6.154   5.902
 1588SOL     OW 5662   5.708   0.758   2.884
 1588SOL    HW1 5663   5.797   0.744   2.926
 1588SOL    HW2 5664   5.647   0.683   2.910
 1589SOL     OW 5665   6.207   4.456   4.113
 1589SOL    HW1 5666   6.275   4.463   4.186
 1589SOL    HW2 5667   6.144   4.534   4.118
 1590SOL     OW 5668   6.282   2.386   3.785
 1590SOL    HW1 5669   6.185   2.365   3.779
 1590SOL    HW2 5670   6.328   2.359   3.700
 1591SOL     OW 5671   0.888   6.605   1.794
 1591SOL    HW1 5672   0.943   6.544   1.850
 1591SOL    HW2 5673   0.823   6.655   1.853
 1592SOL     OW 5674   0.549   4.177   6.632
 1592SOL    HW1 5675   0.481   4.108   6.609
 1592SOL    HW2 5676   0.638   4.133   6.647
 1593SOL     OW 5677   2.787   0.610   0.424
 1593SOL    HW1 5678   2.832   0.684   0.475
 1593SOL    HW2 5679   2.857   0.548   0.388
 1594SOL     OW 5680   6.141   0.582   2.188
 1594SOL    HW1 5681   6.143   0.493   2.142
 1594SOL    HW2 5682   6.046   0.612   2.198
 1595SOL     OW 5683   0.727   3.985   6.780
 1595SOL    HW1 5684   0.808   3.960   6.833
 1595SOL    HW2 5685   0.663   4.035   6.838
 1596SOL     OW 5686   4.959   4.577   2.742
 1596SOL    HW1 5687   4.957   4.502   2.809
 1596SOL    HW2 5688   4.903   4.653   2.775
 1597SOL     OW 5689   3.892   6.364   6.543
 1597SOL    HW1 5690   3.986   6.376   6.575
 1597SOL    HW2 5691   3.829   6.376   6.620
 1598SOL     OW 5692   1.891   5.378   0.325
 1598SOL    HW1 5693   1.897   5.292   0.274
 1598SOL    HW2 5694   1.927   5.364   0.417
 1599SOL     OW 5695   4.896   4.831   3.786
 1599SOL    HW1 5696   4.859   4.917   3.820
 1599SOL    HW2 5697   4.989   4.844   3.753
 1600SOL     OW 5698   4.210   0.617   2.441
 1600SOL    HW1 5699   4.282   0.651   2.501
 1600SOL    HW2 5700   4.239   0.531   2.399
 1601SOL     OW 5701   6.557   6.650   4.648
 1601SOL    HW1 5702   6.640   6.706   4.646
 1601SOL    HW2 5703   6.477   6.710   4.647
 1602SOL     OW 5704   3.709   4.995   3.742
 1602SOL    HW1 5705   3.712   4.963   3.837
 1602SOL    HW2 5706   3.769   4.938   3.686
 1603SOL     OW 5707   3.305   5.772   2.930
 1603SOL    HW1 5708   3.206   5.780   2.936
 1603SOL    HW2 5709   3.330   5.679   2.902
 1604SOL     OW 5710   4.081   5.381   2.379
 1604SOL    HW1 5711   4.050   5.291   2.410
 1604SOL    HW2 5712   4.122   5.373   2.289
 1605SOL     OW 5713   4.852   5.535   1.102
 1605SOL    HW1 5714   4.948   5.520   1.123
 1605SOL    HW2 5715   4.805   5.567   1.184
 1606SOL     OW 5716   3.959   6.503   4.721
 1606SOL    HW1 5717   3.923   6.412   4.697
 1606SOL    HW2 5718   3.918   6.571   4.661
 1607SOL     OW 5719   4.508   5.811   2.706
 1607SOL    HW1 5720   4.417   5.840   2.736
 1607SOL    HW2 5721   4.563   5.892   2.684
 1608SOL     OW 5722   6.265   0.866   3.288
 1608SOL    HW1 5723   6.168   0.849   3.275
 1608SOL    HW2 5724   6.298   0.815   3.368
 1609SOL     OW 5725   3.694   6.430   0.444
 1609SOL    HW1 5726   3.657   6.404   0.533
 1609SOL    HW2 5727   3.682   6.354   0.380
 1610SOL     OW 5728   5.066   0.222   0.542
 1610SOL    HW1 5729   5.121   0.167   0.479
 1610SOL    HW2 5730   5.032   0.163   0.615
 1611SOL     OW 5731   1.224   3.956   1.185
 1611SOL    HW1 5732   1.168   4.027   1.143
 1611SOL    HW2 5733   1.313   3.953   1.139
 1612SOL     OW 5734   3.732   6.841   2.060
 1612SOL    HW1 5735   3.659   6.909   2.053
 1612SOL    HW2 5736   3.713   6.765   1.997
 1613SOL     OW 5737   6.964   5.489   2.260
 1613SOL    HW1 5738   6.886   5.475   2.321
 1613SOL    HW2 5739   6.931   5.503   2.167
 1614SOL     OW 5740   6.624   2.347   6.119
 1614SOL    HW1 5741   6.636   2.268   6.179
 1614SOL    HW2 5742   6.713   2.392   6.105
 1615SOL     OW 5743   1.509   5.184   6.649
 1615SOL    HW1 5744   1.502   5.202   6.551
 1615SOL    HW2 5745   1.444   5.242   6.698
 1616SOL     OW 5746   1.951   1.283   4.717
 1616SOL    HW1 5747   1.955   1.338   4.634
 1616SOL    HW2 5748   1.882   1.320   4.779
 1617SOL     OW 5749   5.680   6.065   3.407
 1617SOL    HW1 5750   5.705   6.006   3.483
 1617SOL    HW2 5751   5.582   6.056   3.388
 1618SOL     OW 5752   3.081   5.177   2.962
 1618SOL    HW1 5753   2.984   5.186   2.941
 1618SOL    HW2 5754   3.115   5.263   2.999
 1619SOL     OW 5755   1.340   5.272   6.839
 1619SOL    HW1 5756   1.414   5.338   6.830
 1619SOL    HW2 5757   1.357   5.213   6.918
 1620SOL     OW 5758   3.658   5.373   6.255
 1620SOL    HW1 5759   3.742   5.324   6.279
 1620SOL    HW2 5760   3.584   5.344   6.316
 1621SOL     OW 5761   5.132   6.359   0.727
 1621SOL    HW1 5762   5.062   6.291   0.750
 1621SOL    HW2 5763   5.207   6.314   0.677
 1622SOL     OW 5764   0.138   4.023   4.332
 1622SOL    HW1 5765   0.229   3.989   4.306
 1622SOL    HW2 5766   0.128   4.118   4.302
 1623SOL     OW 5767   0.896   1.687   3.766
 1623SOL    HW1 5768   0.888   1.723   3.673
 1623SOL    HW2 5769   0.858   1.752   3.831
 1624SOL     OW 5770   4.116   1.337   1.004
 1624SOL    HW1 5771   4.190   1.404   0.997
 1624SOL    HW2 5772   4.034   1.381   1.041
 1625SOL     OW 5773   1.163   5.664   0.865
 1625SOL    HW1 5774   1.118   5.721   0.797
 1625SOL    HW2 5775   1.260   5.687   0.870
 1626SOL     OW 5776   3.140   1.909   1.250
 1626SOL    HW1 5777   3.075   1.959   1.307
 1626SOL    HW2 5778   3.194   1.974   1.196
 1627SOL     OW 5779   4.381   1.472   4.152
 1627SOL    HW1 5780   4.412   1.563   4.125
 1627SOL    HW2 5781   4.307   1.442   4.092
 1628SOL     OW 5782   5.414   6.744   0.232
 1628SOL    HW1 5783   5.475   6.682   0.183
 1628SOL    HW2 5784   5.373   6.808   0.168
 1629SOL     OW 5785   2.071   0.966   3.545
 1629SOL    HW1 5786   2.148   0.904   3.554
 1629SOL    HW2 5787   2.096   1.042   3.484
 1630SOL     OW 5788   0.337   3.441   0.201
 1630SOL    HW1 5789   0.276   3.450   0.280
 1630SOL    HW2 5790   0.414   3.505   0.211
 1631SOL     OW 5791   0.003   3.140   0.485
 1631SOL    HW1 5792   6.952   3.211   0.468
 1631SOL    HW2 5793   7.005   3.100   0.576
 1632SOL     OW 5794   6.690   4.632   2.877
 1632SOL    HW1 5795   6.649   4.687   2.804
 1632SOL    HW2 5796   6.752   4.565   2.837
 1633SOL     OW 5797   5.267   2.988   4.082
 1633SOL    HW1 5798   5.198   2.925   4.117
 1633SOL    HW2 5799   5.253   3.002   3.984
 1634SOL     OW 5800   5.328   0.899   4.195
 1634SOL    HW1 5801   5.296   0.902   4.289
 1634SOL    HW2 5802   5.270   0.838   4.142
 1635SOL     OW 5803   3.427   5.973   4.219
 1635SOL    HW1 5804   3.519   5.935   4.212
 1635SOL    HW2 5805   3.385   5.975   4.128
 1636SOL     OW 5806   5.763   6.518   1.380
 1636SOL    HW1 5807   5.851   6.480   1.350
 1636SOL    HW2 5808   5.695   6.445   1.383
 1637SOL     OW 5809   0.165   0.450   2.316
 1637SOL    HW1 5810   0.177   0.527   2.378
 1637SOL    HW2 5811   0.222   0.373   2.346
 1638SOL     OW 5812   6.827   2.732   2.176
 1638SOL    HW1 5813   6.902   2.774   2.226
 1638SOL    HW2 5814   6.742   2.782   2.196
 1639SOL     OW 5815   4.775   2.656   2.677
 1639SOL    HW1 5816   4.842   2.618   2.613
 1639SOL    HW2 5817   4.695   2.597   2.681
 1640SOL     OW 5818   6.306   0.234   0.201
 1640SOL    HW1 5819   6.319   0.220   0.103
 1640SOL    HW2 5820   6.383   0.193   0.251
 1641SOL     OW 5821   6.436   2.430   2.915
 1641SOL    HW1 5822   6.496   2.387   2.982
 1641SOL    HW2 5823   6.344   2.391   2.923
 1642SOL     OW 5824   5.789   2.255   5.591
 1642SOL    HW1 5825   5.765   2.283   5.684
 1642SOL    HW2 5826   5.858   2.183   5.595
 1643SOL     OW 5827   2.755   5.663   4.070
 1643SOL    HW1 5828   2.708   5.745   4.102
 1643SOL    HW2 5829   2.753   5.594   4.142
 1644SOL     OW 5830   6.035   3.132   1.123
 1644SOL    HW1 5831   6.013   3.135   1.220
 1644SOL    HW2 5832   5.973   3.192   1.073
 1645SOL     OW 5833   1.961   0.834   5.820
 1645SOL    HW1 5834   1.882   0.795   5.869
 1645SOL    HW2 5835   1.986   0.773   5.745
 1646SOL     OW 5836   1.161   5.405   1.034
 1646SOL    HW1 5837   1.155   5.498   0.997
 1646SOL    HW2 5838   1.071   5.362   1.030
 1647SOL     OW 5839   6.244   2.838   4.296
 1647SOL    HW1 5840   6.231   2.896   4.215
 1647SOL    HW2 5841   6.190   2.875   4.372
 1648SOL     OW 5842   5.437   6.267   1.279
 1648SOL    HW1 5843   5.364   6.335   1.282
 1648SOL    HW2 5844   5.517   6.305   1.233
 1649SOL     OW 5845   3.200   6.927   3.419
 1649SOL    HW1 5846   3.122   6.953   3.363
 1649SOL    HW2 5847   3.172   6.858   3.485
 1650SOL     OW 5848   2.979   5.071   6.474
 1650SOL    HW1 5849   2.945   5.153   6.519
 1650SOL    HW2 5850   2.905   5.028   6.422
 1651SOL     OW 5851   1.048   3.014   3.888
 1651SOL    HW1 5852   1.033   2.917   3.869
 1651SOL    HW2 5853   1.127   3.047   3.837
 1652SOL     OW 5854   0.336   2.366   1.091
 1652SOL    HW1 5855   0.406   2.361   1.020
 1652SOL    HW2 5856   0.371   2.420   1.168
 1653SOL     OW 5857   6.835   4.749   3.813
 1653SOL    HW1 5858   6.933   4.749   3.791
 1653SOL    HW2 5859   6.808   4.657   3.841
 1654SOL     OW 5860   0.740   3.403   2.131
 1654SOL    HW1 5861   0.829   3.361   2.113
 1654SOL    HW2 5862   0.698   3.361   2.211
 1655SOL     OW 5863   6.966   6.711   4.751
 1655SOL    HW1 5864   6.903   6.696   4.675
 1655SOL    HW2 5865   6.955   6.638   4.819
 1656SOL     OW 5866   1.681   4.881   4.463
 1656SOL    HW1 5867   1.582   4.893   4.474
 1656SOL    HW2 5868   1.729   4.960   4.503
 1657SOL     OW 5869   1.376   0.345   5.162
 1657SOL    HW1 5870   1.307   0.363   5.232
 1657SOL    HW2 5871   1.409   0.432   5.126
 1658SOL     OW 5872   6.376   0.168   6.581
 1658SOL    HW1 5873   6.307   0.118   6.528
 1658SOL    HW2 5874   6.348   0.173   6.677
 1659SOL     OW 5875   4.973   6.808   6.351
 1659SOL    HW1 5876   4.969   6.872   6.274
 1659SOL    HW2 5877   4.914   6.842   6.425
 1660SOL     OW 5878   1.799   0.208   2.318
 1660SOL    HW1 5879   1.753   0.176   2.236
 1660SOL    HW2 5880   1.841   0.297   2.301
 1661SOL     OW 5881   4.013   4.872   2.908
 1661SOL    HW1 5882   3.926   4.838   2.874
 1661SOL    HW2 5883   4.057   4.928   2.838
 1662SOL     OW 5884   0.335   0.807   4.951
 1662SOL    HW1 5885   0.279   0.740   5.000
 1662SOL    HW2 5886   0.408   0.840   5.010
 1663SOL     OW 5887   4.726   4.981   1.051
 1663SOL    HW1 5888   4.704   5.079   1.049
 1663SOL    HW2 5889   4.824   4.969   1.066
 1664SOL     OW 5890   1.370   0.316   5.686
 1664SOL    HW1 5891   1.312   0.392   5.658
 1664SOL    HW2 5892   1.315   0.232   5.692
 1665SOL     OW 5893   2.221   3.979   0.421
 1665SOL    HW1 5894   2.270   3.895   0.443
 1665SOL    HW2 5895   2.167   3.965   0.338
 1666SOL     OW 5896   5.544   6.693   6.330
 1666SOL    HW1 5897   5.604   6.619   6.300
 1666SOL    HW2 5898   5.470   6.656   6.387
 1667SOL     OW 5899   0.839   6.551   1.150
 1667SOL    HW1 5900   0.874   6.589   1.235
 1667SOL    HW2 5901   0.831   6.452   1.158
 1668SOL     OW 5902   5.851   4.376   3.749
 1668SOL    HW1 5903   5.828   4.339   3.659
 1668SOL    HW2 5904   5.904   4.460   3.737
 1669SOL     OW 5905   6.457   3.545   5.269
 1669SOL    HW1 5906   6.414   3.564   5.357
 1669SOL    HW2 5907   6.448   3.625   5.209
 1670SOL     OW 5908   1.855   4.788   5.528
 1670SOL    HW1 5909   1.790   4.862   5.512
 1670SOL    HW2 5910   1.830   4.709   5.472
 1671SOL     OW 5911   5.950   1.884   1.020
 1671SOL    HW1 5912   6.028   1.936   0.987
 1671SOL    HW2 5913   5.887   1.867   0.945
 1672SOL     OW 5914   1.134   3.317   6.827
 1672SOL    HW1 5915   1.083   3.322   6.741
 1672SOL    HW2 5916   1.071   3.330   6.903
 1673SOL     OW 5917   2.556   1.359   4.487
 1673SOL    HW1 5918   2.510   1.435   4.535
 1673SOL    HW2 5919   2.488   1.292   4.458
 1674SOL     OW 5920   4.720   2.149   3.127
 1674SOL    HW1 5921   4.798   2.184   3.178
 1674SOL    HW2 5922   4.688   2.218   3.062
 1675SOL     OW 5923   5.303   0.739   0.832
 1675SOL    HW1 5924   5.211   0.773   0.851
 1675SOL    HW2 5925   5.371   0.803   0.867
 1676SOL     OW 5926   1.761   1.289   2.890
 1676SOL    HW1 5927   1.662   1.292   2.902
 1676SOL    HW2 5928   1.783   1.272   2.794
 1677SOL     OW 5929   3.747   4.020   3.671
 1677SOL    HW1 5930   3.789   4.072   3.745
 1677SOL    HW2 5931   3.759   3.922   3.689
 1678SOL     OW 5932   0.774   6.925   0.712
 1678SOL    HW1 5933   0.850   6.862   0.727
 1678SOL    HW2 5934   0.734   6.950   0.800
 1679SOL     OW 5935   1.601   1.877   5.505
 1679SOL    HW1 5936   1.559   1.920   5.586
 1679SOL    HW2 5937   1.699   1.899   5.504
 1680SOL     OW 5938   5.106   2.545   3.359
 1680SOL    HW1 5939   5.186   2.602   3.376
 1680SOL    HW2 5940   5.104   2.470   3.426
 1681SOL     OW 5941   2.047   6.152   3.762
 1681SOL    HW1 5942   1.961   6.102   3.764
 1681SOL    HW2 5943   2.047   6.216   3.685
 1682SOL     OW 5944   2.995   6.905   5.381
 1682SOL    HW1 5945   3.085   6.910   5.424
 1682SOL    HW2 5946   2.930   6.860   5.442
 1683SOL     OW 5947   6.149   4.925   2.473
 1683SOL    HW1 5948   6.106   4.848   2.426
 1683SOL    HW2 5949   6.081   4.996   2.489
 1684SOL     OW 5950   2.623   4.446   1.670
 1684SOL    HW1 5951   2.612   4.347   1.661
 1684SOL    HW2 5952   2.699   4.465   1.733
 1685SOL     OW 5953   0.414   0.931   5.434
 1685SOL    HW1 5954   0.502   0.896   5.467
 1685SOL    HW2 5955   0.345   0.918   5.505
 1686SOL     OW 5956   4.717   6.152   3.020
 1686SOL    HW1 5957   4.660   6.227   3.053
 1686SOL    HW2 5958   4.793   6.137   3.083
 1687SOL     OW 5959   6.184   4.161   2.796
 1687SOL    HW1 5960   6.236   4.209   2.867
 1687SOL    HW2 5961   6.091   4.146   2.829
 1688SOL     OW 5962   2.192   1.817   3.594
 1688SOL    HW1 5963   2.270   1.871   3.562
 1688SOL    HW2 5964   2.201   1.800   3.692
 1689SOL     OW 5965   5.225   0.561   1.550
 1689SOL    HW1 5966   5.224   0.505   1.633
 1689SOL    HW2 5967   5.150   0.627   1.554
 1690SOL     OW 5968   0.444   3.945   4.620
 1690SOL    HW1 5969   0.447   3.860   4.673
 1690SOL    HW2 5970   0.474   4.021   4.677
 1691SOL     OW 5971   5.076   2.861   5.326
 1691SOL    HW1 5972   5.096   2.773   5.370
 1691SOL    HW2 5973   5.099   2.935   5.389
 1692SOL     OW 5974   6.021   5.503   1.254
 1692SOL    HW1 5975   5.954   5.493   1.180
 1692SOL    HW2 5976   5.985   5.462   1.337
 1693SOL     OW 5977   5.547   0.139   5.019
 1693SOL    HW1 5978   5.463   0.187   4.993
 1693SOL    HW2 5979   5.558   0.142   5.118
 1694SOL     OW 5980   4.686   0.536   5.605
 1694SOL    HW1 5981   4.619   0.598   5.564
 1694SOL    HW2 5982   4.754   0.589   5.656
 1695SOL     OW 5983   3.573   0.727   6.118
 1695SOL    HW1 5984   3.599   0.813   6.073
 1695SOL    HW2 5985   3.651   0.664   6.116
 1696SOL     OW 5986   4.257   6.220   0.278
 1696SOL    HW1 5987   4.266   6.228   0.377
 1696SOL    HW2 5988   4.213   6.303   0.242
 1697SOL     OW 5989   5.950   2.468   1.224
 1697SOL    HW1 5990   5.950   2.452   1.125
 1697SOL    HW2 5991   5.896   2.549   1.244
 1698SOL     OW 5992   4.080   0.947   1.783
 1698SOL    HW1 5993   4.105   0.993   1.698
 1698SOL    HW2 5994   4.022   1.006   1.838
 1699SOL     OW 5995   2.483   0.222   0.361
 1699SOL    HW1 5996   2.528   0.270   0.286
 1699SOL    HW2 5997   2.392   0.261   0.376
 1700SOL     OW 5998   6.083   3.357   3.031
 1700SOL    HW1 5999   6.048   3.446   3.004
 1700SOL    HW2 6000   6.010   3.303   3.073
 1701SOL     OW 6001   0.267   5.692   4.764
 1701SOL    HW1 6002   0.245   5.597   4.785
 1701SOL    HW2 6003   0.324   5.696   4.682
 1702SOL     OW 6004   1.929   2.554   5.759
 1702SOL    HW1 6005   2.015   2.598   5.783
 1702SOL    HW2 6006   1.942   2.496   5.678
 1703SOL     OW 6007   3.492   2.210   0.529
 1703SOL    HW1 6008   3.497   2.264   0.613
 1703SOL    HW2 6009   3.401   2.220   0.488
 1704SOL     OW 6010   2.527   1.999   1.314
 1704SOL    HW1 6011   2.451   2.051   1.274
 1704SOL    HW2 6012   2.506   1.902   1.310
 1705SOL     OW 6013   4.306   2.010   0.547
 1705SOL    HW1 6014   4.227   2.069   0.531
 1705SOL    HW2 6015   4.278   1.915   0.540
 1706SOL     OW 6016   4.350   2.653   0.444
 1706SOL    HW1 6017   4.389   2.671   0.354
 1706SOL    HW2 6018   4.337   2.555   0.456
 1707SOL     OW 6019   4.542   2.208   2.240
 1707SOL    HW1 6020   4.521   2.111   2.256
 1707SOL    HW2 6021   4.616   2.215   2.174
 1708SOL     OW 6022   3.554   5.203   1.670
 1708SOL    HW1 6023   3.502   5.219   1.754
 1708SOL    HW2 6024   3.620   5.129   1.685
 1709SOL     OW 6025   4.482   6.089   0.758
 1709SOL    HW1 6026   4.466   6.095   0.856
 1709SOL    HW2 6027   4.570   6.132   0.736
 1710SOL     OW 6028   3.804   5.310   3.055
 1710SOL    HW1 6029   3.740   5.245   3.096
 1710SOL    HW2 6030   3.763   5.401   3.054
 1711SOL     OW 6031   3.629   5.054   6.357
 1711SOL    HW1 6032   3.539   5.052   6.401
 1711SOL    HW2 6033   3.700   5.036   6.426
 1712SOL     OW 6034   6.938   1.991   3.458
 1712SOL    HW1 6035   6.903   1.904   3.492
 1712SOL    HW2 6036   6.897   2.012   3.369
 1713SOL     OW 6037   3.854   1.065   2.801
 1713SOL    HW1 6038   3.945   1.083   2.763
 1713SOL    HW2 6039   3.831   0.968   2.788
 1714SOL     OW 6040   3.579   3.126   0.087
 1714SOL    HW1 6041   3.679   3.123   0.080
 1714SOL    HW2 6042   3.550   3.058   0.154
 1715SOL     OW 6043   1.306   6.647   2.763
 1715SOL    HW1 6044   1.246   6.567   2.758
 1715SOL    HW2 6045   1.251   6.728   2.783
 1716SOL     OW 6046   4.657   0.550   3.326
 1716SOL    HW1 6047   4.563   0.577   3.348
 1716SOL    HW2 6048   4.685   0.596   3.242
 1717SOL     OW 6049   3.700   6.204   5.272
 1717SOL    HW1 6050   3.768   6.198   5.346
 1717SOL    HW2 6051   3.731   6.150   5.194
 1718SOL     OW 6052   1.479   2.894   1.107
 1718SOL    HW1 6053   1.421   2.822   1.068
 1718SOL    HW2 6054   1.492   2.877   1.205
 1719SOL     OW 6055   1.080   5.140   1.928
 1719SOL    HW1 6056   1.101   5.097   1.840
 1719SOL    HW2 6057   1.049   5.069   1.992
 1720SOL     OW 6058   6.860   2.532   5.510
 1720SOL    HW1 6059   6.829   2.579   5.427
 1720SOL    HW2 6060   6.830   2.583   5.590
 1721SOL     OW 6061   2.267   1.860   1.092
 1721SOL    HW1 6062   2.280   1.847   0.993
 1721SOL    HW2 6063   2.189   1.806   1.122
 1722SOL     OW 6064   2.850   2.280   2.708
 1722SOL    HW1 6065   2.871   2.224   2.789
 1722SOL    HW2 6066   2.933   2.290   2.653
 1723SOL     OW 6067   5.340   2.785   0.076
 1723SOL    HW1 6068   5.378   2.854   0.138
 1723SOL    HW2 6069   5.316   2.827   7.007
 1724SOL     OW 6070   6.873   2.368   1.170
 1724SOL    HW1 6071   6.870   2.303   1.246
 1724SOL    HW2 6072   6.785   2.417   1.165
 1725SOL     OW 6073   1.664   5.792   0.072
 1725SOL    HW1 6074   1.602   5.714   0.068
 1725SOL    HW2 6075   1.679   5.828   6.998
 1726SOL     OW 6076   5.577   4.431   3.846
 1726SOL    HW1 6077   5.671   4.410   3.817
 1726SOL    HW2 6078   5.515   4.362   3.808
 1727SOL     OW 6079   3.211   2.973   3.163
 1727SOL    HW1 6080   3.155   2.894   3.140
 1727SOL    HW2 6081   3.239   3.020   3.079
 1728SOL     OW 6082   4.701   2.252   4.165
 1728SOL    HW1 6083   4.751   2.337   4.148
 1728SOL    HW2 6084   4.605   2.263   4.140
 1729SOL     OW 6085   1.907   3.804   2.434
 1729SOL    HW1 6086   2.005   3.796   2.454
 1729SOL    HW2 6087   1.862   3.718   2.457
 1730SOL     OW 6088   2.951   4.768   5.671
 1730SOL    HW1 6089   2.864   4.817   5.672
 1730SOL    HW2 6090   2.983   4.754   5.764
 1731SOL     OW 6091   5.990   4.287   4.327
 1731SOL    HW1 6092   5.967   4.384   4.325
 1731SOL    HW2 6093   5.994   4.251   4.234
 1732SOL     OW 6094   1.938   4.405   6.221
 1732SOL    HW1 6095   1.981   4.447   6.301
 1732SOL    HW2 6096   1.900   4.316   6.246
 1733SOL     OW 6097   2.567   4.032   0.250
 1733SOL    HW1 6098   2.643   4.057   0.189
 1733SOL    HW2 6099   2.588   4.064   0.343
 1734SOL     OW 6100   6.943   2.801   1.162
 1734SOL    HW1 6101   6.899   2.741   1.095
 1734SOL    HW2 6102   6.987   2.745   1.232
 1735SOL     OW 6103   3.841   5.234   5.812
 1735SOL    HW1 6104   3.925   5.232   5.866
 1735SOL    HW2 6105   3.856   5.189   5.724
 1736SOL     OW 6106   4.708   2.829   1.100
 1736SOL    HW1 6107   4.779   2.861   1.037
 1736SOL    HW2 6108   4.629   2.890   1.094
 1737SOL     OW 6109   4.508   1.563   5.292
 1737SOL    HW1 6110   4.596   1.517   5.308
 1737SOL    HW2 6111   4.513   1.656   5.327
 1738SOL     OW 6112   1.511   3.236   4.756
 1738SOL    HW1 6113   1.470   3.199   4.840
 1738SOL    HW2 6114   1.438   3.257   4.691
 1739SOL     OW 6115   5.454   0.139   4.289
 1739SOL    HW1 6116   5.434   0.218   4.348
 1739SOL    HW2 6117   5.553   0.128   4.280
 1740SOL     OW 6118   6.222   2.982   4.067
 1740SOL    HW1 6119   6.303   2.934   4.032
 1740SOL    HW2 6120   6.165   3.012   3.991
 1741SOL     OW 6121   0.823   2.312   4.507
 1741SOL    HW1 6122   0.801   2.309   4.410
 1741SOL    HW2 6123   0.865   2.400   4.530
 1742SOL     OW 6124   5.896   6.323   6.622
 1742SOL    HW1 6125   5.950   6.337   6.539
 1742SOL    HW2 6126   5.836   6.401   6.637
 1743SOL     OW 6127   1.317   0.850   2.961
 1743SOL    HW1 6128   1.318   0.754   2.988
 1743SOL    HW2 6129   1.227   0.890   2.981
 1744SOL     OW 6130   3.748   1.777   4.225
 1744SOL    HW1 6131   3.838   1.772   4.268
 1744SOL    HW2 6132   3.751   1.839   4.147
 1745SOL     OW 6133   6.689   6.569   1.680
 1745SOL    HW1 6134   6.675   6.472   1.699
 1745SOL    HW2 6135   6.679   6.585   1.581
 1746SOL     OW 6136   1.859   4.345   3.915
 1746SOL    HW1 6137   1.867   4.285   3.995
 1746SOL    HW2 6138   1.918   4.425   3.928
 1747SOL     OW 6139   3.886   0.106   2.614
 1747SOL    HW1 6140   3.933   0.047   2.680
 1747SOL    HW2 6141   3.802   0.062   2.584
 1748SOL     OW 6142   6.607   2.160   4.449
 1748SOL    HW1 6143   6.618   2.235   4.515
 1748SOL    HW2 6144   6.609   2.073   4.498
 1749SOL     OW 6145   1.796   4.939   0.971
 1749SOL    HW1 6146   1.812   4.852   1.017
 1749SOL    HW2 6147   1.822   5.014   1.032
 1750SOL     OW 6148   3.832   6.982   5.394
 1750SOL    HW1 6149   3.922   6.945   5.417
 1750SOL    HW2 6150   3.802   0.027   5.466
 1751SOL     OW 6151   5.395   2.890   5.046
 1751SOL    HW1 6152   5.457   2.818   5.013
 1751SOL    HW2 6153   5.418   2.912   5.140
 1752SOL     OW 6154   6.717   0.883   1.535
 1752SOL    HW1 6155   6.720   0.806   1.599
 1752SOL    HW2 6156   6.752   0.853   1.446
 1753SOL     OW 6157   6.455   1.806   1.819
 1753SOL    HW1 6158   6.548   1.770   1.829
 1753SOL    HW2 6159   6.459   1.897   1.779
 1754SOL     OW 6160   3.273   5.758   4.732
 1754SOL    HW1 6161   3.275   5.662   4.707
 1754SOL    HW2 6162   3.311   5.813   4.657
 1755SOL     OW 6163   6.486   6.474   4.917
 1755SOL    HW1 6164   6.486   6.573   4.932
 1755SOL    HW2 6165   6.577   6.444   4.889
 1756SOL     OW 6166   5.155   6.939   5.629
 1756SOL    HW1 6167   5.090   6.977   5.695
 1756SOL    HW2 6168   5.243   6.925   5.673
 1757SOL     OW 6169   2.314   4.809   5.290
 1757SOL    HW1 6170   2.308   4.710   5.286
 1757SOL    HW2 6171   2.295   4.848   5.199
 1758SOL     OW 6172   1.821   6.423   4.840
 1758SOL    HW1 6173   1.854   6.464   4.755
 1758SOL    HW2 6174   1.721   6.424   4.842
 1759SOL     OW 6175   1.546   6.809   0.079
 1759SOL    HW1 6176   1.474   6.757   0.125
 1759SOL    HW2 6177   1.629   6.807   0.134
 1760SOL     OW 6178   6.125   1.049   4.780
 1760SOL    HW1 6179   6.080   1.133   4.808
 1760SOL    HW2 6180   6.094   0.974   4.838
 1761SOL     OW 6181   6.144   1.852   2.113
 1761SOL    HW1 6182   6.151   1.924   2.182
 1761SOL    HW2 6183   6.113   1.891   2.027
 1762SOL     OW 6184   0.256   1.616   5.851
 1762SOL    HW1 6185   0.183   1.565   5.897
 1762SOL    HW2 6186   0.324   1.552   5.817
 1763SOL     OW 6187   1.068   3.812   4.168
 1763SOL    HW1 6188   1.147   3.754   4.149
 1763SOL    HW2 6189   1.043   3.863   4.086
 1764SOL     OW 6190   0.652   5.378   2.877
 1764SOL    HW1 6191   0.584   5.448   2.902
 1764SOL    HW2 6192   0.655   5.308   2.948
 1765SOL     OW 6193   5.310   3.106   2.576
 1765SOL    HW1 6194   5.242   3.048   2.530
 1765SOL    HW2 6195   5.325   3.189   2.522
 1766SOL     OW 6196   4.783   4.596   4.544
 1766SOL    HW1 6197   4.696   4.574   4.500
 1766SOL    HW2 6198   4.816   4.684   4.511
 1767SOL     OW 6199   1.056   4.511   2.232
 1767SOL    HW1 6200   0.985   4.578   2.250
 1767SOL    HW2 6201   1.038   4.427   2.284
 1768SOL     OW 6202   5.358   6.232   2.294
 1768SOL    HW1 6203   5.274   6.282   2.272
 1768SOL    HW2 6204   5.336   6.153   2.351
 1769SOL     OW 6205   4.849   0.328   6.850
 1769SOL    HW1 6206   4.844   0.233   6.820
 1769SOL    HW2 6207   4.897   0.334   6.937
 1770SOL     OW 6208   2.037   5.513   6.458
 1770SOL    HW1 6209   2.087   5.587   6.502
 1770SOL    HW2 6210   2.097   5.463   6.396
 1771SOL     OW 6211   1.109   3.622   5.961
 1771SOL    HW1 6212   1.125   3.597   6.057
 1771SOL    HW2 6213   1.051   3.704   5.957
 1772SOL     OW 6214   2.458   4.397   3.584
 1772SOL    HW1 6215   2.537   4.442   3.626
 1772SOL    HW2 6216   2.409   4.463   3.526
 1773SOL     OW 6217   0.971   6.617   5.221
 1773SOL    HW1 6218   0.924   6.670   5.151
 1773SOL    HW2 6219   0.971   6.667   5.307
 1774SOL     OW 6220   4.949   5.650   0.796
 1774SOL    HW1 6221   4.922   5.730   0.742
 1774SOL    HW2 6222   4.868   5.615   0.844
 1775SOL     OW 6223   2.363   5.414   6.105
 1775SOL    HW1 6224   2.360   5.449   6.011
 1775SOL    HW2 6225   2.456   5.382   6.125
 1776SOL     OW 6226   5.014   1.556   6.045
 1776SOL    HW1 6227   5.054   1.614   6.116
 1776SOL    HW2 6228   4.965   1.480   6.088
 1777SOL     OW 6229   5.099   6.479   6.746
 1777SOL    HW1 6230   5.162   6.406   6.718
 1777SOL    HW2 6231   5.147   6.544   6.805
 1778SOL     OW 6232   5.992   6.780   4.070
 1778SOL    HW1 6233   6.046   6.820   4.144
 1778SOL    HW2 6234   5.973   6.684   4.090
 1779SOL     OW 6235   5.799   5.976   3.953
 1779SOL    HW1 6236   5.857   5.909   3.906
 1779SOL    HW2 6237   5.824   6.068   3.923
 1780SOL     OW 6238   1.818   5.731   4.801
 1780SOL    HW1 6239   1.783   5.803   4.861
 1780SOL    HW2 6240   1.868   5.772   4.725
 1781SOL     OW 6241   4.108   0.950   4.284
 1781SOL    HW1 6242   4.093   0.943   4.185
 1781SOL    HW2 6243   4.059   0.875   4.330
 1782SOL     OW 6244   1.357   1.711   2.437
 1782SOL    HW1 6245   1.297   1.631   2.437
 1782SOL    HW2 6246   1.326   1.776   2.507
 1783SOL     OW 6247   2.291   4.400   6.708
 1783SOL    HW1 6248   2.380   4.408   6.752
 1783SOL    HW2 6249   2.227   4.352   6.769
 1784SOL     OW 6250   3.086   0.039   1.259
 1784SOL    HW1 6251   3.011   6.993   1.242
 1784SOL    HW2 6252   3.076   0.119   1.200
 1785SOL     OW 6253   1.393   6.643   4.220
 1785SOL    HW1 6254   1.313   6.604   4.264
 1785SOL    HW2 6255   1.429   6.717   4.277
 1786SOL     OW 6256   1.231   6.149   0.689
 1786SOL    HW1 6257   1.206   6.191   0.602
 1786SOL    HW2 6258   1.249   6.221   0.756
 1787SOL     OW 6259   2.718   3.869   6.133
 1787SOL    HW1 6260   2.792   3.830   6.078
 1787SOL    HW2 6261   2.647   3.906   6.073
 1788SOL     OW 6262   4.523   3.707   0.611
 1788SOL    HW1 6263   4.563   3.634   0.667
 1788SOL    HW2 6264   4.508   3.788   0.667
 1789SOL     OW 6265   6.624   4.322   2.455
 1789SOL    HW1 6266   6.670   4.260   2.518
 1789SOL    HW2 6267   6.590   4.401   2.505
 1790SOL     OW 6268   2.395   2.717   4.620
 1790SOL    HW1 6269   2.378   2.766   4.705
 1790SOL    HW2 6270   2.478   2.662   4.630
 1791SOL     OW 6271   4.943   6.783   3.164
 1791SOL    HW1 6272   5.024   6.725   3.152
 1791SOL    HW2 6273   4.918   6.785   3.261
 1792SOL     OW 6274   0.154   1.266   5.367
 1792SOL    HW1 6275   0.248   1.256   5.398
 1792SOL    HW2 6276   0.147   1.343   5.304
 1793SOL     OW 6277   0.038   1.491   6.137
 1793SOL    HW1 6278   6.962   1.466   6.113
 1793SOL    HW2 6279   0.045   1.591   6.142
 1794SOL     OW 6280   1.166   0.083   6.392
 1794SOL    HW1 6281   1.130   0.092   6.484
 1794SOL    HW2 6282   1.097   0.042   6.332
 1795SOL     OW 6283   6.348   4.138   1.389
 1795SOL    HW1 6284   6.394   4.050   1.392
 1795SOL    HW2 6285   6.252   4.127   1.414
 1796SOL     OW 6286   1.276   0.335   6.316
 1796SOL    HW1 6287   1.218   0.402   6.270
 1796SOL    HW2 6288   1.229   0.247   6.321
 1797SOL     OW 6289   2.699   4.883   5.693
 1797SOL    HW1 6290   2.653   4.848   5.612
 1797SOL    HW2 6291   2.689   4.983   5.696
 1798SOL     OW 6292   3.302   3.689   4.270
 1798SOL    HW1 6293   3.274   3.655   4.359
 1798SOL    HW2 6294   3.227   3.744   4.230
 1799SOL     OW 6295   3.176   1.476   0.413
 1799SOL    HW1 6296   3.088   1.442   0.445
 1799SOL    HW2 6297   3.245   1.404   0.423
 1800SOL     OW 6298   5.740   3.637   4.862
 1800SOL    HW1 6299   5.678   3.677   4.795
 1800SOL    HW2 6300   5.794   3.564   4.819
 1801SOL     OW 6301   1.317   1.388   2.060
 1801SOL    HW1 6302   1.371   1.375   1.977
 1801SOL    HW2 6303   1.376   1.422   2.133
 1802SOL     OW 6304   6.839   5.003   3.941
 1802SOL    HW1 6305   6.843   4.923   3.881
 1802SOL    HW2 6306   6.744   5.031   3.952
 1803SOL     OW 6307   0.898   6.708   3.458
 1803SOL    HW1 6308   0.894   6.779   3.528
 1803SOL    HW2 6309   0.932   6.623   3.498
 1804SOL     OW 6310   2.309   3.345   5.935
 1804SOL    HW1 6311   2.240   3.274   5.951
 1804SOL    HW2 6312   2.325   3.395   6.021
 1805SOL     OW 6313   0.071   5.817   6.371
 1805SOL    HW1 6314   0.017   5.753   6.317
 1805SOL    HW2 6315   0.020   5.845   6.452
 1806SOL     OW 6316   0.018   1.636   2.170
 1806SOL    HW1 6317   6.981   1.719   2.174
 1806SOL    HW2 6318   0.062   1.629   2.080
 1807SOL     OW 6319   0.247   2.974   2.464
 1807SOL    HW1 6320   0.261   2.915   2.385
 1807SOL    HW2 6321   0.248   3.070   2.435
 1808SOL     OW 6322   4.807   2.389   5.890
 1808SOL    HW1 6323   4.854   2.412   5.975
 1808SOL    HW2 6324   4.821   2.463   5.824
 1809SOL     OW 6325   4.074   0.554   5.871
 1809SOL    HW1 6326   4.035   0.627   5.814
 1809SOL    HW2 6327   4.103   0.478   5.812
 1810SOL     OW 6328   0.081   0.139   4.388
 1810SOL    HW1 6329   0.028   0.199   4.329
 1810SOL    HW2 6330   0.176   0.138   4.357
 1811SOL     OW 6331   4.136   5.703   1.632
 1811SOL    HW1 6332   4.152   5.659   1.544
 1811SOL    HW2 6333   4.155   5.801   1.625
 1812SOL     OW 6334   4.600   6.415   5.684
 1812SOL    HW1 6335   4.627   6.319   5.696
 1812SOL    HW2 6336   4.679   6.468   5.652
 1813SOL     OW 6337   4.398   4.532   2.749
 1813SOL    HW1 6338   4.440   4.535   2.839
 1813SOL    HW2 6339   4.415   4.443   2.707
 1814SOL     OW 6340   0.151   6.077   0.002
 1814SOL    HW1 6341   0.181   6.137   6.946
 1814SOL    HW2 6342   0.161   5.981   6.990
 1815SOL     OW 6343   5.728   6.250   1.489
 1815SOL    HW1 6344   5.666   6.292   1.555
 1815SOL    HW2 6345   5.676   6.192   1.426
 1816SOL     OW 6346   4.094   5.241   5.435
 1816SOL    HW1 6347   4.133   5.323   5.477
 1816SOL    HW2 6348   4.135   5.227   5.345
 1817SOL     OW 6349   0.853   1.756   3.505
 1817SOL    HW1 6350   0.758   1.786   3.501
 1817SOL    HW2 6351   0.914   1.835   3.498
 1818SOL     OW 6352   2.190   0.223   0.857
 1818SOL    HW1 6353   2.260   0.294   0.869
 1818SOL    HW2 6354   2.109   0.263   0.816
 1819SOL     OW 6355   2.002   4.650   3.439
 1819SOL    HW1 6356   2.066   4.716   3.480
 1819SOL    HW2 6357   2.017   4.560   3.480
 1820SOL     OW 6358   3.617   6.810   4.987
 1820SOL    HW1 6359   3.677   6.874   4.939
 1820SOL    HW2 6360   3.522   6.832   4.966
 1821SOL     OW 6361   3.204   2.137   2.768
 1821SOL    HW1 6362   3.200   2.133   2.668
 1821SOL    HW2 6363   3.291   2.099   2.800
 1822SOL     OW 6364   6.612   2.864   2.295
 1822SOL    HW1 6365   6.587   2.825   2.384
 1822SOL    HW2 6366   6.550   2.939   2.272
 1823SOL     OW 6367   3.997   6.034   2.335
 1823SOL    HW1 6368   3.984   5.966   2.262
 1823SOL    HW2 6369   4.095   6.051   2.347
 1824SOL     OW 6370   4.256   3.019   1.755
 1824SOL    HW1 6371   4.184   2.981   1.697
 1824SOL    HW2 6372   4.344   2.979   1.729
 1825SOL     OW 6373   1.881   1.415   5.278
 1825SOL    HW1 6374   1.802   1.358   5.253
 1825SOL    HW2 6375   1.897   1.483   5.206
 1826SOL     OW 6376   3.569   2.184   1.629
 1826SOL    HW1 6377   3.585   2.247   1.705
 1826SOL    HW2 6378   3.596   2.227   1.543
 1827SOL     OW 6379   5.853   4.622   1.045
 1827SOL    HW1 6380   5.939   4.629   0.996
 1827SOL    HW2 6381   5.853   4.538   1.100
 1828SOL     OW 6382   1.672   2.926   4.995
 1828SOL    HW1 6383   1.702   2.830   4.988
 1828SOL    HW2 6384   1.749   2.986   4.976
 1829SOL     OW 6385   3.833   0.361   3.230
 1829SOL    HW1 6386   3.795   0.306   3.304
 1829SOL    HW2 6387   3.860   0.451   3.265
 1830SOL     OW 6388   4.764   0.151   4.610
 1830SOL    HW1 6389   4.771   0.243   4.572
 1830SOL    HW2 6390   4.855   0.117   4.633
 1831SOL     OW 6391   4.212   5.176   1.134
 1831SOL    HW1 6392   4.289   5.231   1.166
 1831SOL    HW2 6393   4.240   5.080   1.126
 1832SOL     OW 6394   2.504   3.024   0.459
 1832SOL    HW1 6395   2.484   2.954   0.527
 1832SOL    HW2 6396   2.486   2.988   0.367
 1833SOL     OW 6397   5.342   0.523   0.648
 1833SOL    HW1 6398   5.309   0.550   0.557
 1833SOL    HW2 6399   5.338   0.602   0.709
 1834SOL     OW 6400   1.460   2.944   5.917
 1834SOL    HW1 6401   1.422   3.026   5.876
 1834SOL    HW2 6402   1.506   2.968   6.002
 1835SOL     OW 6403   6.953   6.211   1.522
 1835SOL    HW1 6404   6.981   6.153   1.598
 1835SOL    HW2 6405   6.977   6.167   1.435
 1836SOL     OW 6406   5.000   2.451   1.703
 1836SOL    HW1 6407   4.997   2.521   1.632
 1836SOL    HW2 6408   5.072   2.474   1.769
 1837SOL     OW 6409   3.211   2.683   6.209
 1837SOL    HW1 6410   3.306   2.665   6.237
 1837SOL    HW2 6411   3.211   2.727   6.120
 1838SOL     OW 6412   6.470   0.766   0.776
 1838SOL    HW1 6413   6.563   0.777   0.812
 1838SOL    HW2 6414   6.448   0.844   0.718
 1839SOL     OW 6415   0.094   1.170   6.603
 1839SOL    HW1 6416   0.049   1.229   6.536
 1839SOL    HW2 6417   0.027   1.108   6.644
 1840SOL     OW 6418   4.579   6.605   3.455
 1840SOL    HW1 6419   4.646   6.617   3.528
 1840SOL    HW2 6420   4.625   6.572   3.373
 1841SOL     OW 6421   2.206   0.630   2.148
 1841SOL    HW1 6422   2.305   0.636   2.132
 1841SOL    HW2 6423   2.189   0.622   2.246
 1842SOL     OW 6424   1.430   5.370   0.115
 1842SOL    HW1 6425   1.352   5.344   0.172
 1842SOL    HW2 6426   1.495   5.294   0.111
 1843SOL     OW 6427   2.472   1.329   4.948
 1843SOL    HW1 6428   2.488   1.421   4.983
 1843SOL    HW2 6429   2.560   1.282   4.938
 1844SOL     OW 6430   5.783   2.323   6.040
 1844SOL    HW1 6431   5.862   2.325   5.979
 1844SOL    HW2 6432   5.718   2.394   6.013
 1845SOL     OW 6433   1.367   1.605   3.009
 1845SOL    HW1 6434   1.371   1.674   3.081
 1845SOL    HW2 6435   1.278   1.560   3.011
 1846SOL     OW 6436   4.390   1.921   2.224
 1846SOL    HW1 6437   4.406   1.936   2.126
 1846SOL    HW2 6438   4.302   1.960   2.250
 1847SOL     OW 6439   1.835   5.675   5.336
 1847SOL    HW1 6440   1.822   5.596   5.397
 1847SOL    HW2 6441   1.933   5.690   5.322
 1848SOL     OW 6442   2.934   5.967   3.480
 1848SOL    HW1 6443   2.850   5.942   3.528
 1848SOL    HW2 6444   2.979   5.884   3.447
 1849SOL     OW 6445   4.814   2.789   1.847
 1849SOL    HW1 6446   4.825   2.724   1.922
 1849SOL    HW2 6447   4.790   2.879   1.885
 1850SOL     OW 6448   5.006   1.424   1.479
 1850SOL    HW1 6449   5.011   1.438   1.380
 1850SOL    HW2 6450   5.098   1.435   1.518
 1851SOL     OW 6451   0.248   4.398   5.361
 1851SOL    HW1 6452   0.166   4.359   5.319
 1851SOL    HW2 6453   0.329   4.368   5.311
 1852SOL     OW 6454   0.301   0.128   2.773
 1852SOL    HW1 6455   0.261   0.043   2.808
 1852SOL    HW2 6456   0.296   0.129   2.674
 1853SOL     OW 6457   0.055   2.404   4.847
 1853SOL    HW1 6458   0.061   2.500   4.821
 1853SOL    HW2 6459   0.015   2.351   4.773
 1854SOL     OW 6460   0.599   0.019   3.537
 1854SOL    HW1 6461   0.615   0.060   3.627
 1854SOL    HW2 6462   0.616   0.088   3.467
 1855SOL     OW 6463   4.666   2.578   4.301
 1855SOL    HW1 6464   4.682   2.559   4.204
 1855SOL    HW2 6465   4.728   2.523   4.356
 1856SOL     OW 6466   3.870   2.965   0.847
 1856SOL    HW1 6467   3.835   2.900   0.780
 1856SOL    HW2 6468   3.824   3.053   0.835
 1857SOL     OW 6469   4.174   1.741   0.788
 1857SOL    HW1 6470   4.267   1.774   0.805
 1857SOL    HW2 6471   4.149   1.758   0.692
 1858SOL     OW 6472   4.611   2.700   3.900
 1858SOL    HW1 6473   4.589   2.700   3.803
 1858SOL    HW2 6474   4.669   2.779   3.921
 1859SOL     OW 6475   6.226   1.888   4.320
 1859SOL    HW1 6476   6.136   1.909   4.282
 1859SOL    HW2 6477   6.268   1.972   4.354
 1860SOL     OW 6478   1.781   1.390   4.922
 1860SOL    HW1 6479   1.761   1.485   4.895
 1860SOL    HW2 6480   1.698   1.347   4.958
 1861SOL     OW 6481   6.322   6.959   3.833
 1861SOL    HW1 6482   6.251   7.005   3.886
 1861SOL    HW2 6483   6.409   7.007   3.843
 1862SOL     OW 6484   3.093   5.607   5.924
 1862SOL    HW1 6485   3.158   5.552   5.978
 1862SOL    HW2 6486   3.079   5.695   5.968
 1863SOL     OW 6487   0.016   3.064   0.221
 1863SOL    HW1 6488   0.019   2.964   0.225
 1863SOL    HW2 6489   0.028   3.101   0.313
 1864SOL     OW 6490   4.300   5.503   2.593
 1864SOL    HW1 6491   4.288   5.441   2.516
 1864SOL    HW2 6492   4.282   5.455   2.678
 1865SOL     OW 6493   5.631   1.337   5.372
 1865SOL    HW1 6494   5.703   1.278   5.409
 1865SOL    HW2 6495   5.599   1.400   5.444
 1866SOL     OW 6496   1.112   5.042   3.703
 1866SOL    HW1 6497   1.141   5.105   3.774
 1866SOL    HW2 6498   1.157   5.066   3.617
 1867SOL     OW 6499   1.744   2.467   1.630
 1867SOL    HW1 6500   1.726   2.456   1.727
 1867SOL    HW2 6501   1.760   2.378   1.588
 1868SOL     OW 6502   5.633   3.800   5.838
 1868SOL    HW1 6503   5.723   3.783   5.797
 1868SOL    HW2 6504   5.581   3.714   5.839
 1869SOL     OW 6505   4.106   1.209   3.803
 1869SOL    HW1 6506   4.008   1.228   3.796
 1869SOL    HW2 6507   4.153   1.289   3.841
 1870SOL     OW 6508   6.948   5.986   4.606
 1870SOL    HW1 6509   6.863   5.948   4.569
 1870SOL    HW2 6510   6.949   6.085   4.591
 1871SOL     OW 6511   0.638   6.795   0.311
 1871SOL    HW1 6512   0.738   6.788   0.308
 1871SOL    HW2 6513   0.610   6.887   0.282
 1872SOL     OW 6514   2.878   2.526   1.583
 1872SOL    HW1 6515   2.962   2.532   1.638
 1872SOL    HW2 6516   2.799   2.546   1.641
 1873SOL     OW 6517   0.307   1.722   0.365
 1873SOL    HW1 6518   0.341   1.628   0.373
 1873SOL    HW2 6519   0.339   1.762   0.278
 1874SOL     OW 6520   0.493   6.099   7.013
 1874SOL    HW1 6521   0.494   6.118   6.915
 1874SOL    HW2 6522   0.408   6.131   0.035
 1875SOL     OW 6523   6.766   5.180   0.046
 1875SOL    HW1 6524   6.720   5.119   7.000
 1875SOL    HW2 6525   6.836   5.233   7.015
 1876SOL     OW 6526   0.294   6.367   0.072
 1876SOL    HW1 6527   0.359   6.433   0.034
 1876SOL    HW2 6528   0.230   6.338   0.000
 1877SOL     OW 6529   1.139   1.468   2.993
 1877SOL    HW1 6530   1.051   1.510   3.014
 1877SOL    HW2 6531   1.155   1.391   3.055
 1878SOL     OW 6532   6.504   3.680   3.835
 1878SOL    HW1 6533   6.457   3.739   3.900
 1878SOL    HW2 6534   6.575   3.627   3.882
 1879SOL     OW 6535   4.650   6.257   4.707
 1879SOL    HW1 6536   4.606   6.169   4.719
 1879SOL    HW2 6537   4.700   6.281   4.790
 1880SOL     OW 6538   0.171   2.014   4.134
 1880SOL    HW1 6539   0.246   2.067   4.172
 1880SOL    HW2 6540   0.144   1.943   4.198
 1881SOL     OW 6541   1.301   1.606   4.407
 1881SOL    HW1 6542   1.379   1.667   4.393
 1881SOL    HW2 6543   1.324   1.514   4.376
 1882SOL     OW 6544   1.794   5.721   6.795
 1882SOL    HW1 6545   1.888   5.689   6.797
 1882SOL    HW2 6546   1.745   5.675   6.720
 1883SOL     OW 6547   1.782   3.285   2.321
 1883SOL    HW1 6548   1.829   3.233   2.249
 1883SOL    HW2 6549   1.846   3.304   2.395
 1884SOL     OW 6550   3.094   1.432   0.105
 1884SOL    HW1 6551   3.132   1.492   0.176
 1884SOL    HW2 6552   3.069   1.345   0.146
 1885SOL     OW 6553   0.189   2.247   1.291
 1885SOL    HW1 6554   0.221   2.284   1.204
 1885SOL    HW2 6555   0.253   2.271   1.363
 1886SOL     OW 6556   2.817   2.604   6.213
 1886SOL    HW1 6557   2.888   2.605   6.283
 1886SOL    HW2 6558   2.858   2.581   6.125
 1887SOL     OW 6559   0.166   7.011   5.598
 1887SOL    HW1 6560   0.179   0.008   5.696
 1887SOL    HW2 6561   0.242   0.033   5.548
 1888SOL     OW 6562   2.288   1.838   5.576
 1888SOL    HW1 6563   2.266   1.913   5.514
 1888SOL    HW2 6564   2.312   1.757   5.523
 1889SOL     OW 6565   3.404   2.822   0.792
 1889SOL    HW1 6566   3.459   2.864   0.864
 1889SOL    HW2 6567   3.307   2.831   0.815
 1890SOL     OW 6568   6.371   5.777   6.258
 1890SOL    HW1 6569   6.296   5.842   6.246
 1890SOL    HW2 6570   6.451   5.826   6.294
 1891SOL     OW 6571   5.834   4.504   5.543
 1891SOL    HW1 6572   5.740   4.476   5.520
 1891SOL    HW2 6573   5.894   4.485   5.465
 1892SOL     OW 6574   3.972   6.188   1.753
 1892SOL    HW1 6575   3.940   6.194   1.658
 1892SOL    HW2 6576   4.041   6.258   1.770
 1893SOL     OW 6577   3.321   1.562   4.924
 1893SOL    HW1 6578   3.245   1.624   4.903
 1893SOL    HW2 6579   3.396   1.614   4.966
 1894SOL     OW 6580   3.614   4.015   0.824
 1894SOL    HW1 6581   3.620   4.009   0.725
 1894SOL    HW2 6582   3.703   3.995   0.865
 1895SOL     OW 6583   5.248   0.400   2.940
 1895SOL    HW1 6584   5.327   0.339   2.938
 1895SOL    HW2 6585   5.165   0.347   2.961
 1896SOL     OW 6586   6.358   1.005   5.697
 1896SOL    HW1 6587   6.445   1.052   5.687
 1896SOL    HW2 6588   6.365   0.939   5.772
 1897SOL     OW 6589   5.916   5.155   3.790
 1897SOL    HW1 6590   5.903   5.129   3.694
 1897SOL    HW2 6591   6.013   5.147   3.813
 1898SOL     OW 6592   5.987   5.653   0.171
 1898SOL    HW1 6593   6.052   5.577   0.181
 1898SOL    HW2 6594   5.895   5.616   0.158
 1899SOL     OW 6595   0.912   3.246   3.295
 1899SOL    HW1 6596   0.944   3.152   3.311
 1899SOL    HW2 6597   0.847   3.246   3.219
 1900SOL     OW 6598   2.612   6.111   0.791
 1900SOL    HW1 6599   2.598   6.176   0.717
 1900SOL    HW2 6600   2.554   6.136   0.868
 1901SOL     OW 6601   1.371   1.588   6.811
 1901SOL    HW1 6602   1.286   1.576   6.759
 1901SOL    HW2 6603   1.434   1.646   6.759
 1902SOL     OW 6604   1.372   2.865   5.459
 1902SOL    HW1 6605   1.464   2.876   5.422
 1902SOL    HW2 6606   1.318   2.806   5.399
 1903SOL     OW 6607   6.289   3.493   3.764
 1903SOL    HW1 6608   6.203   3.520   3.722
 1903SOL    HW2 6609   6.349   3.572   3.772
 1904SOL     OW 6610   6.943   6.931   4.229
 1904SOL    HW1 6611   6.977   6.837   4.229
 1904SOL    HW2 6612   6.974   6.978   4.146
 1905SOL     OW 6613   6.484   2.574   3.868
 1905SOL    HW1 6614   6.564   2.560   3.810
 1905SOL    HW2 6615   6.408   2.517   3.835
 1906SOL     OW 6616   2.463   6.764   0.457
 1906SOL    HW1 6617   2.560   6.741   0.446
 1906SOL    HW2 6618   2.454   6.856   0.495
 1907SOL     OW 6619   3.493   6.347   3.143
 1907SOL    HW1 6620   3.546   6.271   3.182
 1907SOL    HW2 6621   3.431   6.383   3.213
 1908SOL     OW 6622   4.893   1.341   7.016
 1908SOL    HW1 6623   4.991   1.347   7.002
 1908SOL    HW2 6624   4.872   1.263   0.058
 1909SOL     OW 6625   3.723   5.125   4.302
 1909SOL    HW1 6626   3.800   5.188   4.306
 1909SOL    HW2 6627   3.754   5.031   4.318
 1910SOL     OW 6628   5.042   2.146   5.357
 1910SOL    HW1 6629   5.094   2.220   5.314
 1910SOL    HW2 6630   5.023   2.076   5.288
 1911SOL     OW 6631   6.308   3.680   5.994
 1911SOL    HW1 6632   6.297   3.685   6.093
 1911SOL    HW2 6633   6.384   3.739   5.966
 1912SOL     OW 6634   3.662   6.717   3.870
 1912SOL    HW1 6635   3.584   6.743   3.928
 1912SOL    HW2 6636   3.663   6.618   3.858
 1913SOL     OW 6637   1.276   3.991   5.308
 1913SOL    HW1 6638   1.298   4.060   5.377
 1913SOL    HW2 6639   1.243   4.035   5.225
 1914SOL     OW 6640   4.049   1.816   5.487
 1914SOL    HW1 6641   4.056   1.873   5.569
 1914SOL    HW2 6642   3.980   1.745   5.502
 1915SOL     OW 6643   3.337   6.888   5.198
 1915SOL    HW1 6644   3.293   6.799   5.207
 1915SOL    HW2 6645   3.396   6.903   5.278
 1916SOL     OW 6646   3.804   6.719   1.487
 1916SOL    HW1 6647   3.755   6.806   1.495
 1916SOL    HW2 6648   3.738   6.644   1.485
 1917SOL     OW 6649   3.329   2.935   3.802
 1917SOL    HW1 6650   3.411   2.893   3.841
 1917SOL    HW2 6651   3.261   2.947   3.874
 1918SOL     OW 6652   5.776   6.945   4.060
 1918SOL    HW1 6653   5.864   6.897   4.052
 1918SOL    HW2 6654   5.712   6.890   4.113
 1919SOL     OW 6655   6.587   6.798   1.787
 1919SOL    HW1 6656   6.658   6.727   1.776
 1919SOL    HW2 6657   6.535   6.806   1.702
 1920SOL     OW 6658   6.883   5.764   4.369
 1920SOL    HW1 6659   6.826   5.696   4.322
 1920SOL    HW2 6660   6.977   5.756   4.336
 1921SOL     OW 6661   1.132   6.798   6.844
 1921SOL    HW1 6662   1.121   6.808   6.745
 1921SOL    HW2 6663   1.222   6.831   6.871
 1922SOL     OW 6664   3.141   4.607   0.507
 1922SOL    HW1 6665   3.068   4.670   0.478
 1922SOL    HW2 6666   3.223   4.659   0.531
 1923SOL     OW 6667   1.588   1.907   0.514
 1923SOL    HW1 6668   1.608   1.812   0.538
 1923SOL    HW2 6669   1.606   1.966   0.592
 1924SOL     OW 6670   0.767   4.723   1.591
 1924SOL    HW1 6671   0.754   4.791   1.519
 1924SOL    HW2 6672   0.772   4.768   1.680
 1925SOL     OW 6673   3.025   4.591   0.759
 1925SOL    HW1 6674   3.009   4.516   0.823
 1925SOL    HW2 6675   3.088   4.560   0.687
 1926SOL     OW 6676   0.914   0.266   3.497
 1926SOL    HW1 6677   0.909   0.359   3.460
 1926SOL    HW2 6678   0.865   0.262   3.584
 1927SOL     OW 6679   4.097   3.477   6.800
 1927SOL    HW1 6680   4.150   3.562   6.804
 1927SOL    HW2 6681   4.055   3.460   6.890
 1928SOL     OW 6682   6.165   4.862   5.808
 1928SOL    HW1 6683   6.182   4.925   5.733
 1928SOL    HW2 6684   6.214   4.892   5.890
 1929SOL     OW 6685   1.194   6.694   2.518
 1929SOL    HW1 6686   1.247   6.662   2.597
 1929SOL    HW2 6687   1.122   6.756   2.550
 1930SOL     OW 6688   5.626   3.947   6.539
 1930SOL    HW1 6689   5.702   3.999   6.499
 1930SOL    HW2 6690   5.588   3.885   6.469
 1931SOL     OW 6691   0.966   2.412   5.245
 1931SOL    HW1 6692   0.966   2.336   5.311
 1931SOL    HW2 6693   0.996   2.379   5.156
 1932SOL     OW 6694   5.848   3.516   1.594
 1932SOL    HW1 6695   5.938   3.492   1.629
 1932SOL    HW2 6696   5.778   3.477   1.654
 1933SOL     OW 6697   2.968   4.181   1.307
 1933SOL    HW1 6698   2.932   4.160   1.216
 1933SOL    HW2 6699   2.920   4.126   1.376
 1934SOL     OW 6700   0.831   5.959   4.892
 1934SOL    HW1 6701   0.786   5.872   4.875
 1934SOL    HW2 6702   0.834   5.977   4.991
 1935SOL     OW 6703   2.356   1.062   3.750
 1935SOL    HW1 6704   2.292   0.986   3.744
 1935SOL    HW2 6705   2.366   1.105   3.660
 1936SOL     OW 6706   6.203   5.529   5.444
 1936SOL    HW1 6707   6.229   5.617   5.484
 1936SOL    HW2 6708   6.237   5.523   5.350
 1937SOL     OW 6709   4.181   0.069   2.028
 1937SOL    HW1 6710   4.094   0.047   1.984
 1937SOL    HW2 6711   4.210   0.161   2.001
 1938SOL     OW 6712   4.856   0.694   3.480
 1938SOL    HW1 6713   4.822   0.788   3.479
 1938SOL    HW2 6714   4.807   0.640   3.413
 1939SOL     OW 6715   2.094   0.577   3.544
 1939SOL    HW1 6716   2.142   0.662   3.565
 1939SOL    HW2 6717   2.135   0.535   3.463
 1940SOL     OW 6718   6.857   5.386   6.589
 1940SOL    HW1 6719   6.862   5.367   6.687
 1940SOL    HW2 6720   6.937   5.346   6.543
 1941SOL     OW 6721   5.309   4.228   2.762
 1941SOL    HW1 6722   5.209   4.224   2.764
 1941SOL    HW2 6723   5.346   4.140   2.794
 1942SOL     OW 6724   6.085   5.280   2.816
 1942SOL    HW1 6725   6.068   5.378   2.806
 1942SOL    HW2 6726   6.183   5.264   2.829
 1943SOL     OW 6727   2.376   5.009   2.431
 1943SOL    HW1 6728   2.293   5.034   2.381
 1943SOL    HW2 6729   2.452   5.000   2.366
 1944SOL     OW 6730   6.609   1.563   1.539
 1944SOL    HW1 6731   6.642   1.531   1.451
 1944SOL    HW2 6732   6.598   1.485   1.601
 1945SOL     OW 6733   3.427   5.100   4.270
 1945SOL    HW1 6734   3.399   5.134   4.180
 1945SOL    HW2 6735   3.526   5.087   4.272
 1946SOL     OW 6736   1.613   0.720   0.565
 1946SOL    HW1 6737   1.701   0.671   0.564
 1946SOL    HW2 6738   1.628   0.813   0.598
 1947SOL     OW 6739   5.327   5.536   4.070
 1947SOL    HW1 6740   5.413   5.501   4.031
 1947SOL    HW2 6741   5.317   5.502   4.163
 1948SOL     OW 6742   6.001   4.818   4.685
 1948SOL    HW1 6743   5.956   4.781   4.604
 1948SOL    HW2 6744   6.022   4.915   4.670
 1949SOL     OW 6745   4.555   4.000   6.702
 1949SOL    HW1 6746   4.577   4.077   6.642
 1949SOL    HW2 6747   4.546   4.033   6.796
 1950SOL     OW 6748   3.274   3.529   6.483
 1950SOL    HW1 6749   3.255   3.554   6.578
 1950SOL    HW2 6750   3.191   3.537   6.429
 1951SOL     OW 6751   6.159   2.178   6.937
 1951SOL    HW1 6752   6.087   2.232   6.982
 1951SOL    HW2 6753   6.233   2.160   7.002
 1952SOL     OW 6754   3.725   2.202   6.095
 1952SOL    HW1 6755   3.660   2.176   6.023
 1952SOL    HW2 6756   3.677   2.252   6.167
 1953SOL     OW 6757   0.310   2.896   6.188
 1953SOL    HW1 6758   0.259   2.976   6.218
 1953SOL    HW2 6759   0.340   2.909   6.094
 1954SOL     OW 6760   3.589   2.144   3.967
 1954SOL    HW1 6761   3.688   2.143   3.984
 1954SOL    HW2 6762   3.540   2.163   4.052
 1955SOL     OW 6763   0.009   6.963   3.464
 1955SOL    HW1 6764   0.021   6.879   3.517
 1955SOL    HW2 6765   0.039   0.024   3.518
 1956SOL     OW 6766   5.491   5.895   2.696
 1956SOL    HW1 6767   5.409   5.838   2.706
 1956SOL    HW2 6768   5.555   5.852   2.633
 1957SOL     OW 6769   0.701   6.765   5.615
 1957SOL    HW1 6770   0.721   6.681   5.664
 1957SOL    HW2 6771   0.602   6.782   5.615
 1958SOL     OW 6772   5.258   3.363   5.566
 1958SOL    HW1 6773   5.273   3.356   5.665
 1958SOL    HW2 6774   5.178   3.420   5.549
 1959SOL     OW 6775   1.558   1.741   6.599
 1959SOL    HW1 6776   1.653   1.753   6.570
 1959SOL    HW2 6777   1.505   1.703   6.523
 1960SOL     OW 6778   5.626   5.606   1.027
 1960SOL    HW1 6779   5.603   5.651   1.114
 1960SOL    HW2 6780   5.622   5.673   0.953
 1961SOL     OW 6781   5.636   4.359   4.098
 1961SOL    HW1 6782   5.584   4.299   4.159
 1961SOL    HW2 6783   5.586   4.371   4.012
 1962SOL     OW 6784   0.686   6.288   3.461
 1962SOL    HW1 6785   0.601   6.253   3.421
 1962SOL    HW2 6786   0.675   6.386   3.479
 1963SOL     OW 6787   1.128   0.570   3.585
 1963SOL    HW1 6788   1.150   0.480   3.622
 1963SOL    HW2 6789   1.208   0.629   3.590
 1964SOL     OW 6790   5.451   3.730   2.703
 1964SOL    HW1 6791   5.395   3.651   2.681
 1964SOL    HW2 6792   5.547   3.711   2.680
 1965SOL     OW 6793   1.307   4.072   3.547
 1965SOL    HW1 6794   1.345   4.071   3.454
 1965SOL    HW2 6795   1.254   3.988   3.562
 1966SOL     OW 6796   6.503   5.261   5.537
 1966SOL    HW1 6797   6.594   5.228   5.511
 1966SOL    HW2 6798   6.487   5.351   5.495
 1967SOL     OW 6799   4.427   2.902   5.289
 1967SOL    HW1 6800   4.507   2.892   5.349
 1967SOL    HW2 6801   4.344   2.892   5.343
 1968SOL     OW 6802   3.278   5.749   6.266
 1968SOL    HW1 6803   3.339   5.779   6.193
 1968SOL    HW2 6804   3.331   5.702   6.337
 1969SOL     OW 6805   0.059   2.651   0.879
 1969SOL    HW1 6806   0.004   2.726   0.916
 1969SOL    HW2 6807   0.067   2.578   0.948
 1970SOL     OW 6808   1.545   0.795   3.968
 1970SOL    HW1 6809   1.638   0.771   3.940
 1970SOL    HW2 6810   1.509   0.864   3.905
 1971SOL     OW 6811   0.374   6.373   6.652
 1971SOL    HW1 6812   0.415   6.324   6.575
 1971SOL    HW2 6813   0.371   6.471   6.632
 1972SOL     OW 6814   0.575   4.553   3.992
 1972SOL    HW1 6815   0.491   4.605   3.981
 1972SOL    HW2 6816   0.630   4.593   4.066
 1973SOL     OW 6817   3.269   3.291   1.573
 1973SOL    HW1 6818   3.190   3.232   1.589
 1973SOL    HW2 6819   3.238   3.380   1.539
 1974SOL     OW 6820   5.240   0.908   3.859
 1974SOL    HW1 6821   5.297   0.850   3.802
 1974SOL    HW2 6822   5.202   0.854   3.935
 1975SOL     OW 6823   3.094   0.155   3.752
 1975SOL    HW1 6824   3.149   0.111   3.682
 1975SOL    HW2 6825   2.997   0.140   3.733
 1976SOL     OW 6826   0.834   5.604   0.601
 1976SOL    HW1 6827   0.780   5.647   0.529
 1976SOL    HW2 6828   0.931   5.622   0.586
 1977SOL     OW 6829   0.869   2.650   5.323
 1977SOL    HW1 6830   0.903   2.558   5.304
 1977SOL    HW2 6831   0.781   2.664   5.278
 1978SOL     OW 6832   6.571   2.004   4.666
 1978SOL    HW1 6833   6.484   2.045   4.640
 1978SOL    HW2 6834   6.562   1.904   4.667
 1979SOL     OW 6835   6.263   4.420   3.826
 1979SOL    HW1 6836   6.258   4.334   3.776
 1979SOL    HW2 6837   6.229   4.407   3.919
 1980SOL     OW 6838   4.295   0.386   1.412
 1980SOL    HW1 6839   4.362   0.382   1.486
 1980SOL    HW2 6840   4.234   0.464   1.425
 1981SOL     OW 6841   4.978   3.060   1.929
 1981SOL    HW1 6842   4.953   3.067   1.833
 1981SOL    HW2 6843   4.895   3.052   1.985
 1982SOL     OW 6844   5.681   6.215   4.628
 1982SOL    HW1 6845   5.690   6.256   4.719
 1982SOL    HW2 6846   5.657   6.286   4.561
 1983SOL     OW 6847   1.014   3.474   3.400
 1983SOL    HW1 6848   1.000   3.378   3.376
 1983SOL    HW2 6849   0.959   3.532   3.339
 1984SOL     OW 6850   4.043   0.996   6.148
 1984SOL    HW1 6851   4.122   0.939   6.173
 1984SOL    HW2 6852   3.979   0.941   6.094
 1985SOL     OW 6853   1.029   0.796   1.546
 1985SOL    HW1 6854   1.042   0.755   1.637
 1985SOL    HW2 6855   1.005   0.893   1.556
 1986SOL     OW 6856   2.019   1.605   6.360
 1986SOL    HW1 6857   2.039   1.702   6.368
 1986SOL    HW2 6858   2.092   1.552   6.403
 1987SOL     OW 6859   2.365   3.267   0.474
 1987SOL    HW1 6860   2.406   3.177   0.463
 1987SOL    HW2 6861   2.435   3.337   0.458
 1988SOL     OW 6862   4.420   3.865   0.060
 1988SOL    HW1 6863   4.374   3.797   0.116
 1988SOL    HW2 6864   4.490   3.912   0.115
 1989SOL     OW 6865   2.205   0.178   4.202
 1989SOL    HW1 6866   2.218   0.275   4.183
 1989SOL    HW2 6867   2.124   0.145   4.153
 1990SOL     OW 6868   3.202   0.882   1.357
 1990SOL    HW1 6869   3.260   0.828   1.419
 1990SOL    HW2 6870   3.151   0.950   1.410
 1991SOL     OW 6871   2.934   5.804   4.282
 1991SOL    HW1 6872   3.005   5.802   4.212
 1991SOL    HW2 6873   2.880   5.720   4.277
 1992SOL     OW 6874   2.255   6.528   5.580
 1992SOL    HW1 6875   2.319   6.480   5.640
 1992SOL    HW2 6876   2.211   6.602   5.630
 1993SOL     OW 6877   4.026   3.526   5.464
 1993SOL    HW1 6878   3.969   3.607   5.479
 1993SOL    HW2 6879   3.987   3.449   5.515
 1994SOL     OW 6880   6.539   2.537   2.014
 1994SOL    HW1 6881   6.542   2.622   1.962
 1994SOL    HW2 6882   6.500   2.554   2.104
 1995SOL     OW 6883   5.701   2.298   1.603
 1995SOL    HW1 6884   5.630   2.245   1.648
 1995SOL    HW2 6885   5.773   2.320   1.668
 1996SOL     OW 6886   3.058   4.424   0.309
 1996SOL    HW1 6887   3.037   4.355   0.379
 1996SOL    HW2 6888   3.081   4.510   0.354
 1997SOL     OW 6889   5.132   0.669   3.518
 1997SOL    HW1 6890   5.053   0.718   3.481
 1997SOL    HW2 6891   5.156   0.594   3.456
 1998SOL     OW 6892   2.973   4.310   5.354
 1998SOL    HW1 6893   3.035   4.351   5.420
 1998SOL    HW2 6894   2.952   4.376   5.282
 1999SOL     OW 6895   2.416   0.322   2.315
 1999SOL    HW1 6896   2.465   0.241   2.281
 1999SOL    HW2 6897   2.415   0.392   2.244
 2000SOL     OW 6898   3.636   1.623   4.621
 2000SOL    HW1 6899   3.708   1.621   4.691
 2000SOL    HW2 6900   3.667   1.572   4.540
 2001SOL     OW 6901   3.062   1.490   1.090
 2001SOL    HW1 6902   3.071   1.470   1.188
 2001SOL    HW2 6903   3.087   1.585   1.073
 2002SOL     OW 6904   1.689   5.245   5.819
 2002SOL    HW1 6905   1.700   5.262   5.917
 2002SOL    HW2 6906   1.778   5.219   5.780
 2003SOL     OW 6907   5.959   6.029   3.707
 2003SOL    HW1 6908   6.044   5.992   3.743
 2003SOL    HW2 6909   5.971   6.127   3.687
 2004SOL     OW 6910   2.926   0.840   5.841
 2004SOL    HW1 6911   2.836   0.883   5.832
 2004SOL    HW2 6912   2.972   0.839   5.752
 2005SOL     OW 6913   1.952   5.862   5.697
 2005SOL    HW1 6914   1.864   5.843   5.653
 2005SOL    HW2 6915   2.008   5.779   5.699
 2006SOL     OW 6916   4.122   5.037   4.090
 2006SOL    HW1 6917   4.183   5.111   4.061
 2006SOL    HW2 6918   4.128   5.027   4.189
 2007SOL     OW 6919   5.535   5.638   0.509
 2007SOL    HW1 6920   5.497   5.619   0.418
 2007SOL    HW2 6921   5.468   5.614   0.579
 2008SOL     OW 6922   6.835   6.028   3.962
 2008SOL    HW1 6923   6.893   6.019   4.042
 2008SOL    HW2 6924   6.856   5.955   3.897
 2009SOL     OW 6925   0.134   0.309   2.088
 2009SOL    HW1 6926   0.129   0.402   2.125
 2009SOL    HW2 6927   0.179   0.249   2.154
 2010SOL     OW 6928   0.822   0.526   0.590
 2010SOL    HW1 6929   0.911   0.522   0.545
 2010SOL    HW2 6930   0.765   0.450   0.558
 2011SOL     OW 6931   0.314   1.747   4.765
 2011SOL    HW1 6932   0.323   1.767   4.668
 2011SOL    HW2 6933   0.256   1.816   4.808
 2012SOL     OW 6934   1.367   4.088   0.441
 2012SOL    HW1 6935   1.335   4.175   0.477
 2012SOL    HW2 6936   1.409   4.034   0.514
 2013SOL     OW 6937   5.763   1.724   2.240
 2013SOL    HW1 6938   5.742   1.648   2.178
 2013SOL    HW2 6939   5.745   1.696   2.334
 2014SOL     OW 6940   2.378   5.259   3.336
 2014SOL    HW1 6941   2.327   5.174   3.346
 2014SOL    HW2 6942   2.329   5.333   3.382
 2015SOL     OW 6943   3.245   0.320   0.113
 2015SOL    HW1 6944   3.184   0.399   0.115
 2015SOL    HW2 6945   3.334   0.347   0.150
 2016SOL     OW 6946   0.864   5.230   4.434
 2016SOL    HW1 6947   0.828   5.145   4.393
 2016SOL    HW2 6948   0.797   5.303   4.422
 2017SOL     OW 6949   2.837   5.972   3.097
 2017SOL    HW1 6950   2.784   5.897   3.137
 2017SOL    HW2 6951   2.798   6.059   3.126
 2018SOL     OW 6952   0.276   5.411   6.265
 2018SOL    HW1 6953   0.296   5.500   6.307
 2018SOL    HW2 6954   0.316   5.338   6.321
 2019SOL     OW 6955   6.437   2.093   2.083
 2019SOL    HW1 6956   6.377   2.024   2.123
 2019SOL    HW2 6957   6.392   2.182   2.087
 2020SOL     OW 6958   2.500   5.451   3.142
 2020SOL    HW1 6959   2.502   5.540   3.187
 2020SOL    HW2 6960   2.462   5.382   3.205
 2021SOL     OW 6961   1.391   0.879   2.689
 2021SOL    HW1 6962   1.385   0.845   2.782
 2021SOL    HW2 6963   1.302   0.870   2.644
 2022SOL     OW 6964   2.342   4.053   1.762
 2022SOL    HW1 6965   2.330   4.147   1.731
 2022SOL    HW2 6966   2.292   4.038   1.847
 2023SOL     OW 6967   6.428   0.851   5.910
 2023SOL    HW1 6968   6.477   0.896   5.984
 2023SOL    HW2 6969   6.492   0.829   5.836
 2024SOL     OW 6970   5.702   0.899   3.570
 2024SOL    HW1 6971   5.755   0.873   3.651
 2024SOL    HW2 6972   5.765   0.917   3.494
 2025SOL     OW 6973   0.266   1.448   1.833
 2025SOL    HW1 6974   0.269   1.451   1.733
 2025SOL    HW2 6975   0.215   1.367   1.862
 2026SOL     OW 6976   2.084   1.191   5.278
 2026SOL    HW1 6977   2.166   1.234   5.240
 2026SOL    HW2 6978   2.017   1.262   5.301
 2027SOL     OW 6979   1.249   1.356   2.762
 2027SOL    HW1 6980   1.296   1.430   2.714
 2027SOL    HW2 6981   1.189   1.393   2.832
 2028SOL     OW 6982   3.852   3.007   0.027
 2028SOL    HW1 6983   3.910   2.978   0.103
 2028SOL    HW2 6984   3.857   3.107   0.018
 2029SOL     OW 6985   0.780   0.983   6.472
 2029SOL    HW1 6986   0.742   1.030   6.393
 2029SOL    HW2 6987   0.711   0.922   6.512
 2030SOL     OW 6988   1.493   1.815   3.322
 2030SOL    HW1 6989   1.514   1.724   3.287
 2030SOL    HW2 6990   1.573   1.852   3.370
 2031SOL     OW 6991   5.829   6.826   1.736
 2031SOL    HW1 6992   5.863   6.784   1.652
 2031SOL    HW2 6993   5.823   6.925   1.724
 2032SOL     OW 6994   4.788   6.718   1.386
 2032SOL    HW1 6995   4.866   6.750   1.441
 2032SOL    HW2 6996   4.737   6.649   1.438
 2033SOL     OW 6997   5.279   4.834   6.778
 2033SOL    HW1 6998   5.207   4.793   6.721
 2033SOL    HW2 6999   5.281   4.788   6.866
 2034SOL     OW 7000   2.037   0.004   3.034
 2034SOL    HW1 7001   1.979   0.078   3.067
 2034SOL    HW2 7002   2.105   0.041   2.971
 2035SOL     OW 7003   0.498   2.367   2.662
 2035SOL    HW1 7004   0.580   2.383   2.716
 2035SOL    HW2 7005   0.512   2.287   2.602
 2036SOL     OW 7006   1.086   4.893   0.510
 2036SOL    HW1 7007   1.024   4.962   0.472
 2036SOL    HW2 7008   1.085   4.812   0.452
 2037SOL     OW 7009   0.145   1.768   5.636
 2037SOL    HW1 7010   0.190   1.707   5.701
 2037SOL    HW2 7011   0.147   1.727   5.545
 2038SOL     OW 7012   0.106   1.429   4.589
 2038SOL    HW1 7013   0.174   1.357   4.601
 2038SOL    HW2 7014   0.067   1.453   4.678
 2039SOL     OW 7015   0.205   5.726   3.087
 2039SOL    HW1 7016   0.154   5.805   3.120
 2039SOL    HW2 7017   0.299   5.755   3.066
 2040SOL     OW 7018   4.148   3.622   4.691
 2040SOL    HW1 7019   4.175   3.602   4.785
 2040SOL    HW2 7020   4.216   3.682   4.649
 2041SOL     OW 7021   5.964   4.423   5.324
 2041SOL    HW1 7022   6.031   4.483   5.281
 2041SOL    HW2 7023   5.983   4.328   5.299
 2042SOL     OW 7024   4.621   5.769   0.507
 2042SOL    HW1 7025   4.568   5.685   0.510
 2042SOL    HW2 7026   4.715   5.748   0.481
 2043SOL     OW 7027   5.633   4.370   2.081
 2043SOL    HW1 7028   5.703   4.304   2.058
 2043SOL    HW2 7029   5.673   4.462   2.085
 2044SOL     OW 7030   6.184   6.995   1.516
 2044SOL    HW1 7031   6.136   6.928   1.460
 2044SOL    HW2 7032   6.158   0.070   1.488
 2045SOL     OW 7033   2.013   4.905   5.758
 2045SOL    HW1 7034   2.109   4.883   5.745
 2045SOL    HW2 7035   1.958   4.858   5.688
 2046SOL     OW 7036   6.100   6.983   4.563
 2046SOL    HW1 7037   6.002   6.995   4.547
 2046SOL    HW2 7038   6.130   0.030   4.632
 2047SOL     OW 7039   5.038   2.600   0.685
 2047SOL    HW1 7040   5.005   2.591   0.591
 2047SOL    HW2 7041   4.962   2.588   0.748
 2048SOL     OW 7042   4.553   0.620   6.193
 2048SOL    HW1 7043   4.545   0.716   6.167
 2048SOL    HW2 7044   4.584   0.614   6.288
 2049SOL     OW 7045   4.223   1.212   0.126
 2049SOL    HW1 7046   4.276   1.281   0.176
 2049SOL    HW2 7047   4.260   1.121   0.144
 2050SOL     OW 7048   5.849   3.102   3.880
 2050SOL    HW1 7049   5.814   3.037   3.948
 2050SOL    HW2 7050   5.945   3.121   3.900
 2051SOL     OW 7051   1.419   5.907   0.673
 2051SOL    HW1 7052   1.514   5.928   0.650
 2051SOL    HW2 7053   1.363   5.990   0.665
 2052SOL     OW 7054   1.424   2.667   6.489
 2052SOL    HW1 7055   1.330   2.694   6.508
 2052SOL    HW2 7056   1.457   2.608   6.563
 2053SOL     OW 7057   6.167   0.486   0.200
 2053SOL    HW1 7058   6.073   0.455   0.215
 2053SOL    HW2 7059   6.230   0.409   0.209
 2054SOL     OW 7060   5.670   2.741   0.475
 2054SOL    HW1 7061   5.738   2.751   0.548
 2054SOL    HW2 7062   5.717   2.731   0.387
 2055SOL     OW 7063   5.479   2.860   3.606
 2055SOL    HW1 7064   5.510   2.860   3.511
 2055SOL    HW2 7065   5.532   2.927   3.658
 2056SOL     OW 7066   2.394   1.133   3.167
 2056SOL    HW1 7067   2.370   1.208   3.229
 2056SOL    HW2 7068   2.333   1.055   3.184
 2057SOL     OW 7069   6.977   2.838   4.213
 2057SOL    HW1 7070   6.950   2.934   4.218
 2057SOL    HW2 7071   6.927   2.792   4.140
 2058SOL     OW 7072   6.968   2.081   2.447
 2058SOL    HW1 7073   0.001   2.072   2.532
 2058SOL    HW2 7074   6.898   2.010   2.443
 2059SOL     OW 7075   2.106   1.120   0.048
 2059SOL    HW1 7076   2.021   1.118   0.100
 2059SOL    HW2 7077   2.181   1.148   0.106
 2060SOL     OW 7078   0.373   4.564   1.862
 2060SOL    HW1 7079   0.425   4.580   1.777
 2060SOL    HW2 7080   0.378   4.646   1.919
 2061SOL     OW 7081   6.706   1.435   2.288
 2061SOL    HW1 7082   6.662   1.365   2.344
 2061SOL    HW2 7083   6.804   1.414   2.278
 2062SOL     OW 7084   4.747   0.412   2.529
 2062SOL    HW1 7085   4.824   0.465   2.494
 2062SOL    HW2 7086   4.686   0.388   2.453
 2063SOL     OW 7087   1.678   2.965   6.568
 2063SOL    HW1 7088   1.777   2.953   6.561
 2063SOL    HW2 7089   1.634   2.923   6.488
 2064SOL     OW 7090   1.101   2.236   6.397
 2064SOL    HW1 7091   1.069   2.184   6.476
 2064SOL    HW2 7092   1.186   2.284   6.420
 2065SOL     OW 7093   6.153   3.775   2.132
 2065SOL    HW1 7094   6.121   3.785   2.039
 2065SOL    HW2 7095   6.251   3.796   2.136
 2066SOL     OW 7096   0.014   0.182   4.754
 2066SOL    HW1 7097   6.964   0.217   4.818
 2066SOL    HW2 7098   7.001   0.095   4.717
 2067SOL     OW 7099   6.657   6.464   1.204
 2067SOL    HW1 7100   6.557   6.454   1.211
 2067SOL    HW2 7101   6.699   6.374   1.206
 2068SOL     OW 7102   1.932   1.390   5.539
 2068SOL    HW1 7103   1.924   1.405   5.441
 2068SOL    HW2 7104   2.014   1.435   5.573
 2069SOL     OW 7105   1.493   2.389   2.321
 2069SOL    HW1 7106   1.441   2.388   2.406
 2069SOL    HW2 7107   1.590   2.373   2.340
 2070SOL     OW 7108   1.430   1.583   2.737
 2070SOL    HW1 7109   1.392   1.666   2.695
 2070SOL    HW2 7110   1.413   1.585   2.835
 2071SOL     OW 7111   0.582   0.096   4.335
 2071SOL    HW1 7112   0.600   0.025   4.403
 2071SOL    HW2 7113   0.667   0.144   4.314
 2072SOL     OW 7114   4.909   6.024   1.704
 2072SOL    HW1 7115   4.996   5.979   1.685
 2072SOL    HW2 7116   4.843   6.000   1.632
 2073SOL     OW 7117   2.987   6.657   5.688
 2073SOL    HW1 7118   3.039   6.737   5.719
 2073SOL    HW2 7119   2.929   6.624   5.762
 2074SOL     OW 7120   6.482   1.809   1.485
 2074SOL    HW1 7121   6.528   1.892   1.519
 2074SOL    HW2 7122   6.538   1.729   1.508
 2075SOL     OW 7123   4.434   3.214   6.994
 2075SOL    HW1 7124   4.483   3.292   0.013
 2075SOL    HW2 7125   4.407   3.233   6.899
 2076SOL     OW 7126   4.925   6.406   1.043
 2076SOL    HW1 7127   4.974   6.493   1.044
 2076SOL    HW2 7128   4.836   6.418   1.000
 2077SOL     OW 7129   5.690   1.382   2.514
 2077SOL    HW1 7130   5.684   1.482   2.516
 2077SOL    HW2 7131   5.617   1.345   2.457
 2078SOL     OW 7132   3.124   5.028   6.712
 2078SOL    HW1 7133   3.155   4.933   6.712
 2078SOL    HW2 7134   3.072   5.045   6.628
 2079SOL     OW 7135   5.758   1.232   3.484
 2079SOL    HW1 7136   5.826   1.160   3.471
 2079SOL    HW2 7137   5.795   1.304   3.542
 2080SOL     OW 7138   2.838   2.341   5.107
 2080SOL    HW1 7139   2.765   2.372   5.046
 2080SOL    HW2 7140   2.926   2.357   5.063
 2081SOL     OW 7141   0.989   6.346   4.984
 2081SOL    HW1 7142   1.062   6.360   5.051
 2081SOL    HW2 7143   1.010   6.267   4.927
 2082SOL     OW 7144   5.676   0.916   0.776
 2082SOL    HW1 7145   5.608   0.866   0.721
 2082SOL    HW2 7146   5.717   0.988   0.720
 2083SOL     OW 7147   3.577   4.677   6.412
 2083SOL    HW1 7148   3.655   4.683   6.474
 2083SOL    HW2 7149   3.607   4.695   6.318
 2084SOL     OW 7150   7.001   2.747   3.184
 2084SOL    HW1 7151   6.949   2.724   3.101
 2084SOL    HW2 7152   7.016   2.663   3.238
 2085SOL     OW 7153   4.488   0.385   5.771
 2085SOL    HW1 7154   4.555   0.427   5.710
 2085SOL    HW2 7155   4.483   0.437   5.856
 2086SOL     OW 7156   2.551   4.925   0.114
 2086SOL    HW1 7157   2.527   5.003   0.057
 2086SOL    HW2 7158   2.627   4.875   0.072
 2087SOL     OW 7159   5.632   6.875   2.814
 2087SOL    HW1 7160   5.713   6.887   2.757
 2087SOL    HW2 7161   5.638   6.935   2.894
 2088SOL     OW 7162   3.500   6.345   0.897
 2088SOL    HW1 7163   3.555   6.392   0.966
 2088SOL    HW2 7164   3.560   6.311   0.825
 2089SOL     OW 7165   5.467   1.499   0.093
 2089SOL    HW1 7166   5.511   1.413   0.120
 2089SOL    HW2 7167   5.537   1.569   0.079
 2090SOL     OW 7168   3.801   3.674   4.704
 2090SOL    HW1 7169   3.762   3.677   4.612
 2090SOL    HW2 7170   3.900   3.670   4.698
 2091SOL     OW 7171   1.078   5.673   0.495
 2091SOL    HW1 7172   1.127   5.601   0.544
 2091SOL    HW2 7173   1.101   5.668   0.398
 2092SOL     OW 7174   6.501   6.083   1.399
 2092SOL    HW1 7175   6.556   6.146   1.453
 2092SOL    HW2 7176   6.434   6.135   1.346
 2093SOL     OW 7177   1.259   3.073   1.741
 2093SOL    HW1 7178   1.170   3.115   1.756
 2093SOL    HW2 7179   1.287   3.088   1.646
 2094SOL     OW 7180   5.796   0.014   2.026
 2094SOL    HW1 7181   5.887   6.992   2.035
 2094SOL    HW2 7182   5.735   6.992   2.094
 2095SOL     OW 7183   5.779   5.781   4.583
 2095SOL    HW1 7184   5.757   5.828   4.669
 2095SOL    HW2 7185   5.807   5.687   4.602
 2096SOL     OW 7186   4.775   4.137   2.525
 2096SOL    HW1 7187   4.726   4.223   2.536
 2096SOL    HW2 7188   4.787   4.118   2.427
 2097SOL     OW 7189   0.136   2.742   6.567
 2097SOL    HW1 7190   0.098   2.809   6.503
 2097SOL    HW2 7191   0.082   2.658   6.564
 2098SOL     OW 7192   4.189   0.117   3.971
 2098SOL    HW1 7193   4.181   0.048   3.899
 2098SOL    HW2 7194   4.121   0.189   3.955
 2099SOL     OW 7195   2.638   0.887   4.669
 2099SOL    HW1 7196   2.544   0.855   4.680
 2099SOL    HW2 7197   2.645   0.942   4.586
 2100SOL     OW 7198   4.435   4.491   6.774
 2100SOL    HW1 7199   4.457   4.453   6.684
 2100SOL    HW2 7200   4.515   4.486   6.833
 2101SOL     OW 7201   0.619   0.172   3.259
 2101SOL    HW1 7202   0.553   0.136   3.193
 2101SOL    HW2 7203   0.583   0.255   3.301
 2102SOL     OW 7204   6.996   5.447   3.071
 2102SOL    HW1 7205   6.956   5.538   3.067
 2102SOL    HW2 7206   0.075   5.453   3.047
 2103SOL     OW 7207   3.484   3.191   6.845
 2103SOL    HW1 7208   3.520   3.163   6.934
 2103SOL    HW2 7209   3.394   3.234   6.858
 2104SOL     OW 7210   1.587   3.617   5.581
 2104SOL    HW1 7211   1.535   3.580   5.658
 2104SOL    HW2 7212   1.526   3.671   5.523
 2105SOL     OW 7213   5.544   5.165   2.802
 2105SOL    HW1 7214   5.580   5.230   2.868
 2105SOL    HW2 7215   5.539   5.208   2.712
 2106SOL     OW 7216   4.755   5.608   6.490
 2106SOL    HW1 7217   4.834   5.605   6.552
 2106SOL    HW2 7218   4.704   5.692   6.505
 2107SOL     OW 7219   3.790   4.380   5.319
 2107SOL    HW1 7220   3.718   4.351   5.256
 2107SOL    HW2 7221   3.852   4.304   5.335
 2108SOL     OW 7222   6.081   5.387   5.976
 2108SOL    HW1 7223   6.066   5.446   5.896
 2108SOL    HW2 7224   6.031   5.423   6.054
 2109SOL     OW 7225   5.387   6.235   2.932
 2109SOL    HW1 7226   5.374   6.271   3.024
 2109SOL    HW2 7227   5.391   6.311   2.867
 2110SOL     OW 7228   2.627   4.224   6.268
 2110SOL    HW1 7229   2.691   4.198   6.195
 2110SOL    HW2 7230   2.555   4.283   6.230
 2111SOL     OW 7231   1.349   2.505   6.147
 2111SOL    HW1 7232   1.420   2.575   6.154
 2111SOL    HW2 7233   1.361   2.438   6.220
 2112SOL     OW 7234   4.530   2.406   1.296
 2112SOL    HW1 7235   4.507   2.363   1.383
 2112SOL    HW2 7236   4.452   2.460   1.264
 2113SOL     OW 7237   1.643   1.027   2.706
 2113SOL    HW1 7238   1.690   0.960   2.762
 2113SOL    HW2 7239   1.562   0.984   2.665
 2114SOL     OW 7240   1.118   4.308   0.257
 2114SOL    HW1 7241   1.067   4.231   0.295
 2114SOL    HW2 7242   1.201   4.322   0.312
 2115SOL     OW 7243   1.674   4.759   2.414
 2115SOL    HW1 7244   1.580   4.744   2.445
 2115SOL    HW2 7245   1.681   4.850   2.373
 2116SOL     OW 7246   0.229   3.557   3.501
 2116SOL    HW1 7247   0.327   3.546   3.487
 2116SOL    HW2 7248   0.213   3.627   3.571
 2117SOL     OW 7249   0.646   4.919   1.362
 2117SOL    HW1 7250   0.680   4.891   1.272
 2117SOL    HW2 7251   0.553   4.955   1.353
 2118SOL     OW 7252   0.150   3.563   2.710
 2118SOL    HW1 7253   0.094   3.500   2.764
 2118SOL    HW2 7254   0.170   3.522   2.621
 2119SOL     OW 7255   2.412   5.914   1.103
 2119SOL    HW1 7256   2.349   5.863   1.160
 2119SOL    HW2 7257   2.506   5.887   1.124
 2120SOL     OW 7258   6.645   4.935   1.719
 2120SOL    HW1 7259   6.551   4.924   1.686
 2120SOL    HW2 7260   6.696   4.992   1.655
 2121SOL     OW 7261   0.197   5.026   5.214
 2121SOL    HW1 7262   0.286   5.046   5.172
 2121SOL    HW2 7263   0.187   5.080   5.297
 2122SOL     OW 7264   5.150   4.341   4.739
 2122SOL    HW1 7265   5.241   4.375   4.715
 2122SOL    HW2 7266   5.081   4.394   4.689
 2123SOL     OW 7267   6.902   4.789   2.519
 2123SOL    HW1 7268   6.844   4.851   2.572
 2123SOL    HW2 7269   6.991   4.831   2.503
 2124SOL     OW 7270   2.296   2.089   1.539
 2124SOL    HW1 7271   2.291   1.996   1.575
 2124SOL    HW2 7272   2.272   2.153   1.612
 2125SOL     OW 7273   2.815   0.822   0.586
 2125SOL    HW1 7274   2.849   0.916   0.585
 2125SOL    HW2 7275   2.789   0.798   0.680
 2126SOL     OW 7276   2.905   1.049   6.813
 2126SOL    HW1 7277   2.834   1.057   6.883
 2126SOL    HW2 7278   2.985   1.103   6.841
 2127SOL     OW 7279   5.649   2.845   4.669
 2127SOL    HW1 7280   5.682   2.781   4.739
 2127SOL    HW2 7281   5.727   2.884   4.620
 2128SOL     OW 7282   0.801   4.335   4.870
 2128SOL    HW1 7283   0.819   4.422   4.917
 2128SOL    HW2 7284   0.841   4.260   4.922
 2129SOL     OW 7285   4.831   2.945   5.235
 2129SOL    HW1 7286   4.929   2.926   5.243
 2129SOL    HW2 7287   4.783   2.906   5.314
 2130SOL     OW 7288   4.670   0.022   2.348
 2130SOL    HW1 7289   4.733   0.099   2.335
 2130SOL    HW2 7290   4.664   0.000   2.446
 2131SOL     OW 7291   0.092   0.787   0.613
 2131SOL    HW1 7292   7.016   0.768   0.583
 2131SOL    HW2 7293   0.117   0.880   0.588
 2132SOL     OW 7294   2.911   2.972   0.690
 2132SOL    HW1 7295   2.863   2.940   0.608
 2132SOL    HW2 7296   2.933   3.069   0.680
 2133SOL     OW 7297   3.315   2.368   6.237
 2133SOL    HW1 7298   3.391   2.433   6.235
 2133SOL    HW2 7299   3.319   2.309   6.156
 2134SOL     OW 7300   0.278   1.356   1.284
 2134SOL    HW1 7301   0.295   1.271   1.234
 2134SOL    HW2 7302   0.313   1.433   1.231
 2135SOL     OW 7303   0.990   4.049   4.521
 2135SOL    HW1 7304   0.959   3.955   4.535
 2135SOL    HW2 7305   1.066   4.050   4.455
 2136SOL     OW 7306   2.016   5.435   1.852
 2136SOL    HW1 7307   1.978   5.523   1.878
 2136SOL    HW2 7308   1.971   5.362   1.904
 2137SOL     OW 7309   3.210   5.388   4.892
 2137SOL    HW1 7310   3.110   5.387   4.900
 2137SOL    HW2 7311   3.244   5.294   4.889
 2138SOL     OW 7312   5.693   1.179   2.704
 2138SOL    HW1 7313   5.656   1.246   2.768
 2138SOL    HW2 7314   5.732   1.226   2.625
 2139SOL     OW 7315   3.327   0.708   5.375
 2139SOL    HW1 7316   3.251   0.663   5.421
 2139SOL    HW2 7317   3.394   0.639   5.348
 2140SOL     OW 7318   2.704   1.178   4.925
 2140SOL    HW1 7319   2.666   1.090   4.950
 2140SOL    HW2 7320   2.793   1.165   4.880
 2141SOL     OW 7321   6.061   4.479   2.287
 2141SOL    HW1 7322   6.012   4.392   2.281
 2141SOL    HW2 7323   6.119   4.491   2.206
 2142SOL     OW 7324   1.774   2.633   3.638
 2142SOL    HW1 7325   1.808   2.726   3.626
 2142SOL    HW2 7326   1.839   2.568   3.598
 2143SOL     OW 7327   2.544   4.976   0.707
 2143SOL    HW1 7328   2.519   4.879   0.698
 2143SOL    HW2 7329   2.581   4.992   0.798
 2144SOL     OW 7330   6.529   5.681   4.075
 2144SOL    HW1 7331   6.578   5.647   4.156
 2144SOL    HW2 7332   6.536   5.613   4.002
 2145SOL     OW 7333   4.311   6.791   4.060
 2145SOL    HW1 7334   4.319   6.886   4.090
 2145SOL    HW2 7335   4.222   6.755   4.088
 2146SOL     OW 7336   2.230   2.820   1.019
 2146SOL    HW1 7337   2.197   2.879   1.093
 2146SOL    HW2 7338   2.324   2.844   0.997
 2147SOL     OW 7339   6.539   0.705   5.477
 2147SOL    HW1 7340   6.447   0.745   5.468
 2147SOL    HW2 7341   6.572   0.678   5.387
 2148SOL     OW 7342   0.248   3.509   6.630
 2148SOL    HW1 7343   0.214   3.419   6.602
 2148SOL    HW2 7344   0.345   3.516   6.607
 2149SOL     OW 7345   0.840   0.554   6.686
 2149SOL    HW1 7346   0.834   0.582   6.590
 2149SOL    HW2 7347   0.935   0.563   6.717
 2150SOL     OW 7348   2.448   2.756   1.879
 2150SOL    HW1 7349   2.357   2.792   1.860
 2150SOL    HW2 7350   2.440   2.667   1.925
 2151SOL     OW 7351   1.327   5.775   6.905
 2151SOL    HW1 7352   1.280   5.822   6.980
 2151SOL    HW2 7353   1.355   5.842   6.836
 2152SOL     OW 7354   4.250   6.188   2.876
 2152SOL    HW1 7355   4.184   6.264   2.875
 2152SOL    HW2 7356   4.272   6.165   2.971
 2153SOL     OW 7357   4.869   1.310   2.837
 2153SOL    HW1 7358   4.804   1.302   2.912
 2153SOL    HW2 7359   4.960   1.283   2.869
 2154SOL     OW 7360   3.182   6.285   3.283
 2154SOL    HW1 7361   3.254   6.353   3.294
 2154SOL    HW2 7362   3.223   6.197   3.257
 2155SOL     OW 7363   4.359   6.274   0.572
 2155SOL    HW1 7364   4.370   6.348   0.639
 2155SOL    HW2 7365   4.423   6.200   0.593
 2156SOL     OW 7366   5.381   1.610   4.446
 2156SOL    HW1 7367   5.401   1.679   4.376
 2156SOL    HW2 7368   5.343   1.655   4.527
 2157SOL     OW 7369   3.942   5.366   3.815
 2157SOL    HW1 7370   4.008   5.406   3.877
 2157SOL    HW2 7371   3.907   5.280   3.854
 2158SOL     OW 7372   3.288   0.457   0.587
 2158SOL    HW1 7373   3.325   0.383   0.532
 2158SOL    HW2 7374   3.196   0.433   0.619
 2159SOL     OW 7375   1.386   0.584   6.042
 2159SOL    HW1 7376   1.478   0.550   6.061
 2159SOL    HW2 7377   1.322   0.543   6.107
 2160SOL     OW 7378   5.088   6.217   0.369
 2160SOL    HW1 7379   5.037   6.264   0.440
 2160SOL    HW2 7380   5.167   6.273   0.343
 2161SOL     OW 7381   1.281   3.747   2.466
 2161SOL    HW1 7382   1.201   3.748   2.525
 2161SOL    HW2 7383   1.340   3.824   2.489
 2162SOL     OW 7384   1.590   6.765   2.993
 2162SOL    HW1 7385   1.493   6.775   3.015
 2162SOL    HW2 7386   1.644   6.781   3.076
 2163SOL     OW 7387   1.280   3.134   1.445
 2163SOL    HW1 7388   1.370   3.175   1.449
 2163SOL    HW2 7389   1.260   3.107   1.350
 2164SOL     OW 7390   1.944   2.968   1.824
 2164SOL    HW1 7391   1.889   3.039   1.779
 2164SOL    HW2 7392   1.933   2.882   1.774
 2165SOL     OW 7393   0.078   1.900   3.904
 2165SOL    HW1 7394   0.127   1.932   3.985
 2165SOL    HW2 7395   0.115   1.946   3.823
 2166SOL     OW 7396   0.398   4.555   3.450
 2166SOL    HW1 7397   0.391   4.634   3.511
 2166SOL    HW2 7398   0.389   4.470   3.504
 2167SOL     OW 7399   1.847   2.506   4.049
 2167SOL    HW1 7400   1.870   2.416   4.086
 2167SOL    HW2 7401   1.833   2.571   4.123
 2168SOL     OW 7402   1.298   1.921   3.152
 2168SOL    HW1 7403   1.266   2.005   3.197
 2168SOL    HW2 7404   1.367   1.878   3.209
 2169SOL     OW 7405   0.391   0.837   1.457
 2169SOL    HW1 7406   0.397   0.737   1.459
 2169SOL    HW2 7407   0.426   0.871   1.370
 2170SOL     OW 7408   0.877   3.732   5.733
 2170SOL    HW1 7409   0.882   3.738   5.833
 2170SOL    HW2 7410   0.784   3.750   5.703
 2171SOL     OW 7411   0.074   5.381   1.182
 2171SOL    HW1 7412   0.057   5.444   1.106
 2171SOL    HW2 7413   0.166   5.343   1.173
 2172SOL     OW 7414   6.900   1.879   4.436
 2172SOL    HW1 7415   6.870   1.811   4.503
 2172SOL    HW2 7416   6.823   1.905   4.377
 2173SOL     OW 7417   5.354   0.084   4.659
 2173SOL    HW1 7418   5.316   0.050   4.745
 2173SOL    HW2 7419   5.361   0.010   4.593
 2174SOL     OW 7420   0.298   5.951   5.094
 2174SOL    HW1 7421   0.360   6.009   5.147
 2174SOL    HW2 7422   0.213   6.001   5.075
 2175SOL     OW 7423   3.291   2.965   5.643
 2175SOL    HW1 7424   3.216   2.912   5.602
 2175SOL    HW2 7425   3.378   2.918   5.627
 2176SOL     OW 7426   5.355   2.825   0.942
 2176SOL    HW1 7427   5.268   2.800   0.985
 2176SOL    HW2 7428   5.392   2.906   0.988
 2177SOL     OW 7429   6.977   0.777   3.542
 2177SOL    HW1 7430   6.883   0.797   3.517
 2177SOL    HW2 7431   0.021   0.839   3.494
 2178SOL     OW 7432   0.885   1.566   2.232
 2178SOL    HW1 7433   0.909   1.627   2.308
 2178SOL    HW2 7434   0.968   1.524   2.195
 2179SOL     OW 7435   1.894   4.518   6.600
 2179SOL    HW1 7436   1.838   4.468   6.666
 2179SOL    HW2 7437   1.970   4.460   6.571
 2180SOL     OW 7438   0.840   4.567   1.990
 2180SOL    HW1 7439   0.860   4.471   2.010
 2180SOL    HW2 7440   0.825   4.617   2.075
 2181SOL     OW 7441   4.523   4.932   4.053
 2181SOL    HW1 7442   4.450   4.871   4.023
 2181SOL    HW2 7443   4.517   4.944   4.152
 2182SOL     OW 7444   0.854   5.420   3.172
 2182SOL    HW1 7445   0.898   5.375   3.249
 2182SOL    HW2 7446   0.862   5.519   3.182
 2183SOL     OW 7447   3.488   2.966   0.284
 2183SOL    HW1 7448   3.405   2.935   0.238
 2183SOL    HW2 7449   3.486   2.939   0.380
 2184SOL     OW 7450   6.576   0.333   0.125
 2184SOL    HW1 7451   6.526   0.369   0.204
 2184SOL    HW2 7452   6.578   0.233   0.130
 2185SOL     OW 7453   0.653   1.778   6.888
 2185SOL    HW1 7454   0.665   1.687   6.925
 2185SOL    HW2 7455   0.557   1.806   6.896
 2186SOL     OW 7456   7.015   5.843   4.831
 2186SOL    HW1 7457   0.088   5.811   4.803
 2186SOL    HW2 7458   6.968   5.883   4.752
 2187SOL     OW 7459   0.463   5.596   2.930
 2187SOL    HW1 7460   0.377   5.546   2.934
 2187SOL    HW2 7461   0.450   5.683   2.883
 2188SOL     OW 7462   1.908   6.791   0.710
 2188SOL    HW1 7463   1.955   6.866   0.756
 2188SOL    HW2 7464   1.918   6.800   0.611
 2189SOL     OW 7465   2.670   1.271   2.062
 2189SOL    HW1 7466   2.687   1.370   2.054
 2189SOL    HW2 7467   2.735   1.231   2.127
 2190SOL     OW 7468   6.929   4.224   2.334
 2190SOL    HW1 7469   6.928   4.302   2.397
 2190SOL    HW2 7470   7.012   4.227   2.278
 2191SOL     OW 7471   2.161   0.824   5.986
 2191SOL    HW1 7472   2.094   0.829   5.912
 2191SOL    HW2 7473   2.115   0.837   6.073
 2192SOL     OW 7474   5.012   0.953   2.145
 2192SOL    HW1 7475   4.954   0.978   2.223
 2192SOL    HW2 7476   5.100   0.920   2.179
 2193SOL     OW 7477   6.861   6.764   6.372
 2193SOL    HW1 7478   6.951   6.805   6.354
 2193SOL    HW2 7479   6.871   6.665   6.383
 2194SOL     OW 7480   0.880   4.468   5.722
 2194SOL    HW1 7481   0.951   4.530   5.688
 2194SOL    HW2 7482   0.918   4.376   5.731
 2195SOL     OW 7483   0.885   4.169   6.542
 2195SOL    HW1 7484   0.910   4.230   6.617
 2195SOL    HW2 7485   0.938   4.085   6.548
 2196SOL     OW 7486   2.436   6.037   5.698
 2196SOL    HW1 7487   2.513   6.000   5.647
 2196SOL    HW2 7488   2.440   6.003   5.792
 2197SOL     OW 7489   2.934   3.888   5.582
 2197SOL    HW1 7490   2.915   3.963   5.519
 2197SOL    HW2 7491   2.848   3.848   5.614
 2198SOL     OW 7492   0.683   6.767   6.421
 2198SOL    HW1 7493   0.648   6.700   6.487
 2198SOL    HW2 7494   0.727   6.842   6.470
 2199SOL     OW 7495   4.815   6.805   4.335
 2199SOL    HW1 7496   4.911   6.813   4.362
 2199SOL    HW2 7497   4.797   6.713   4.302
 2200SOL     OW 7498   2.999   1.112   4.423
 2200SOL    HW1 7499   3.050   1.053   4.360
 2200SOL    HW2 7500   3.001   1.073   4.515
 2201SOL     OW 7501   6.529   2.685   3.500
 2201SOL    HW1 7502   6.488   2.751   3.436
 2201SOL    HW2 7503   6.502   2.593   3.474
 2202SOL     OW 7504   3.655   5.086   2.401
 2202SOL    HW1 7505   3.563   5.096   2.364
 2202SOL    HW2 7506   3.651   5.081   2.501
 2203SOL     OW 7507   1.986   3.747   1.004
 2203SOL    HW1 7508   1.944   3.666   0.964
 2203SOL    HW2 7509   2.048   3.720   1.077
 2204SOL     OW 7510   4.397   2.904   0.994
 2204SOL    HW1 7511   4.376   2.814   0.956
 2204SOL    HW2 7512   4.443   2.960   0.924
 2205SOL     OW 7513   1.212   6.213   0.392
 2205SOL    HW1 7514   1.273   6.158   0.335
 2205SOL    HW2 7515   1.131   6.238   0.339
 2206SOL     OW 7516   2.285   3.297   6.289
 2206SOL    HW1 7517   2.325   3.296   6.381
 2206SOL    HW2 7518   2.273   3.203   6.257
 2207SOL     OW 7519   4.412   6.049   1.027
 2207SOL    HW1 7520   4.394   6.103   1.109
 2207SOL    HW2 7521   4.339   5.982   1.014
 2208SOL     OW 7522   0.917   5.841   3.717
 2208SOL    HW1 7523   0.964   5.786   3.648
 2208SOL    HW2 7524   0.844   5.787   3.760
 2209SOL     OW 7525   2.722   5.276   5.162
 2209SOL    HW1 7526   2.648   5.317   5.108
 2209SOL    HW2 7527   2.809   5.318   5.137
 2210SOL     OW 7528   5.960   6.133   1.201
 2210SOL    HW1 7529   6.053   6.101   1.185
 2210SOL    HW2 7530   5.916   6.076   1.269
 2211SOL     OW 7531   6.062   0.789   0.847
 2211SOL    HW1 7532   6.132   0.788   0.776
 2211SOL    HW2 7533   5.983   0.736   0.816
 2212SOL     OW 7534   2.566   6.124   6.597
 2212SOL    HW1 7535   2.537   6.136   6.692
 2212SOL    HW2 7536   2.521   6.043   6.559
 2213SOL     OW 7537   4.433   2.447   3.886
 2213SOL    HW1 7538   4.381   2.438   3.801
 2213SOL    HW2 7539   4.487   2.531   3.883
 2214SOL     OW 7540   4.242   2.787   6.015
 2214SOL    HW1 7541   4.156   2.738   6.002
 2214SOL    HW2 7542   4.244   2.867   5.954
 2215SOL     OW 7543   5.006   1.045   6.679
 2215SOL    HW1 7544   5.077   1.110   6.707
 2215SOL    HW2 7545   5.006   1.035   6.580
 2216SOL     OW 7546   0.694   5.608   6.463
 2216SOL    HW1 7547   0.744   5.694   6.458
 2216SOL    HW2 7548   0.757   5.534   6.487
 2217SOL     OW 7549   4.692   0.874   2.591
 2217SOL    HW1 7550   4.717   0.965   2.624
 2217SOL    HW2 7551   4.752   0.806   2.633
 2218SOL     OW 7552   0.318   5.198   6.476
 2218SOL    HW1 7553   0.224   5.216   6.503
 2218SOL    HW2 7554   0.376   5.197   6.557
 2219SOL     OW 7555   5.603   1.178   0.700
 2219SOL    HW1 7556   5.603   1.272   0.734
 2219SOL    HW2 7557   5.620   1.115   0.775
 2220SOL     OW 7558   1.780   6.521   5.609
 2220SOL    HW1 7559   1.823   6.458   5.674
 2220SOL    HW2 7560   1.850   6.562   5.551
 2221SOL     OW 7561   6.553   0.945   4.891
 2221SOL    HW1 7562   6.640   0.975   4.930
 2221SOL    HW2 7563   6.540   0.985   4.801
 2222SOL     OW 7564   6.046   6.573   0.466
 2222SOL    HW1 7565   6.103   6.608   0.541
 2222SOL    HW2 7566   6.050   6.637   0.389
 2223SOL     OW 7567   6.551   0.405   5.958
 2223SOL    HW1 7568   6.548   0.306   5.970
 2223SOL    HW2 7569   6.470   0.446   5.999
 2224SOL     OW 7570   5.954   4.285   1.856
 2224SOL    HW1 7571   5.933   4.222   1.930
 2224SOL    HW2 7572   5.870   4.329   1.824
 2225SOL     OW 7573   0.669   6.558   3.555
 2225SOL    HW1 7574   0.623   6.623   3.615
 2225SOL    HW2 7575   0.748   6.602   3.512
 2226SOL     OW 7576   3.042   5.092   0.628
 2226SOL    HW1 7577   3.070   5.000   0.655
 2226SOL    HW2 7578   3.058   5.155   0.704
 2227SOL     OW 7579   4.187   2.377   1.495
 2227SOL    HW1 7580   4.202   2.467   1.455
 2227SOL    HW2 7581   4.274   2.342   1.531
 2228SOL     OW 7582   4.605   5.137   0.326
 2228SOL    HW1 7583   4.513   5.102   0.308
 2228SOL    HW2 7584   4.663   5.123   0.246
 2229SOL     OW 7585   3.198   3.459   4.526
 2229SOL    HW1 7586   3.288   3.477   4.567
 2229SOL    HW2 7587   3.151   3.388   4.579
 2230SOL     OW 7588   5.308   6.282   0.985
 2230SOL    HW1 7589   5.250   6.302   0.907
 2230SOL    HW2 7590   5.365   6.363   1.006
 2231SOL     OW 7591   0.378   0.975   6.597
 2231SOL    HW1 7592   0.406   1.063   6.635
 2231SOL    HW2 7593   0.385   0.904   6.667
 2232SOL     OW 7594   1.276   0.574   5.599
 2232SOL    HW1 7595   1.226   0.529   5.526
 2232SOL    HW2 7596   1.369   0.595   5.568
 2233SOL     OW 7597   3.095   3.518   1.060
 2233SOL    HW1 7598   3.158   3.549   0.989
 2233SOL    HW2 7599   3.041   3.595   1.093
 2234SOL     OW 7600   3.815   1.409   0.749
 2234SOL    HW1 7601   3.893   1.424   0.688
 2234SOL    HW2 7602   3.730   1.432   0.702
 2235SOL     OW 7603   2.701   0.406   2.617
 2235SOL    HW1 7604   2.646   0.419   2.700
 2235SOL    HW2 7605   2.788   0.362   2.640
 2236SOL     OW 7606   1.777   3.942   6.062
 2236SOL    HW1 7607   1.808   3.866   6.006
 2236SOL    HW2 7608   1.719   3.908   6.136
 2237SOL     OW 7609   5.973   5.306   5.454
 2237SOL    HW1 7610   5.908   5.314   5.378
 2237SOL    HW2 7611   6.048   5.371   5.441
 2238SOL     OW 7612   4.766   4.811   2.763
 2238SOL    HW1 7613   4.783   4.800   2.861
 2238SOL    HW2 7614   4.669   4.796   2.744
 2239SOL     OW 7615   3.455   6.367   3.765
 2239SOL    HW1 7616   3.357   6.360   3.746
 2239SOL    HW2 7617   3.473   6.330   3.856
 2240SOL     OW 7618   4.164   5.723   2.735
 2240SOL    HW1 7619   4.084   5.783   2.737
 2240SOL    HW2 7620   4.171   5.680   2.645
 2241SOL     OW 7621   6.928   6.975   1.786
 2241SOL    HW1 7622   6.864   0.031   1.768
 2241SOL    HW2 7623   6.878   6.892   1.810
 2242SOL     OW 7624   5.363   3.334   2.891
 2242SOL    HW1 7625   5.279   3.343   2.944
 2242SOL    HW2 7626   5.398   3.240   2.900
 2243SOL     OW 7627   2.711   6.400   6.970
 2243SOL    HW1 7628   2.638   6.337   6.942
 2243SOL    HW2 7629   2.799   6.363   6.942
 2244SOL     OW 7630   2.884   0.493   1.396
 2244SOL    HW1 7631   2.868   0.539   1.308
 2244SOL    HW2 7632   2.820   0.417   1.406
 2245SOL     OW 7633   0.655   1.517   0.856
 2245SOL    HW1 7634   0.753   1.496   0.849
 2245SOL    HW2 7635   0.613   1.505   0.766
 2246SOL     OW 7636   2.128   0.641   4.378
 2246SOL    HW1 7637   2.103   0.718   4.319
 2246SOL    HW2 7638   2.046   0.603   4.420
 2247SOL     OW 7639   3.347   4.118   2.523
 2247SOL    HW1 7640   3.314   4.102   2.430
 2247SOL    HW2 7641   3.447   4.112   2.525
 2248SOL     OW 7642   6.498   4.545   4.620
 2248SOL    HW1 7643   6.560   4.474   4.654
 2248SOL    HW2 7644   6.495   4.541   4.520
 2249SOL     OW 7645   3.110   6.640   3.457
 2249SOL    HW1 7646   3.118   6.652   3.556
 2249SOL    HW2 7647   3.153   6.554   3.430
 2250SOL     OW 7648   3.684   4.002   5.535
 2250SOL    HW1 7649   3.745   3.942   5.483
 2250SOL    HW2 7650   3.639   4.065   5.472
 2251SOL     OW 7651   5.305   6.604   6.497
 2251SOL    HW1 7652   5.221   6.549   6.490
 2251SOL    HW2 7653   5.281   6.698   6.522
 2252SOL     OW 7654   5.690   1.616   2.892
 2252SOL    HW1 7655   5.699   1.662   2.981
 2252SOL    HW2 7656   5.694   1.684   2.819
 2253SOL     OW 7657   0.664   3.146   0.349
 2253SOL    HW1 7658   0.631   3.210   0.418
 2253SOL    HW2 7659   0.679   3.056   0.391
 2254SOL     OW 7660   3.383   4.175   2.796
 2254SOL    HW1 7661   3.378   4.172   2.696
 2254SOL    HW2 7662   3.292   4.161   2.835
 2255SOL     OW 7663   2.887   4.050   5.367
 2255SOL    HW1 7664   2.916   4.144   5.387
 2255SOL    HW2 7665   2.935   4.017   5.286
 2256SOL     OW 7666   4.781   6.390   2.461
 2256SOL    HW1 7667   4.731   6.465   2.419
 2256SOL    HW2 7668   4.747   6.375   2.554
 2257SOL     OW 7669   0.970   1.611   4.135
 2257SOL    HW1 7670   0.978   1.543   4.208
 2257SOL    HW2 7671   0.875   1.640   4.127
 2258SOL     OW 7672   2.095   6.410   4.928
 2258SOL    HW1 7673   2.172   6.356   4.894
 2258SOL    HW2 7674   2.009   6.364   4.906
 2259SOL     OW 7675   6.292   2.085   4.661
 2259SOL    HW1 7676   6.254   1.993   4.665
 2259SOL    HW2 7677   6.248   2.142   4.731
 2260SOL     OW 7678   1.089   3.350   1.389
 2260SOL    HW1 7679   1.135   3.412   1.452
 2260SOL    HW2 7680   1.138   3.262   1.387
 2261SOL     OW 7681   6.537   3.994   0.613
 2261SOL    HW1 7682   6.573   4.035   0.697
 2261SOL    HW2 7683   6.569   3.900   0.606
 2262SOL     OW 7684   6.613   0.686   3.797
 2262SOL    HW1 7685   6.643   0.615   3.734
 2262SOL    HW2 7686   6.513   0.681   3.806
 2263SOL     OW 7687   1.201   5.425   0.567
 2263SOL    HW1 7688   1.294   5.421   0.606
 2263SOL    HW2 7689   1.136   5.387   0.633
 2264SOL     OW 7690   2.787   6.815   6.780
 2264SOL    HW1 7691   2.698   6.828   6.738
 2264SOL    HW2 7692   2.819   6.901   6.820
 2265SOL     OW 7693   1.399   0.275   4.259
 2265SOL    HW1 7694   1.410   0.367   4.295
 2265SOL    HW2 7695   1.444   0.268   4.170
 2266SOL     OW 7696   5.271   0.902   5.826
 2266SOL    HW1 7697   5.187   0.956   5.823
 2266SOL    HW2 7698   5.349   0.960   5.802
 2267SOL     OW 7699   4.554   2.563   4.766
 2267SOL    HW1 7700   4.596   2.651   4.745
 2267SOL    HW2 7701   4.556   2.548   4.865
 2268SOL     OW 7702   5.835   4.145   6.823
 2268SOL    HW1 7703   5.867   4.225   6.875
 2268SOL    HW2 7704   5.904   4.073   6.829
 2269SOL     OW 7705   0.287   3.095   5.563
 2269SOL    HW1 7706   0.248   3.024   5.622
 2269SOL    HW2 7707   0.385   3.081   5.555
 2270SOL     OW 7708   4.383   3.126   5.950
 2270SOL    HW1 7709   4.388   3.226   5.957
 2270SOL    HW2 7710   4.298   3.100   5.905
 2271SOL     OW 7711   5.707   4.408   0.387
 2271SOL    HW1 7712   5.675   4.365   0.303
 2271SOL    HW2 7713   5.649   4.486   0.409
 2272SOL     OW 7714   6.654   1.334   6.429
 2272SOL    HW1 7715   6.594   1.384   6.491
 2272SOL    HW2 7716   6.600   1.286   6.361
 2273SOL     OW 7717   1.981   2.334   1.962
 2273SOL    HW1 7718   1.944   2.241   1.968
 2273SOL    HW2 7719   2.078   2.332   1.984
 2274SOL     OW 7720   0.398   1.893   6.868
 2274SOL    HW1 7721   0.450   1.960   6.815
 2274SOL    HW2 7722   0.327   1.852   6.811
 2275SOL     OW 7723   6.015   5.412   2.380
 2275SOL    HW1 7724   5.993   5.460   2.295
 2275SOL    HW2 7725   6.114   5.413   2.394
 2276SOL     OW 7726   1.746   0.088   1.453
 2276SOL    HW1 7727   1.687   0.011   1.476
 2276SOL    HW2 7728   1.707   0.139   1.376
 2277SOL     OW 7729   3.567   3.615   4.039
 2277SOL    HW1 7730   3.552   3.543   4.107
 2277SOL    HW2 7731   3.488   3.676   4.038
 2278SOL     OW 7732   0.228   2.847   4.279
 2278SOL    HW1 7733   0.246   2.924   4.340
 2278SOL    HW2 7734   0.135   2.854   4.243
 2279SOL     OW 7735   6.566   5.933   5.781
 2279SOL    HW1 7736   6.550   5.952   5.684
 2279SOL    HW2 7737   6.584   5.835   5.793
 2280SOL     OW 7738   5.942   0.564   5.188
 2280SOL    HW1 7739   5.891   0.512   5.120
 2280SOL    HW2 7740   5.905   0.545   5.279
 2281SOL     OW 7741   4.173   0.219   2.594
 2281SOL    HW1 7742   4.200   0.305   2.637
 2281SOL    HW2 7743   4.080   0.228   2.558
 2282SOL     OW 7744   4.986   5.901   5.101
 2282SOL    HW1 7745   4.934   5.885   5.017
 2282SOL    HW2 7746   5.039   5.819   5.123
 2283SOL     OW 7747   1.568   0.491   2.977
 2283SOL    HW1 7748   1.608   0.562   3.036
 2283SOL    HW2 7749   1.590   0.511   2.882
 2284SOL     OW 7750   0.566   3.120   5.642
 2284SOL    HW1 7751   0.586   3.191   5.574
 2284SOL    HW2 7752   0.631   3.045   5.633
 2285SOL     OW 7753   1.388   3.948   6.407
 2285SOL    HW1 7754   1.340   3.881   6.350
 2285SOL    HW2 7755   1.342   4.037   6.399
 2286SOL     OW 7756   5.206   6.725   2.797
 2286SOL    HW1 7757   5.285   6.668   2.778
 2286SOL    HW2 7758   5.123   6.671   2.789
 2287SOL     OW 7759   2.646   1.457   3.557
 2287SOL    HW1 7760   2.579   1.404   3.608
 2287SOL    HW2 7761   2.727   1.401   3.539
 2288SOL     OW 7762   0.701   4.927   4.005
 2288SOL    HW1 7763   0.717   4.987   3.927
 2288SOL    HW2 7764   0.748   4.840   3.991
 2289SOL     OW 7765   0.026   4.822   1.292
 2289SOL    HW1 7766   0.096   4.886   1.325
 2289SOL    HW2 7767   0.002   4.758   1.366
 2290SOL     OW 7768   0.947   3.953   0.930
 2290SOL    HW1 7769   0.909   3.928   0.841
 2290SOL    HW2 7770   0.907   4.038   0.961
 2291SOL     OW 7771   3.206   1.723   5.878
 2291SOL    HW1 7772   3.278   1.716   5.947
 2291SOL    HW2 7773   3.167   1.815   5.879
 2292SOL     OW 7774   1.119   1.121   5.085
 2292SOL    HW1 7775   1.027   1.119   5.123
 2292SOL    HW2 7776   1.183   1.157   5.153
 2293SOL     OW 7777   5.514   5.708   1.405
 2293SOL    HW1 7778   5.585   5.742   1.344
 2293SOL    HW2 7779   5.446   5.656   1.353
 2294SOL     OW 7780   3.534   6.958   0.440
 2294SOL    HW1 7781   3.448   6.915   0.413
 2294SOL    HW2 7782   3.571   6.911   0.520
 2295SOL     OW 7783   0.325   1.935   2.481
 2295SOL    HW1 7784   0.409   1.984   2.456
 2295SOL    HW2 7785   0.297   1.877   2.405
 2296SOL     OW 7786   3.443   0.557   0.828
 2296SOL    HW1 7787   3.446   0.595   0.735
 2296SOL    HW2 7788   3.412   0.461   0.823
 2297SOL     OW 7789   4.042   4.058   5.612
 2297SOL    HW1 7790   3.993   4.024   5.692
 2297SOL    HW2 7791   3.978   4.103   5.550
 2298SOL     OW 7792   3.680   2.491   0.823
 2298SOL    HW1 7793   3.748   2.437   0.872
 2298SOL    HW2 7794   3.644   2.562   0.884
 2299SOL     OW 7795   5.288   6.613   6.900
 2299SOL    HW1 7796   5.367   6.594   6.958
 2299SOL    HW2 7797   5.290   6.710   6.873
 2300SOL     OW 7798   1.524   5.248   1.370
 2300SOL    HW1 7799   1.442   5.269   1.423
 2300SOL    HW2 7800   1.589   5.198   1.427
 2301SOL     OW 7801   2.969   3.163   2.935
 2301SOL    HW1 7802   2.948   3.178   3.031
 2301SOL    HW2 7803   2.905   3.215   2.878
 2302SOL     OW 7804   4.179   6.352   2.630
 2302SOL    HW1 7805   4.160   6.406   2.712
 2302SOL    HW2 7806   4.213   6.413   2.558
 2303SOL     OW 7807   1.094   3.306   5.428
 2303SOL    HW1 7808   1.178   3.256   5.447
 2303SOL    HW2 7809   1.106   3.402   5.454
 2304SOL     OW 7810   2.624   0.200   3.527
 2304SOL    HW1 7811   2.656   0.283   3.481
 2304SOL    HW2 7812   2.615   0.126   3.459
 2305SOL     OW 7813   4.061   5.477   3.082
 2305SOL    HW1 7814   3.993   5.408   3.056
 2305SOL    HW2 7815   4.113   5.444   3.160
 2306SOL     OW 7816   2.080   4.603   1.519
 2306SOL    HW1 7817   2.023   4.683   1.534
 2306SOL    HW2 7818   2.062   4.535   1.590
 2307SOL     OW 7819   2.090   4.149   2.750
 2307SOL    HW1 7820   2.156   4.169   2.823
 2307SOL    HW2 7821   2.064   4.234   2.705
 2308SOL     OW 7822   0.523   0.848   6.393
 2308SOL    HW1 7823   0.481   0.901   6.320
 2308SOL    HW2 7824   0.465   0.851   6.474
 2309SOL     OW 7825   2.963   5.875   6.911
 2309SOL    HW1 7826   3.001   5.919   6.830
 2309SOL    HW2 7827   2.944   5.779   6.891
 2310SOL     OW 7828   6.613   6.623   1.415
 2310SOL    HW1 7829   6.638   6.548   1.354
 2310SOL    HW2 7830   6.619   6.709   1.366
 2311SOL     OW 7831   2.483   6.946   2.721
 2311SOL    HW1 7832   2.511   7.016   2.655
 2311SOL    HW2 7833   2.467   6.860   2.674
 2312SOL     OW 7834   2.694   6.812   3.225
 2312SOL    HW1 7835   2.667   6.876   3.153
 2312SOL    HW2 7836   2.791   6.789   3.215
 2313SOL     OW 7837   4.500   4.954   1.722
 2313SOL    HW1 7838   4.402   4.933   1.724
 2313SOL    HW2 7839   4.549   4.895   1.786
 2314SOL     OW 7840   6.411   0.720   3.509
 2314SOL    HW1 7841   6.407   0.776   3.592
 2314SOL    HW2 7842   6.399   0.624   3.533
 2315SOL     OW 7843   4.689   3.644   5.813
 2315SOL    HW1 7844   4.787   3.631   5.828
 2315SOL    HW2 7845   4.671   3.649   5.715
 2316SOL     OW 7846   2.518   1.111   5.874
 2316SOL    HW1 7847   2.459   1.120   5.794
 2316SOL    HW2 7848   2.463   1.088   5.954
 2317SOL     OW 7849   6.692   6.561   4.020
 2317SOL    HW1 7850   6.674   6.525   4.111
 2317SOL    HW2 7851   6.726   6.488   3.961
 2318SOL     OW 7852   2.065   3.747   4.480
 2318SOL    HW1 7853   2.078   3.660   4.432
 2318SOL    HW2 7854   2.050   3.729   4.577
 2319SOL     OW 7855   3.513   5.130   4.756
 2319SOL    HW1 7856   3.564   5.046   4.740
 2319SOL    HW2 7857   3.477   5.164   4.670
 2320SOL     OW 7858   1.403   2.550   5.839
 2320SOL    HW1 7859   1.462   2.595   5.906
 2320SOL    HW2 7860   1.373   2.617   5.770
 2321SOL     OW 7861   2.647   5.373   6.135
 2321SOL    HW1 7862   2.700   5.458   6.130
 2321SOL    HW2 7863   2.693   5.302   6.082
 2322SOL     OW 7864   2.049   4.398   2.110
 2322SOL    HW1 7865   1.986   4.327   2.140
 2322SOL    HW2 7866   2.123   4.408   2.177
 2323SOL     OW 7867   3.347   5.033   2.049
 2323SOL    HW1 7868   3.384   4.946   2.015
 2323SOL    HW2 7869   3.248   5.034   2.035
 2324SOL     OW 7870   0.220   6.096   1.451
 2324SOL    HW1 7871   0.218   6.030   1.526
 2324SOL    HW2 7872   0.179   6.056   1.369
 2325SOL     OW 7873   0.058   4.904   1.711
 2325SOL    HW1 7874   0.001   4.838   1.759
 2325SOL    HW2 7875   0.003   4.984   1.688
 2326SOL     OW 7876   1.895   5.950   6.533
 2326SOL    HW1 7877   1.820   5.975   6.594
 2326SOL    HW2 7878   1.933   6.032   6.492
 2327SOL     OW 7879   0.352   0.992   3.236
 2327SOL    HW1 7880   0.391   1.040   3.314
 2327SOL    HW2 7881   0.417   0.992   3.160
 2328SOL     OW 7882   1.474   2.029   2.527
 2328SOL    HW1 7883   1.469   2.119   2.570
 2328SOL    HW2 7884   1.523   2.035   2.441
 2329SOL     OW 7885   1.181   4.186   4.638
 2329SOL    HW1 7886   1.144   4.278   4.649
 2329SOL    HW2 7887   1.120   4.132   4.580
 2330SOL     OW 7888   0.367   2.751   0.346
 2330SOL    HW1 7889   0.393   2.845   0.323
 2330SOL    HW2 7890   0.350   2.700   0.262
 2331SOL     OW 7891   2.886   5.336   6.614
 2331SOL    HW1 7892   2.936   5.420   6.594
 2331SOL    HW2 7893   2.801   5.359   6.662
 2332SOL     OW 7894   6.616   0.106   6.016
 2332SOL    HW1 7895   6.707   0.066   6.014
 2332SOL    HW2 7896   6.597   0.140   6.108
 2333SOL     OW 7897   0.026   4.849   3.063
 2333SOL    HW1 7898   0.028   4.814   3.157
 2333SOL    HW2 7899   6.951   4.878   3.040
 2334SOL     OW 7900   1.197   1.600   6.599
 2334SOL    HW1 7901   1.228   1.547   6.519
 2334SOL    HW2 7902   1.186   1.696   6.573
 2335SOL     OW 7903   5.889   0.590   4.039
 2335SOL    HW1 7904   5.867   0.555   3.948
 2335SOL    HW2 7905   5.983   0.623   4.040
 2336SOL     OW 7906   2.747   1.581   3.948
 2336SOL    HW1 7907   2.715   1.669   3.984
 2336SOL    HW2 7908   2.739   1.511   4.019
 2337SOL     OW 7909   4.377   1.216   1.792
 2337SOL    HW1 7910   4.321   1.236   1.872
 2337SOL    HW2 7911   4.378   1.117   1.776
 2338SOL     OW 7912   0.724   3.164   4.481
 2338SOL    HW1 7913   0.666   3.238   4.514
 2338SOL    HW2 7914   0.680   3.076   4.501
 2339SOL     OW 7915   2.944   3.159   3.209
 2339SOL    HW1 7916   2.907   3.252   3.221
 2339SOL    HW2 7917   3.004   3.137   3.286
 2340SOL     OW 7918   0.416   4.746   0.071
 2340SOL    HW1 7919   0.429   4.783   0.162
 2340SOL    HW2 7920   0.502   4.753   0.020
 2341SOL     OW 7921   3.081   5.084   2.011
 2341SOL    HW1 7922   3.049   5.007   2.067
 2341SOL    HW2 7923   3.002   5.132   1.972
 2342SOL     OW 7924   1.896   6.893   4.700
 2342SOL    HW1 7925   1.987   6.919   4.668
 2342SOL    HW2 7926   1.868   6.808   4.657
 2343SOL     OW 7927   2.153   5.590   2.783
 2343SOL    HW1 7928   2.095   5.619   2.707
 2343SOL    HW2 7929   2.118   5.504   2.821
 2344SOL     OW 7930   0.038   6.104   6.602
 2344SOL    HW1 7931   0.093   6.161   6.663
 2344SOL    HW2 7932   7.010   6.033   6.655
 2345SOL     OW 7933   2.860   5.351   4.728
 2345SOL    HW1 7934   2.894   5.359   4.822
 2345SOL    HW2 7935   2.784   5.415   4.715
 2346SOL     OW 7936   3.900   3.362   5.647
 2346SOL    HW1 7937   3.958   3.349   5.727
 2346SOL    HW2 7938   3.818   3.414   5.672
 2347SOL     OW 7939   2.186   1.772   1.566
 2347SOL    HW1 7940   2.237   1.775   1.479
 2347SOL    HW2 7941   2.205   1.685   1.612
 2348SOL     OW 7942   2.027   6.302   4.074
 2348SOL    HW1 7943   2.040   6.203   4.086
 2348SOL    HW2 7944   2.056   6.328   3.982
 2349SOL     OW 7945   0.853   4.495   6.212
 2349SOL    HW1 7946   0.846   4.559   6.289
 2349SOL    HW2 7947   0.788   4.520   6.141
 2350SOL     OW 7948   6.045   5.048   6.001
 2350SOL    HW1 7949   6.108   4.974   6.026
 2350SOL    HW2 7950   6.089   5.107   5.933
 2351SOL     OW 7951   3.458   5.329   4.088
 2351SOL    HW1 7952   3.487   5.277   4.008
 2351SOL    HW2 7953   3.534   5.386   4.119
 2352SOL     OW 7954   0.320   3.011   2.930
 2352SOL    HW1 7955   0.233   2.992   2.885
 2352SOL    HW2 7956   0.373   2.926   2.937
 2353SOL     OW 7957   3.689   4.937   4.652
 2353SOL    HW1 7958   3.750   4.897   4.719
 2353SOL    HW2 7959   3.720   4.913   4.560
 2354SOL     OW 7960   2.229   2.273   4.599
 2354SOL    HW1 7961   2.186   2.304   4.683
 2354SOL    HW2 7962   2.327   2.258   4.615
 2355SOL     OW 7963   2.277   6.893   5.959
 2355SOL    HW1 7964   2.346   6.956   5.925
 2355SOL    HW2 7965   2.320   6.823   6.016
 2356SOL     OW 7966   1.560   2.990   6.156
 2356SOL    HW1 7967   1.561   2.907   6.212
 2356SOL    HW2 7968   1.514   3.064   6.205
 2357SOL     OW 7969   4.132   1.126   2.159
 2357SOL    HW1 7970   4.204   1.163   2.100
 2357SOL    HW2 7971   4.088   1.201   2.208
 2358SOL     OW 7972   2.986   5.404   5.403
 2358SOL    HW1 7973   2.905   5.348   5.420
 2358SOL    HW2 7974   3.057   5.382   5.470
 2359SOL     OW 7975   0.393   0.683   6.032
 2359SOL    HW1 7976   0.368   0.611   6.097
 2359SOL    HW2 7977   0.470   0.652   5.976
 2360SOL     OW 7978   5.947   3.588   0.010
 2360SOL    HW1 7979   5.932   3.631   0.099
 2360SOL    HW2 7980   5.861   3.583   6.978
 2361SOL     OW 7981   2.628   0.709   6.703
 2361SOL    HW1 7982   2.627   0.808   6.690
 2361SOL    HW2 7983   2.701   0.684   6.766
 2362SOL     OW 7984   2.615   5.907   4.145
 2362SOL    HW1 7985   2.585   5.988   4.196
 2362SOL    HW2 7986   2.535   5.851   4.122
 2363SOL     OW 7987   3.627   2.095   4.585
 2363SOL    HW1 7988   3.617   1.997   4.601
 2363SOL    HW2 7989   3.651   2.140   4.671
 2364SOL     OW 7990   1.304   2.496   2.537
 2364SOL    HW1 7991   1.246   2.504   2.456
 2364SOL    HW2 7992   1.308   2.584   2.584
 2365SOL     OW 7993   6.649   2.247   6.691
 2365SOL    HW1 7994   6.574   2.281   6.747
 2365SOL    HW2 7995   6.699   2.325   6.653
 2366SOL     OW 7996   2.130   5.820   6.944
 2366SOL    HW1 7997   2.206   5.883   6.959
 2366SOL    HW2 7998   2.053   5.845   7.003
 2367SOL     OW 7999   2.144   3.479   1.122
 2367SOL    HW1 8000   2.101   3.517   1.204
 2367SOL    HW2 8001   2.085   3.408   1.083
 2368SOL     OW 8002   5.240   6.693   4.674
 2368SOL    HW1 8003   5.203   6.616   4.726
 2368SOL    HW2 8004   5.278   6.760   4.737
 2369SOL     OW 8005   1.626   0.078   4.552
 2369SOL    HW1 8006   1.541   0.071   4.500
 2369SOL    HW2 8007   1.670   7.006   4.556
 2370SOL     OW 8008   5.524   3.394   0.005
 2370SOL    HW1 8009   5.568   3.477   6.989
 2370SOL    HW2 8010   5.438   3.379   6.974
 2371SOL     OW 8011   1.957   0.241   1.561
 2371SOL    HW1 8012   1.883   0.179   1.537
 2371SOL    HW2 8013   2.024   0.193   1.618
 2372SOL     OW 8014   6.402   2.673   2.197
 2372SOL    HW1 8015   6.472   2.732   2.238
 2372SOL    HW2 8016   6.345   2.726   2.135
 2373SOL     OW 8017   1.005   3.317   5.983
 2373SOL    HW1 8018   1.079   3.286   6.042
 2373SOL    HW2 8019   1.041   3.340   5.893
 2374SOL     OW 8020   6.082   1.529   4.308
 2374SOL    HW1 8021   6.076   1.510   4.210
 2374SOL    HW2 8022   6.089   1.443   4.359
 2375SOL     OW 8023   3.325   6.135   5.358
 2375SOL    HW1 8024   3.364   6.167   5.445
 2375SOL    HW2 8025   3.260   6.062   5.376
 2376SOL     OW 8026   6.909   3.095   4.192
 2376SOL    HW1 8027   6.849   3.090   4.113
 2376SOL    HW2 8028   6.875   3.164   4.256
 2377SOL     OW 8029   3.467   3.890   3.738
 2377SOL    HW1 8030   3.563   3.862   3.742
 2377SOL    HW2 8031   3.409   3.812   3.760
 2378SOL     OW 8032   5.071   2.199   0.089
 2378SOL    HW1 8033   5.102   2.260   0.016
 2378SOL    HW2 8034   5.138   2.200   0.164
 2379SOL     OW 8035   6.838   0.797   0.552
 2379SOL    HW1 8036   6.770   0.871   0.562
 2379SOL    HW2 8037   6.873   0.797   0.458
 2380SOL     OW 8038   0.114   2.126   6.857
 2380SOL    HW1 8039   0.152   2.154   6.945
 2380SOL    HW2 8040   0.188   2.103   6.794
 2381SOL     OW 8041   2.407   5.721   4.106
 2381SOL    HW1 8042   2.395   5.717   4.007
 2381SOL    HW2 8043   2.368   5.639   4.147
 2382SOL     OW 8044   1.802   3.732   4.315
 2382SOL    HW1 8045   1.740   3.783   4.375
 2382SOL    HW2 8046   1.892   3.724   4.359
 2383SOL     OW 8047   5.493   6.630   0.725
 2383SOL    HW1 8048   5.475   6.725   0.703
 2383SOL    HW2 8049   5.440   6.571   0.664
 2384SOL     OW 8050   5.551   0.957   2.756
 2384SOL    HW1 8051   5.600   1.044   2.756
 2384SOL    HW2 8052   5.609   0.886   2.797
 2385SOL     OW 8053   0.380   0.951   0.502
 2385SOL    HW1 8054   0.290   0.993   0.514
 2385SOL    HW2 8055   0.438   0.977   0.579
 2386SOL     OW 8056   5.308   5.761   4.904
 2386SOL    HW1 8057   5.293   5.750   4.805
 2386SOL    HW2 8058   5.220   5.779   4.949
 2387SOL     OW 8059   2.076   1.999   4.124
 2387SOL    HW1 8060   1.993   1.950   4.152
 2387SOL    HW2 8061   2.051   2.082   4.076
 2388SOL     OW 8062   6.795   2.205   3.836
 2388SOL    HW1 8063   6.707   2.158   3.834
 2388SOL    HW2 8064   6.828   2.211   3.930
 2389SOL     OW 8065   4.542   4.397   3.380
 2389SOL    HW1 8066   4.561   4.317   3.323
 2389SOL    HW2 8067   4.520   4.366   3.473
 2390SOL     OW 8068   3.510   3.139   4.021
 2390SOL    HW1 8069   3.610   3.132   4.016
 2390SOL    HW2 8070   3.472   3.053   4.052
 2391SOL     OW 8071   5.152   3.919   5.926
 2391SOL    HW1 8072   5.076   3.875   5.974
 2391SOL    HW2 8073   5.178   4.003   5.973
 2392SOL     OW 8074   3.336   6.237   5.633
 2392SOL    HW1 8075   3.279   6.319   5.626
 2392SOL    HW2 8076   3.341   6.209   5.729
 2393SOL     OW 8077   4.999   3.772   6.105
 2393SOL    HW1 8078   5.076   3.763   6.168
 2393SOL    HW2 8079   4.919   3.805   6.155
 2394SOL     OW 8080   0.981   3.853   4.959
 2394SOL    HW1 8081   1.054   3.884   4.898
 2394SOL    HW2 8082   1.021   3.806   5.038
 2395SOL     OW 8083   4.968   0.055   5.826
 2395SOL    HW1 8084   5.037   0.068   5.897
 2395SOL    HW2 8085   4.917   0.140   5.813
 2396SOL     OW 8086   3.757   4.903   0.881
 2396SOL    HW1 8087   3.822   4.862   0.945
 2396SOL    HW2 8088   3.669   4.855   0.888
 2397SOL     OW 8089   0.085   3.955   5.477
 2397SOL    HW1 8090   0.130   3.906   5.552
 2397SOL    HW2 8091   0.130   3.931   5.391
 2398SOL     OW 8092   4.668   4.211   6.528
 2398SOL    HW1 8093   4.745   4.217   6.464
 2398SOL    HW2 8094   4.596   4.275   6.500
 2399SOL     OW 8095   4.793   0.740   1.062
 2399SOL    HW1 8096   4.777   0.784   0.973
 2399SOL    HW2 8097   4.777   0.806   1.135
 2400SOL     OW 8098   2.954   4.430   1.149
 2400SOL    HW1 8099   2.974   4.377   1.231
 2400SOL    HW2 8100   2.869   4.481   1.162
 2401SOL     OW 8101   5.442   6.148   0.286
 2401SOL    HW1 8102   5.456   6.092   0.368
 2401SOL    HW2 8103   5.405   6.092   0.213
 2402SOL     OW 8104   0.454   0.364   3.972
 2402SOL    HW1 8105   0.468   0.369   3.873
 2402SOL    HW2 8106   0.474   0.271   4.004
 2403SOL     OW 8107   2.061   1.974   6.108
 2403SOL    HW1 8108   2.039   1.887   6.064
 2403SOL    HW2 8109   1.986   2.039   6.094
 2404SOL     OW 8110   2.817   0.635   1.153
 2404SOL    HW1 8111   2.736   0.681   1.117
 2404SOL    HW2 8112   2.885   0.703   1.179
 2405SOL     OW 8113   3.533   3.501   2.316
 2405SOL    HW1 8114   3.601   3.552   2.369
 2405SOL    HW2 8115   3.466   3.564   2.278
 2406SOL     OW 8116   3.496   0.161   1.383
 2406SOL    HW1 8117   3.550   0.237   1.348
 2406SOL    HW2 8118   3.486   0.092   1.311
 2407SOL     OW 8119   6.022   1.671   3.021
 2407SOL    HW1 8120   6.002   1.587   2.970
 2407SOL    HW2 8121   6.103   1.657   3.078
 2408SOL     OW 8122   4.579   4.601   2.511
 2408SOL    HW1 8123   4.566   4.569   2.417
 2408SOL    HW2 8124   4.565   4.700   2.515
 2409SOL     OW 8125   2.263   4.674   2.209
 2409SOL    HW1 8126   2.340   4.625   2.250
 2409SOL    HW2 8127   2.297   4.737   2.139
 2410SOL     OW 8128   4.025   3.165   5.265
 2410SOL    HW1 8129   3.998   3.174   5.169
 2410SOL    HW2 8130   4.125   3.173   5.272
 2411SOL     OW 8131   4.987   6.059   4.323
 2411SOL    HW1 8132   4.991   5.985   4.256
 2411SOL    HW2 8133   5.011   6.146   4.280
 2412SOL     OW 8134   5.957   4.489   1.564
 2412SOL    HW1 8135   5.917   4.472   1.654
 2412SOL    HW2 8136   5.933   4.414   1.502
 2413SOL     OW 8137   6.684   1.018   0.941
 2413SOL    HW1 8138   6.591   1.046   0.967
 2413SOL    HW2 8139   6.695   0.920   0.959
 2414SOL     OW 8140   4.762   3.946   3.192
 2414SOL    HW1 8141   4.795   3.969   3.100
 2414SOL    HW2 8142   4.827   3.884   3.236
 2415SOL     OW 8143   6.269   1.687   3.159
 2415SOL    HW1 8144   6.335   1.739   3.104
 2415SOL    HW2 8145   6.311   1.602   3.190
 2416SOL     OW 8146   4.600   2.216   5.108
 2416SOL    HW1 8147   4.698   2.218   5.086
 2416SOL    HW2 8148   4.566   2.122   5.098
 2417SOL     OW 8149   3.626   3.913   4.790
 2417SOL    HW1 8150   3.706   3.949   4.742
 2417SOL    HW2 8151   3.654   3.875   4.878
 2418SOL     OW 8152   4.029   3.135   4.434
 2418SOL    HW1 8153   4.063   3.052   4.390
 2418SOL    HW2 8154   4.000   3.200   4.364
 2419SOL     OW 8155   0.317   6.695   4.000
 2419SOL    HW1 8156   0.290   6.727   3.909
 2419SOL    HW2 8157   0.235   6.677   4.054
 2420SOL     OW 8158   2.872   0.306   3.056
 2420SOL    HW1 8159   2.833   0.274   2.970
 2420SOL    HW2 8160   2.802   0.305   3.127
 2421SOL     OW 8161   2.233   2.345   4.886
 2421SOL    HW1 8162   2.317   2.390   4.917
 2421SOL    HW2 8163   2.161   2.414   4.873
 2422SOL     OW 8164   5.018   1.904   0.410
 2422SOL    HW1 8165   4.924   1.908   0.377
 2422SOL    HW2 8166   5.075   1.855   0.344
 2423SOL     OW 8167   1.953   6.264   2.099
 2423SOL    HW1 8168   1.978   6.174   2.063
 2423SOL    HW2 8169   1.935   6.326   2.022
 2424SOL     OW 8170   6.538   6.831   0.113
 2424SOL    HW1 8171   6.564   6.740   0.148
 2424SOL    HW2 8172   6.520   6.892   0.190
 2425SOL     OW 8173   5.872   0.472   3.805
 2425SOL    HW1 8174   5.922   0.444   3.723
 2425SOL    HW2 8175   5.778   0.439   3.799
 2426SOL     OW 8176   1.408   5.344   5.456
 2426SOL    HW1 8177   1.477   5.374   5.390
 2426SOL    HW2 8178   1.444   5.268   5.510
 2427SOL     OW 8179   5.655   5.879   5.799
 2427SOL    HW1 8180   5.728   5.927   5.846
 2427SOL    HW2 8181   5.637   5.924   5.711
 2428SOL     OW 8182   0.344   0.722   1.981
 2428SOL    HW1 8183   0.387   0.670   1.907
 2428SOL    HW2 8184   0.304   0.806   1.943
 2429SOL     OW 8185   5.440   5.803   1.862
 2429SOL    HW1 8186   5.444   5.810   1.762
 2429SOL    HW2 8187   5.480   5.885   1.902
 2430SOL     OW 8188   6.093   1.166   1.891
 2430SOL    HW1 8189   6.118   1.241   1.829
 2430SOL    HW2 8190   5.996   1.142   1.877
 2431SOL     OW 8191   4.412   0.992   2.401
 2431SOL    HW1 8192   4.403   0.925   2.474
 2431SOL    HW2 8193   4.428   1.083   2.440
 2432SOL     OW 8194   4.262   6.793   2.006
 2432SOL    HW1 8195   4.300   6.870   2.057
 2432SOL    HW2 8196   4.190   6.750   2.061
 2433SOL     OW 8197   4.405   1.768   0.258
 2433SOL    HW1 8198   4.451   1.774   0.346
 2433SOL    HW2 8199   4.361   1.856   0.237
 2434SOL     OW 8200   3.966   1.115   5.792
 2434SOL    HW1 8201   3.973   1.147   5.698
 2434SOL    HW2 8202   3.995   1.019   5.797
 2435SOL     OW 8203   5.128   5.656   5.137
 2435SOL    HW1 8204   5.091   5.621   5.223
 2435SOL    HW2 8205   5.228   5.658   5.142
 2436SOL     OW 8206   1.718   5.975   6.209
 2436SOL    HW1 8207   1.779   5.909   6.253
 2436SOL    HW2 8208   1.772   6.036   6.151
 2437SOL     OW 8209   5.802   6.724   6.050
 2437SOL    HW1 8210   5.828   6.688   5.961
 2437SOL    HW2 8211   5.775   6.648   6.110
 2438SOL     OW 8212   3.185   2.393   0.684
 2438SOL    HW1 8213   3.222   2.310   0.727
 2438SOL    HW2 8214   3.253   2.466   0.691
 2439SOL     OW 8215   0.158   4.065   6.335
 2439SOL    HW1 8216   0.119   4.037   6.248
 2439SOL    HW2 8217   0.117   4.011   6.409
 2440SOL     OW 8218   5.060   5.611   5.409
 2440SOL    HW1 8219   5.089   5.700   5.444
 2440SOL    HW2 8220   5.008   5.562   5.480
 2441SOL     OW 8221   6.924   2.261   0.633
 2441SOL    HW1 8222   6.931   2.352   0.675
 2441SOL    HW2 8223   6.830   2.228   0.641
 2442SOL     OW 8224   1.044   3.676   5.260
 2442SOL    HW1 8225   1.102   3.716   5.188
 2442SOL    HW2 8226   0.977   3.615   5.218
 2443SOL     OW 8227   2.923   4.110   6.420
 2443SOL    HW1 8228   2.861   4.125   6.343
 2443SOL    HW2 8229   2.980   4.030   6.402
 2444SOL     OW 8230   2.252   4.459   5.807
 2444SOL    HW1 8231   2.293   4.384   5.755
 2444SOL    HW2 8232   2.214   4.423   5.892
 2445SOL     OW 8233   0.049   1.266   0.747
 2445SOL    HW1 8234   0.014   1.197   0.811
 2445SOL    HW2 8235   0.106   1.331   0.797
 2446SOL     OW 8236   5.748   4.070   4.674
 2446SOL    HW1 8237   5.745   4.128   4.756
 2446SOL    HW2 8238   5.785   3.980   4.698
 2447SOL     OW 8239   1.802   2.121   0.212
 2447SOL    HW1 8240   1.722   2.163   0.255
 2447SOL    HW2 8241   1.774   2.078   0.126
 2448SOL     OW 8242   0.549   0.257   4.636
 2448SOL    HW1 8243   0.460   0.212   4.631
 2448SOL    HW2 8244   0.563   0.313   4.555
 2449SOL     OW 8245   0.288   3.768   0.064
 2449SOL    HW1 8246   0.278   3.862   0.030
 2449SOL    HW2 8247   0.211   3.746   0.124
 2450SOL     OW 8248   2.751   4.731   2.820
 2450SOL    HW1 8249   2.740   4.722   2.721
 2450SOL    HW2 8250   2.676   4.685   2.866
 2451SOL     OW 8251   2.139   6.476   3.836
 2451SOL    HW1 8252   2.065   6.533   3.799
 2451SOL    HW2 8253   2.188   6.432   3.761
 2452SOL     OW 8254   0.937   3.068   2.700
 2452SOL    HW1 8255   0.963   3.017   2.782
 2452SOL    HW2 8256   0.843   3.100   2.709
 2453SOL     OW 8257   6.572   4.877   1.983
 2453SOL    HW1 8258   6.656   4.844   2.027
 2453SOL    HW2 8259   6.590   4.894   1.886
 2454SOL     OW 8260   3.348   0.368   1.868
 2454SOL    HW1 8261   3.385   0.324   1.787
 2454SOL    HW2 8262   3.259   0.409   1.847
 2455SOL     OW 8263   5.188   5.788   0.739
 2455SOL    HW1 8264   5.116   5.719   0.744
 2455SOL    HW2 8265   5.218   5.812   0.831
 2456SOL     OW 8266   4.887   6.337   1.896
 2456SOL    HW1 8267   4.971   6.282   1.904
 2456SOL    HW2 8268   4.808   6.277   1.894
 2457SOL     OW 8269   5.361   0.143   1.331
 2457SOL    HW1 8270   5.310   0.229   1.324
 2457SOL    HW2 8271   5.344   0.087   1.251
 2458SOL     OW 8272   1.806   5.606   2.620
 2458SOL    HW1 8273   1.835   5.510   2.628
 2458SOL    HW2 8274   1.707   5.610   2.607
 2459SOL     OW 8275   2.343   0.746   0.643
 2459SOL    HW1 8276   2.336   0.647   0.653
 2459SOL    HW2 8277   2.409   0.782   0.709
 2460SOL     OW 8278   3.214   5.831   1.664
 2460SOL    HW1 8279   3.242   5.735   1.662
 2460SOL    HW2 8280   3.155   5.851   1.586
 2461SOL     OW 8281   5.616   0.512   1.888
 2461SOL    HW1 8282   5.518   0.516   1.908
 2461SOL    HW2 8283   5.631   0.462   1.802
 2462SOL     OW 8284   2.348   5.318   6.525
 2462SOL    HW1 8285   2.269   5.314   6.463
 2462SOL    HW2 8286   2.323   5.277   6.613
 2463SOL     OW 8287   6.341   1.958   3.390
 2463SOL    HW1 8288   6.296   1.870   3.406
 2463SOL    HW2 8289   6.440   1.943   3.382
 2464SOL     OW 8290   0.961   3.182   1.119
 2464SOL    HW1 8291   0.894   3.117   1.155
 2464SOL    HW2 8292   0.940   3.274   1.153
 2465SOL     OW 8293   0.044   5.940   3.152
 2465SOL    HW1 8294   0.033   6.020   3.092
 2465SOL    HW2 8295   0.096   5.967   3.233
 2466SOL     OW 8296   3.862   1.728   2.265
 2466SOL    HW1 8297   3.768   1.754   2.287
 2466SOL    HW2 8298   3.894   1.779   2.186
 2467SOL     OW 8299   6.823   0.877   6.036
 2467SOL    HW1 8300   6.867   0.853   5.950
 2467SOL    HW2 8301   6.768   0.800   6.069
 2468SOL     OW 8302   0.075   5.603   0.996
 2468SOL    HW1 8303   0.106   5.669   0.927
 2468SOL    HW2 8304   6.996   5.618   1.015
 2469SOL     OW 8305   2.454   3.209   5.745
 2469SOL    HW1 8306   2.402   3.276   5.798
 2469SOL    HW2 8307   2.418   3.206   5.651
 2470SOL     OW 8308   4.968   3.238   6.758
 2470SOL    HW1 8309   4.951   3.140   6.756
 2470SOL    HW2 8310   5.057   3.258   6.716
 2471SOL     OW 8311   0.716   6.938   2.984
 2471SOL    HW1 8312   0.750   6.928   3.077
 2471SOL    HW2 8313   0.764   6.874   2.924
 2472SOL     OW 8314   5.244   2.199   4.274
 2472SOL    HW1 8315   5.343   2.202   4.283
 2472SOL    HW2 8316   5.219   2.210   4.178
 2473SOL     OW 8317   0.601   6.098   4.911
 2473SOL    HW1 8318   0.557   6.079   4.823
 2473SOL    HW2 8319   0.692   6.057   4.912
 2474SOL     OW 8320   6.754   4.304   5.506
 2474SOL    HW1 8321   6.743   4.389   5.455
 2474SOL    HW2 8322   6.844   4.265   5.485
 2475SOL     OW 8323   4.754   2.440   0.032
 2475SOL    HW1 8324   4.786   2.529   7.016
 2475SOL    HW2 8325   4.694   2.398   6.983
 2476SOL     OW 8326   1.126   1.985   3.917
 2476SOL    HW1 8327   1.103   2.067   3.969
 2476SOL    HW2 8328   1.176   1.921   3.975
 2477SOL     OW 8329   4.712   5.251   1.118
 2477SOL    HW1 8330   4.760   5.320   1.064
 2477SOL    HW2 8331   4.764   5.233   1.202
 2478SOL     OW 8332   6.247   0.033   2.852
 2478SOL    HW1 8333   6.301   6.979   2.808
 2478SOL    HW2 8334   6.213   7.017   2.940
 2479SOL     OW 8335   0.314   3.084   0.500
 2479SOL    HW1 8336   0.354   3.076   0.591
 2479SOL    HW2 8337   0.216   3.102   0.508
 2480SOL     OW 8338   0.585   3.400   1.211
 2480SOL    HW1 8339   0.509   3.413   1.147
 2480SOL    HW2 8340   0.654   3.471   1.196
 2481SOL     OW 8341   4.429   4.998   2.051
 2481SOL    HW1 8342   4.505   5.059   2.030
 2481SOL    HW2 8343   4.360   5.005   1.979
 2482SOL     OW 8344   4.875   2.511   5.025
 2482SOL    HW1 8345   4.913   2.601   5.045
 2482SOL    HW2 8346   4.776   2.517   5.019
 2483SOL     OW 8347   0.996   2.066   6.590
 2483SOL    HW1 8348   1.011   2.070   6.689
 2483SOL    HW2 8349   0.902   2.038   6.572
 2484SOL     OW 8350   3.340   1.968   6.906
 2484SOL    HW1 8351   3.282   1.888   6.897
 2484SOL    HW2 8352   3.291   2.039   6.956
 2485SOL     OW 8353   0.366   5.689   2.052
 2485SOL    HW1 8354   0.434   5.619   2.073
 2485SOL    HW2 8355   0.288   5.646   2.005
 2486SOL     OW 8356   1.633   5.370   3.141
 2486SOL    HW1 8357   1.562   5.413   3.197
 2486SOL    HW2 8358   1.698   5.322   3.201
 2487SOL     OW 8359   3.673   0.594   0.970
 2487SOL    HW1 8360   3.595   0.595   0.907
 2487SOL    HW2 8361   3.640   0.604   1.064
 2488SOL     OW 8362   3.038   5.913   0.904
 2488SOL    HW1 8363   3.126   5.947   0.871
 2488SOL    HW2 8364   2.964   5.951   0.849
 2489SOL     OW 8365   0.842   5.718   4.414
 2489SOL    HW1 8366   0.892   5.730   4.499
 2489SOL    HW2 8367   0.791   5.802   4.393
 2490SOL     OW 8368   5.209   3.238   1.323
 2490SOL    HW1 8369   5.134   3.186   1.281
 2490SOL    HW2 8370   5.171   3.303   1.389
 2491SOL     OW 8371   2.519   5.083   1.949
 2491SOL    HW1 8372   2.597   5.119   1.999
 2491SOL    HW2 8373   2.551   5.023   1.875
 2492SOL     OW 8374   4.470   3.386   6.401
 2492SOL    HW1 8375   4.540   3.350   6.463
 2492SOL    HW2 8376   4.446   3.315   6.335
 2493SOL     OW 8377   6.330   1.677   3.529
 2493SOL    HW1 8378   6.249   1.686   3.587
 2493SOL    HW2 8379   6.346   1.581   3.508
 2494SOL     OW 8380   4.886   3.405   2.279
 2494SOL    HW1 8381   4.835   3.330   2.237
 2494SOL    HW2 8382   4.901   3.477   2.212
 2495SOL     OW 8383   5.693   0.789   4.849
 2495SOL    HW1 8384   5.600   0.786   4.886
 2495SOL    HW2 8385   5.692   0.762   4.753
 2496SOL     OW 8386   1.465   6.389   0.299
 2496SOL    HW1 8387   1.538   6.339   0.346
 2496SOL    HW2 8388   1.381   6.335   0.302
 2497SOL     OW 8389   5.972   1.910   6.133
 2497SOL    HW1 8390   5.887   1.962   6.126
 2497SOL    HW2 8391   6.008   1.919   6.226
 2498SOL     OW 8392   1.991   3.480   5.045
 2498SOL    HW1 8393   2.051   3.401   5.058
 2498SOL    HW2 8394   2.043   3.556   5.007
 2499SOL     OW 8395   6.060   0.185   5.070
 2499SOL    HW1 8396   5.970   0.205   5.031
 2499SOL    HW2 8397   6.064   0.221   5.163
 2500SOL     OW 8398   4.360   3.333   6.746
 2500SOL    HW1 8399   4.272   3.377   6.762
 2500SOL    HW2 8400   4.348   3.256   6.683
 2501SOL     OW 8401   0.176   3.977   6.939
 2501SOL    HW1 8402   0.164   4.038   6.861
 2501SOL    HW2 8403   0.123   4.012   7.017
 2502SOL     OW 8404   1.887   6.196   3.331
 2502SOL    HW1 8405   1.900   6.113   3.276
 2502SOL    HW2 8406   1.874   6.274   3.271
 2503SOL     OW 8407   4.499   4.935   5.061
 2503SOL    HW1 8408   4.475   4.925   5.157
 2503SOL    HW2 8409   4.597   4.918   5.049
 2504SOL     OW 8410   1.501   4.227   4.245
 2504SOL    HW1 8411   1.405   4.219   4.273
 2504SOL    HW2 8412   1.533   4.320   4.261
 2505SOL     OW 8413   4.723   5.611   4.145
 2505SOL    HW1 8414   4.742   5.624   4.047
 2505SOL    HW2 8415   4.747   5.518   4.171
 2506SOL     OW 8416   0.246   2.228   6.602
 2506SOL    HW1 8417   0.277   2.303   6.662
 2506SOL    HW2 8418   0.316   2.209   6.534
 2507SOL     OW 8419   6.827   5.876   0.387
 2507SOL    HW1 8420   6.754   5.830   0.336
 2507SOL    HW2 8421   6.788   5.951   0.440
 2508SOL     OW 8422   2.466   2.597   2.520
 2508SOL    HW1 8423   2.442   2.654   2.598
 2508SOL    HW2 8424   2.533   2.528   2.548
 2509SOL     OW 8425   4.954   2.817   3.534
 2509SOL    HW1 8426   5.017   2.873   3.480
 2509SOL    HW2 8427   4.974   2.830   3.632
 2510SOL     OW 8428   4.004   5.711   0.764
 2510SOL    HW1 8429   3.930   5.750   0.708
 2510SOL    HW2 8430   4.089   5.712   0.712
 2511SOL     OW 8431   1.874   0.177   4.735
 2511SOL    HW1 8432   1.819   0.096   4.716
 2511SOL    HW2 8433   1.906   0.217   4.649
 2512SOL     OW 8434   4.945   3.192   4.788
 2512SOL    HW1 8435   5.031   3.228   4.752
 2512SOL    HW2 8436   4.907   3.255   4.856
 2513SOL     OW 8437   0.609   3.397   0.474
 2513SOL    HW1 8438   0.581   3.434   0.385
 2513SOL    HW2 8439   0.677   3.458   0.515
 2514SOL     OW 8440   1.810   1.135   3.618
 2514SOL    HW1 8441   1.871   1.061   3.645
 2514SOL    HW2 8442   1.862   1.210   3.578
 2515SOL     OW 8443   0.615   5.237   0.391
 2515SOL    HW1 8444   0.562   5.275   0.467
 2515SOL    HW2 8445   0.560   5.167   0.345
 2516SOL     OW 8446   5.177   6.173   3.973
 2516SOL    HW1 8447   5.123   6.109   3.920
 2516SOL    HW2 8448   5.119   6.248   4.005
 2517SOL     OW 8449   2.168   4.863   0.192
 2517SOL    HW1 8450   2.212   4.858   0.103
 2517SOL    HW2 8451   2.077   4.821   0.187
 2518SOL     OW 8452   2.390   2.277   6.715
 2518SOL    HW1 8453   2.451   2.199   6.728
 2518SOL    HW2 8454   2.340   2.296   6.800
 2519SOL     OW 8455   4.805   3.978   4.700
 2519SOL    HW1 8456   4.800   3.941   4.793
 2519SOL    HW2 8457   4.878   4.045   4.694
 2520SOL     OW 8458   2.062   4.608   2.408
 2520SOL    HW1 8459   2.088   4.657   2.325
 2520SOL    HW2 8460   2.114   4.523   2.414
 2521SOL     OW 8461   5.355   6.601   5.115
 2521SOL    HW1 8462   5.338   6.699   5.130
 2521SOL    HW2 8463   5.450   6.588   5.087
 2522SOL     OW 8464   1.371   2.816   4.677
 2522SOL    HW1 8465   1.356   2.869   4.594
 2522SOL    HW2 8466   1.468   2.820   4.701
 2523SOL     OW 8467   0.646   3.033   6.603
 2523SOL    HW1 8468   0.739   3.025   6.640
 2523SOL    HW2 8469   0.622   3.129   6.593
 2524SOL     OW 8470   0.986   6.934   4.805
 2524SOL    HW1 8471   0.949   0.005   4.778
 2524SOL    HW2 8472   1.052   6.947   4.879
 2525SOL     OW 8473   1.330   3.592   3.115
 2525SOL    HW1 8474   1.358   3.514   3.171
 2525SOL    HW2 8475   1.320   3.562   3.020
 2526SOL     OW 8476   6.492   1.066   5.278
 2526SOL    HW1 8477   6.464   0.997   5.211
 2526SOL    HW2 8478   6.465   1.036   5.369
 2527SOL     OW 8479   5.865   6.526   4.075
 2527SOL    HW1 8480   5.899   6.491   4.163
 2527SOL    HW2 8481   5.790   6.590   4.093
 2528SOL     OW 8482   6.368   5.777   0.223
 2528SOL    HW1 8483   6.312   5.790   0.141
 2528SOL    HW2 8484   6.317   5.722   0.289
 2529SOL     OW 8485   4.967   3.771   4.619
 2529SOL    HW1 8486   4.908   3.843   4.654
 2529SOL    HW2 8487   4.964   3.692   4.680
 2530SOL     OW 8488   0.221   0.960   4.361
 2530SOL    HW1 8489   0.182   1.052   4.358
 2530SOL    HW2 8490   0.279   0.946   4.281
 2531SOL     OW 8491   4.380   1.748   6.276
 2531SOL    HW1 8492   4.340   1.664   6.239
 2531SOL    HW2 8493   4.308   1.803   6.319
 2532SOL     OW 8494   1.466   4.727   6.386
 2532SOL    HW1 8495   1.451   4.685   6.476
 2532SOL    HW2 8496   1.421   4.673   6.316
 2533SOL     OW 8497   6.063   6.549   5.676
 2533SOL    HW1 8498   6.105   6.519   5.590
 2533SOL    HW2 8499   6.123   6.616   5.720
 2534SOL     OW 8500   0.832   2.232   3.982
 2534SOL    HW1 8501   0.800   2.250   4.075
 2534SOL    HW2 8502   0.920   2.278   3.968
 2535SOL     OW 8503   2.052   0.938   2.918
 2535SOL    HW1 8504   1.970   0.992   2.900
 2535SOL    HW2 8505   2.037   0.844   2.886
 2536SOL     OW 8506   5.783   1.038   4.114
 2536SOL    HW1 8507   5.715   1.054   4.042
 2536SOL    HW2 8508   5.770   1.105   4.187
 2537SOL     OW 8509   4.451   5.306   1.223
 2537SOL    HW1 8510   4.540   5.286   1.183
 2537SOL    HW2 8511   4.432   5.404   1.214
 2538SOL     OW 8512   2.457   4.671   5.011
 2538SOL    HW1 8513   2.484   4.709   5.100
 2538SOL    HW2 8514   2.359   4.649   5.013
 2539SOL     OW 8515   2.999   0.065   5.103
 2539SOL    HW1 8516   3.063   0.088   5.177
 2539SOL    HW2 8517   2.935   7.013   5.135
 2540SOL     OW 8518   5.868   2.228   2.306
 2540SOL    HW1 8519   5.895   2.134   2.284
 2540SOL    HW2 8520   5.949   2.280   2.332
 2541SOL     OW 8521   0.925   6.321   6.049
 2541SOL    HW1 8522   0.940   6.317   5.951
 2541SOL    HW2 8523   0.903   6.415   6.076
 2542SOL     OW 8524   3.851   2.119   4.091
 2542SOL    HW1 8525   3.809   2.137   4.180
 2542SOL    HW2 8526   3.950   2.109   4.102
 2543SOL     OW 8527   0.592   2.010   4.192
 2543SOL    HW1 8528   0.505   2.049   4.223
 2543SOL    HW2 8529   0.583   1.978   4.098
 2544SOL     OW 8530   6.206   5.878   2.065
 2544SOL    HW1 8531   6.198   5.801   2.129
 2544SOL    HW2 8532   6.247   5.845   1.980
 2545SOL     OW 8533   0.059   1.797   1.451
 2545SOL    HW1 8534   6.982   1.801   1.479
 2545SOL    HW2 8535   0.107   1.879   1.481
 2546SOL     OW 8536   0.009   4.334   2.763
 2546SOL    HW1 8537   0.045   4.424   2.787
 2546SOL    HW2 8538   7.004   4.284   2.846
 2547SOL     OW 8539   5.885   3.360   1.074
 2547SOL    HW1 8540   5.952   3.411   1.020
 2547SOL    HW2 8541   5.859   3.413   1.154
 2548SOL     OW 8542   0.041   6.513   5.470
 2548SOL    HW1 8543   0.048   6.466   5.558
 2548SOL    HW2 8544   0.060   6.610   5.482
 2549SOL     OW 8545   2.494   2.317   0.578
 2549SOL    HW1 8546   2.395   2.308   0.594
 2549SOL    HW2 8547   2.543   2.289   0.661
 2550SOL     OW 8548   4.148   6.761   6.114
 2550SOL    HW1 8549   4.131   6.760   6.213
 2550SOL    HW2 8550   4.069   6.722   6.067
 2551SOL     OW 8551   3.634   5.116   0.314
 2551SOL    HW1 8552   3.694   5.196   0.304
 2551SOL    HW2 8553   3.652   5.072   0.401
 2552SOL     OW 8554   2.422   6.200   1.010
 2552SOL    HW1 8555   2.375   6.124   0.964
 2552SOL    HW2 8556   2.376   6.220   1.096
 2553SOL     OW 8557   4.677   1.270   6.770
 2553SOL    HW1 8558   4.757   1.327   6.789
 2553SOL    HW2 8559   4.669   1.256   6.671
 2554SOL     OW 8560   1.629   6.022   1.552
 2554SOL    HW1 8561   1.690   6.026   1.473
 2554SOL    HW2 8562   1.641   6.104   1.608
 2555SOL     OW 8563   5.422   6.381   4.948
 2555SOL    HW1 8564   5.371   6.467   4.949
 2555SOL    HW2 8565   5.357   6.305   4.939
 2556SOL     OW 8566   4.075   0.550   0.796
 2556SOL    HW1 8567   4.174   0.551   0.811
 2556SOL    HW2 8568   4.028   0.579   0.880
 2557SOL     OW 8569   3.240   0.192   6.897
 2557SOL    HW1 8570   3.263   0.245   6.979
 2557SOL    HW2 8571   3.199   0.105   6.923
 2558SOL     OW 8572   5.491   3.777   6.345
 2558SOL    HW1 8573   5.393   3.794   6.334
 2558SOL    HW2 8574   5.533   3.761   6.256
 2559SOL     OW 8575   1.052   4.455   4.986
 2559SOL    HW1 8576   0.967   4.489   5.025
 2559SOL    HW2 8577   1.086   4.521   4.919
 2560SOL     OW 8578   5.180   2.291   3.041
 2560SOL    HW1 8579   5.253   2.359   3.039
 2560SOL    HW2 8580   5.092   2.336   3.032
 2561SOL     OW 8581   3.467   0.381   4.243
 2561SOL    HW1 8582   3.481   0.402   4.340
 2561SOL    HW2 8583   3.534   0.431   4.188
 2562SOL     OW 8584   4.004   6.733   3.559
 2562SOL    HW1 8585   4.103   6.738   3.545
 2562SOL    HW2 8586   3.957   6.772   3.480
 2563SOL     OW 8587   3.752   1.244   0.294
 2563SOL    HW1 8588   3.772   1.341   0.283
 2563SOL    HW2 8589   3.836   1.191   0.285
 2564SOL     OW 8590   2.101   1.615   0.708
 2564SOL    HW1 8591   2.039   1.537   0.712
 2564SOL    HW2 8592   2.169   1.607   0.780
 2565SOL     OW 8593   1.434   2.037   0.019
 2565SOL    HW1 8594   1.425   2.118   0.077
 2565SOL    HW2 8595   1.526   2.034   6.998
 2566SOL     OW 8596   2.560   0.725   1.073
 2566SOL    HW1 8597   2.466   0.693   1.068
 2566SOL    HW2 8598   2.586   0.770   0.987
 2567SOL     OW 8599   1.951   0.428   0.349
 2567SOL    HW1 8600   1.878   0.446   0.283
 2567SOL    HW2 8601   1.914   0.381   0.429
 2568SOL     OW 8602   3.089   6.192   1.059
 2568SOL    HW1 8603   2.998   6.156   1.038
 2568SOL    HW2 8604   3.087   6.292   1.053
 2569SOL     OW 8605   0.957   0.293   1.400
 2569SOL    HW1 8606   0.943   0.195   1.410
 2569SOL    HW2 8607   1.009   0.311   1.316
 2570SOL     OW 8608   6.240   6.703   5.825
 2570SOL    HW1 8609   6.330   6.728   5.788
 2570SOL    HW2 8610   6.203   6.779   5.877
 2571SOL     OW 8611   3.725   3.244   4.376
 2571SOL    HW1 8612   3.810   3.288   4.349
 2571SOL    HW2 8613   3.652   3.273   4.314
 2572SOL     OW 8614   2.030   6.758   1.862
 2572SOL    HW1 8615   2.082   6.777   1.779
 2572SOL    HW2 8616   1.947   6.708   1.838
 2573SOL     OW 8617   0.072   2.433   4.330
 2573SOL    HW1 8618   0.041   2.339   4.316
 2573SOL    HW2 8619   7.017   2.496   4.304
 2574SOL     OW 8620   0.653   3.602   1.701
 2574SOL    HW1 8621   0.720   3.582   1.630
 2574SOL    HW2 8622   0.675   3.690   1.743
 2575SOL     OW 8623   6.374   3.846   0.222
 2575SOL    HW1 8624   6.430   3.763   0.229
 2575SOL    HW2 8625   6.314   3.839   0.142
 2576SOL     OW 8626   1.680   6.954   3.722
 2576SOL    HW1 8627   1.729   0.002   3.665
 2576SOL    HW2 8628   1.678   6.986   3.816
 2577SOL     OW 8629   2.304   6.287   2.162
 2577SOL    HW1 8630   2.304   6.387   2.151
 2577SOL    HW2 8631   2.393   6.258   2.197
 2578SOL     OW 8632   4.858   2.415   4.435
 2578SOL    HW1 8633   4.813   2.325   4.435
 2578SOL    HW2 8634   4.957   2.402   4.450
 2579SOL     OW 8635   6.757   2.515   6.571
 2579SOL    HW1 8636   6.836   2.469   6.530
 2579SOL    HW2 8637   6.788   2.590   6.629
 2580SOL     OW 8638   1.604   2.624   6.112
 2580SOL    HW1 8639   1.657   2.652   6.032
 2580SOL    HW2 8640   1.651   2.550   6.160
 2581SOL     OW 8641   6.361   6.702   3.780
 2581SOL    HW1 8642   6.343   6.674   3.874
 2581SOL    HW2 8643   6.324   6.794   3.764
 2582SOL     OW 8644   0.680   5.369   2.608
 2582SOL    HW1 8645   0.667   5.369   2.708
 2582SOL    HW2 8646   0.724   5.455   2.581
 2583SOL     OW 8647   1.824   0.292   0.542
 2583SOL    HW1 8648   1.733   0.294   0.502
 2583SOL    HW2 8649   1.824   0.233   0.623
 2584SOL     OW 8650   4.522   6.805   2.132
 2584SOL    HW1 8651   4.487   6.873   2.197
 2584SOL    HW2 8652   4.450   6.782   2.067
 2585SOL     OW 8653   4.013   0.850   1.486
 2585SOL    HW1 8654   4.027   0.948   1.497
 2585SOL    HW2 8655   3.915   0.829   1.487
 2586SOL     OW 8656   6.550   2.445   4.116
 2586SOL    HW1 8657   6.520   2.352   4.092
 2586SOL    HW2 8658   6.538   2.505   4.037
 2587SOL     OW 8659   5.766   6.329   3.092
 2587SOL    HW1 8660   5.796   6.256   3.154
 2587SOL    HW2 8661   5.827   6.407   3.101
 2588SOL     OW 8662   5.723   1.234   1.208
 2588SOL    HW1 8663   5.653   1.207   1.141
 2588SOL    HW2 8664   5.810   1.189   1.185
 2589SOL     OW 8665   6.740   6.530   6.712
 2589SOL    HW1 8666   6.815   6.552   6.649
 2589SOL    HW2 8667   6.715   6.611   6.764
 2590SOL     OW 8668   4.232   6.958   2.554
 2590SOL    HW1 8669   4.253   6.890   2.625
 2590SOL    HW2 8670   4.210   0.028   2.598
 2591SOL     OW 8671   5.691   6.723   1.134
 2591SOL    HW1 8672   5.596   6.710   1.163
 2591SOL    HW2 8673   5.746   6.644   1.162
 2592SOL     OW 8674   3.796   5.746   1.666
 2592SOL    HW1 8675   3.861   5.786   1.602
 2592SOL    HW2 8676   3.841   5.728   1.753
 2593SOL     OW 8677   2.930   6.561   2.308
 2593SOL    HW1 8678   2.874   6.505   2.370
 2593SOL    HW2 8679   2.902   6.657   2.316
 2594SOL     OW 8680   1.123   6.564   6.202
 2594SOL    HW1 8681   1.078   6.634   6.256
 2594SOL    HW2 8682   1.221   6.582   6.200
 2595SOL     OW 8683   6.108   3.622   4.097
 2595SOL    HW1 8684   6.074   3.638   4.190
 2595SOL    HW2 8685   6.188   3.680   4.080
 2596SOL     OW 8686   3.901   2.088   2.117
 2596SOL    HW1 8687   3.932   2.158   2.182
 2596SOL    HW2 8688   3.809   2.110   2.086
 2597SOL     OW 8689   2.280   3.001   0.081
 2597SOL    HW1 8690   2.261   2.903   0.069
 2597SOL    HW2 8691   2.194   3.050   0.095
 2598SOL     OW 8692   6.422   3.282   3.302
 2598SOL    HW1 8693   6.432   3.332   3.388
 2598SOL    HW2 8694   6.471   3.330   3.229
 2599SOL     OW 8695   3.914   5.388   7.014
 2599SOL    HW1 8696   3.829   5.353   6.975
 2599SOL    HW2 8697   3.914   5.488   7.007
 2600SOL     OW 8698   6.292   3.688   3.305
 2600SOL    HW1 8699   6.351   3.682   3.224
 2600SOL    HW2 8700   6.349   3.688   3.387
 2601SOL     OW 8701   4.156   3.012   5.833
 2601SOL    HW1 8702   4.089   3.052   5.895
 2601SOL    HW2 8703   4.117   3.003   5.741
 2602SOL     OW 8704   6.336   5.252   3.821
 2602SOL    HW1 8705   6.397   5.246   3.900
 2602SOL    HW2 8706   6.298   5.344   3.816
 2603SOL     OW 8707   3.426   2.258   1.016
 2603SOL    HW1 8708   3.399   2.172   1.058
 2603SOL    HW2 8709   3.368   2.332   1.051
 2604SOL     OW 8710   6.111   0.193   1.150
 2604SOL    HW1 8711   6.047   0.230   1.083
 2604SOL    HW2 8712   6.172   0.267   1.181
 2605SOL     OW 8713   4.454   4.867   4.313
 2605SOL    HW1 8714   4.443   4.945   4.373
 2605SOL    HW2 8715   4.437   4.783   4.363
 2606SOL     OW 8716   0.181   4.671   0.448
 2606SOL    HW1 8717   0.253   4.623   0.498
 2606SOL    HW2 8718   0.096   4.666   0.500
 2607SOL     OW 8719   0.535   0.863   3.923
 2607SOL    HW1 8720   0.540   0.764   3.937
 2607SOL    HW2 8721   0.616   0.906   3.963
 2608SOL     OW 8722   4.889   0.584   1.411
 2608SOL    HW1 8723   4.938   0.620   1.490
 2608SOL    HW2 8724   4.820   0.651   1.382
 2609SOL     OW 8725   1.027   2.315   2.844
 2609SOL    HW1 8726   1.082   2.276   2.770
 2609SOL    HW2 8727   1.024   2.415   2.834
 2610SOL     OW 8728   5.967   6.105   4.671
 2610SOL    HW1 8729   5.950   6.052   4.754
 2610SOL    HW2 8730   5.881   6.119   4.622
 2611SOL     OW 8731   4.220   6.568   1.466
 2611SOL    HW1 8732   4.239   6.666   1.474
 2611SOL    HW2 8733   4.199   6.530   1.557
 2612SOL     OW 8734   6.011   6.629   3.482
 2612SOL    HW1 8735   6.085   6.666   3.540
 2612SOL    HW2 8736   5.923   6.657   3.519
 2613SOL     OW 8737   4.169   0.554   1.747
 2613SOL    HW1 8738   4.131   0.611   1.820
 2613SOL    HW2 8739   4.216   0.611   1.680
 2614SOL     OW 8740   6.824   6.483   6.394
 2614SOL    HW1 8741   6.752   6.470   6.463
 2614SOL    HW2 8742   6.897   6.416   6.409
 2615SOL     OW 8743   5.390   5.626   2.381
 2615SOL    HW1 8744   5.338   5.556   2.430
 2615SOL    HW2 8745   5.484   5.594   2.369
 2616SOL     OW 8746   4.130   3.413   3.174
 2616SOL    HW1 8747   4.125   3.316   3.194
 2616SOL    HW2 8748   4.077   3.433   3.092
 2617SOL     OW 8749   4.125   0.008   1.272
 2617SOL    HW1 8750   4.191   0.080   1.295
 2617SOL    HW2 8751   4.032   0.040   1.292
 2618SOL     OW 8752   1.112   0.626   0.534
 2618SOL    HW1 8753   1.084   0.707   0.585
 2618SOL    HW2 8754   1.075   0.629   0.442
 2619SOL     OW 8755   4.490   2.307   1.561
 2619SOL    HW1 8756   4.502   2.308   1.660
 2619SOL    HW2 8757   4.542   2.230   1.522
 2620SOL     OW 8758   1.214   4.231   4.236
 2620SOL    HW1 8759   1.214   4.247   4.137
 2620SOL    HW2 8760   1.190   4.316   4.283
 2621SOL     OW 8761   0.946   5.300   3.392
 2621SOL    HW1 8762   0.871   5.249   3.434
 2621SOL    HW2 8763   1.033   5.270   3.431
 2622SOL     OW 8764   2.531   2.549   6.771
 2622SOL    HW1 8765   2.476   2.508   6.699
 2622SOL    HW2 8766   2.611   2.593   6.732
 2623SOL     OW 8767   2.917   0.843   5.546
 2623SOL    HW1 8768   2.962   0.756   5.529
 2623SOL    HW2 8769   2.821   0.837   5.518
 2624SOL     OW 8770   5.995   1.847   3.718
 2624SOL    HW1 8771   6.056   1.806   3.786
 2624SOL    HW2 8772   5.943   1.921   3.760
 2625SOL     OW 8773   2.903   1.845   6.020
 2625SOL    HW1 8774   2.952   1.761   6.042
 2625SOL    HW2 8775   2.872   1.842   5.925
 2626SOL     OW 8776   2.018   6.633   3.180
 2626SOL    HW1 8777   1.946   6.604   3.117
 2626SOL    HW2 8778   2.105   6.640   3.132
 2627SOL     OW 8779   6.453   0.168   4.586
 2627SOL    HW1 8780   6.539   0.211   4.562
 2627SOL    HW2 8781   6.424   0.107   4.513
 2628SOL     OW 8782   3.955   6.131   6.918
 2628SOL    HW1 8783   4.003   6.130   6.831
 2628SOL    HW2 8784   3.956   6.223   6.957
 2629SOL     OW 8785   3.210   4.171   1.226
 2629SOL    HW1 8786   3.112   4.166   1.247
 2629SOL    HW2 8787   3.254   4.236   1.288
 2630SOL     OW 8788   2.957   2.170   2.290
 2630SOL    HW1 8789   2.954   2.203   2.195
 2630SOL    HW2 8790   2.880   2.208   2.341
 2631SOL     OW 8791   4.433   6.561   3.952
 2631SOL    HW1 8792   4.383   6.637   3.994
 2631SOL    HW2 8793   4.450   6.582   3.856
 2632SOL     OW 8794   3.759   2.470   0.093
 2632SOL    HW1 8795   3.685   2.457   0.159
 2632SOL    HW2 8796   3.835   2.516   0.137
 2633SOL     OW 8797   5.552   2.377   6.665
 2633SOL    HW1 8798   5.567   2.362   6.567
 2633SOL    HW2 8799   5.614   2.448   6.697
 2634SOL     OW 8800   1.940   4.446   0.875
 2634SOL    HW1 8801   1.873   4.384   0.916
 2634SOL    HW2 8802   2.018   4.457   0.936
 2635SOL     OW 8803   5.847   4.812   5.166
 2635SOL    HW1 8804   5.931   4.796   5.217
 2635SOL    HW2 8805   5.869   4.826   5.069
 2636SOL     OW 8806   5.098   0.379   5.151
 2636SOL    HW1 8807   5.198   0.374   5.142
 2636SOL    HW2 8808   5.074   0.435   5.230
 2637SOL     OW 8809   5.528   6.636   2.955
 2637SOL    HW1 8810   5.565   6.723   2.922
 2637SOL    HW2 8811   5.501   6.579   2.877
 2638SOL     OW 8812   5.756   6.138   0.682
 2638SOL    HW1 8813   5.665   6.179   0.674
 2638SOL    HW2 8814   5.818   6.181   0.617
 2639SOL     OW 8815   6.262   5.913   0.768
 2639SOL    HW1 8816   6.298   5.898   0.860
 2639SOL    HW2 8817   6.259   6.011   0.749
 2640SOL     OW 8818   7.014   6.316   5.305
 2640SOL    HW1 8819   6.963   6.353   5.227
 2640SOL    HW2 8820   0.039   6.392   5.356
 2641SOL     OW 8821   5.055   4.405   0.431
 2641SOL    HW1 8822   5.126   4.475   0.442
 2641SOL    HW2 8823   5.094   4.314   0.447
 2642SOL     OW 8824   5.164   0.341   3.844
 2642SOL    HW1 8825   5.092   0.273   3.853
 2642SOL    HW2 8826   5.124   0.433   3.840
 2643SOL     OW 8827   0.340   0.546   2.760
 2643SOL    HW1 8828   0.395   0.505   2.833
 2643SOL    HW2 8829   0.319   0.641   2.783
 2644SOL     OW 8830   0.185   4.345   6.233
 2644SOL    HW1 8831   0.156   4.357   6.138
 2644SOL    HW2 8832   0.202   4.247   6.250
 2645SOL     OW 8833   5.584   5.721   6.628
 2645SOL    HW1 8834   5.653   5.680   6.687
 2645SOL    HW2 8835   5.628   5.764   6.549
 2646SOL     OW 8836   6.369   6.769   6.670
 2646SOL    HW1 8837   6.365   6.681   6.716
 2646SOL    HW2 8838   6.453   6.776   6.616
 2647SOL     OW 8839   4.161   2.192   1.297
 2647SOL    HW1 8840   4.190   2.103   1.333
 2647SOL    HW2 8841   4.182   2.263   1.365
 2648SOL     OW 8842   5.655   0.427   2.355
 2648SOL    HW1 8843   5.561   0.426   2.390
 2648SOL    HW2 8844   5.664   0.357   2.284
 2649SOL     OW 8845   3.540   1.552   6.314
 2649SOL    HW1 8846   3.583   1.584   6.398
 2649SOL    HW2 8847   3.443   1.532   6.332
 2650SOL     OW 8848   0.262   6.090   2.889
 2650SOL    HW1 8849   0.306   6.170   2.849
 2650SOL    HW2 8850   0.163   6.101   2.886
 2651SOL     OW 8851   6.527   1.270   2.410
 2651SOL    HW1 8852   6.430   1.258   2.390
 2651SOL    HW2 8853   6.575   1.183   2.401
 2652SOL     OW 8854   3.606   3.096   2.782
 2652SOL    HW1 8855   3.678   3.031   2.758
 2652SOL    HW2 8856   3.613   3.178   2.724
 2653SOL     OW 8857   6.544   6.745   6.152
 2653SOL    HW1 8858   6.643   6.740   6.140
 2653SOL    HW2 8859   6.508   6.821   6.098
 2654SOL     OW 8860   5.766   2.924   5.639
 2654SOL    HW1 8861   5.691   2.974   5.595
 2654SOL    HW2 8862   5.733   2.881   5.723
 2655SOL     OW 8863   4.722   6.224   4.374
 2655SOL    HW1 8864   4.782   6.187   4.303
 2655SOL    HW2 8865   4.627   6.200   4.353
 2656SOL     OW 8866   5.387   3.692   3.621
 2656SOL    HW1 8867   5.414   3.785   3.596
 2656SOL    HW2 8868   5.438   3.663   3.702
 2657SOL     OW 8869   1.623   4.167   6.416
 2657SOL    HW1 8870   1.574   4.233   6.472
 2657SOL    HW2 8871   1.641   4.084   6.470
 2658SOL     OW 8872   6.124   3.841   5.850
 2658SOL    HW1 8873   6.196   3.771   5.848
 2658SOL    HW2 8874   6.156   3.919   5.904
 2659SOL     OW 8875   6.845   2.563   4.316
 2659SOL    HW1 8876   6.834   2.659   4.342
 2659SOL    HW2 8877   6.820   2.504   4.393
 2660SOL     OW 8878   6.875   2.477   2.680
 2660SOL    HW1 8879   6.957   2.533   2.668
 2660SOL    HW2 8880   6.804   2.508   2.616
 2661SOL     OW 8881   3.602   6.470   1.241
 2661SOL    HW1 8882   3.536   6.396   1.228
 2661SOL    HW2 8883   3.578   6.521   1.324
 2662SOL     OW 8884   4.050   6.646   4.095
 2662SOL    HW1 8885   4.062   6.625   4.192
 2662SOL    HW2 8886   3.954   6.666   4.077
 2663SOL     OW 8887   1.778   4.237   2.496
 2663SOL    HW1 8888   1.827   4.297   2.558
 2663SOL    HW2 8889   1.709   4.290   2.446
 2664SOL     OW 8890   4.091   3.743   2.630
 2664SOL    HW1 8891   4.102   3.793   2.716
 2664SOL    HW2 8892   4.125   3.649   2.641
 2665SOL     OW 8893   3.518   1.208   4.458
 2665SOL    HW1 8894   3.514   1.299   4.415
 2665SOL    HW2 8895   3.613   1.183   4.474
 2666SOL     OW 8896   5.578   4.395   1.118
 2666SOL    HW1 8897   5.555   4.315   1.174
 2666SOL    HW2 8898   5.521   4.472   1.147
 2667SOL     OW 8899   2.359   5.581   4.791
 2667SOL    HW1 8900   2.440   5.636   4.810
 2667SOL    HW2 8901   2.280   5.641   4.774
 2668SOL     OW 8902   0.130   2.962   5.307
 2668SOL    HW1 8903   0.060   2.944   5.376
 2668SOL    HW2 8904   0.206   2.898   5.319
 2669SOL     OW 8905   4.400   4.965   5.528
 2669SOL    HW1 8906   4.456   4.894   5.572
 2669SOL    HW2 8907   4.315   4.976   5.579
 2670SOL     OW 8908   1.019   1.416   6.873
 2670SOL    HW1 8909   1.071   1.458   6.948
 2670SOL    HW2 8910   0.961   1.343   6.910
 2671SOL     OW 8911   2.370   3.503   6.150
 2671SOL    HW1 8912   2.350   3.596   6.182
 2671SOL    HW2 8913   2.335   3.437   6.216
 2672SOL     OW 8914   1.749   5.782   0.927
 2672SOL    HW1 8915   1.655   5.801   0.899
 2672SOL    HW2 8916   1.777   5.849   0.996
 2673SOL     OW 8917   3.860   2.050   3.086
 2673SOL    HW1 8918   3.799   2.082   3.158
 2673SOL    HW2 8919   3.895   1.959   3.108
 2674SOL     OW 8920   6.195   5.029   5.051
 2674SOL    HW1 8921   6.201   4.958   4.981
 2674SOL    HW2 8922   6.223   4.990   5.139
 2675SOL     OW 8923   0.208   4.590   5.880
 2675SOL    HW1 8924   0.221   4.497   5.844
 2675SOL    HW2 8925   0.288   4.645   5.856
 2676SOL     OW 8926   4.599   1.593   1.628
 2676SOL    HW1 8927   4.649   1.677   1.605
 2676SOL    HW2 8928   4.657   1.534   1.684
 2677SOL     OW 8929   2.458   4.879   1.738
 2677SOL    HW1 8930   2.371   4.927   1.748
 2677SOL    HW2 8931   2.440   4.786   1.704
 2678SOL     OW 8932   0.479   5.062   6.293
 2678SOL    HW1 8933   0.489   5.088   6.197
 2678SOL    HW2 8934   0.418   5.128   6.339
 2679SOL     OW 8935   3.224   5.264   0.822
 2679SOL    HW1 8936   3.142   5.316   0.798
 2679SOL    HW2 8937   3.301   5.326   0.833
 2680SOL     OW 8938   1.487   1.093   1.739
 2680SOL    HW1 8939   1.550   1.031   1.786
 2680SOL    HW2 8940   1.514   1.104   1.644
 2681SOL     OW 8941   1.625   2.666   3.122
 2681SOL    HW1 8942   1.608   2.615   3.037
 2681SOL    HW2 8943   1.723   2.668   3.140
 2682SOL     OW 8944   5.614   2.706   2.695
 2682SOL    HW1 8945   5.520   2.693   2.664
 2682SOL    HW2 8946   5.670   2.629   2.664
 2683SOL     OW 8947   0.954   5.661   1.047
 2683SOL    HW1 8948   1.036   5.658   0.989
 2683SOL    HW2 8949   0.974   5.712   1.131
 2684SOL     OW 8950   2.179   6.394   3.285
 2684SOL    HW1 8951   2.115   6.445   3.227
 2684SOL    HW2 8952   2.136   6.375   3.373
 2685SOL     OW 8953   4.895   6.278   5.177
 2685SOL    HW1 8954   4.932   6.286   5.270
 2685SOL    HW2 8955   4.950   6.213   5.125
 2686SOL     OW 8956   2.173   3.003   4.314
 2686SOL    HW1 8957   2.207   2.983   4.406
 2686SOL    HW2 8958   2.192   2.926   4.254
 2687SOL     OW 8959   3.955   5.607   2.460
 2687SOL    HW1 8960   3.881   5.608   2.393
 2687SOL    HW2 8961   4.012   5.527   2.445
 2688SOL     OW 8962   4.302   4.707   6.682
 2688SOL    HW1 8963   4.346   4.618   6.692
 2688SOL    HW2 8964   4.363   4.779   6.714
 2689SOL     OW 8965   0.607   3.192   4.239
 2689SOL    HW1 8966   0.693   3.186   4.289
 2689SOL    HW2 8967   0.612   3.135   4.157
 2690SOL     OW 8968   3.995   3.905   3.812
 2690SOL    HW1 8969   3.955   3.814   3.805
 2690SOL    HW2 8970   4.014   3.940   3.721
 2691SOL     OW 8971   1.448   5.828   2.390
 2691SOL    HW1 8972   1.508   5.829   2.310
 2691SOL    HW2 8973   1.354   5.810   2.361
 2692SOL     OW 8974   0.023   6.450   3.805
 2692SOL    HW1 8975   7.004   6.373   3.858
 2692SOL    HW2 8976   6.983   6.530   3.817
 2693SOL     OW 8977   1.784   3.697   3.525
 2693SOL    HW1 8978   1.873   3.703   3.479
 2693SOL    HW2 8979   1.796   3.653   3.614
 2694SOL     OW 8980   1.503   6.868   3.538
 2694SOL    HW1 8981   1.432   6.807   3.572
 2694SOL    HW2 8982   1.558   6.900   3.615
 2695SOL     OW 8983   4.350   2.410   2.558
 2695SOL    HW1 8984   4.378   2.477   2.490
 2695SOL    HW2 8985   4.251   2.415   2.571
 2696SOL     OW 8986   3.857   3.861   5.369
 2696SOL    HW1 8987   3.852   3.907   5.280
 2696SOL    HW2 8988   3.952   3.855   5.399
 2697SOL     OW 8989   3.016   2.044   4.247
 2697SOL    HW1 8990   3.080   1.975   4.215
 2697SOL    HW2 8991   2.963   2.009   4.324
 2698SOL     OW 8992   1.624   4.290   0.431
 2698SOL    HW1 8993   1.718   4.260   0.413
 2698SOL    HW2 8994   1.600   4.270   0.526
 2699SOL     OW 8995   3.428   6.391   1.584
 2699SOL    HW1 8996   3.341   6.400   1.535
 2699SOL    HW2 8997   3.472   6.481   1.589
 2700SOL     OW 8998   1.772   3.492   2.863
 2700SOL    HW1 8999   1.697   3.492   2.796
 2700SOL    HW2 9000   1.773   3.405   2.912
 2701SOL     OW 9001   3.726   6.979   6.669
 2701SOL    HW1 9002   3.760   6.960   6.761
 2701SOL    HW2 9003   3.792   0.020   6.622
 2702SOL     OW 9004   6.973   1.221   3.857
 2702SOL    HW1 9005   6.947   1.135   3.903
 2702SOL    HW2 9006   6.994   1.202   3.761
 2703SOL     OW 9007   1.817   1.828   2.255
 2703SOL    HW1 9008   1.899   1.812   2.311
 2703SOL    HW2 9009   1.741   1.774   2.292
 2704SOL     OW 9010   2.443   5.328   1.601
 2704SOL    HW1 9011   2.535   5.351   1.633
 2704SOL    HW2 9012   2.383   5.311   1.680
 2705SOL     OW 9013   6.482   5.529   3.396
 2705SOL    HW1 9014   6.403   5.472   3.419
 2705SOL    HW2 9015   6.489   5.537   3.296
 2706SOL     OW 9016   6.497   1.381   1.766
 2706SOL    HW1 9017   6.549   1.389   1.852
 2706SOL    HW2 9018   6.400   1.395   1.785
 2707SOL     OW 9019   2.045   1.450   6.091
 2707SOL    HW1 9020   2.024   1.515   6.018
 2707SOL    HW2 9021   2.005   1.483   6.177
 2708SOL     OW 9022   1.410   2.405   1.499
 2708SOL    HW1 9023   1.500   2.437   1.469
 2708SOL    HW2 9024   1.417   2.310   1.529
 2709SOL     OW 9025   4.864   5.868   0.656
 2709SOL    HW1 9026   4.767   5.853   0.637
 2709SOL    HW2 9027   4.904   5.922   0.583
 2710SOL     OW 9028   0.469   4.089   2.480
 2710SOL    HW1 9029   0.522   4.058   2.560
 2710SOL    HW2 9030   0.391   4.143   2.511
 2711SOL     OW 9031   0.670   0.085   2.166
 2711SOL    HW1 9032   0.744   0.151   2.175
 2711SOL    HW2 9033   0.681   0.012   2.233
 2712SOL     OW 9034   2.733   4.408   0.533
 2712SOL    HW1 9035   2.762   4.503   0.541
 2712SOL    HW2 9036   2.671   4.386   0.608
 2713SOL     OW 9037   2.422   3.151   5.432
 2713SOL    HW1 9038   2.435   3.094   5.352
 2713SOL    HW2 9039   2.488   3.227   5.430
 2714SOL     OW 9040   4.637   0.507   5.964
 2714SOL    HW1 9041   4.682   0.572   5.903
 2714SOL    HW2 9042   4.602   0.555   6.044
 2715SOL     OW 9043   5.902   1.153   6.920
 2715SOL    HW1 9044   5.888   1.234   6.976
 2715SOL    HW2 9045   5.996   1.119   6.934
 2716SOL     OW 9046   0.427   6.018   2.632
 2716SOL    HW1 9047   0.375   5.943   2.672
 2716SOL    HW2 9048   0.463   6.077   2.705
 2717SOL     OW 9049   0.944   0.573   3.133
 2717SOL    HW1 9050   0.912   0.664   3.156
 2717SOL    HW2 9051   0.873   0.523   3.084
 2718SOL     OW 9052   2.359   4.583   3.910
 2718SOL    HW1 9053   2.410   4.586   3.825
 2718SOL    HW2 9054   2.422   4.572   3.987
 2719SOL     OW 9055   4.163   5.420   1.748
 2719SOL    HW1 9056   4.194   5.481   1.675
 2719SOL    HW2 9057   4.239   5.362   1.777
 2720SOL     OW 9058   1.695   6.688   3.654
 2720SOL    HW1 9059   1.758   6.639   3.714
 2720SOL    HW2 9060   1.684   6.782   3.688
 2721SOL     OW 9061   3.545   0.044   4.105
 2721SOL    HW1 9062   3.641   0.013   4.105
 2721SOL    HW2 9063   3.537   0.125   4.046
 2722SOL     OW 9064   1.020   6.109   2.615
 2722SOL    HW1 9065   1.075   6.140   2.692
 2722SOL    HW2 9066   1.000   6.186   2.554
 2723SOL     OW 9067   1.790   1.046   5.896
 2723SOL    HW1 9068   1.817   1.081   5.986
 2723SOL    HW2 9069   1.849   0.969   5.870
 2724SOL     OW 9070   3.998   5.581   6.165
 2724SOL    HW1 9071   3.920   5.542   6.116
 2724SOL    HW2 9072   3.965   5.645   6.234
 2725SOL     OW 9073   4.030   4.773   3.936
 2725SOL    HW1 9074   3.952   4.801   3.993
 2725SOL    HW2 9075   4.001   4.764   3.841
 2726SOL     OW 9076   4.877   5.662   2.363
 2726SOL    HW1 9077   4.913   5.725   2.295
 2726SOL    HW2 9078   4.787   5.695   2.394
 2727SOL     OW 9079   0.808   5.604   2.572
 2727SOL    HW1 9080   0.816   5.614   2.472
 2727SOL    HW2 9081   0.839   5.688   2.616
 2728SOL     OW 9082   2.526   6.728   5.190
 2728SOL    HW1 9083   2.524   6.689   5.098
 2728SOL    HW2 9084   2.538   6.655   5.257
 2729SOL     OW 9085   5.849   5.269   2.935
 2729SOL    HW1 9086   5.944   5.255   2.910
 2729SOL    HW2 9087   5.800   5.314   2.860
 2730SOL     OW 9088   1.348   0.318   0.868
 2730SOL    HW1 9089   1.265   0.373   0.860
 2730SOL    HW2 9090   1.329   0.224   0.839
 2731SOL     OW 9091   2.897   3.748   1.907
 2731SOL    HW1 9092   2.922   3.832   1.955
 2731SOL    HW2 9093   2.979   3.694   1.888
 2732SOL     OW 9094   5.732   1.915   2.568
 2732SOL    HW1 9095   5.724   1.958   2.658
 2732SOL    HW2 9096   5.676   1.964   2.502
 2733SOL     OW 9097   1.154   6.717   5.832
 2733SOL    HW1 9098   1.088   6.643   5.842
 2733SOL    HW2 9099   1.203   6.707   5.745
 2734SOL     OW 9100   2.016   6.029   4.136
 2734SOL    HW1 9101   2.109   5.992   4.137
 2734SOL    HW2 9102   1.957   5.968   4.084
 2735SOL     OW 9103   1.600   5.054   2.668
 2735SOL    HW1 9104   1.675   4.998   2.633
 2735SOL    HW2 9105   1.637   5.129   2.723
 2736SOL     OW 9106   4.216   0.140   4.970
 2736SOL    HW1 9107   4.164   0.155   5.054
 2736SOL    HW2 9108   4.281   0.066   4.985
 2737SOL     OW 9109   4.454   3.642   6.324
 2737SOL    HW1 9110   4.454   3.547   6.354
 2737SOL    HW2 9111   4.525   3.693   6.373
 2738SOL     OW 9112   5.659   5.335   4.746
 2738SOL    HW1 9113   5.576   5.363   4.697
 2738SOL    HW2 9114   5.660   5.236   4.757
 2739SOL     OW 9115   5.494   3.718   1.319
 2739SOL    HW1 9116   5.433   3.721   1.239
 2739SOL    HW2 9117   5.577   3.668   1.296
 2740SOL     OW 9118   6.069   2.200   3.388
 2740SOL    HW1 9119   6.089   2.262   3.463
 2740SOL    HW2 9120   6.120   2.229   3.306
 2741SOL     OW 9121   1.127   2.353   5.740
 2741SOL    HW1 9122   1.138   2.360   5.839
 2741SOL    HW2 9123   1.067   2.427   5.708
 2742SOL     OW 9124   1.969   0.023   6.831
 2742SOL    HW1 9125   1.904   7.010   6.901
 2742SOL    HW2 9126   1.987   6.966   6.767
 2743SOL     OW 9127   5.380   5.148   1.327
 2743SOL    HW1 9128   5.380   5.160   1.228
 2743SOL    HW2 9129   5.332   5.224   1.370
 2744SOL     OW 9130   4.396   2.401   5.868
 2744SOL    HW1 9131   4.471   2.340   5.843
 2744SOL    HW2 9132   4.352   2.368   5.951
 2745SOL     OW 9133   2.824   6.618   1.212
 2745SOL    HW1 9134   2.875   6.531   1.217
 2745SOL    HW2 9135   2.783   6.637   1.301
 2746SOL     OW 9136   2.111   1.875   6.361
 2746SOL    HW1 9137   2.172   1.905   6.434
 2746SOL    HW2 9138   2.112   1.943   6.287
 2747SOL     OW 9139   5.055   6.418   4.022
 2747SOL    HW1 9140   4.998   6.437   3.942
 2747SOL    HW2 9141   5.067   6.502   4.075
 2748SOL     OW 9142   3.700   1.280   2.875
 2748SOL    HW1 9143   3.679   1.287   2.973
 2748SOL    HW2 9144   3.742   1.192   2.857
 2749SOL     OW 9145   4.746   5.019   3.910
 2749SOL    HW1 9146   4.659   5.007   3.958
 2749SOL    HW2 9147   4.742   5.103   3.855
 2750SOL     OW 9148   0.587   5.797   2.535
 2750SOL    HW1 9149   0.680   5.806   2.570
 2750SOL    HW2 9150   0.529   5.867   2.577
 2751SOL     OW 9151   1.599   6.990   6.709
 2751SOL    HW1 9152   1.667   0.011   6.771
 2751SOL    HW2 9153   1.637   6.987   6.616
 2752SOL     OW 9154   6.152   6.296   5.768
 2752SOL    HW1 9155   6.147   6.384   5.720
 2752SOL    HW2 9156   6.069   6.283   5.822
 2753SOL     OW 9157   3.338   5.445   6.010
 2753SOL    HW1 9158   3.403   5.377   5.977
 2753SOL    HW2 9159   3.383   5.533   6.020
 2754SOL     OW 9160   0.704   0.918   4.462
 2754SOL    HW1 9161   0.719   0.844   4.396
 2754SOL    HW2 9162   0.607   0.942   4.463
 2755SOL     OW 9163   2.984   6.517   2.043
 2755SOL    HW1 9164   2.963   6.420   2.036
 2755SOL    HW2 9165   2.997   6.541   2.139
 2756SOL     OW 9166   0.063   2.875   5.756
 2756SOL    HW1 9167   0.006   2.953   5.729
 2756SOL    HW2 9168   0.112   2.841   5.676
 2757SOL     OW 9169   4.646   3.285   6.612
 2757SOL    HW1 9170   4.712   3.339   6.665
 2757SOL    HW2 9171   4.631   3.197   6.657
 2758SOL     OW 9172   6.128   6.245   2.503
 2758SOL    HW1 9173   6.146   6.167   2.563
 2758SOL    HW2 9174   6.088   6.213   2.417
 2759SOL     OW 9175   3.357   4.290   6.145
 2759SOL    HW1 9176   3.386   4.198   6.171
 2759SOL    HW2 9177   3.411   4.321   6.067
 2760SOL     OW 9178   5.410   6.091   3.384
 2760SOL    HW1 9179   5.389   6.166   3.322
 2760SOL    HW2 9180   5.352   6.096   3.465
 2761SOL     OW 9181   1.775   3.225   2.950
 2761SOL    HW1 9182   1.794   3.213   2.852
 2761SOL    HW2 9183   1.837   3.167   3.003
 2762SOL     OW 9184   2.660   2.050   0.161
 2762SOL    HW1 9185   2.724   2.114   0.119
 2762SOL    HW2 9186   2.675   2.047   0.260
 2763SOL     OW 9187   4.871   2.244   5.109
 2763SOL    HW1 9188   4.949   2.196   5.067
 2763SOL    HW2 9189   4.866   2.337   5.072
 2764SOL     OW 9190   1.027   3.843   2.328
 2764SOL    HW1 9191   1.105   3.781   2.340
 2764SOL    HW2 9192   0.978   3.818   2.245
 2765SOL     OW 9193   0.039   6.588   6.666
 2765SOL    HW1 9194   0.123   6.593   6.611
 2765SOL    HW2 9195   0.048   6.647   6.746
 2766SOL     OW 9196   5.228   1.187   6.789
 2766SOL    HW1 9197   5.278   1.270   6.763
 2766SOL    HW2 9198   5.288   1.127   6.842
 2767SOL     OW 9199   0.078   5.044   6.239
 2767SOL    HW1 9200   7.011   5.031   6.188
 2767SOL    HW2 9201   0.127   4.957   6.246
 2768SOL     OW 9202   4.573   0.116   1.095
 2768SOL    HW1 9203   4.600   0.049   1.164
 2768SOL    HW2 9204   4.478   0.145   1.111
 2769SOL     OW 9205   1.298   4.165   5.523
 2769SOL    HW1 9206   1.294   4.168   5.623
 2769SOL    HW2 9207   1.255   4.247   5.485
 2770SOL     OW 9208   2.891   6.653   0.794
 2770SOL    HW1 9209   2.947   6.736   0.791
 2770SOL    HW2 9210   2.799   6.675   0.762
 2771SOL     OW 9211   4.512   0.428   4.322
 2771SOL    HW1 9212   4.545   0.439   4.228
 2771SOL    HW2 9213   4.470   0.513   4.353
 2772SOL     OW 9214   3.804   0.214   3.524
 2772SOL    HW1 9215   3.860   0.155   3.466
 2772SOL    HW2 9216   3.855   0.239   3.606
 2773SOL     OW 9217   5.891   2.704   4.142
 2773SOL    HW1 9218   5.978   2.695   4.190
 2773SOL    HW2 9219   5.816   2.695   4.207
 2774SOL     OW 9220   5.254   1.540   4.131
 2774SOL    HW1 9221   5.171   1.488   4.110
 2774SOL    HW2 9222   5.232   1.638   4.134
 2775SOL     OW 9223   0.706   3.992   4.298
 2775SOL    HW1 9224   0.765   3.916   4.326
 2775SOL    HW2 9225   0.763   4.071   4.277
 2776SOL     OW 9226   5.134   4.167   6.092
 2776SOL    HW1 9227   5.097   4.242   6.146
 2776SOL    HW2 9228   5.226   4.144   6.125
 2777SOL     OW 9229   3.027   1.996   6.255
 2777SOL    HW1 9230   3.106   1.937   6.271
 2777SOL    HW2 9231   3.006   2.046   6.339
 2778SOL     OW 9232   2.990   6.164   6.073
 2778SOL    HW1 9233   2.982   6.106   5.992
 2778SOL    HW2 9234   3.051   6.240   6.053
 2779SOL     OW 9235   5.806   6.975   1.102
 2779SOL    HW1 9236   5.758   6.894   1.136
 2779SOL    HW2 9237   5.894   6.983   1.147
 2780SOL     OW 9238   6.971   1.342   4.992
 2780SOL    HW1 9239   0.035   1.324   4.937
 2780SOL    HW2 9240   6.974   1.286   5.075
 2781SOL     OW 9241   6.108   0.504   2.850
 2781SOL    HW1 9242   6.062   0.590   2.871
 2781SOL    HW2 9243   6.092   0.439   2.924
 2782SOL     OW 9244   4.543   0.889   6.169
 2782SOL    HW1 9245   4.498   0.904   6.257
 2782SOL    HW2 9246   4.476   0.899   6.096
 2783SOL     OW 9247   5.731   4.429   1.799
 2783SOL    HW1 9248   5.673   4.364   1.849
 2783SOL    HW2 9249   5.678   4.511   1.778
 2784SOL     OW 9250   1.215   1.678   1.063
 2784SOL    HW1 9251   1.166   1.759   1.031
 2784SOL    HW2 9252   1.178   1.597   1.016
 2785SOL     OW 9253   5.620   2.799   1.353
 2785SOL    HW1 9254   5.525   2.818   1.331
 2785SOL    HW2 9255   5.628   2.709   1.396
 2786SOL     OW 9256   0.064   6.755   0.264
 2786SOL    HW1 9257   0.127   6.785   0.336
 2786SOL    HW2 9258   0.112   6.689   0.205
 2787SOL     OW 9259   6.594   4.783   6.360
 2787SOL    HW1 9260   6.568   4.852   6.294
 2787SOL    HW2 9261   6.534   4.789   6.440
 2788SOL     OW 9262   2.818   6.066   5.629
 2788SOL    HW1 9263   2.819   6.164   5.648
 2788SOL    HW2 9264   2.875   6.047   5.549
 2789SOL     OW 9265   1.181   2.388   5.459
 2789SOL    HW1 9266   1.174   2.294   5.426
 2789SOL    HW2 9267   1.165   2.391   5.558
 2790SOL     OW 9268   1.636   5.416   1.935
 2790SOL    HW1 9269   1.565   5.392   2.001
 2790SOL    HW2 9270   1.722   5.372   1.961
 2791SOL     OW 9271   0.331   3.415   3.006
 2791SOL    HW1 9272   0.293   3.444   3.094
 2791SOL    HW2 9273   0.257   3.386   2.945
 2792SOL     OW 9274   3.395   1.210   5.253
 2792SOL    HW1 9275   3.351   1.134   5.301
 2792SOL    HW2 9276   3.337   1.239   5.176
 2793SOL     OW 9277   3.321   4.172   0.973
 2793SOL    HW1 9278   3.303   4.175   1.071
 2793SOL    HW2 9279   3.235   4.184   0.923
 2794SOL     OW 9280   1.114   2.709   6.456
 2794SOL    HW1 9281   1.027   2.752   6.478
 2794SOL    HW2 9282   1.133   2.719   6.358
 2795SOL     OW 9283   1.185   4.881   1.433
 2795SOL    HW1 9284   1.211   4.933   1.352
 2795SOL    HW2 9285   1.206   4.934   1.515
 2796SOL     OW 9286   1.980   6.337   6.159
 2796SOL    HW1 9287   2.012   6.269   6.093
 2796SOL    HW2 9288   1.910   6.394   6.117
 2797SOL     OW 9289   5.737   0.111   3.565
 2797SOL    HW1 9290   5.667   0.042   3.586
 2797SOL    HW2 9291   5.814   0.100   3.628
 2798SOL     OW 9292   5.688   0.298   2.119
 2798SOL    HW1 9293   5.722   0.364   2.053
 2798SOL    HW2 9294   5.732   0.209   2.103
 2799SOL     OW 9295   3.194   5.915   5.473
 2799SOL    HW1 9296   3.293   5.900   5.479
 2799SOL    HW2 9297   3.146   5.844   5.524
 2800SOL     OW 9298   6.018   0.120   6.619
 2800SOL    HW1 9299   5.998   0.196   6.681
 2800SOL    HW2 9300   5.961   0.129   6.537
 2801SOL     OW 9301   0.695   4.833   5.304
 2801SOL    HW1 9302   0.663   4.802   5.394
 2801SOL    HW2 9303   0.662   4.770   5.234
 2802SOL     OW 9304   0.432   5.347   5.948
 2802SOL    HW1 9305   0.335   5.343   5.924
 2802SOL    HW2 9306   0.481   5.402   5.881
 2803SOL     OW 9307   4.218   2.637   6.657
 2803SOL    HW1 9308   4.291   2.572   6.679
 2803SOL    HW2 9309   4.132   2.588   6.644
 2804SOL     OW 9310   0.349   2.739   3.746
 2804SOL    HW1 9311   0.424   2.682   3.710
 2804SOL    HW2 9312   0.375   2.777   3.834
 2805SOL     OW 9313   4.759   3.324   1.493
 2805SOL    HW1 9314   4.736   3.335   1.590
 2805SOL    HW2 9315   4.793   3.232   1.477
 2806SOL     OW 9316   0.358   3.943   6.208
 2806SOL    HW1 9317   0.314   3.858   6.180
 2806SOL    HW2 9318   0.299   3.991   6.273
 2807SOL     OW 9319   3.390   0.279   3.505
 2807SOL    HW1 9320   3.454   0.303   3.578
 2807SOL    HW2 9321   3.406   0.185   3.476
 2808SOL     OW 9322   6.652   5.503   6.460
 2808SOL    HW1 9323   6.709   5.446   6.519
 2808SOL    HW2 9324   6.689   5.596   6.457
 2809SOL     OW 9325   6.847   5.078   2.289
 2809SOL    HW1 9326   6.914   5.064   2.362
 2809SOL    HW2 9327   6.892   5.069   2.200
 2810SOL     OW 9328   2.752   5.696   3.077
 2810SOL    HW1 9329   2.727   5.659   2.987
 2810SOL    HW2 9330   2.694   5.656   3.147
 2811SOL     OW 9331   0.780   0.587   1.562
 2811SOL    HW1 9332   0.842   0.611   1.488
 2811SOL    HW2 9333   0.727   0.667   1.589
 2812SOL     OW 9334   0.520   2.218   1.360
 2812SOL    HW1 9335   0.606   2.198   1.313
 2812SOL    HW2 9336   0.501   2.316   1.356
 2813SOL     OW 9337   0.992   2.247   1.771
 2813SOL    HW1 9338   1.041   2.310   1.830
 2813SOL    HW2 9339   0.919   2.201   1.823
 2814SOL     OW 9340   2.072   4.398   0.125
 2814SOL    HW1 9341   2.130   4.342   0.185
 2814SOL    HW2 9342   2.094   4.495   0.140
 2815SOL     OW 9343   0.257   5.182   5.439
 2815SOL    HW1 9344   0.354   5.194   5.462
 2815SOL    HW2 9345   0.207   5.157   5.522
 2816SOL     OW 9346   0.705   6.121   6.222
 2816SOL    HW1 9347   0.717   6.214   6.257
 2816SOL    HW2 9348   0.611   6.109   6.193
 2817SOL     OW 9349   4.363   0.957   1.706
 2817SOL    HW1 9350   4.365   0.872   1.653
 2817SOL    HW2 9351   4.321   0.939   1.795
 2818SOL     OW 9352   1.552   0.281   0.457
 2818SOL    HW1 9353   1.484   0.348   0.486
 2818SOL    HW2 9354   1.507   0.195   0.432
 2819SOL     OW 9355   0.647   1.159   0.497
 2819SOL    HW1 9356   0.663   1.069   0.538
 2819SOL    HW2 9357   0.712   1.173   0.423
 2820SOL     OW 9358   1.314   2.397   1.212
 2820SOL    HW1 9359   1.326   2.426   1.307
 2820SOL    HW2 9360   1.304   2.298   1.209
 2821SOL     OW 9361   2.625   3.504   6.051
 2821SOL    HW1 9362   2.646   3.440   5.977
 2821SOL    HW2 9363   2.528   3.495   6.076
 2822SOL     OW 9364   4.417   2.421   1.015
 2822SOL    HW1 9365   4.330   2.379   1.042
 2822SOL    HW2 9366   4.461   2.365   0.945
 2823SOL     OW 9367   5.646   1.744   1.262
 2823SOL    HW1 9368   5.663   1.841   1.244
 2823SOL    HW2 9369   5.692   1.717   1.347
 2824SOL     OW 9370   1.305   3.448   4.916
 2824SOL    HW1 9371   1.332   3.491   5.002
 2824SOL    HW2 9372   1.374   3.466   4.846
 2825SOL     OW 9373   5.179   1.278   6.026
 2825SOL    HW1 9374   5.168   1.247   5.932
 2825SOL    HW2 9375   5.201   1.375   6.027
 2826SOL     OW 9376   2.321   3.160   6.837
 2826SOL    HW1 9377   2.376   3.077   6.837
 2826SOL    HW2 9378   2.381   3.241   6.838
 2827SOL     OW 9379   6.408   0.715   6.659
 2827SOL    HW1 9380   6.396   0.761   6.746
 2827SOL    HW2 9381   6.505   0.701   6.642
 2828SOL     OW 9382   1.880   3.618   0.550
 2828SOL    HW1 9383   1.931   3.532   0.548
 2828SOL    HW2 9384   1.938   3.690   0.588
 2829SOL     OW 9385   3.207   4.030   2.997
 2829SOL    HW1 9386   3.219   3.951   2.937
 2829SOL    HW2 9387   3.295   4.055   3.037
 2830SOL     OW 9388   3.160   4.440   5.515
 2830SOL    HW1 9389   3.173   4.535   5.486
 2830SOL    HW2 9390   3.135   4.437   5.612
 2831SOL     OW 9391   5.915   1.552   1.195
 2831SOL    HW1 9392   5.915   1.472   1.255
 2831SOL    HW2 9393   5.845   1.540   1.124
 2832SOL     OW 9394   0.420   3.766   1.626
 2832SOL    HW1 9395   0.328   3.756   1.586
 2832SOL    HW2 9396   0.473   3.684   1.608
 2833SOL     OW 9397   2.220   2.248   2.223
 2833SOL    HW1 9398   2.230   2.341   2.257
 2833SOL    HW2 9399   2.287   2.188   2.267
 2834SOL     OW 9400   2.973   5.970   5.855
 2834SOL    HW1 9401   2.934   6.039   5.794
 2834SOL    HW2 9402   3.068   5.954   5.830
 2835SOL     OW 9403   0.078   0.347   0.625
 2835SOL    HW1 9404   0.078   0.276   0.695
 2835SOL    HW2 9405   0.132   0.317   0.546
 2836SOL     OW 9406   3.633   6.297   2.532
 2836SOL    HW1 9407   3.729   6.277   2.549
 2836SOL    HW2 9408   3.596   6.228   2.469
 2837SOL     OW 9409   4.973   4.437   2.053
 2837SOL    HW1 9410   4.931   4.488   2.128
 2837SOL    HW2 9411   4.965   4.339   2.072
 2838SOL     OW 9412   5.482   4.558   6.070
 2838SOL    HW1 9413   5.569   4.557   6.119
 2838SOL    HW2 9414   5.406   4.551   6.135
 2839SOL     OW 9415   5.772   2.713   4.872
 2839SOL    HW1 9416   5.682   2.692   4.909
 2839SOL    HW2 9417   5.838   2.717   4.947
 2840SOL     OW 9418   7.000   6.316   4.174
 2840SOL    HW1 9419   7.004   6.217   4.187
 2840SOL    HW2 9420   0.074   6.351   4.158
 2841SOL     OW 9421   6.509   3.312   2.294
 2841SOL    HW1 9422   6.445   3.388   2.281
 2841SOL    HW2 9423   6.600   3.348   2.317
 2842SOL     OW 9424   1.239   0.074   3.053
 2842SOL    HW1 9425   1.301   0.149   3.077
 2842SOL    HW2 9426   1.146   0.108   3.046
 2843SOL     OW 9427   2.126   2.907   3.215
 2843SOL    HW1 9428   2.124   3.003   3.188
 2843SOL    HW2 9429   2.092   2.898   3.309
 2844SOL     OW 9430   4.779   4.676   0.661
 2844SOL    HW1 9431   4.821   4.762   0.688
 2844SOL    HW2 9432   4.757   4.679   0.563
 2845SOL     OW 9433   3.321   2.131   3.578
 2845SOL    HW1 9434   3.242   2.171   3.624
 2845SOL    HW2 9435   3.304   2.130   3.479
 2846SOL     OW 9436   5.946   0.082   0.394
 2846SOL    HW1 9437   6.016   0.098   0.324
 2846SOL    HW2 9438   5.870   0.031   0.354
 2847SOL     OW 9439   4.395   5.300   1.821
 2847SOL    HW1 9440   4.445   5.300   1.908
 2847SOL    HW2 9441   4.445   5.246   1.754
 2848SOL     OW 9442   0.165   4.023   5.822
 2848SOL    HW1 9443   0.187   3.928   5.801
 2848SOL    HW2 9444   0.241   4.065   5.872
 2849SOL     OW 9445   4.896   0.204   2.377
 2849SOL    HW1 9446   4.939   0.261   2.307
 2849SOL    HW2 9447   4.872   0.260   2.455
 2850SOL     OW 9448   1.586   0.199   2.709
 2850SOL    HW1 9449   1.626   0.132   2.771
 2850SOL    HW2 9450   1.653   0.225   2.640
 2851SOL     OW 9451   3.972   3.434   0.545
 2851SOL    HW1 9452   3.973   3.376   0.626
 2851SOL    HW2 9453   3.887   3.422   0.495
 2852SOL     OW 9454   6.300   4.485   6.549
 2852SOL    HW1 9455   6.209   4.449   6.530
 2852SOL    HW2 9456   6.310   4.575   6.505
 2853SOL     OW 9457   0.350   4.004   6.566
 2853SOL    HW1 9458   0.319   4.051   6.484
 2853SOL    HW2 9459   0.300   3.918   6.576
 2854SOL     OW 9460   3.739   1.255   5.739
 2854SOL    HW1 9461   3.666   1.198   5.776
 2854SOL    HW2 9462   3.828   1.215   5.761
 2855SOL     OW 9463   1.920   1.100   5.599
 2855SOL    HW1 9464   1.927   1.199   5.587
 2855SOL    HW2 9465   1.841   1.078   5.655
 2856SOL     OW 9466   1.183   5.265   3.529
 2856SOL    HW1 9467   1.243   5.323   3.586
 2856SOL    HW2 9468   1.235   5.229   3.452
 2857SOL     OW 9469   0.003   3.664   0.027
 2857SOL    HW1 9470   6.983   3.720   0.101
 2857SOL    HW2 9471   6.995   3.704   6.957
 2858SOL     OW 9472   4.768   4.839   3.054
 2858SOL    HW1 9473   4.750   4.929   3.093
 2858SOL    HW2 9474   4.708   4.771   3.097
 2859SOL     OW 9475   5.017   4.365   1.008
 2859SOL    HW1 9476   5.045   4.434   1.075
 2859SOL    HW2 9477   4.934   4.396   0.961
 2860SOL     OW 9478   0.258   0.101   2.225
 2860SOL    HW1 9479   0.180   0.059   2.178
 2860SOL    HW2 9480   0.311   0.030   2.272
 2861SOL     OW 9481   4.556   5.456   6.393
 2861SOL    HW1 9482   4.553   5.387   6.465
 2861SOL    HW2 9483   4.638   5.512   6.403
 2862SOL     OW 9484   4.102   2.865   0.319
 2862SOL    HW1 9485   4.079   2.944   0.262
 2862SOL    HW2 9486   4.172   2.891   0.385
 2863SOL     OW 9487   5.415   6.816   5.420
 2863SOL    HW1 9488   5.506   6.778   5.406
 2863SOL    HW2 9489   5.364   6.755   5.482
 2864SOL     OW 9490   3.000   4.026   0.277
 2864SOL    HW1 9491   3.091   4.043   0.240
 2864SOL    HW2 9492   2.974   4.100   0.338
 2865SOL     OW 9493   5.285   5.513   4.348
 2865SOL    HW1 9494   5.192   5.484   4.369
 2865SOL    HW2 9495   5.349   5.461   4.404
 2866SOL     OW 9496   4.484   4.826   0.512
 2866SOL    HW1 9497   4.446   4.757   0.575
 2866SOL    HW2 9498   4.567   4.790   0.470
 2867SOL     OW 9499   5.086   6.172   1.911
 2867SOL    HW1 9500   5.041   6.084   1.925
 2867SOL    HW2 9501   5.170   6.159   1.858
 2868SOL     OW 9502   1.008   1.416   5.695
 2868SOL    HW1 9503   0.976   1.482   5.762
 2868SOL    HW2 9504   0.961   1.329   5.707
 2869SOL     OW 9505   5.874   5.509   4.624
 2869SOL    HW1 9506   5.789   5.475   4.666
 2869SOL    HW2 9507   5.925   5.432   4.587
 2870SOL     OW 9508   6.696   2.155   1.322
 2870SOL    HW1 9509   6.782   2.188   1.361
 2870SOL    HW2 9510   6.713   2.069   1.274
 2871SOL     OW 9511   5.425   1.591   1.274
 2871SOL    HW1 9512   5.511   1.642   1.277
 2871SOL    HW2 9513   5.348   1.655   1.277
 2872SOL     OW 9514   2.624   2.339   2.139
 2872SOL    HW1 9515   2.654   2.303   2.051
 2872SOL    HW2 9516   2.559   2.414   2.124
 2873SOL     OW 9517   0.938   5.948   1.242
 2873SOL    HW1 9518   1.028   5.905   1.252
 2873SOL    HW2 9519   0.919   5.963   1.145
 2874SOL     OW 9520   2.458   0.668   2.575
 2874SOL    HW1 9521   2.553   0.684   2.602
 2874SOL    HW2 9522   2.436   0.571   2.584
 2875SOL     OW 9523   2.783   6.735   2.867
 2875SOL    HW1 9524   2.725   6.672   2.815
 2875SOL    HW2 9525   2.803   6.696   2.957
 2876SOL     OW 9526   1.534   6.435   2.006
 2876SOL    HW1 9527   1.488   6.508   2.057
 2876SOL    HW2 9528   1.468   6.362   1.987
 2877SOL     OW 9529   1.187   1.866   6.516
 2877SOL    HW1 9530   1.133   1.945   6.545
 2877SOL    HW2 9531   1.187   1.861   6.416
 2878SOL     OW 9532   3.952   3.606   3.792
 2878SOL    HW1 9533   3.861   3.567   3.807
 2878SOL    HW2 9534   3.993   3.563   3.712
 2879SOL     OW 9535   4.232   3.694   0.186
 2879SOL    HW1 9536   4.152   3.751   0.205
 2879SOL    HW2 9537   4.270   3.660   0.273
 2880SOL     OW 9538   1.924   1.761   4.176
 2880SOL    HW1 9539   1.828   1.741   4.157
 2880SOL    HW2 9540   1.982   1.705   4.116
 2881SOL     OW 9541   4.587   6.272   6.441
 2881SOL    HW1 9542   4.522   6.250   6.369
 2881SOL    HW2 9543   4.622   6.187   6.482
 2882SOL     OW 9544   4.621   6.414   0.531
 2882SOL    HW1 9545   4.557   6.417   0.608
 2882SOL    HW2 9546   4.585   6.354   0.460
 2883SOL     OW 9547   6.360   6.003   3.874
 2883SOL    HW1 9548   6.441   5.971   3.924
 2883SOL    HW2 9549   6.279   5.955   3.908
 2884SOL     OW 9550   6.590   4.850   3.752
 2884SOL    HW1 9551   6.677   4.814   3.785
 2884SOL    HW2 9552   6.551   4.788   3.685
 2885SOL     OW 9553   1.104   2.668   3.078
 2885SOL    HW1 9554   1.064   2.703   2.993
 2885SOL    HW2 9555   1.194   2.708   3.091
 2886SOL     OW 9556   1.911   4.803   6.268
 2886SOL    HW1 9557   1.865   4.874   6.215
 2886SOL    HW2 9558   1.864   4.715   6.254
 2887SOL     OW 9559   0.692   5.580   3.957
 2887SOL    HW1 9560   0.651   5.536   3.878
 2887SOL    HW2 9561   0.637   5.660   3.983
 2888SOL     OW 9562   6.533   6.305   0.083
 2888SOL    HW1 9563   6.587   6.283   0.164
 2888SOL    HW2 9564   6.451   6.355   0.110
 2889SOL     OW 9565   3.537   6.479   2.889
 2889SOL    HW1 9566   3.540   6.420   2.970
 2889SOL    HW2 9567   3.444   6.510   2.873
 2890SOL     OW 9568   2.485   0.728   1.336
 2890SOL    HW1 9569   2.540   0.732   1.253
 2890SOL    HW2 9570   2.452   0.634   1.350
 2891SOL     OW 9571   0.750   1.916   4.398
 2891SOL    HW1 9572   0.689   1.941   4.323
 2891SOL    HW2 9573   0.840   1.957   4.383
 2892SOL     OW 9574   6.887   4.148   2.914
 2892SOL    HW1 9575   6.789   4.132   2.927
 2892SOL    HW2 9576   6.934   4.062   2.898
 2893SOL     OW 9577   6.774   5.598   4.594
 2893SOL    HW1 9578   6.840   5.616   4.521
 2893SOL    HW2 9579   6.822   5.595   4.682
 2894SOL     OW 9580   1.539   5.638   2.562
 2894SOL    HW1 9581   1.510   5.553   2.520
 2894SOL    HW2 9582   1.509   5.716   2.507
 2895SOL     OW 9583   4.075   6.713   6.378
 2895SOL    HW1 9584   4.004   6.647   6.403
 2895SOL    HW2 9585   4.153   6.704   6.441
 2896SOL     OW 9586   5.041   6.190   4.782
 2896SOL    HW1 9587   5.116   6.155   4.838
 2896SOL    HW2 9588   5.003   6.115   4.727
 2897SOL     OW 9589   3.604   4.945   3.414
 2897SOL    HW1 9590   3.686   4.890   3.397
 2897SOL    HW2 9591   3.618   5.002   3.495
 2898SOL     OW 9592   5.419   3.595   2.977
 2898SOL    HW1 9593   5.448   3.649   2.898
 2898SOL    HW2 9594   5.366   3.516   2.945
 2899SOL     OW 9595   6.956   3.266   1.099
 2899SOL    HW1 9596   6.994   3.344   1.049
 2899SOL    HW2 9597   6.979   3.274   1.196
 2900SOL     OW 9598   2.637   3.538   6.348
 2900SOL    HW1 9599   2.601   3.614   6.401
 2900SOL    HW2 9600   2.614   3.551   6.251
 2901SOL     OW 9601   1.019   3.891   3.852
 2901SOL    HW1 9602   1.023   3.960   3.925
 2901SOL    HW2 9603   0.960   3.815   3.879
 2902SOL     OW 9604   0.263   6.170   3.586
 2902SOL    HW1 9605   0.257   6.267   3.609
 2902SOL    HW2 9606   0.185   6.145   3.528
 2903SOL     OW 9607   4.379   5.372   0.548
 2903SOL    HW1 9608   4.436   5.398   0.627
 2903SOL    HW2 9609   4.353   5.454   0.497
 2904SOL     OW 9610   2.406   4.186   5.338
 2904SOL    HW1 9611   2.484   4.248   5.327
 2904SOL    HW2 9612   2.411   4.114   5.268
 2905SOL     OW 9613   0.734   5.626   1.694
 2905SOL    HW1 9614   0.663   5.572   1.648
 2905SOL    HW2 9615   0.802   5.655   1.628
 2906SOL     OW 9616   6.190   6.241   2.914
 2906SOL    HW1 9617   6.120   6.175   2.887
 2906SOL    HW2 9618   6.280   6.209   2.884
 2907SOL     OW 9619   0.341   1.021   3.827
 2907SOL    HW1 9620   0.264   0.964   3.855
 2907SOL    HW2 9621   0.426   0.980   3.859
 2908SOL     OW 9622   4.275   6.554   2.460
 2908SOL    HW1 9623   4.217   6.632   2.437
 2908SOL    HW2 9624   4.355   6.586   2.512
 2909SOL     OW 9625   0.767   6.127   2.514
 2909SOL    HW1 9626   0.798   6.149   2.421
 2909SOL    HW2 9627   0.843   6.086   2.565
 2910SOL     OW 9628   6.558   0.571   4.290
 2910SOL    HW1 9629   6.473   0.575   4.343
 2910SOL    HW2 9630   6.628   0.626   4.335
 2911SOL     OW 9631   6.508   4.093   4.890
 2911SOL    HW1 9632   6.459   4.098   4.977
 2911SOL    HW2 9633   6.443   4.099   4.815
 2912SOL     OW 9634   0.879   7.004   1.408
 2912SOL    HW1 9635   0.911   0.006   1.500
 2912SOL    HW2 9636   0.958   6.987   1.348
 2913SOL     OW 9637   2.692   6.677   1.469
 2913SOL    HW1 9638   2.776   6.638   1.505
 2913SOL    HW2 9639   2.690   6.776   1.488
 2914SOL     OW 9640   4.490   5.483   0.765
 2914SOL    HW1 9641   4.473   5.574   0.803
 2914SOL    HW2 9642   4.588   5.473   0.745
 2915SOL     OW 9643   2.568   0.125   2.565
 2915SOL    HW1 9644   2.546   0.222   2.580
 2915SOL    HW2 9645   2.650   0.119   2.508
 2916SOL     OW 9646   1.463   5.670   0.782
 2916SOL    HW1 9647   1.470   5.599   0.712
 2916SOL    HW2 9648   1.450   5.759   0.739
 2917SOL     OW 9649   2.270   6.195   4.344
 2917SOL    HW1 9650   2.338   6.235   4.282
 2917SOL    HW2 9651   2.273   6.244   4.431
 2918SOL     OW 9652   5.295   2.826   1.708
 2918SOL    HW1 9653   5.282   2.900   1.642
 2918SOL    HW2 9654   5.244   2.847   1.792
 2919SOL     OW 9655   1.016   5.563   4.265
 2919SOL    HW1 9656   0.936   5.612   4.299
 2919SOL    HW2 9657   1.021   5.574   4.166
 2920SOL     OW 9658   1.269   2.229   2.640
 2920SOL    HW1 9659   1.299   2.315   2.597
 2920SOL    HW2 9660   1.337   2.200   2.707
 2921SOL     OW 9661   1.307   0.332   4.576
 2921SOL    HW1 9662   1.339   0.389   4.652
 2921SOL    HW2 9663   1.386   0.303   4.522
 2922SOL     OW 9664   3.982   6.859   3.290
 2922SOL    HW1 9665   3.899   6.845   3.237
 2922SOL    HW2 9666   4.044   6.782   3.275
 2923SOL     OW 9667   6.433   6.056   4.856
 2923SOL    HW1 9668   6.464   5.972   4.901
 2923SOL    HW2 9669   6.505   6.090   4.795
 2924SOL     OW 9670   5.914   2.353   4.872
 2924SOL    HW1 9671   5.889   2.414   4.797
 2924SOL    HW2 9672   5.956   2.405   4.946
 2925SOL     OW 9673   4.918   7.012   6.181
 2925SOL    HW1 9674   4.992   0.010   6.116
 2925SOL    HW2 9675   4.871   0.080   6.201
 2926SOL     OW 9676   0.001   2.137   4.371
 2926SOL    HW1 9677   0.088   2.093   4.395
 2926SOL    HW2 9678   6.961   2.072   4.322
 2927SOL     OW 9679   1.098   2.435   1.942
 2927SOL    HW1 9680   1.135   2.412   2.032
 2927SOL    HW2 9681   1.096   2.534   1.931
 2928SOL     OW 9682   6.499   3.245   6.967
 2928SOL    HW1 9683   6.520   3.215   0.042
 2928SOL    HW2 9684   6.400   3.248   6.955
 2929SOL     OW 9685   2.625   2.409   4.956
 2929SOL    HW1 9686   2.544   2.466   4.967
 2929SOL    HW2 9687   2.631   2.378   4.861
 2930SOL     OW 9688   6.772   4.352   5.086
 2930SOL    HW1 9689   6.847   4.389   5.031
 2930SOL    HW2 9690   6.794   4.257   5.112
 2931SOL     OW 9691   5.487   4.404   5.192
 2931SOL    HW1 9692   5.404   4.429   5.241
 2931SOL    HW2 9693   5.558   4.473   5.208
 2932SOL     OW 9694   0.000   5.307   0.846
 2932SOL    HW1 9695   6.945   5.371   0.869
 2932SOL    HW2 9696   6.979   5.222   0.811
 2933SOL     OW 9697   1.289   0.498   1.166
 2933SOL    HW1 9698   1.224   0.574   1.162
 2933SOL    HW2 9699   1.379   0.530   1.135
 2934SOL     OW 9700   3.932   4.566   0.298
 2934SOL    HW1 9701   3.867   4.604   0.232
 2934SOL    HW2 9702   3.908   4.597   0.390
 2935SOL     OW 9703   6.948   2.360   6.209
 2935SOL    HW1 9704   6.907   2.280   6.252
 2935SOL    HW2 9705   0.014   2.385   6.258
 2936SOL     OW 9706   3.835   6.170   0.735
 2936SOL    HW1 9707   3.929   6.186   0.705
 2936SOL    HW2 9708   3.830   6.175   0.835
 2937SOL     OW 9709   4.494   5.208   2.463
 2937SOL    HW1 9710   4.436   5.140   2.418
 2937SOL    HW2 9711   4.441   5.254   2.535
 2938SOL     OW 9712   6.231   6.219   6.808
 2938SOL    HW1 9713   6.299   6.161   6.852
 2938SOL    HW2 9714   6.186   6.168   6.735
 2939SOL     OW 9715   0.417   5.816   1.787
 2939SOL    HW1 9716   0.431   5.770   1.875
 2939SOL    HW2 9717   0.390   5.911   1.802
 2940SOL     OW 9718   4.475   6.936   3.642
 2940SOL    HW1 9719   4.487   7.011   3.577
 2940SOL    HW2 9720   4.558   6.926   3.698
 2941SOL     OW 9721   1.613   3.920   3.848
 2941SOL    HW1 9722   1.660   3.904   3.935
 2941SOL    HW2 9723   1.675   3.968   3.785
 2942SOL     OW 9724   3.571   1.723   1.345
 2942SOL    HW1 9725   3.499   1.669   1.301
 2942SOL    HW2 9726   3.541   1.818   1.352
 2943SOL     OW 9727   6.025   4.022   3.445
 2943SOL    HW1 9728   6.053   3.972   3.363
 2943SOL    HW2 9729   6.046   4.119   3.435
 2944SOL     OW 9730   1.792   5.526   2.955
 2944SOL    HW1 9731   1.731   5.496   3.027
 2944SOL    HW2 9732   1.793   5.626   2.951
 2945SOL     OW 9733   5.295   4.590   1.700
 2945SOL    HW1 9734   5.274   4.669   1.643
 2945SOL    HW2 9735   5.246   4.597   1.787
 2946SOL     OW 9736   3.319   4.020   5.602
 2946SOL    HW1 9737   3.379   3.944   5.626
 2946SOL    HW2 9738   3.250   3.988   5.537
 2947SOL     OW 9739   6.526   6.669   0.582
 2947SOL    HW1 9740   6.548   6.576   0.552
 2947SOL    HW2 9741   6.489   6.720   0.504
 2948SOL     OW 9742   6.185   4.177   1.747
 2948SOL    HW1 9743   6.238   4.262   1.747
 2948SOL    HW2 9744   6.092   4.196   1.778
 2949SOL     OW 9745   1.057   0.356   0.847
 2949SOL    HW1 9746   1.016   0.305   0.923
 2949SOL    HW2 9747   1.044   0.305   0.762
 2950SOL     OW 9748   5.580   4.610   3.091
 2950SOL    HW1 9749   5.644   4.640   3.020
 2950SOL    HW2 9750   5.532   4.529   3.059
 2951SOL     OW 9751   6.421   1.159   1.639
 2951SOL    HW1 9752   6.491   1.145   1.569
 2951SOL    HW2 9753   6.441   1.244   1.688
 2952SOL     OW 9754   5.723   1.498   3.971
 2952SOL    HW1 9755   5.641   1.485   4.026
 2952SOL    HW2 9756   5.771   1.581   4.001
 2953SOL     OW 9757   0.711   5.359   4.101
 2953SOL    HW1 9758   0.712   5.455   4.075
 2953SOL    HW2 9759   0.765   5.305   4.035
 2954SOL     OW 9760   6.985   4.393   6.376
 2954SOL    HW1 9761   6.921   4.407   6.301
 2954SOL    HW2 9762   0.055   4.361   6.340
 2955SOL     OW 9763   2.156   4.831   6.389
 2955SOL    HW1 9764   2.059   4.820   6.365
 2955SOL    HW2 9765   2.169   4.917   6.439
 2956SOL     OW 9766   6.397   4.652   3.252
 2956SOL    HW1 9767   6.392   4.748   3.224
 2956SOL    HW2 9768   6.404   4.594   3.171
 2957SOL     OW 9769   2.710   4.994   0.907
 2957SOL    HW1 9770   2.794   5.032   0.947
 2957SOL    HW2 9771   2.633   5.011   0.968
 2958SOL     OW 9772   2.052   5.568   2.278
 2958SOL    HW1 9773   1.956   5.582   2.304
 2958SOL    HW2 9774   2.110   5.584   2.358
 2959SOL     OW 9775   0.036   3.396   2.945
 2959SOL    HW1 9776   0.025   3.297   2.940
 2959SOL    HW2 9777   6.983   3.440   2.889
 2960SOL     OW 9778   4.925   0.447   0.283
 2960SOL    HW1 9779   4.902   0.378   0.351
 2960SOL    HW2 9780   4.978   0.520   0.326
 2961SOL     OW 9781   5.388   4.382   2.167
 2961SOL    HW1 9782   5.358   4.316   2.236
 2961SOL    HW2 9783   5.477   4.353   2.130
 2962SOL     OW 9784   0.022   0.204   3.012
 2962SOL    HW1 9785   6.945   0.184   2.989
 2962SOL    HW2 9786   0.060   0.268   2.945
 2963SOL     OW 9787   2.254   0.953   4.851
 2963SOL    HW1 9788   2.234   1.028   4.788
 2963SOL    HW2 9789   2.301   0.989   4.931
 2964SOL     OW 9790   1.246   1.857   6.965
 2964SOL    HW1 9791   1.305   1.931   6.999
 2964SOL    HW2 9792   1.283   1.769   6.994
 2965SOL     OW 9793   0.726   6.975   5.087
 2965SOL    HW1 9794   0.654   0.010   5.041
 2965SOL    HW2 9795   0.708   6.972   5.185
 2966SOL     OW 9796   3.518   6.136   2.727
 2966SOL    HW1 9797   3.528   6.207   2.658
 2966SOL    HW2 9798   3.483   6.176   2.812
 2967SOL     OW 9799   5.446   0.071   5.423
 2967SOL    HW1 9800   5.362   0.111   5.387
 2967SOL    HW2 9801   5.439   6.990   5.421
 2968SOL     OW 9802   2.051   2.820   1.304
 2968SOL    HW1 9803   2.018   2.912   1.327
 2968SOL    HW2 9804   2.104   2.783   1.380
 2969SOL     OW 9805   5.095   3.342   4.407
 2969SOL    HW1 9806   5.020   3.396   4.445
 2969SOL    HW2 9807   5.130   3.279   4.476
 2970SOL     OW 9808   2.407   2.102   4.392
 2970SOL    HW1 9809   2.366   2.033   4.332
 2970SOL    HW2 9810   2.416   2.066   4.484
 2971SOL     OW 9811   5.502   2.577   6.307
 2971SOL    HW1 9812   5.584   2.551   6.357
 2971SOL    HW2 9813   5.475   2.502   6.246
 2972SOL     OW 9814   5.664   5.334   0.248
 2972SOL    HW1 9815   5.598   5.260   0.235
 2972SOL    HW2 9816   5.658   5.398   0.171
 2973SOL     OW 9817   4.861   1.471   2.620
 2973SOL    HW1 9818   4.938   1.531   2.641
 2973SOL    HW2 9819   4.856   1.398   2.689
 2974SOL     OW 9820   5.100   6.400   3.205
 2974SOL    HW1 9821   5.052   6.354   3.130
 2974SOL    HW2 9822   5.052   6.382   3.291
 2975SOL     OW 9823   4.819   4.227   3.550
 2975SOL    HW1 9824   4.880   4.155   3.516
 2975SOL    HW2 9825   4.756   4.188   3.617
 2976SOL     OW 9826   4.157   2.275   1.969
 2976SOL    HW1 9827   4.079   2.271   1.906
 2976SOL    HW2 9828   4.238   2.306   1.919
 2977SOL     OW 9829   1.261   1.082   1.443
 2977SOL    HW1 9830   1.286   0.985   1.453
 2977SOL    HW2 9831   1.164   1.094   1.461
 2978SOL     OW 9832   4.408   4.988   5.978
 2978SOL    HW1 9833   4.451   5.063   5.929
 2978SOL    HW2 9834   4.449   4.979   6.068
 2979SOL     OW 9835   3.135   0.383   3.868
 2979SOL    HW1 9836   3.171   0.378   3.962
 2979SOL    HW2 9837   3.115   0.291   3.835
 2980SOL     OW 9838   3.716   3.243   5.312
 2980SOL    HW1 9839   3.807   3.221   5.276
 2980SOL    HW2 9840   3.693   3.181   5.387
 2981SOL     OW 9841   1.662   1.132   1.458
 2981SOL    HW1 9842   1.759   1.137   1.433
 2981SOL    HW2 9843   1.628   1.039   1.443
 2982SOL     OW 9844   0.551   0.475   1.719
 2982SOL    HW1 9845   0.626   0.419   1.685
 2982SOL    HW2 9846   0.541   0.462   1.818
 2983SOL     OW 9847   6.291   3.115   5.584
 2983SOL    HW1 9848   6.224   3.047   5.552
 2983SOL    HW2 9849   6.243   3.194   5.621
 2984SOL     OW 9850   0.777   4.832   1.142
 2984SOL    HW1 9851   0.757   4.755   1.081
 2984SOL    HW2 9852   0.859   4.813   1.195
 2985SOL     OW 9853   0.151   6.773   5.461
 2985SOL    HW1 9854   0.139   6.800   5.365
 2985SOL    HW2 9855   0.132   6.851   5.520
 2986SOL     OW 9856   4.013   3.562   2.278
 2986SOL    HW1 9857   3.932   3.510   2.251
 2986SOL    HW2 9858   4.077   3.501   2.326
 2987SOL     OW 9859   2.013   0.386   4.842
 2987SOL    HW1 9860   2.098   0.396   4.790
 2987SOL    HW2 9861   1.970   0.299   4.818
 2988SOL     OW 9862   0.133   1.296   6.871
 2988SOL    HW1 9863   0.048   1.349   6.876
 2988SOL    HW2 9864   0.133   1.240   6.788
 2989SOL     OW 9865   5.095   3.885   4.299
 2989SOL    HW1 9866   5.108   3.825   4.378
 2989SOL    HW2 9867   5.179   3.936   4.281
 2990SOL     OW 9868   5.376   1.318   4.380
 2990SOL    HW1 9869   5.364   1.417   4.393
 2990SOL    HW2 9870   5.327   1.288   4.299
 2991SOL     OW 9871   0.012   4.269   1.255
 2991SOL    HW1 9872   0.025   4.345   1.191
 2991SOL    HW2 9873   6.990   4.304   1.340
 2992SOL     OW 9874   0.286   3.395   5.586
 2992SOL    HW1 9875   0.285   3.295   5.579
 2992SOL    HW2 9876   0.369   3.431   5.542
 2993SOL     OW 9877   1.010   4.235   0.506
 2993SOL    HW1 9878   1.100   4.254   0.547
 2993SOL    HW2 9879   0.944   4.213   0.577
 2994SOL     OW 9880   4.267   6.375   6.368
 2994SOL    HW1 9881   4.330   6.309   6.328
 2994SOL    HW2 9882   4.215   6.421   6.296
 2995SOL     OW 9883   5.376   0.591   1.307
 2995SOL    HW1 9884   5.318   0.588   1.389
 2995SOL    HW2 9885   5.325   0.556   1.229
 2996SOL     OW 9886   6.967   0.797   4.645
 2996SOL    HW1 9887   6.998   0.792   4.550
 2996SOL    HW2 9888   6.928   0.709   4.673
 2997SOL     OW 9889   5.327   6.838   3.956
 2997SOL    HW1 9890   5.305   6.932   3.931
 2997SOL    HW2 9891   5.396   6.802   3.893
 2998SOL     OW 9892   2.426   1.469   2.837
 2998SOL    HW1 9893   2.466   1.396   2.892
 2998SOL    HW2 9894   2.448   1.454   2.740
 2999SOL     OW 9895   2.271   4.338   0.679
 2999SOL    HW1 9896   2.331   4.374   0.750
 2999SOL    HW2 9897   2.324   4.279   0.618
 3000SOL     OW 9898   2.892   3.756   4.688
 3000SOL    HW1 9899   2.894   3.805   4.775
 3000SOL    HW2 9900   2.824   3.683   4.693
 3001SOL     OW 9901   5.739   0.450   5.745
 3001SOL    HW1 9902   5.701   0.533   5.786
 3001SOL    HW2 9903   5.665   0.397   5.704
 3002SOL     OW 9904   1.765   1.770   1.717
 3002SOL    HW1 9905   1.701   1.828   1.667
 3002SOL    HW2 9906   1.727   1.746   1.806
 3003SOL     OW 9907   1.550   6.196   0.747
 3003SOL    HW1 9908   1.632   6.183   0.802
 3003SOL    HW2 9909   1.575   6.242   0.662
 3004SOL     OW 9910   2.332   6.331   3.647
 3004SOL    HW1 9911   2.315   6.255   3.710
 3004SOL    HW2 9912   2.405   6.388   3.682
 3005SOL     OW 9913   0.924   2.288   6.062
 3005SOL    HW1 9914   1.019   2.287   6.032
 3005SOL    HW2 9915   0.864   2.279   5.983
 3006SOL     OW 9916   5.127   1.474   5.590
 3006SOL    HW1 9917   5.214   1.424   5.584
 3006SOL    HW2 9918   5.146   1.571   5.606
 3007SOL     OW 9919   5.343   5.388   0.007
 3007SOL    HW1 9920   5.406   5.455   6.985
 3007SOL    HW2 9921   5.275   5.436   0.063
 3008SOL     OW 9922   5.360   2.677   5.960
 3008SOL    HW1 9923   5.406   2.738   5.896
 3008SOL    HW2 9924   5.265   2.665   5.931
 3009SOL     OW 9925   6.985   3.589   2.429
 3009SOL    HW1 9926   6.994   3.596   2.329
 3009SOL    HW2 9927   0.053   3.555   2.467
 3010SOL     OW 9928   3.708   5.676   6.790
 3010SOL    HW1 9929   3.713   5.600   6.725
 3010SOL    HW2 9930   3.612   5.699   6.806
 3011SOL     OW 9931   6.590   0.067   0.950
 3011SOL    HW1 9932   6.682   0.105   0.957
 3011SOL    HW2 9933   6.558   0.075   0.855
 3012SOL     OW 9934   2.316   2.737   5.634
 3012SOL    HW1 9935   2.259   2.727   5.716
 3012SOL    HW2 9936   2.298   2.661   5.571
 3013SOL     OW 9937   0.610   4.061   5.186
 3013SOL    HW1 9938   0.596   3.986   5.250
 3013SOL    HW2 9939   0.666   4.029   5.109
 3014SOL     OW 9940   5.215   6.476   5.911
 3014SOL    HW1 9941   5.189   6.463   5.815
 3014SOL    HW2 9942   5.286   6.546   5.917
 3015SOL     OW 9943   1.655   0.972   0.158
 3015SOL    HW1 9944   1.633   1.016   0.245
 3015SOL    HW2 9945   1.586   0.904   0.136
 3016SOL     OW 9946   1.866   6.503   4.113
 3016SOL    HW1 9947   1.932   6.428   4.120
 3016SOL    HW2 9948   1.813   6.509   4.198
 3017SOL     OW 9949   0.422   5.236   0.639
 3017SOL    HW1 9950   0.442   5.332   0.660
 3017SOL    HW2 9951   0.471   5.176   0.702
 3018SOL     OW 9952   3.183   7.006   0.603
 3018SOL    HW1 9953   3.191   0.021   0.509
 3018SOL    HW2 9954   3.259   6.945   0.623
 3019SOL     OW 9955   2.024   0.652   5.613
 3019SOL    HW1 9956   2.082   0.640   5.533
 3019SOL    HW2 9957   2.033   0.573   5.674
 3020SOL     OW 9958   6.215   4.165   0.112
 3020SOL    HW1 9959   6.295   4.197   0.061
 3020SOL    HW2 9960   6.200   4.225   0.191
 3021SOL     OW 9961   4.368   6.820   4.696
 3021SOL    HW1 9962   4.452   6.874   4.705
 3021SOL    HW2 9963   4.301   6.873   4.644
 3022SOL     OW 9964   3.686   5.845   3.835
 3022SOL    HW1 9965   3.639   5.764   3.801
 3022SOL    HW2 9966   3.748   5.820   3.909
 3023SOL     OW 9967   4.886   5.967   3.166
 3023SOL    HW1 9968   4.962   6.021   3.202
 3023SOL    HW2 9969   4.922   5.894   3.108
 3024SOL     OW 9970   0.016   6.427   6.883
 3024SOL    HW1 9971   0.020   6.501   6.950
 3024SOL    HW2 9972   6.985   6.458   6.802
 3025SOL     OW 9973   3.157   5.820   0.310
 3025SOL    HW1 9974   3.170   5.721   0.298
 3025SOL    HW2 9975   3.062   5.838   0.335
 3026SOL     OW 9976   6.613   1.089   1.420
 3026SOL    HW1 9977   6.683   1.149   1.382
 3026SOL    HW2 9978   6.656   1.016   1.473
 3027SOL     OW 9979   4.854   1.197   1.537
 3027SOL    HW1 9980   4.906   1.277   1.508
 3027SOL    HW2 9981   4.757   1.221   1.546
 3028SOL     OW 9982   3.138   3.840   5.434
 3028SOL    HW1 9983   3.062   3.871   5.491
 3028SOL    HW2 9984   3.109   3.834   5.339
 3029SOL     OW 9985   0.194   3.058   4.549
 3029SOL    HW1 9986   0.272   3.064   4.487
 3029SOL    HW2 9987   0.177   2.962   4.572
 3030SOL     OW 9988   2.657   2.929   0.856
 3030SOL    HW1 9989   2.748   2.918   0.816
 3030SOL    HW2 9990   2.650   3.018   0.900
 3031SOL     OW 9991   1.170   6.574   0.932
 3031SOL    HW1 9992   1.190   6.591   1.028
 3031SOL    HW2 9993   1.218   6.490   0.902
 3032SOL     OW 9994   2.034   0.389   2.889
 3032SOL    HW1 9995   2.058   0.375   2.985
 3032SOL    HW2 9996   1.995   0.480   2.877
 3033SOL     OW 9997   6.498   2.175   4.907
 3033SOL    HW1 9998   6.558   2.249   4.940
 3033SOL    HW2 9999   6.547   2.122   4.838
 3034SOL     OW10000   6.688   5.164   3.291
 3034SOL    HW110001   6.622   5.192   3.221
 3034SOL    HW210002   6.781   5.178   3.258
 3035SOL     OW10003   1.530   2.971   6.787
 3035SOL    HW110004   1.547   3.051   6.844
 3035SOL    HW210005   1.591   2.973   6.708
 3036SOL     OW10006   3.233   2.314   6.507
 3036SOL    HW110007   3.172   2.235   6.499
 3036SOL    HW210008   3.247   2.354   6.416
 3037SOL     OW10009   0.248   5.820   6.994
 3037SOL    HW110010   0.245   5.858   0.069
 3037SOL    HW210011   0.180   5.746   6.987
 3038SOL     OW10012   5.751   4.489   6.748
 3038SOL    HW110013   5.758   4.554   6.673
 3038SOL    HW210014   5.830   4.498   6.809
 3039SOL     OW10015   7.001   3.967   6.591
 3039SOL    HW110016   0.036   3.883   6.602
 3039SOL    HW210017   0.032   4.043   6.635
 3040SOL     OW10018   4.856   4.084   6.027
 3040SOL    HW110019   4.947   4.073   6.065
 3040SOL    HW210020   4.833   4.004   5.972
 3041SOL     OW10021   1.831   4.588   5.359
 3041SOL    HW110022   1.855   4.581   5.262
 3041SOL    HW210023   1.788   4.502   5.388
 3042SOL     OW10024   6.724   5.119   3.561
 3042SOL    HW110025   6.631   5.110   3.597
 3042SOL    HW210026   6.721   5.150   3.466
 3043SOL     OW10027   2.805   4.663   0.574
 3043SOL    HW110028   2.869   4.643   0.648
 3043SOL    HW210029   2.844   4.733   0.514
 3044SOL     OW10030   3.530   3.652   4.853
 3044SOL    HW110031   3.582   3.641   4.938
 3044SOL    HW210032   3.593   3.673   4.778
 3045SOL     OW10033   4.632   1.783   1.963
 3045SOL    HW110034   4.655   1.776   2.060
 3045SOL    HW210035   4.534   1.765   1.951
 3046SOL     OW10036   5.451   6.033   1.077
 3046SOL    HW110037   5.548   6.052   1.090
 3046SOL    HW210038   5.401   6.119   1.070
 3047SOL     OW10039   5.761   1.574   5.287
 3047SOL    HW110040   5.730   1.492   5.334
 3047SOL    HW210041   5.767   1.557   5.189
 3048SOL     OW10042   3.477   4.295   0.694
 3048SOL    HW110043   3.442   4.242   0.617
 3048SOL    HW210044   3.495   4.389   0.663
 3049SOL     OW10045   1.555   1.058   3.593
 3049SOL    HW110046   1.650   1.082   3.614
 3049SOL    HW210047   1.529   1.099   3.505
 3050SOL     OW10048   3.020   2.269   1.110
 3050SOL    HW110049   2.941   2.311   1.156
 3050SOL    HW210050   2.989   2.217   1.031
 3051SOL     OW10051   2.038   5.356   5.566
 3051SOL    HW110052   2.110   5.317   5.508
 3051SOL    HW210053   1.999   5.284   5.623
 3052SOL     OW10054   6.777   6.866   2.170
 3052SOL    HW110055   6.708   6.866   2.098
 3052SOL    HW210056   6.801   6.772   2.194
 3053SOL     OW10057   1.108   4.048   0.059
 3053SOL    HW110058   1.065   4.093   0.137
 3053SOL    HW210059   1.052   3.970   0.030
 3054SOL     OW10060   5.535   1.042   2.494
 3054SOL    HW110061   5.558   1.077   2.585
 3054SOL    HW210062   5.440   1.012   2.492
 3055SOL     OW10063   5.815   6.124   6.797
 3055SOL    HW110064   5.857   6.162   6.714
 3055SOL    HW210065   5.792   6.198   6.860
 3056SOL     OW10066   4.789   1.500   5.430
 3056SOL    HW110067   4.833   1.454   5.507
 3056SOL    HW210068   4.805   1.447   5.347
 3057SOL     OW10069   5.835   4.713   3.494
 3057SOL    HW110070   5.916   4.704   3.436
 3057SOL    HW210071   5.862   4.713   3.590
 3058SOL     OW10072   0.343   4.588   6.704
 3058SOL    HW110073   0.273   4.533   6.658
 3058SOL    HW210074   0.299   4.665   6.750
 3059SOL     OW10075   2.017   2.147   3.898
 3059SOL    HW110076   1.924   2.172   3.923
 3059SOL    HW210077   2.017   2.106   3.807
 3060SOL     OW10078   5.056   5.211   5.051
 3060SOL    HW110079   5.030   5.115   5.059
 3060SOL    HW210080   5.154   5.218   5.035
 3061SOL     OW10081   5.563   5.905   4.956
 3061SOL    HW110082   5.494   5.836   4.977
 3061SOL    HW210083   5.590   5.898   4.860
 3062SOL     OW10084   4.521   4.457   1.386
 3062SOL    HW110085   4.493   4.384   1.324
 3062SOL    HW210086   4.441   4.513   1.409
 3063SOL     OW10087   0.506   4.641   1.630
 3063SOL    HW110088   0.478   4.570   1.566
 3063SOL    HW210089   0.606   4.650   1.628
 3064SOL     OW10090   4.836   1.870   6.499
 3064SOL    HW110091   4.863   1.831   6.586
 3064SOL    HW210092   4.828   1.798   6.430
 3065SOL     OW10093   6.740   1.057   6.609
 3065SOL    HW110094   6.657   1.032   6.560
 3065SOL    HW210095   6.804   1.100   6.545
 3066SOL     OW10096   5.080   6.193   5.851
 3066SOL    HW110097   5.122   6.231   5.934
 3066SOL    HW210098   5.136   6.215   5.772
 3067SOL     OW10099   1.509   2.051   6.032
 3067SOL    HW110100   1.437   2.048   6.102
 3067SOL    HW210101   1.589   2.001   6.064
 3068SOL     OW10102   0.513   1.332   0.652
 3068SOL    HW110103   0.582   1.281   0.600
 3068SOL    HW210104   0.456   1.268   0.703
 3069SOL     OW10105   5.423   0.148   2.492
 3069SOL    HW110106   5.521   0.134   2.508
 3069SOL    HW210107   5.371   0.073   2.532
 3070SOL     OW10108   2.303   0.607   1.065
 3070SOL    HW110109   2.350   0.550   0.998
 3070SOL    HW210110   2.246   0.550   1.124
 3071SOL     OW10111   6.586   3.807   4.659
 3071SOL    HW110112   6.605   3.758   4.744
 3071SOL    HW210113   6.596   3.906   4.674
 3072SOL     OW10114   2.211   0.627   6.554
 3072SOL    HW110115   2.205   0.601   6.457
 3072SOL    HW210116   2.295   0.591   6.593
 3073SOL     OW10117   6.248   5.097   1.202
 3073SOL    HW110118   6.227   5.087   1.299
 3073SOL    HW210119   6.220   5.188   1.171
 3074SOL     OW10120   1.851   3.213   1.736
 3074SOL    HW110121   1.790   3.230   1.813
 3074SOL    HW210122   1.923   3.283   1.734
 3075SOL     OW10123   3.766   5.616   2.263
 3075SOL    HW110124   3.744   5.633   2.167
 3075SOL    HW210125   3.704   5.547   2.300
 3076SOL     OW10126   0.512   0.662   5.184
 3076SOL    HW110127   0.423   0.621   5.199
 3076SOL    HW210128   0.551   0.690   5.271
 3077SOL     OW10129   6.895   3.926   2.692
 3077SOL    HW110130   6.931   3.893   2.780
 3077SOL    HW210131   6.849   3.851   2.645
 3078SOL     OW10132   6.565   3.190   1.910
 3078SOL    HW110133   6.661   3.166   1.928
 3078SOL    HW210134   6.510   3.170   1.991
 3079SOL     OW10135   2.007   3.420   5.449
 3079SOL    HW110136   1.979   3.335   5.405
 3079SOL    HW210137   2.071   3.469   5.389
 3080SOL     OW10138   4.116   4.983   0.539
 3080SOL    HW110139   4.078   4.924   0.610
 3080SOL    HW210140   4.086   4.951   0.449
 3081SOL     OW10141   1.274   3.747   0.088
 3081SOL    HW110142   1.310   3.746   7.013
 3081SOL    HW210143   1.331   3.806   0.145
 3082SOL     OW10144   4.686   4.940   4.679
 3082SOL    HW110145   4.641   5.028   4.698
 3082SOL    HW210146   4.619   4.877   4.641
 3083SOL     OW10147   3.288   6.046   1.834
 3083SOL    HW110148   3.266   5.965   1.780
 3083SOL    HW210149   3.343   6.019   1.913
 3084SOL     OW10150   0.565   3.639   4.172
 3084SOL    HW110151   0.501   3.710   4.141
 3084SOL    HW210152   0.542   3.552   4.129
 3085SOL     OW10153   5.395   4.343   0.674
 3085SOL    HW110154   5.320   4.304   0.728
 3085SOL    HW210155   5.440   4.269   0.623
 3086SOL     OW10156   5.922   6.691   6.443
 3086SOL    HW110157   6.008   6.738   6.422
 3086SOL    HW210158   5.846   6.756   6.437
 3087SOL     OW10159   3.411   6.629   1.858
 3087SOL    HW110160   3.363   6.710   1.892
 3087SOL    HW210161   3.509   6.648   1.852
 3088SOL     OW10162   1.561   2.816   5.682
 3088SOL    HW110163   1.515   2.841   5.768
 3088SOL    HW210164   1.605   2.896   5.643
 3089SOL     OW10165   4.091   6.561   4.969
 3089SOL    HW110166   4.039   6.550   4.884
 3089SOL    HW210167   4.184   6.591   4.948
 3090SOL     OW10168   1.601   2.075   2.257
 3090SOL    HW110169   1.575   2.124   2.174
 3090SOL    HW210170   1.677   2.122   2.302
 3091SOL     OW10171   1.012   2.212   1.268
 3091SOL    HW110172   1.036   2.262   1.351
 3091SOL    HW210173   1.024   2.114   1.283
 3092SOL     OW10174   6.121   1.214   2.599
 3092SOL    HW110175   6.202   1.188   2.546
 3092SOL    HW210176   6.068   1.282   2.548
 3093SOL     OW10177   5.651   4.950   0.133
 3093SOL    HW110178   5.564   4.994   0.112
 3093SOL    HW210179   5.718   5.020   0.159
 3094SOL     OW10180   2.754   1.927   6.624
 3094SOL    HW110181   2.675   1.866   6.614
 3094SOL    HW210182   2.741   2.007   6.565
 3095SOL     OW10183   1.736   3.483   5.142
 3095SOL    HW110184   1.822   3.481   5.091
 3095SOL    HW210185   1.749   3.533   5.228
 3096SOL     OW10186   0.670   3.568   4.429
 3096SOL    HW110187   0.600   3.535   4.492
 3096SOL    HW210188   0.639   3.560   4.335
 3097SOL     OW10189   5.564   2.611   5.261
 3097SOL    HW110190   5.624   2.675   5.308
 3097SOL    HW210191   5.486   2.589   5.320
 3098SOL     OW10192   1.857   2.827   2.109
 3098SOL    HW110193   1.761   2.802   2.119
 3098SOL    HW210194   1.898   2.772   2.036
 3099SOL     OW10195   0.772   6.165   4.630
 3099SOL    HW110196   0.744   6.212   4.547
 3099SOL    HW210197   0.721   6.201   4.708
 3100SOL     OW10198   6.320   5.450   2.491
 3100SOL    HW110199   6.304   5.355   2.520
 3100SOL    HW210200   6.418   5.468   2.489
 3101SOL     OW10201   3.594   6.446   5.638
 3101SOL    HW110202   3.564   6.522   5.581
 3101SOL    HW210203   3.539   6.365   5.617
 3102SOL     OW10204   0.254   5.021   0.833
 3102SOL    HW110205   0.233   5.007   0.736
 3102SOL    HW210206   0.212   5.107   0.863
 3103SOL     OW10207   3.261   1.014   1.072
 3103SOL    HW110208   3.265   1.002   1.171
 3103SOL    HW210209   3.251   1.111   1.050
 3104SOL     OW10210   4.748   0.994   5.533
 3104SOL    HW110211   4.650   0.999   5.551
 3104SOL    HW210212   4.798   0.996   5.620
 3105SOL     OW10213   6.285   3.925   0.461
 3105SOL    HW110214   6.365   3.966   0.503
 3105SOL    HW210215   6.307   3.894   0.368
 3106SOL     OW10216   6.203   0.159   6.009
 3106SOL    HW110217   6.218   0.183   5.913
 3106SOL    HW210218   6.143   0.080   6.015
 3107SOL     OW10219   3.949   1.606   5.879
 3107SOL    HW110220   4.043   1.636   5.898
 3107SOL    HW210221   3.915   1.553   5.957
 3108SOL     OW10222   2.264   4.241   3.938
 3108SOL    HW110223   2.351   4.258   3.891
 3108SOL    HW210224   2.277   4.250   4.036
 3109SOL     OW10225   6.370   5.842   4.233
 3109SOL    HW110226   6.442   5.817   4.168
 3109SOL    HW210227   6.301   5.770   4.236
 3110SOL     OW10228   0.821   4.398   3.029
 3110SOL    HW110229   0.737   4.347   3.008
 3110SOL    HW210230   0.805   4.457   3.108
 3111SOL     OW10231   5.768   4.704   4.159
 3111SOL    HW110232   5.834   4.645   4.206
 3111SOL    HW210233   5.680   4.658   4.153
 3112SOL     OW10234   4.090   2.107   6.277
 3112SOL    HW110235   4.056   2.195   6.309
 3112SOL    HW210236   4.171   2.121   6.219
 3113SOL     OW10237   2.562   5.690   3.296
 3113SOL    HW110238   2.534   5.645   3.380
 3113SOL    HW210239   2.539   5.787   3.301
 3114SOL     OW10240   4.897   1.026   6.020
 3114SOL    HW110241   4.875   0.973   6.101
 3114SOL    HW210242   4.892   1.123   6.041
 3115SOL     OW10243   4.744   5.517   4.846
 3115SOL    HW110244   4.841   5.499   4.828
 3115SOL    HW210245   4.713   5.591   4.787
 3116SOL     OW10246   0.481   1.363   1.051
 3116SOL    HW110247   0.468   1.428   1.126
 3116SOL    HW210248   0.538   1.405   0.981
 3117SOL     OW10249   5.044   1.264   5.753
 3117SOL    HW110250   4.967   1.304   5.804
 3117SOL    HW210251   5.086   1.334   5.696
 3118SOL     OW10252   1.640   0.753   3.578
 3118SOL    HW110253   1.571   0.823   3.594
 3118SOL    HW210254   1.618   0.702   3.495
 3119SOL     OW10255   4.187   4.730   5.661
 3119SOL    HW110256   4.174   4.829   5.669
 3119SOL    HW210257   4.276   4.705   5.700
 3120SOL     OW10258   1.551   6.090   5.302
 3120SOL    HW110259   1.524   6.153   5.374
 3120SOL    HW210260   1.650   6.086   5.295
 3121SOL     OW10261   4.383   1.317   4.380
 3121SOL    HW110262   4.365   1.382   4.306
 3121SOL    HW210263   4.306   1.317   4.444
 3122SOL     OW10264   4.304   5.515   4.210
 3122SOL    HW110265   4.359   5.598   4.212
 3122SOL    HW210266   4.360   5.438   4.180
 3123SOL     OW10267   2.124   1.436   3.728
 3123SOL    HW110268   2.067   1.410   3.806
 3123SOL    HW210269   2.196   1.498   3.759
 3124SOL     OW10270   4.776   6.895   3.406
 3124SOL    HW110271   4.678   6.887   3.423
 3124SOL    HW210272   4.807   6.986   3.436
 3125SOL     OW10273   1.291   1.502   5.400
 3125SOL    HW110274   1.299   1.423   5.460
 3125SOL    HW210275   1.379   1.519   5.355
 3126SOL     OW10276   5.511   5.405   5.247
 3126SOL    HW110277   5.469   5.437   5.331
 3126SOL    HW210278   5.444   5.354   5.193
 3127SOL     OW10279   0.501   0.980   5.167
 3127SOL    HW110280   0.441   1.057   5.143
 3127SOL    HW210281   0.472   0.942   5.254
 3128SOL     OW10282   4.369   0.728   0.232
 3128SOL    HW110283   4.307   0.650   0.228
 3128SOL    HW210284   4.406   0.737   0.324
 3129SOL     OW10285   4.573   3.642   0.305
 3129SOL    HW110286   4.659   3.685   0.331
 3129SOL    HW210287   4.508   3.649   0.381
 3130SOL     OW10288   0.836   4.297   2.033
 3130SOL    HW110289   0.842   4.228   2.105
 3130SOL    HW210290   0.742   4.304   2.001
 3131SOL     OW10291   6.723   4.284   3.277
 3131SOL    HW110292   6.781   4.202   3.277
 3131SOL    HW210293   6.684   4.297   3.186
 3132SOL     OW10294   4.531   4.874   6.776
 3132SOL    HW110295   4.577   4.842   6.693
 3132SOL    HW210296   4.487   4.962   6.759
 3133SOL     OW10297   3.846   0.431   4.306
 3133SOL    HW110298   3.798   0.423   4.393
 3133SOL    HW210299   3.904   0.350   4.292
 3134SOL     OW10300   4.519   5.334   3.100
 3134SOL    HW110301   4.562   5.414   3.058
 3134SOL    HW210302   4.456   5.292   3.034
 3135SOL     OW10303   4.981   6.146   6.474
 3135SOL    HW110304   4.961   6.117   6.568
 3135SOL    HW210305   4.935   6.084   6.410
 3136SOL     OW10306   6.466   1.612   2.723
 3136SOL    HW110307   6.465   1.681   2.651
 3136SOL    HW210308   6.375   1.607   2.765
 3137SOL     OW10309   5.715   0.007   6.910
 3137SOL    HW110310   5.765   6.941   6.931
 3137SOL    HW210311   5.687   0.006   6.814
 3138SOL     OW10312   5.349   5.509   3.720
 3138SOL    HW110313   5.262   5.472   3.752
 3138SOL    HW210314   5.382   5.577   3.786
 3139SOL     OW10315   2.686   4.874   1.564
 3139SOL    HW110316   2.762   4.895   1.626
 3139SOL    HW210317   2.600   4.874   1.616
 3140SOL     OW10318   0.071   0.037   6.550
 3140SOL    HW110319   0.058   6.988   6.623
 3140SOL    HW210320   0.031   0.124   6.577
 3141SOL     OW10321   6.441   2.527   6.038
 3141SOL    HW110322   6.507   2.455   6.060
 3141SOL    HW210323   6.433   2.591   6.115
 3142SOL     OW10324   5.163   1.239   2.497
 3142SOL    HW110325   5.071   1.220   2.462
 3142SOL    HW210326   5.158   1.312   2.565
 3143SOL     OW10327   6.243   0.954   0.172
 3143SOL    HW110328   6.325   1.003   0.144
 3143SOL    HW210329   6.168   1.019   0.184
 3144SOL     OW10330   4.002   3.794   6.441
 3144SOL    HW110331   4.076   3.748   6.489
 3144SOL    HW210332   3.919   3.738   6.447
 3145SOL     OW10333   0.687   5.935   1.379
 3145SOL    HW110334   0.688   5.835   1.373
 3145SOL    HW210335   0.762   5.973   1.324
 3146SOL     OW10336   0.752   0.254   5.019
 3146SOL    HW110337   0.778   0.335   4.967
 3146SOL    HW210338   0.735   0.178   4.957
 3147SOL     OW10339   3.970   5.087   6.963
 3147SOL    HW110340   3.915   5.066   0.026
 3147SOL    HW210341   4.024   5.006   6.938
 3148SOL     OW10342   6.806   5.064   2.721
 3148SOL    HW110343   6.863   5.133   2.764
 3148SOL    HW210344   6.734   5.036   2.784
 3149SOL     OW10345   3.014   1.450   0.665
 3149SOL    HW110346   3.075   1.395   0.722
 3149SOL    HW210347   2.928   1.465   0.713
 3150SOL     OW10348   6.661   5.876   4.883
 3150SOL    HW110349   6.727   5.806   4.911
 3150SOL    HW210350   6.622   5.852   4.795
 3151SOL     OW10351   6.335   1.606   5.524
 3151SOL    HW110352   6.390   1.684   5.495
 3151SOL    HW210353   6.345   1.532   5.457
 3152SOL     OW10354   1.199   3.220   6.139
 3152SOL    HW110355   1.202   3.124   6.166
 3152SOL    HW210356   1.157   3.275   6.212
 3153SOL     OW10357   6.534   5.217   1.168
 3153SOL    HW110358   6.482   5.254   1.091
 3153SOL    HW210359   6.603   5.153   1.135
 3154SOL     OW10360   5.015   1.936   0.008
 3154SOL    HW110361   5.024   2.036   7.018
 3154SOL    HW210362   5.056   1.906   0.094
 3155SOL     OW10363   0.638   5.062   1.055
 3155SOL    HW110364   0.684   4.976   1.078
 3155SOL    HW210365   0.682   5.137   1.105
 3156SOL     OW10366   3.520   4.246   1.763
 3156SOL    HW110367   3.521   4.311   1.687
 3156SOL    HW210368   3.610   4.245   1.807
 3157SOL     OW10369   0.665   1.768   5.264
 3157SOL    HW110370   0.637   1.861   5.239
 3157SOL    HW210371   0.759   1.751   5.232
 3158SOL     OW10372   2.110   1.096   5.864
 3158SOL    HW110373   2.180   1.056   5.924
 3158SOL    HW210374   2.051   1.023   5.829
 3159SOL     OW10375   6.394   6.887   0.387
 3159SOL    HW110376   6.367   6.932   0.473
 3159SOL    HW210377   6.317   6.891   0.323
 3160SOL     OW10378   1.751   0.932   6.518
 3160SOL    HW110379   1.789   0.889   6.599
 3160SOL    HW210380   1.707   1.018   6.543
 3161SOL     OW10381   2.190   2.800   2.606
 3161SOL    HW110382   2.195   2.864   2.530
 3161SOL    HW210383   2.150   2.714   2.575
 3162SOL     OW10384   1.839   5.532   0.857
 3162SOL    HW110385   1.843   5.457   0.923
 3162SOL    HW210386   1.795   5.611   0.899
 3163SOL     OW10387   3.792   3.897   0.298
 3163SOL    HW110388   3.703   3.908   0.254
 3163SOL    HW210389   3.861   3.875   0.229
 3164SOL     OW10390   2.753   6.223   3.184
 3164SOL    HW110391   2.719   6.187   3.271
 3164SOL    HW210392   2.830   6.285   3.201
 3165SOL     OW10393   1.112   6.310   6.828
 3165SOL    HW110394   1.123   6.369   6.748
 3165SOL    HW210395   1.143   6.218   6.805
 3166SOL     OW10396   4.112   0.886   5.421
 3166SOL    HW110397   4.168   0.924   5.495
 3166SOL    HW210398   4.171   0.853   5.347
 3167SOL     OW10399   5.695   3.610   0.666
 3167SOL    HW110400   5.679   3.512   0.658
 3167SOL    HW210401   5.721   3.647   0.576
 3168SOL     OW10402   4.908   1.765   0.632
 3168SOL    HW110403   4.830   1.820   0.664
 3168SOL    HW210404   4.967   1.821   0.574
 3169SOL     OW10405   1.779   4.243   1.695
 3169SOL    HW110406   1.856   4.246   1.758
 3169SOL    HW210407   1.725   4.160   1.711
 3170SOL     OW10408   3.015   5.073   3.668
 3170SOL    HW110409   3.098   5.128   3.654
 3170SOL    HW210410   3.005   5.009   3.591
 3171SOL     OW10411   5.244   3.063   3.431
 3171SOL    HW110412   5.151   3.069   3.395
 3171SOL    HW210413   5.270   2.966   3.437
 3172SOL     OW10414   0.597   4.577   0.997
 3172SOL    HW110415   0.525   4.514   1.025
 3172SOL    HW210416   0.681   4.555   1.046
 3173SOL     OW10417   3.827   2.306   0.499
 3173SOL    HW110418   3.844   2.227   0.558
 3173SOL    HW210419   3.766   2.279   0.425
 3174SOL     OW10420   2.765   3.635   5.364
 3174SOL    HW110421   2.754   3.720   5.312
 3174SOL    HW210422   2.858   3.601   5.356
 3175SOL     OW10423   6.634   0.309   4.356
 3175SOL    HW110424   6.637   0.308   4.456
 3175SOL    HW210425   6.593   0.394   4.324
 3176SOL     OW10426   1.266   4.536   5.224
 3176SOL    HW110427   1.239   4.573   5.135
 3176SOL    HW210428   1.286   4.611   5.287
 3177SOL     OW10429   5.836   3.417   3.734
 3177SOL    HW110430   5.787   3.352   3.791
 3177SOL    HW210431   5.770   3.473   3.684
 3178SOL     OW10432   6.619   0.589   1.318
 3178SOL    HW110433   6.573   0.650   1.254
 3178SOL    HW210434   6.557   0.565   1.392
 3179SOL     OW10435   0.998   1.855   2.113
 3179SOL    HW110436   1.068   1.789   2.143
 3179SOL    HW210437   0.934   1.810   2.051
 3180SOL     OW10438   6.432   6.073   6.926
 3180SOL    HW110439   6.487   6.127   6.990
 3180SOL    HW210440   6.449   5.975   6.941
 3181SOL     OW10441   0.872   0.765   4.952
 3181SOL    HW110442   0.971   0.772   4.965
 3181SOL    HW210443   0.847   0.809   4.865
 3182SOL     OW10444   2.921   0.592   0.880
 3182SOL    HW110445   3.001   0.653   0.879
 3182SOL    HW210446   2.867   0.610   0.962
 3183SOL     OW10447   4.436   4.461   1.736
 3183SOL    HW110448   4.372   4.450   1.659
 3183SOL    HW210449   4.457   4.371   1.774
 3184SOL     OW10450   0.533   1.996   5.208
 3184SOL    HW110451   0.514   2.031   5.300
 3184SOL    HW210452   0.479   2.047   5.141
 3185SOL     OW10453   0.373   5.614   6.013
 3185SOL    HW110454   0.373   5.521   6.050
 3185SOL    HW210455   0.293   5.663   6.048
 3186SOL     OW10456   0.178   1.411   6.412
 3186SOL    HW110457   0.161   1.458   6.499
 3186SOL    HW210458   0.121   1.451   6.340
 3187SOL     OW10459   4.051   5.959   2.654
 3187SOL    HW110460   4.142   5.988   2.685
 3187SOL    HW210461   4.048   5.962   2.554
 3188SOL     OW10462   2.035   4.454   5.624
 3188SOL    HW110463   2.103   4.453   5.696
 3188SOL    HW210464   1.963   4.520   5.646
 3189SOL     OW10465   3.306   1.507   6.934
 3189SOL    HW110466   3.270   1.580   6.876
 3189SOL    HW210467   3.233   1.471   6.992
 3190SOL     OW10468   6.539   5.422   4.451
 3190SOL    HW110469   6.580   5.451   4.538
 3190SOL    HW210470   6.443   5.450   4.450
 3191SOL     OW10471   4.586   5.866   2.050
 3191SOL    HW110472   4.602   5.958   2.017
 3191SOL    HW210473   4.658   5.805   2.017
 3192SOL     OW10474   6.138   2.573   2.255
 3192SOL    HW110475   6.177   2.648   2.308
 3192SOL    HW210476   6.164   2.582   2.159
 3193SOL     OW10477   3.937   0.409   5.401
 3193SOL    HW110478   3.868   0.404   5.328
 3193SOL    HW210479   3.997   0.329   5.395
 3194SOL     OW10480   1.031   1.059   6.215
 3194SOL    HW110481   0.971   1.131   6.181
 3194SOL    HW210482   1.009   0.972   6.171
 3195SOL     OW10483   0.218   1.867   1.907
 3195SOL    HW110484   0.248   1.894   1.815
 3195SOL    HW210485   0.289   1.891   1.973
 3196SOL     OW10486   6.359   6.896   4.831
 3196SOL    HW110487   6.439   6.921   4.885
 3196SOL    HW210488   6.291   6.968   4.837
 3197SOL     OW10489   2.005   1.188   6.389
 3197SOL    HW110490   2.082   1.125   6.402
 3197SOL    HW210491   1.955   1.161   6.307
 3198SOL     OW10492   6.637   3.133   3.520
 3198SOL    HW110493   6.575   3.134   3.442
 3198SOL    HW210494   6.704   3.206   3.510
 3199SOL     OW10495   5.523   4.002   3.086
 3199SOL    HW110496   5.589   4.074   3.062
 3199SOL    HW210497   5.457   3.992   3.012
 3200SOL     OW10498   5.349   3.424   4.271
 3200SOL    HW110499   5.389   3.340   4.235
 3200SOL    HW210500   5.411   3.501   4.255
 3201SOL     OW10501   5.930   4.252   2.564
 3201SOL    HW110502   5.842   4.290   2.592
 3201SOL    HW210503   5.976   4.212   2.643
 3202SOL     OW10504   1.321   4.654   0.339
 3202SOL    HW110505   1.346   4.599   0.259
 3202SOL    HW210506   1.223   4.644   0.357
 3203SOL     OW10507   3.799   6.857   1.134
 3203SOL    HW110508   3.879   6.808   1.101
 3203SOL    HW210509   3.828   6.939   1.184
 3204SOL     OW10510   2.375   1.568   3.811
 3204SOL    HW110511   2.446   1.510   3.772
 3204SOL    HW210512   2.395   1.664   3.792
 3205SOL     OW10513   5.509   3.026   5.258
 3205SOL    HW110514   5.575   3.034   5.183
 3205SOL    HW210515   5.460   3.113   5.268
 3206SOL     OW10516   2.774   2.946   1.552
 3206SOL    HW110517   2.682   2.949   1.592
 3206SOL    HW210518   2.783   2.865   1.494
 3207SOL     OW10519   1.058   6.424   5.412
 3207SOL    HW110520   1.033   6.495   5.346
 3207SOL    HW210521   0.975   6.385   5.451
 3208SOL     OW10522   6.030   5.818   5.937
 3208SOL    HW110523   5.992   5.756   5.868
 3208SOL    HW210524   6.123   5.844   5.911
 3209SOL     OW10525   5.078   5.843   6.411
 3209SOL    HW110526   5.128   5.761   6.383
 3209SOL    HW210527   5.026   5.878   6.333
 3210SOL     OW10528   6.851   5.368   1.708
 3210SOL    HW110529   6.812   5.455   1.679
 3210SOL    HW210530   6.805   5.338   1.792
 3211SOL     OW10531   0.885   5.458   6.602
 3211SOL    HW110532   0.948   5.386   6.630
 3211SOL    HW210533   0.938   5.535   6.565
 3212SOL     OW10534   1.975   6.780   2.867
 3212SOL    HW110535   1.947   6.835   2.788
 3212SOL    HW210536   2.015   6.840   2.936
 3213SOL     OW10537   1.648   0.442   6.095
 3213SOL    HW110538   1.702   0.358   6.088
 3213SOL    HW210539   1.600   0.443   6.183
 3214SOL     OW10540   3.270   1.234   3.187
 3214SOL    HW110541   3.189   1.284   3.217
 3214SOL    HW210542   3.256   1.136   3.201
 3215SOL     OW10543   1.759   2.732   0.584
 3215SOL    HW110544   1.725   2.728   0.490
 3215SOL    HW210545   1.742   2.822   0.623
 3216SOL     OW10546   5.608   4.398   0.823
 3216SOL    HW110547   5.609   4.353   0.913
 3216SOL    HW210548   5.521   4.379   0.778
 3217SOL     OW10549   0.992   5.252   2.966
 3217SOL    HW110550   0.920   5.305   3.010
 3217SOL    HW210551   1.064   5.231   3.033
 3218SOL     OW10552   6.449   1.388   3.125
 3218SOL    HW110553   6.522   1.455   3.114
 3218SOL    HW210554   6.382   1.399   3.051
 3219SOL     OW10555   5.769   0.514   5.394
 3219SOL    HW110556   5.695   0.454   5.364
 3219SOL    HW210557   5.733   0.580   5.460
 3220SOL     OW10558   6.753   4.774   6.702
 3220SOL    HW110559   6.773   4.869   6.678
 3220SOL    HW210560   6.759   4.717   6.619
 3221SOL     OW10561   3.906   0.307   1.795
 3221SOL    HW110562   3.950   0.274   1.711
 3221SOL    HW210563   3.828   0.249   1.817
 3222SOL     OW10564   2.606   1.245   2.925
 3222SOL    HW110565   2.693   1.258   2.972
 3222SOL    HW210566   2.538   1.210   2.989
 3223SOL     OW10567   1.323   0.190   1.206
 3223SOL    HW110568   1.368   0.196   1.295
 3223SOL    HW210569   1.339   0.275   1.154
 3224SOL     OW10570   4.317   2.284   4.105
 3224SOL    HW110571   4.352   2.351   4.039
 3224SOL    HW210572   4.300   2.330   4.192
 3225SOL     OW10573   4.005   0.710   4.379
 3225SOL    HW110574   3.989   0.668   4.468
 3225SOL    HW210575   4.073   0.657   4.329
 3226SOL     OW10576   0.301   6.996   1.179
 3226SOL    HW110577   0.250   0.050   1.225
 3226SOL    HW210578   0.352   6.943   1.246
 3227SOL     OW10579   4.873   3.343   5.556
 3227SOL    HW110580   4.824   3.293   5.628
 3227SOL    HW210581   4.808   3.377   5.489
 3228SOL     OW10582   1.920   4.204   0.438
 3228SOL    HW110583   1.905   4.291   0.484
 3228SOL    HW210584   1.973   4.143   0.498
 3229SOL     OW10585   1.634   1.585   0.462
 3229SOL    HW110586   1.629   1.531   0.546
 3229SOL    HW210587   1.709   1.650   0.469
 3230SOL     OW10588   2.215   5.676   5.883
 3230SOL    HW110589   2.168   5.699   5.968
 3230SOL    HW210590   2.149   5.648   5.814
 3231SOL     OW10591   2.589   1.116   1.679
 3231SOL    HW110592   2.616   1.077   1.767
 3231SOL    HW210593   2.604   1.049   1.607
 3232SOL     OW10594   4.101   6.213   4.220
 3232SOL    HW110595   4.043   6.288   4.251
 3232SOL    HW210596   4.169   6.248   4.155
 3233SOL     OW10597   0.860   2.853   0.128
 3233SOL    HW110598   0.887   2.922   0.195
 3233SOL    HW210599   0.791   2.891   0.067
 3234SOL     OW10600   2.896   2.421   0.815
 3234SOL    HW110601   2.975   2.482   0.799
 3234SOL    HW210602   2.843   2.455   0.892
 3235SOL     OW10603   0.037   6.982   2.155
 3235SOL    HW110604   6.957   6.973   2.142
 3235SOL    HW210605   0.068   6.918   2.226
 3236SOL     OW10606   3.249   3.466   0.516
 3236SOL    HW110607   3.267   3.392   0.581
 3236SOL    HW210608   3.151   3.471   0.498
 3237SOL     OW10609   6.042   0.980   5.440
 3237SOL    HW110610   5.992   0.909   5.489
 3237SOL    HW210611   6.026   0.971   5.342
 3238SOL     OW10612   6.593   5.715   1.327
 3238SOL    HW110613   6.652   5.738   1.404
 3238SOL    HW210614   6.600   5.618   1.306
 3239SOL     OW10615   6.522   0.144   4.130
 3239SOL    HW110616   6.569   0.056   4.123
 3239SOL    HW210617   6.579   0.208   4.181
 3240SOL     OW10618   0.405   0.844   6.848
 3240SOL    HW110619   0.355   0.777   6.903
 3240SOL    HW210620   0.418   0.927   6.901
 3241SOL     OW10621   5.905   1.382   5.985
 3241SOL    HW110622   5.829   1.372   6.050
 3241SOL    HW210623   5.910   1.477   5.955
 3242SOL     OW10624   5.052   4.842   5.352
 3242SOL    HW110625   5.013   4.927   5.386
 3242SOL    HW210626   5.151   4.852   5.344
 3243SOL     OW10627   4.954   5.087   5.435
 3243SOL    HW110628   4.882   5.113   5.500
 3243SOL    HW210629   5.040   5.077   5.483
 3244SOL     OW10630   5.498   5.800   0.115
 3244SOL    HW110631   5.589   5.833   0.140
 3244SOL    HW210632   5.432   5.875   0.121
 3245SOL     OW10633   3.887   1.348   4.430
 3245SOL    HW110634   3.981   1.313   4.436
 3245SOL    HW210635   3.861   1.355   4.333
 3246SOL     OW10636   6.932   1.111   2.566
 3246SOL    HW110637   6.953   1.053   2.645
 3246SOL    HW210638   6.926   1.206   2.596
 3247SOL     OW10639   0.408   3.994   3.245
 3247SOL    HW110640   0.485   3.938   3.214
 3247SOL    HW210641   0.391   4.068   3.179
 3248SOL     OW10642   5.196   2.210   3.379
 3248SOL    HW110643   5.282   2.225   3.330
 3248SOL    HW210644   5.191   2.273   3.457
 3249SOL     OW10645   3.232   3.696   3.428
 3249SOL    HW110646   3.254   3.599   3.443
 3249SOL    HW210647   3.193   3.708   3.337
 3250SOL     OW10648   5.284   5.391   2.492
 3250SOL    HW110649   5.276   5.318   2.424
 3250SOL    HW210650   5.258   5.355   2.582
 3251SOL     OW10651   2.985   1.381   4.001
 3251SOL    HW110652   2.924   1.400   4.077
 3251SOL    HW210653   3.076   1.359   4.037
 3252SOL     OW10654   2.224   1.355   4.111
 3252SOL    HW110655   2.234   1.319   4.204
 3252SOL    HW210656   2.193   1.281   4.050
 3253SOL     OW10657   6.654   3.597   1.341
 3253SOL    HW110658   6.614   3.572   1.253
 3253SOL    HW210659   6.672   3.696   1.343
 3254SOL     OW10660   5.806   0.707   0.543
 3254SOL    HW110661   5.853   0.648   0.608
 3254SOL    HW210662   5.711   0.720   0.572
 3255SOL     OW10663   5.462   4.833   0.974
 3255SOL    HW110664   5.407   4.772   1.031
 3255SOL    HW210665   5.545   4.785   0.945
 3256SOL     OW10666   5.080   1.992   0.856
 3256SOL    HW110667   5.059   2.082   0.894
 3256SOL    HW210668   4.994   1.943   0.840
 3257SOL     OW10669   2.852   2.110   2.911
 3257SOL    HW110670   2.830   2.042   2.980
 3257SOL    HW210671   2.832   2.073   2.820
 3258SOL     OW10672   2.152   5.975   3.438
 3258SOL    HW110673   2.173   6.044   3.369
 3258SOL    HW210674   2.226   5.907   3.440
 3259SOL     OW10675   4.731   4.117   3.792
 3259SOL    HW110676   4.737   4.198   3.850
 3259SOL    HW210677   4.688   4.043   3.842
 3260SOL     OW10678   1.393   3.884   1.726
 3260SOL    HW110679   1.413   3.833   1.809
 3260SOL    HW210680   1.301   3.863   1.694
 3261SOL     OW10681   4.661   0.200   3.087
 3261SOL    HW110682   4.687   0.246   3.172
 3261SOL    HW210683   4.738   0.146   3.054
 3262SOL     OW10684   3.305   2.070   2.322
 3262SOL    HW110685   3.390   2.121   2.311
 3262SOL    HW210686   3.326   1.975   2.344
 3263SOL     OW10687   1.563   1.271   2.419
 3263SOL    HW110688   1.593   1.178   2.440
 3263SOL    HW210689   1.603   1.334   2.485
 3264SOL     OW10690   2.369   5.652   0.271
 3264SOL    HW110691   2.392   5.621   0.363
 3264SOL    HW210692   2.329   5.576   0.219
 3265SOL     OW10693   5.845   4.989   5.671
 3265SOL    HW110694   5.879   5.083   5.678
 3265SOL    HW210695   5.890   4.942   5.595
 3266SOL     OW10696   3.256   4.979   6.989
 3266SOL    HW110697   3.311   4.987   6.905
 3266SOL    HW210698   3.167   5.022   6.975
 3267SOL     OW10699   4.114   0.051   0.321
 3267SOL    HW110700   4.204   0.008   0.315
 3267SOL    HW210701   4.096   0.076   0.416
 3268SOL     OW10702   6.801   4.808   2.109
 3268SOL    HW110703   6.871   4.755   2.062
 3268SOL    HW210704   6.763   4.754   2.185
 3269SOL     OW10705   1.760   5.051   2.354
 3269SOL    HW110706   1.842   5.020   2.403
 3269SOL    HW210707   1.740   5.146   2.379
 3270SOL     OW10708   0.873   2.294   5.552
 3270SOL    HW110709   0.898   2.242   5.470
 3270SOL    HW210710   0.899   2.242   5.633
 3271SOL     OW10711   0.588   3.766   2.346
 3271SOL    HW110712   0.571   3.788   2.442
 3271SOL    HW210713   0.509   3.718   2.308
 3272SOL     OW10714   4.497   6.476   0.125
 3272SOL    HW110715   4.519   6.392   0.174
 3272SOL    HW210716   4.487   6.456   0.027
 3273SOL     OW10717   4.704   2.958   6.692
 3273SOL    HW110718   4.631   2.895   6.721
 3273SOL    HW210719   4.728   2.938   6.597
 3274SOL     OW10720   5.291   0.801   0.076
 3274SOL    HW110721   5.217   0.804   0.144
 3274SOL    HW210722   5.378   0.783   0.123
 3275SOL     OW10723   4.947   0.142   1.237
 3275SOL    HW110724   4.919   0.116   1.329
 3275SOL    HW210725   5.034   0.192   1.241
 3276SOL     OW10726   4.658   6.791   0.054
 3276SOL    HW110727   4.559   6.788   0.064
 3276SOL    HW210728   4.696   6.700   0.071
 3277SOL     OW10729   3.398   1.904   2.039
 3277SOL    HW110730   3.324   1.968   2.061
 3277SOL    HW210731   3.478   1.925   2.094
 3278SOL     OW10732   6.566   0.347   6.760
 3278SOL    HW110733   6.539   0.341   6.664
 3278SOL    HW210734   6.555   0.258   6.804
 3279SOL     OW10735   3.802   6.840   0.859
 3279SOL    HW110736   3.735   6.824   0.933
 3279SOL    HW210737   3.888   6.794   0.882
 3280SOL     OW10738   5.545   3.682   4.687
 3280SOL    HW110739   5.518   3.736   4.607
 3280SOL    HW210740   5.465   3.664   4.744
 3281SOL     OW10741   6.448   4.099   2.056
 3281SOL    HW110742   6.486   4.190   2.041
 3281SOL    HW210743   6.417   4.061   1.969
 3282SOL     OW10744   0.421   4.307   5.198
 3282SOL    HW110745   0.497   4.243   5.213
 3282SOL    HW210746   0.400   4.310   5.100
 3283SOL     OW10747   3.837   1.279   1.415
 3283SOL    HW110748   3.853   1.346   1.488
 3283SOL    HW210749   3.883   1.310   1.332
 3284SOL     OW10750   1.556   5.382   4.987
 3284SOL    HW110751   1.537   5.383   4.889
 3284SOL    HW210752   1.610   5.462   5.012
 3285SOL     OW10753   5.038   1.424   4.744
 3285SOL    HW110754   5.012   1.519   4.726
 3285SOL    HW210755   5.110   1.422   4.814
 3286SOL     OW10756   3.226   1.721   1.453
 3286SOL    HW110757   3.289   1.783   1.499
 3286SOL    HW210758   3.181   1.768   1.377
 3287SOL     OW10759   2.442   0.189   6.948
 3287SOL    HW110760   2.529   0.232   6.971
 3287SOL    HW210761   2.399   0.238   6.872
 3288SOL     OW10762   1.519   6.496   1.098
 3288SOL    HW110763   1.426   6.532   1.107
 3288SOL    HW210764   1.553   6.516   1.006
 3289SOL     OW10765   3.947   1.636   6.589
 3289SOL    HW110766   3.993   1.574   6.526
 3289SOL    HW210767   3.915   1.584   6.669
 3290SOL     OW10768   6.773   4.994   0.250
 3290SOL    HW110769   6.765   5.057   0.172
 3290SOL    HW210770   6.704   4.923   0.242
 3291SOL     OW10771   4.701   0.187   5.361
 3291SOL    HW110772   4.623   0.189   5.298
 3291SOL    HW210773   4.769   0.123   5.327
 3292SOL     OW10774   0.208   2.056   1.510
 3292SOL    HW110775   0.230   2.061   1.412
 3292SOL    HW210776   0.267   1.987   1.553
 3293SOL     OW10777   6.555   5.277   3.089
 3293SOL    HW110778   6.468   5.324   3.103
 3293SOL    HW210779   6.626   5.343   3.067
 3294SOL     OW10780   5.047   2.731   5.063
 3294SOL    HW110781   5.021   2.794   4.989
 3294SOL    HW210782   5.059   2.783   5.148
 3295SOL     OW10783   1.633   3.051   2.090
 3295SOL    HW110784   1.581   2.972   2.059
 3295SOL    HW210785   1.631   3.055   2.190
 3296SOL     OW10786   0.762   0.151   6.355
 3296SOL    HW110787   0.828   0.101   6.298
 3296SOL    HW210788   0.671   0.142   6.315
 3297SOL     OW10789   3.110   1.754   4.917
 3297SOL    HW110790   3.111   1.767   5.016
 3297SOL    HW210791   3.017   1.735   4.887
 3298SOL     OW10792   5.694   4.122   5.343
 3298SOL    HW110793   5.759   4.197   5.339
 3298SOL    HW210794   5.630   4.129   5.267
 3299SOL     OW10795   3.101   4.935   4.741
 3299SOL    HW110796   3.179   4.956   4.800
 3299SOL    HW210797   3.039   4.873   4.788
 3300SOL     OW10798   2.095   6.907   4.948
 3300SOL    HW110799   2.009   6.900   4.897
 3300SOL    HW210800   2.075   6.926   5.044
 3301SOL     OW10801   2.226   2.964   2.826
 3301SOL    HW110802   2.259   2.904   2.899
 3301SOL    HW210803   2.209   2.910   2.743
 3302SOL     OW10804   2.622   4.714   5.867
 3302SOL    HW110805   2.648   4.774   5.792
 3302SOL    HW210806   2.598   4.624   5.831
 3303SOL     OW10807   3.230   3.225   0.686
 3303SOL    HW110808   3.131   3.225   0.699
 3303SOL    HW210809   3.260   3.133   0.658
 3304SOL     OW10810   2.638   4.864   6.115
 3304SOL    HW110811   2.648   4.807   6.034
 3304SOL    HW210812   2.577   4.818   6.180
 3305SOL     OW10813   3.478   0.936   0.910
 3305SOL    HW110814   3.395   0.955   0.961
 3305SOL    HW210815   3.471   0.974   0.818
 3306SOL     OW10816   2.076   0.699   0.148
 3306SOL    HW110817   2.077   0.618   0.088
 3306SOL    HW210818   1.987   0.705   0.193
 3307SOL     OW10819   1.257   0.099   4.758
 3307SOL    HW110820   1.195   0.040   4.706
 3307SOL    HW210821   1.266   0.187   4.712
 3308SOL     OW10822   3.508   4.419   1.098
 3308SOL    HW110823   3.436   4.484   1.123
 3308SOL    HW210824   3.550   4.383   1.181
 3309SOL     OW10825   5.326   4.045   3.709
 3309SOL    HW110826   5.250   3.996   3.752
 3309SOL    HW210827   5.332   4.019   3.612
 3310SOL     OW10828   6.615   5.143   5.204
 3310SOL    HW110829   6.612   5.239   5.177
 3310SOL    HW210830   6.669   5.133   5.287
 3311SOL     OW10831   3.461   3.477   0.352
 3311SOL    HW110832   3.390   3.474   0.422
 3311SOL    HW210833   3.457   3.565   0.304
 3312SOL     OW10834   5.025   2.730   5.637
 3312SOL    HW110835   5.065   2.720   5.728
 3312SOL    HW210836   4.996   2.825   5.623
 3313SOL     OW10837   1.022   0.844   3.705
 3313SOL    HW110838   1.033   0.862   3.607
 3313SOL    HW210839   1.073   0.762   3.729
 3314SOL     OW10840   1.725   5.999   2.507
 3314SOL    HW110841   1.730   6.047   2.419
 3314SOL    HW210842   1.787   5.920   2.506
 3315SOL     OW10843   0.185   4.766   5.158
 3315SOL    HW110844   0.230   4.723   5.079
 3315SOL    HW210845   0.203   4.864   5.157
 3316SOL     OW10846   3.149   1.873   6.595
 3316SOL    HW110847   3.145   1.962   6.642
 3316SOL    HW210848   3.221   1.876   6.526
 3317SOL     OW10849   5.500   2.208   2.483
 3317SOL    HW110850   5.520   2.117   2.448
 3317SOL    HW210851   5.555   2.276   2.434
 3318SOL     OW10852   3.063   2.235   0.500
 3318SOL    HW110853   3.083   2.301   0.573
 3318SOL    HW210854   2.992   2.172   0.531
 3319SOL     OW10855   0.115   6.631   3.077
 3319SOL    HW110856   0.015   6.618   3.073
 3319SOL    HW210857   0.136   6.697   3.150
 3320SOL     OW10858   5.961   0.211   0.914
 3320SOL    HW110859   5.881   0.238   0.967
 3320SOL    HW210860   5.933   0.157   0.835
 3321SOL     OW10861   5.795   1.700   0.131
 3321SOL    HW110862   5.771   1.780   0.076
 3321SOL    HW210863   5.862   1.727   0.200
 3322SOL     OW10864   6.756   3.853   1.373
 3322SOL    HW110865   6.790   3.940   1.338
 3322SOL    HW210866   6.770   3.849   1.472
 3323SOL     OW10867   1.706   1.280   2.077
 3323SOL    HW110868   1.777   1.314   2.015
 3323SOL    HW210869   1.678   1.354   2.138
 3324SOL     OW10870   5.324   5.490   5.450
 3324SOL    HW110871   5.356   5.420   5.513
 3324SOL    HW210872   5.228   5.511   5.470
 3325SOL     OW10873   1.713   3.699   6.637
 3325SOL    HW110874   1.644   3.642   6.681
 3325SOL    HW210875   1.785   3.722   6.703
 3326SOL     OW10876   5.564   1.347   2.902
 3326SOL    HW110877   5.502   1.343   2.981
 3326SOL    HW210878   5.602   1.439   2.896
 3327SOL     OW10879   1.866   5.614   1.477
 3327SOL    HW110880   1.846   5.677   1.553
 3327SOL    HW210881   1.886   5.667   1.395
 3328SOL     OW10882   4.401   2.363   0.500
 3328SOL    HW110883   4.314   2.388   0.457
 3328SOL    HW210884   4.476   2.391   0.440
 3329SOL     OW10885   5.958   5.605   5.789
 3329SOL    HW110886   6.019   5.552   5.729
 3329SOL    HW210887   5.866   5.606   5.751
 3330SOL     OW10888   5.932   3.366   2.344
 3330SOL    HW110889   6.001   3.299   2.318
 3330SOL    HW210890   5.971   3.458   2.342
 3331SOL     OW10891   1.707   2.208   1.363
 3331SOL    HW110892   1.773   2.138   1.336
 3331SOL    HW210893   1.692   2.203   1.462
 3332SOL     OW10894   6.020   4.536   0.665
 3332SOL    HW110895   5.995   4.615   0.720
 3332SOL    HW210896   5.966   4.457   0.693
 3333SOL     OW10897   4.063   5.285   5.964
 3333SOL    HW110898   4.118   5.349   5.910
 3333SOL    HW210899   4.103   5.194   5.959
 3334SOL     OW10900   2.844   4.020   1.472
 3334SOL    HW110901   2.851   3.952   1.545
 3334SOL    HW210902   2.748   4.045   1.458
 3335SOL     OW10903   5.187   4.576   5.753
 3335SOL    HW110904   5.282   4.548   5.737
 3335SOL    HW210905   5.186   4.654   5.815
 3336SOL     OW10906   3.419   5.102   6.127
 3336SOL    HW110907   3.480   5.103   6.207
 3336SOL    HW210908   3.325   5.085   6.158
 3337SOL     OW10909   3.662   2.575   1.420
 3337SOL    HW110910   3.705   2.553   1.507
 3337SOL    HW210911   3.627   2.669   1.422
 3338SOL     OW10912   0.134   4.054   0.720
 3338SOL    HW110913   0.055   4.000   0.691
 3338SOL    HW210914   0.109   4.110   0.799
 3339SOL     OW10915   6.433   5.741   6.889
 3339SOL    HW110916   6.440   5.738   6.989
 3339SOL    HW210917   6.524   5.755   6.850
 3340SOL     OW10918   3.129   6.257   1.997
 3340SOL    HW110919   3.178   6.228   1.915
 3340SOL    HW210920   3.190   6.253   2.076
 3341SOL     OW10921   0.685   0.763   2.578
 3341SOL    HW110922   0.608   0.716   2.535
 3341SOL    HW210923   0.769   0.742   2.528
 3342SOL     OW10924   2.115   6.820   3.891
 3342SOL    HW110925   2.073   6.810   3.800
 3342SOL    HW210926   2.211   6.794   3.886
 3343SOL     OW10927   5.143   3.128   1.017
 3343SOL    HW110928   5.216   3.190   0.990
 3343SOL    HW210929   5.092   3.098   0.937
 3344SOL     OW10930   5.831   3.282   5.952
 3344SOL    HW110931   5.878   3.194   5.965
 3344SOL    HW210932   5.805   3.291   5.856
 3345SOL     OW10933   3.104   3.433   5.602
 3345SOL    HW110934   3.164   3.411   5.679
 3345SOL    HW210935   3.155   3.483   5.533
 3346SOL     OW10936   0.037   0.225   1.573
 3346SOL    HW110937   0.039   0.260   1.666
 3346SOL    HW210938   0.131   0.221   1.537
 3347SOL     OW10939   5.787   3.863   4.973
 3347SOL    HW110940   5.740   3.843   5.059
 3347SOL    HW210941   5.809   3.778   4.926
 3348SOL     OW10942   3.853   2.954   4.322
 3348SOL    HW110943   3.827   3.035   4.375
 3348SOL    HW210944   3.772   2.898   4.305
 3349SOL     OW10945   6.407   3.715   4.472
 3349SOL    HW110946   6.440   3.757   4.387
 3349SOL    HW210947   6.468   3.738   4.547
 3350SOL     OW10948   1.719   1.189   0.802
 3350SOL    HW110949   1.694   1.207   0.897
 3350SOL    HW210950   1.805   1.139   0.798
 3351SOL     OW10951   5.285   1.872   1.012
 3351SOL    HW110952   5.210   1.908   0.957
 3351SOL    HW210953   5.354   1.944   1.025
 3352SOL     OW10954   0.619   3.298   0.866
 3352SOL    HW110955   0.685   3.356   0.914
 3352SOL    HW210956   0.527   3.320   0.898
 3353SOL     OW10957   2.050   0.288   6.865
 3353SOL    HW110958   2.130   0.308   6.807
 3353SOL    HW210959   2.020   0.194   6.848
 3354SOL     OW10960   0.022   2.805   3.841
 3354SOL    HW110961   7.001   2.740   3.906
 3354SOL    HW210962   6.993   2.893   3.849
 3355SOL     OW10963   6.712   1.071   2.124
 3355SOL    HW110964   6.664   0.983   2.133
 3355SOL    HW210965   6.755   1.095   2.211
 3356SOL     OW10966   2.634   3.606   6.977
 3356SOL    HW110967   2.568   3.627   0.032
 3356SOL    HW210968   2.591   3.621   6.888
 3357SOL     OW10969   3.149   5.391   1.946
 3357SOL    HW110970   3.088   5.430   1.877
 3357SOL    HW210971   3.113   5.302   1.975
 3358SOL     OW10972   4.820   6.040   2.741
 3358SOL    HW110973   4.892   5.978   2.711
 3358SOL    HW210974   4.794   6.018   2.835
 3359SOL     OW10975   1.111   0.252   2.631
 3359SOL    HW110976   1.204   0.251   2.595
 3359SOL    HW210977   1.105   0.317   2.707
 3360SOL     OW10978   0.488   1.002   0.259
 3360SOL    HW110979   0.442   1.013   0.347
 3360SOL    HW210980   0.444   1.060   0.190
 3361SOL     OW10981   5.970   6.100   2.810
 3361SOL    HW110982   5.923   6.186   2.789
 3361SOL    HW210983   5.928   6.058   2.890
 3362SOL     OW10984   2.285   1.378   5.218
 3362SOL    HW110985   2.245   1.464   5.251
 3362SOL    HW210986   2.274   1.373   5.119
 3363SOL     OW10987   0.160   1.765   6.813
 3363SOL    HW110988   0.155   1.685   6.874
 3363SOL    HW210989   0.069   1.807   6.806
 3364SOL     OW10990   2.161   5.289   5.906
 3364SOL    HW110991   2.222   5.231   5.959
 3364SOL    HW210992   2.100   5.339   5.969
 3365SOL     OW10993   6.186   2.933   4.590
 3365SOL    HW110994   6.282   2.919   4.568
 3365SOL    HW210995   6.166   3.031   4.595
 3366SOL     OW10996   5.216   0.271   5.639
 3366SOL    HW110997   5.139   0.263   5.702
 3366SOL    HW210998   5.194   0.222   5.554
 3367SOL     OW10999   1.251   2.081   2.895
 3367SOL    HW111000   1.317   2.033   2.953
 3367SOL    HW211001   1.165   2.031   2.893
 3368SOL     OW11002   6.527   5.580   6.147
 3368SOL    HW111003   6.594   5.625   6.088
 3368SOL    HW211004   6.479   5.649   6.201
 3369SOL     OW11005   3.861   0.558   0.055
 3369SOL    HW111006   3.871   0.622   0.130
 3369SOL    HW211007   3.832   0.607   6.990
 3370SOL     OW11008   6.115   6.554   5.221
 3370SOL    HW111009   6.182   6.626   5.240
 3370SOL    HW211010   6.068   6.574   5.135
 3371SOL     OW11011   0.866   5.193   2.496
 3371SOL    HW111012   0.927   5.214   2.572
 3371SOL    HW211013   0.781   5.245   2.505
 3372SOL     OW11014   0.942   0.590   2.840
 3372SOL    HW111015   0.969   0.685   2.855
 3372SOL    HW211016   1.006   0.529   2.886
 3373SOL     OW11017   6.336   1.813   5.169
 3373SOL    HW111018   6.351   1.881   5.096
 3373SOL    HW211019   6.410   1.746   5.167
 3374SOL     OW11020   2.825   5.493   5.849
 3374SOL    HW111021   2.894   5.422   5.833
 3374SOL    HW211022   2.748   5.479   5.788
 3375SOL     OW11023   4.560   4.460   5.382
 3375SOL    HW111024   4.488   4.402   5.419
 3375SOL    HW211025   4.620   4.490   5.456
 3376SOL     OW11026   3.157   3.050   2.384
 3376SOL    HW111027   3.185   3.072   2.291
 3376SOL    HW211028   3.089   3.117   2.415
 3377SOL     OW11029   1.428   6.866   5.464
 3377SOL    HW111030   1.485   6.905   5.536
 3377SOL    HW211031   1.458   6.901   5.375
 3378SOL     OW11032   0.032   1.398   1.399
 3378SOL    HW111033   0.120   1.401   1.351
 3378SOL    HW211034   0.008   1.490   1.431
 3379SOL     OW11035   0.492   4.367   5.893
 3379SOL    HW111036   0.407   4.326   5.861
 3379SOL    HW211037   0.553   4.296   5.928
 3380SOL     OW11038   6.807   4.436   6.759
 3380SOL    HW111039   6.712   4.402   6.755
 3380SOL    HW211040   6.810   4.520   6.813
 3381SOL     OW11041   3.288   2.499   0.373
 3381SOL    HW111042   3.310   2.537   0.463
 3381SOL    HW211043   3.189   2.492   0.363
 3382SOL     OW11044   7.012   1.606   1.016
 3382SOL    HW111045   6.982   1.675   0.951
 3382SOL    HW211046   6.971   1.623   1.106
 3383SOL     OW11047   6.042   4.983   2.824
 3383SOL    HW111048   6.039   5.076   2.786
 3383SOL    HW211049   5.975   4.926   2.776
 3384SOL     OW11050   3.568   2.893   4.414
 3384SOL    HW111051   3.482   2.928   4.452
 3384SOL    HW211052   3.595   2.810   4.462
 3385SOL     OW11053   6.485   3.666   3.535
 3385SOL    HW111054   6.483   3.566   3.536
 3385SOL    HW211055   6.493   3.700   3.628
 3386SOL     OW11056   6.353   4.598   4.857
 3386SOL    HW111057   6.384   4.586   4.762
 3386SOL    HW211058   6.423   4.564   4.919
 3387SOL     OW11059   2.207   2.154   3.056
 3387SOL    HW111060   2.179   2.150   2.960
 3387SOL    HW211061   2.284   2.092   3.070
 3388SOL     OW11062   5.406   2.000   1.388
 3388SOL    HW111063   5.493   1.958   1.413
 3388SOL    HW211064   5.339   1.928   1.368
 3389SOL     OW11065   5.061   4.379   3.568
 3389SOL    HW111066   5.035   4.475   3.566
 3389SOL    HW211067   4.979   4.322   3.561
 3390SOL     OW11068   4.872   2.961   5.633
 3390SOL    HW111069   4.867   3.043   5.690
 3390SOL    HW211070   4.782   2.943   5.594
 3391SOL     OW11071   3.424   1.878   5.350
 3391SOL    HW111072   3.342   1.826   5.377
 3391SOL    HW211073   3.409   1.975   5.368
 3392SOL     OW11074   2.552   0.593   4.095
 3392SOL    HW111075   2.570   0.563   4.189
 3392SOL    HW211076   2.627   0.563   4.036
 3393SOL     OW11077   6.295   6.491   6.727
 3393SOL    HW111078   6.288   6.405   6.778
 3393SOL    HW211079   6.332   6.472   6.636
 3394SOL     OW11080   6.036   2.683   1.478
 3394SOL    HW111081   5.961   2.677   1.412
 3394SOL    HW211082   6.115   2.633   1.442
 3395SOL     OW11083   0.996   3.228   4.475
 3395SOL    HW111084   1.021   3.167   4.401
 3395SOL    HW211085   0.899   3.217   4.496
 3396SOL     OW11086   0.232   3.725   3.707
 3396SOL    HW111087   0.148   3.684   3.744
 3396SOL    HW211088   0.282   3.770   3.780
 3397SOL     OW11089   3.663   6.631   5.918
 3397SOL    HW111090   3.599   6.662   5.989
 3397SOL    HW211091   3.623   6.553   5.869
 3398SOL     OW11092   1.159   0.002   4.134
 3398SOL    HW111093   1.129   6.934   4.176
 3398SOL    HW211094   1.167   0.073   4.204
 3399SOL     OW11095   4.973   5.139   4.051
 3399SOL    HW111096   5.024   5.151   3.966
 3399SOL    HW211097   4.885   5.094   4.031
 3400SOL     OW11098   4.862   2.254   6.816
 3400SOL    HW111099   4.802   2.259   6.736
 3400SOL    HW211100   4.834   2.178   6.874
 3401SOL     OW11101   6.189   3.726   0.608
 3401SOL    HW111102   6.213   3.806   0.553
 3401SOL    HW211103   6.242   3.728   0.693
 3402SOL     OW11104   5.166   5.822   1.284
 3402SOL    HW111105   5.162   5.922   1.276
 3402SOL    HW211106   5.115   5.792   1.365
 3403SOL     OW11107   3.523   0.402   4.917
 3403SOL    HW111108   3.604   0.439   4.871
 3403SOL    HW211109   3.445   0.463   4.901
 3404SOL     OW11110   4.750   1.319   1.205
 3404SOL    HW111111   4.762   1.393   1.138
 3404SOL    HW211112   4.686   1.348   1.276
 3405SOL     OW11113   6.181   3.926   6.614
 3405SOL    HW111114   6.218   4.018   6.629
 3405SOL    HW211115   6.138   3.921   6.524
 3406SOL     OW11116   2.240   3.993   2.259
 3406SOL    HW111117   2.202   3.902   2.239
 3406SOL    HW211118   2.222   4.053   2.181
 3407SOL     OW11119   1.276   5.540   1.761
 3407SOL    HW111120   1.315   5.630   1.741
 3407SOL    HW211121   1.203   5.521   1.695
 3408SOL     OW11122   5.155   4.648   2.529
 3408SOL    HW111123   5.074   4.631   2.586
 3408SOL    HW211124   5.230   4.591   2.560
 3409SOL     OW11125   3.869   6.908   6.045
 3409SOL    HW111126   3.854   6.940   5.952
 3409SOL    HW211127   3.910   6.817   6.044
 3410SOL     OW11128   6.514   6.037   0.380
 3410SOL    HW111129   6.589   6.056   0.444
 3410SOL    HW211130   6.547   6.051   0.287
 3411SOL     OW11131   4.757   2.232   2.637
 3411SOL    HW111132   4.776   2.156   2.699
 3411SOL    HW211133   4.672   2.214   2.587
 3412SOL     OW11134   3.677   3.923   6.851
 3412SOL    HW111135   3.774   3.947   6.857
 3412SOL    HW211136   3.643   3.898   6.941
 3413SOL     OW11137   3.665   1.603   3.227
 3413SOL    HW111138   3.692   1.698   3.243
 3413SOL    HW211139   3.658   1.556   3.315
 3414SOL     OW11140   2.954   2.351   5.343
 3414SOL    HW111141   2.909   2.309   5.264
 3414SOL    HW211142   3.046   2.381   5.316
 3415SOL     OW11143   0.555   4.577   4.435
 3415SOL    HW111144   0.526   4.507   4.500
 3415SOL    HW211145   0.640   4.549   4.391
 3416SOL     OW11146   0.239   4.320   5.810
 3416SOL    HW111147   0.230   4.247   5.741
 3416SOL    HW211148   0.166   4.311   5.878
 3417SOL     OW11149   6.894   6.708   2.637
 3417SOL    HW111150   6.940   6.620   2.646
 3417SOL    HW211151   6.798   6.693   2.613
 3418SOL     OW11152   2.292   0.937   5.146
 3418SOL    HW111153   2.193   0.949   5.153
 3418SOL    HW211154   2.326   0.893   5.230
 3419SOL     OW11155   4.203   4.544   0.136
 3419SOL    HW111156   4.154   4.548   0.049
 3419SOL    HW211157   4.138   4.552   0.212
 3420SOL     OW11158   4.752   2.003   4.093
 3420SOL    HW111159   4.724   2.099   4.105
 3420SOL    HW211160   4.677   1.943   4.120
 3421SOL     OW11161   0.122   6.626   5.228
 3421SOL    HW111162   0.222   6.630   5.228
 3421SOL    HW211163   0.091   6.583   5.312
 3422SOL     OW11164   3.497   0.507   1.538
 3422SOL    HW111165   3.455   0.446   1.605
 3422SOL    HW211166   3.596   0.490   1.533
 3423SOL     OW11167   2.783   0.913   0.905
 3423SOL    HW111168   2.723   0.977   0.954
 3423SOL    HW211169   2.876   0.921   0.941
 3424SOL     OW11170   4.178   1.278   2.554
 3424SOL    HW111171   4.269   1.319   2.557
 3424SOL    HW211172   4.160   1.231   2.641
 3425SOL     OW11173   4.787   4.264   1.983
 3425SOL    HW111174   4.691   4.286   2.002
 3425SOL    HW211175   4.796   4.232   1.889
 3426SOL     OW11176   4.152   3.421   0.073
 3426SOL    HW111177   4.208   3.502   0.054
 3426SOL    HW211178   4.159   3.397   0.170
 3427SOL     OW11179   6.948   0.465   0.114
 3427SOL    HW111180   7.001   0.547   0.094
 3427SOL    HW211181   6.896   0.479   0.198
 3428SOL     OW11182   4.107   4.888   2.514
 3428SOL    HW111183   4.173   4.838   2.570
 3428SOL    HW211184   4.097   4.844   2.425
 3429SOL     OW11185   1.234   3.076   6.914
 3429SOL    HW111186   1.215   3.142   6.841
 3429SOL    HW211187   1.272   3.124   6.993
 3430SOL     OW11188   1.421   0.049   0.342
 3430SOL    HW111189   1.324   0.023   0.335
 3430SOL    HW211190   1.459   0.057   0.250
 3431SOL     OW11191   1.635   6.285   1.234
 3431SOL    HW111192   1.582   6.284   1.319
 3431SOL    HW211193   1.597   6.354   1.172
 3432SOL     OW11194   3.192   1.520   5.707
 3432SOL    HW111195   3.280   1.516   5.661
 3432SOL    HW211196   3.189   1.601   5.766
 3433SOL     OW11197   3.541   1.021   5.800
 3433SOL    HW111198   3.487   1.096   5.762
 3433SOL    HW211199   3.499   0.933   5.775
 3434SOL     OW11200   4.325   2.574   1.279
 3434SOL    HW111201   4.329   2.636   1.357
 3434SOL    HW211202   4.246   2.596   1.222
 3435SOL     OW11203   6.811   2.543   1.984
 3435SOL    HW111204   6.812   2.620   2.049
 3435SOL    HW211205   6.717   2.514   1.968
 3436SOL     OW11206   4.576   7.001   4.708
 3436SOL    HW111207   4.567   6.956   4.619
 3436SOL    HW211208   4.627   0.068   4.697
 3437SOL     OW11209   3.857   0.259   4.982
 3437SOL    HW111210   3.873   0.161   4.996
 3437SOL    HW211211   3.830   0.301   5.068
 3438SOL     OW11212   1.781   2.603   6.540
 3438SOL    HW111213   1.801   2.589   6.637
 3438SOL    HW211214   1.714   2.677   6.531
 3439SOL     OW11215   2.564   6.318   4.876
 3439SOL    HW111216   2.636   6.281   4.818
 3439SOL    HW211217   2.541   6.411   4.845
 3440SOL     OW11218   4.502   3.074   1.283
 3440SOL    HW111219   4.471   3.158   1.326
 3440SOL    HW211220   4.424   3.014   1.265
 3441SOL     OW11221   4.083   0.000   4.408
 3441SOL    HW111222   4.018   6.947   4.381
 3441SOL    HW211223   4.156   6.978   4.464
 3442SOL     OW11224   2.110   5.282   3.610
 3442SOL    HW111225   2.133   5.378   3.593
 3442SOL    HW211226   2.149   5.253   3.698
 3443SOL     OW11227   5.998   1.937   3.031
 3443SOL    HW111228   5.987   1.948   3.130
 3443SOL    HW211229   5.998   1.840   3.008
 3444SOL     OW11230   5.180   5.621   6.809
 3444SOL    HW111231   5.240   5.594   6.733
 3444SOL    HW211232   5.208   5.711   6.843
 3445SOL     OW11233   6.368   4.163   4.218
 3445SOL    HW111234   6.340   4.258   4.230
 3445SOL    HW211235   6.422   4.133   4.297
 3446SOL     OW11236   4.206   0.311   3.343
 3446SOL    HW111237   4.263   0.322   3.262
 3446SOL    HW211238   4.142   0.236   3.329
 3447SOL     OW11239   5.856   5.373   0.444
 3447SOL    HW111240   5.779   5.369   0.380
 3447SOL    HW211241   5.821   5.395   0.535
 3448SOL     OW11242   3.170   0.689   1.157
 3448SOL    HW111243   3.216   0.610   1.197
 3448SOL    HW211244   3.192   0.771   1.210
 3449SOL     OW11245   6.983   0.310   1.875
 3449SOL    HW111246   0.052   0.354   1.854
 3449SOL    HW211247   6.984   0.274   1.968
 3450SOL     OW11248   1.145   1.566   1.516
 3450SOL    HW111249   1.202   1.484   1.521
 3450SOL    HW211250   1.072   1.560   1.584
 3451SOL     OW11251   1.446   5.646   3.809
 3451SOL    HW111252   1.486   5.687   3.727
 3451SOL    HW211253   1.371   5.704   3.842
 3452SOL     OW11254   6.622   0.926   6.840
 3452SOL    HW111255   6.697   0.894   6.898
 3452SOL    HW211256   6.659   0.987   6.769
 3453SOL     OW11257   5.053   5.726   4.803
 3453SOL    HW111258   5.131   5.736   4.741
 3453SOL    HW211259   5.030   5.629   4.812
 3454SOL     OW11260   1.429   1.354   0.966
 3454SOL    HW111261   1.339   1.320   0.995
 3454SOL    HW211262   1.417   1.421   0.892
 3455SOL     OW11263   1.460   3.163   4.178
 3455SOL    HW111264   1.503   3.217   4.105
 3455SOL    HW211265   1.412   3.085   4.138
 3456SOL     OW11266   5.940   6.720   1.449
 3456SOL    HW111267   5.885   6.638   1.433
 3456SOL    HW211268   5.918   6.790   1.381
 3457SOL     OW11269   2.596   4.982   3.834
 3457SOL    HW111270   2.536   4.914   3.877
 3457SOL    HW211271   2.691   4.958   3.852
 3458SOL     OW11272   5.788   6.691   0.183
 3458SOL    HW111273   5.747   6.665   0.271
 3458SOL    HW211274   5.829   6.611   0.140
 3459SOL     OW11275   0.398   3.912   3.567
 3459SOL    HW111276   0.349   3.847   3.624
 3459SOL    HW211277   0.332   3.972   3.521
 3460SOL     OW11278   2.765   2.939   6.932
 3460SOL    HW111279   2.770   2.914   0.010
 3460SOL    HW211280   2.824   3.018   6.915
 3461SOL     OW11281   3.741   5.406   4.077
 3461SOL    HW111282   3.768   5.473   4.009
 3461SOL    HW211283   3.819   5.347   4.100
 3462SOL     OW11284   5.566   3.127   2.915
 3462SOL    HW111285   5.653   3.092   2.948
 3462SOL    HW211286   5.496   3.057   2.926
 3463SOL     OW11287   1.557   3.058   1.824
 3463SOL    HW111288   1.465   3.095   1.808
 3463SOL    HW211289   1.590   3.089   1.914
 3464SOL     OW11290   5.485   2.827   6.520
 3464SOL    HW111291   5.393   2.864   6.509
 3464SOL    HW211292   5.507   2.766   6.444
 3465SOL     OW11293   2.326   3.717   1.725
 3465SOL    HW111294   2.295   3.671   1.808
 3465SOL    HW211295   2.311   3.816   1.734
 3466SOL     OW11296   5.580   4.391   5.510
 3466SOL    HW111297   5.529   4.396   5.595
 3466SOL    HW211298   5.539   4.321   5.451
 3467SOL     OW11299   3.177   2.031   0.982
 3467SOL    HW111300   3.249   2.007   0.917
 3467SOL    HW211301   3.101   2.073   0.934
 3468SOL     OW11302   4.691   1.295   1.794
 3468SOL    HW111303   4.595   1.285   1.819
 3468SOL    HW211304   4.741   1.213   1.825
 3469SOL     OW11305   4.509   0.078   6.196
 3469SOL    HW111306   4.429   0.021   6.214
 3469SOL    HW211307   4.503   0.117   6.105
 3470SOL     OW11308   0.346   2.817   0.849
 3470SOL    HW111309   0.382   2.754   0.780
 3470SOL    HW211310   0.306   2.764   0.924
 3471SOL     OW11311   4.586   4.379   3.687
 3471SOL    HW111312   4.589   4.306   3.756
 3471SOL    HW211313   4.675   4.423   3.681
 3472SOL     OW11314   4.446   2.432   2.991
 3472SOL    HW111315   4.473   2.494   3.065
 3472SOL    HW211316   4.383   2.363   3.026
 3473SOL     OW11317   0.205   3.484   3.988
 3473SOL    HW111318   0.249   3.491   4.077
 3473SOL    HW211319   0.266   3.439   3.924
 3474SOL     OW11320   0.442   4.010   4.364
 3474SOL    HW111321   0.538   4.014   4.338
 3474SOL    HW211322   0.434   3.997   4.463
 3475SOL     OW11323   6.896   4.705   4.586
 3475SOL    HW111324   6.938   4.751   4.507
 3475SOL    HW211325   6.799   4.729   4.590
 3476SOL     OW11326   1.997   2.017   3.653
 3476SOL    HW111327   2.059   1.939   3.650
 3476SOL    HW211328   2.022   2.082   3.582
 3477SOL     OW11329   0.171   3.668   1.512
 3477SOL    HW111330   0.109   3.734   1.470
 3477SOL    HW211331   0.209   3.607   1.442
 3478SOL     OW11332   2.404   0.016   0.163
 3478SOL    HW111333   2.386   0.075   0.242
 3478SOL    HW211334   2.423   0.073   0.083
 3479SOL     OW11335   0.607   3.063   3.611
 3479SOL    HW111336   0.572   2.984   3.661
 3479SOL    HW211337   0.530   3.117   3.576
 3480SOL     OW11338   1.107   5.975   6.544
 3480SOL    HW111339   1.033   5.937   6.600
 3480SOL    HW211340   1.095   5.948   6.449
 3481SOL     OW11341   5.545   0.732   0.154
 3481SOL    HW111342   5.534   0.640   0.191
 3481SOL    HW211343   5.623   0.733   0.091
 3482SOL     OW11344   6.137   2.471   4.070
 3482SOL    HW111345   6.122   2.377   4.041
 3482SOL    HW211346   6.115   2.533   3.995
 3483SOL     OW11347   4.772   2.494   3.250
 3483SOL    HW111348   4.784   2.580   3.299
 3483SOL    HW211349   4.683   2.493   3.205
 3484SOL     OW11350   1.846   3.601   6.197
 3484SOL    HW111351   1.856   3.655   6.281
 3484SOL    HW211352   1.936   3.569   6.167
 3485SOL     OW11353   0.028   1.727   5.009
 3485SOL    HW111354   6.965   1.702   4.955
 3485SOL    HW211355   0.099   1.658   4.996
 3486SOL     OW11356   1.835   6.644   4.612
 3486SOL    HW111357   1.900   6.596   4.554
 3486SOL    HW211358   1.742   6.618   4.586
 3487SOL     OW11359   6.279   1.179   6.658
 3487SOL    HW111360   6.354   1.122   6.625
 3487SOL    HW211361   6.241   1.233   6.583
 3488SOL     OW11362   5.361   0.837   4.859
 3488SOL    HW111363   5.320   0.803   4.775
 3488SOL    HW211364   5.360   0.937   4.859
 3489SOL     OW11365   3.121   6.489   1.094
 3489SOL    HW111366   3.145   6.502   0.998
 3489SOL    HW211367   3.160   6.564   1.148
 3490SOL     OW11368   3.905   4.784   1.061
 3490SOL    HW111369   3.862   4.768   1.149
 3490SOL    HW211370   3.976   4.716   1.045
 3491SOL     OW11371   5.201   3.848   0.249
 3491SOL    HW111372   5.246   3.905   0.181
 3491SOL    HW211373   5.255   3.849   0.334
 3492SOL     OW11374   6.786   4.003   2.369
 3492SOL    HW111375   6.829   4.092   2.353
 3492SOL    HW211376   6.804   3.974   2.463
 3493SOL     OW11377   6.551   3.609   4.180
 3493SOL    HW111378   6.559   3.706   4.158
 3493SOL    HW211379   6.567   3.596   4.278
 3494SOL     OW11380   3.307   1.785   2.407
 3494SOL    HW111381   3.232   1.722   2.386
 3494SOL    HW211382   3.317   1.793   2.506
 3495SOL     OW11383   0.589   4.160   2.248
 3495SOL    HW111384   0.568   4.095   2.175
 3495SOL    HW211385   0.528   4.144   2.325
 3496SOL     OW11386   6.019   4.675   0.409
 3496SOL    HW111387   6.095   4.740   0.411
 3496SOL    HW211388   6.024   4.616   0.490
 3497SOL     OW11389   3.450   0.970   3.380
 3497SOL    HW111390   3.445   0.917   3.296
 3497SOL    HW211391   3.458   0.908   3.458
 3498SOL     OW11392   2.727   1.565   2.101
 3498SOL    HW111393   2.660   1.628   2.062
 3498SOL    HW211394   2.819   1.597   2.079
 3499SOL     OW11395   6.074   6.134   5.530
 3499SOL    HW111396   6.141   6.205   5.508
 3499SOL    HW211397   6.007   6.170   5.595
 3500SOL     OW11398   1.543   1.984   4.170
 3500SOL    HW111399   1.579   1.985   4.263
 3500SOL    HW211400   1.619   1.970   4.105
 3501SOL     OW11401   2.521   6.924   6.859
 3501SOL    HW111402   2.425   6.909   6.885
 3501SOL    HW211403   2.529   7.008   6.807
 3502SOL     OW11404   5.888   3.085   1.683
 3502SOL    HW111405   5.803   3.062   1.635
 3502SOL    HW211406   5.916   3.009   1.741
 3503SOL     OW11407   0.029   5.712   5.786
 3503SOL    HW111408   7.008   5.794   5.829
 3503SOL    HW211409   6.984   5.635   5.799
 3504SOL     OW11410   1.995   0.628   1.955
 3504SOL    HW111411   2.030   0.642   1.863
 3504SOL    HW211412   2.069   0.641   2.021
 3505SOL     OW11413   5.570   5.593   5.681
 3505SOL    HW111414   5.627   5.668   5.714
 3505SOL    HW211415   5.607   5.557   5.596
 3506SOL     OW11416   6.297   4.472   5.244
 3506SOL    HW111417   6.227   4.459   5.173
 3506SOL    HW211418   6.354   4.551   5.220
 3507SOL     OW11419   2.396   0.051   0.805
 3507SOL    HW111420   2.384   0.023   0.710
 3507SOL    HW211421   2.312   0.094   0.838
 3508SOL     OW11422   3.074   2.485   6.062
 3508SOL    HW111423   3.114   2.539   6.136
 3508SOL    HW211424   3.124   2.399   6.053
 3509SOL     OW11425   4.980   6.843   0.457
 3509SOL    HW111426   4.922   6.773   0.415
 3509SOL    HW211427   4.958   6.933   0.419
 3510SOL     OW11428   2.196   1.204   1.429
 3510SOL    HW111429   2.195   1.252   1.342
 3510SOL    HW211430   2.228   1.110   1.415
 3511SOL     OW11431   2.163   4.495   1.045
 3511SOL    HW111432   2.174   4.409   1.095
 3511SOL    HW211433   2.210   4.568   1.095
 3512SOL     OW11434   0.534   3.839   0.188
 3512SOL    HW111435   0.448   3.814   0.144
 3512SOL    HW211436   0.558   3.933   0.163
 3513SOL     OW11437   6.500   2.269   1.148
 3513SOL    HW111438   6.418   2.210   1.147
 3513SOL    HW211439   6.572   2.224   1.201
 3514SOL     OW11440   5.471   0.728   2.280
 3514SOL    HW111441   5.555   0.763   2.319
 3514SOL    HW211442   5.492   0.675   2.198
 3515SOL     OW11443   5.566   5.975   3.821
 3515SOL    HW111444   5.644   5.964   3.882
 3515SOL    HW211445   5.509   6.051   3.852
 3516SOL     OW11446   4.865   0.009   0.996
 3516SOL    HW111447   4.766   0.002   0.984
 3516SOL    HW211448   4.885   0.049   1.085
 3517SOL     OW11449   0.185   0.735   1.243
 3517SOL    HW111450   0.276   0.771   1.223
 3517SOL    HW211451   0.130   0.807   1.288
 3518SOL     OW11452   5.515   1.895   4.801
 3518SOL    HW111453   5.549   1.988   4.797
 3518SOL    HW211454   5.470   1.872   4.714
 3519SOL     OW11455   2.597   1.258   6.754
 3519SOL    HW111456   2.528   1.317   6.713
 3519SOL    HW211457   2.556   1.204   6.828
 3520SOL     OW11458   3.689   5.692   6.067
 3520SOL    HW111459   3.720   5.605   6.029
 3520SOL    HW211460   3.661   5.679   6.162
 3521SOL     OW11461   3.456   2.781   6.878
 3521SOL    HW111462   3.466   2.867   6.928
 3521SOL    HW211463   3.389   2.792   6.805
 3522SOL     OW11464   6.386   5.433   6.465
 3522SOL    HW111465   6.485   5.445   6.454
 3522SOL    HW211466   6.365   5.413   6.561
 3523SOL     OW11467   1.136   4.543   5.579
 3523SOL    HW111468   1.132   4.467   5.513
 3523SOL    HW211469   1.140   4.629   5.529
 3524SOL     OW11470   5.420   1.824   2.724
 3524SOL    HW111471   5.343   1.888   2.726
 3524SOL    HW211472   5.504   1.872   2.745
 3525SOL     OW11473   5.935   3.696   3.900
 3525SOL    HW111474   6.001   3.673   3.972
 3525SOL    HW211475   5.955   3.643   3.818
 3526SOL     OW11476   1.488   6.096   3.299
 3526SOL    HW111477   1.535   6.021   3.252
 3526SOL    HW211478   1.530   6.109   3.389
 3527SOL     OW11479   6.014   2.903   5.884
 3527SOL    HW111480   5.969   2.883   5.797
 3527SOL    HW211481   6.101   2.949   5.867
 3528SOL     OW11482   2.361   5.838   5.133
 3528SOL    HW111483   2.366   5.852   5.034
 3528SOL    HW211484   2.371   5.741   5.154
 3529SOL     OW11485   4.171   6.425   6.625
 3529SOL    HW111486   4.209   6.409   6.533
 3529SOL    HW211487   4.237   6.477   6.679
 3530SOL     OW11488   6.977   5.039   2.050
 3530SOL    HW111489   6.960   4.943   2.074
 3530SOL    HW211490   0.034   5.043   1.984
 3531SOL     OW11491   5.253   2.245   1.405
 3531SOL    HW111492   5.180   2.216   1.467
 3531SOL    HW211493   5.313   2.168   1.385
 3532SOL     OW11494   2.563   0.622   1.830
 3532SOL    HW111495   2.660   0.634   1.808
 3532SOL    HW211496   2.522   0.712   1.847
 3533SOL     OW11497   0.328   1.773   2.715
 3533SOL    HW111498   0.378   1.792   2.800
 3533SOL    HW211499   0.331   1.853   2.656
 3534SOL     OW11500   1.066   2.511   2.263
 3534SOL    HW111501   1.144   2.462   2.224
 3534SOL    HW211502   1.051   2.596   2.213
 3535SOL     OW11503   2.742   5.298   5.450
 3535SOL    HW111504   2.664   5.319   5.509
 3535SOL    HW211505   2.721   5.327   5.356
 3536SOL     OW11506   3.472   1.735   2.988
 3536SOL    HW111507   3.489   1.692   3.076
 3536SOL    HW211508   3.374   1.752   2.977
 3537SOL     OW11509   1.078   5.873   2.404
 3537SOL    HW111510   1.122   5.878   2.494
 3537SOL    HW211511   1.103   5.954   2.351
 3538SOL     OW11512   3.287   5.591   5.539
 3538SOL    HW111513   3.200   5.634   5.563
 3538SOL    HW211514   3.286   5.570   5.441
 3539SOL     OW11515   3.763   3.799   4.361
 3539SOL    HW111516   3.742   3.702   4.365
 3539SOL    HW211517   3.682   3.850   4.329
 3540SOL     OW11518   2.187   2.452   4.215
 3540SOL    HW111519   2.147   2.373   4.261
 3540SOL    HW211520   2.197   2.527   4.280
 3541SOL     OW11521   2.993   3.022   5.364
 3541SOL    HW111522   2.893   3.026   5.364
 3541SOL    HW211523   3.024   2.957   5.433
 3542SOL     OW11524   1.912   4.963   3.112
 3542SOL    HW111525   1.975   4.886   3.119
 3542SOL    HW211526   1.957   5.046   3.147
 3543SOL     OW11527   5.707   2.957   4.089
 3543SOL    HW111528   5.761   2.884   4.131
 3543SOL    HW211529   5.617   2.922   4.063
 3544SOL     OW11530   1.784   4.311   6.746
 3544SOL    HW111531   1.786   4.338   6.842
 3544SOL    HW211532   1.861   4.248   6.728
 3545SOL     OW11533   3.824   6.298   6.093
 3545SOL    HW111534   3.825   6.379   6.153
 3545SOL    HW211535   3.828   6.328   5.998
 3546SOL     OW11536   0.490   5.799   3.292
 3546SOL    HW111537   0.533   5.885   3.265
 3546SOL    HW211538   0.554   5.723   3.275
 3547SOL     OW11539   4.075   5.468   4.083
 3547SOL    HW111540   4.047   5.554   4.041
 3547SOL    HW211541   4.156   5.484   4.139
 3548SOL     OW11542   5.210   2.110   5.563
 3548SOL    HW111543   5.141   2.130   5.494
 3548SOL    HW211544   5.207   2.180   5.635
 3549SOL     OW11545   6.632   4.897   4.689
 3549SOL    HW111546   6.535   4.876   4.671
 3549SOL    HW211547   6.642   4.929   4.783
 3550SOL     OW11548   5.516   2.429   2.961
 3550SOL    HW111549   5.511   2.366   2.884
 3550SOL    HW211550   5.431   2.482   2.966
 3551SOL     OW11551   3.773   6.341   3.319
 3551SOL    HW111552   3.742   6.246   3.323
 3551SOL    HW211553   3.817   6.365   3.406
 3552SOL     OW11554   5.065   5.318   3.052
 3552SOL    HW111555   5.058   5.223   3.021
 3552SOL    HW211556   4.974   5.352   3.077
 3553SOL     OW11557   5.350   2.906   2.249
 3553SOL    HW111558   5.344   2.995   2.204
 3553SOL    HW211559   5.439   2.864   2.228
 3554SOL     OW11560   3.949   3.990   6.920
 3554SOL    HW111561   3.984   4.081   6.945
 3554SOL    HW211562   4.025   3.926   6.916
 3555SOL     OW11563   0.707   3.236   2.752
 3555SOL    HW111564   0.779   3.299   2.782
 3555SOL    HW211565   0.648   3.214   2.829
 3556SOL     OW11566   3.480   0.470   5.366
 3556SOL    HW111567   3.572   0.465   5.406
 3556SOL    HW211568   3.420   0.404   5.412
 3557SOL     OW11569   1.111   0.846   5.016
 3557SOL    HW111570   1.106   0.945   5.023
 3557SOL    HW211571   1.204   0.819   4.993
 3558SOL     OW11572   0.188   5.744   1.645
 3558SOL    HW111573   0.152   5.652   1.657
 3558SOL    HW211574   0.269   5.756   1.703
 3559SOL     OW11575   0.255   0.219   4.988
 3559SOL    HW111576   0.179   0.196   4.927
 3559SOL    HW211577   0.317   0.282   4.941
 3560SOL     OW11578   1.598   5.724   1.241
 3560SOL    HW111579   1.691   5.760   1.247
 3560SOL    HW211580   1.542   5.762   1.315
 3561SOL     OW11581   5.201   4.954   6.170
 3561SOL    HW111582   5.149   5.012   6.233
 3561SOL    HW211583   5.137   4.895   6.119
 3562SOL     OW11584   5.333   0.108   3.926
 3562SOL    HW111585   5.290   0.190   3.891
 3562SOL    HW211586   5.429   0.105   3.898
 3563SOL     OW11587   5.267   1.235   1.379
 3563SOL    HW111588   5.331   1.294   1.328
 3563SOL    HW211589   5.264   1.264   1.474
 3564SOL     OW11590   0.600   4.179   4.773
 3564SOL    HW111591   0.577   4.104   4.835
 3564SOL    HW211592   0.664   4.241   4.819
 3565SOL     OW11593   2.835   6.570   4.587
 3565SOL    HW111594   2.844   6.560   4.686
 3565SOL    HW211595   2.767   6.641   4.567
 3566SOL     OW11596   6.974   3.126   5.688
 3566SOL    HW111597   6.993   3.201   5.624
 3566SOL    HW211598   6.878   3.128   5.713
 3567SOL     OW11599   0.752   2.611   0.701
 3567SOL    HW111600   0.686   2.638   0.630
 3567SOL    HW211601   0.753   2.512   0.710
 3568SOL     OW11602   4.724   5.111   2.819
 3568SOL    HW111603   4.708   5.192   2.762
 3568SOL    HW211604   4.788   5.050   2.773
 3569SOL     OW11605   3.045   3.214   4.633
 3569SOL    HW111606   2.959   3.232   4.682
 3569SOL    HW211607   3.110   3.171   4.696
 3570SOL     OW11608   6.108   1.817   5.471
 3570SOL    HW111609   6.049   1.837   5.393
 3570SOL    HW211610   6.175   1.748   5.445
 3571SOL     OW11611   1.687   0.579   5.097
 3571SOL    HW111612   1.779   0.619   5.098
 3571SOL    HW211613   1.669   0.535   5.185
 3572SOL     OW11614   5.292   4.265   2.405
 3572SOL    HW111615   5.334   4.355   2.419
 3572SOL    HW211616   5.192   4.274   2.410
 3573SOL     OW11617   6.718   4.342   2.186
 3573SOL    HW111618   6.796   4.281   2.199
 3573SOL    HW211619   6.660   4.339   2.267
 3574SOL     OW11620   2.601   3.155   6.173
 3574SOL    HW111621   2.650   3.102   6.104
 3574SOL    HW211622   2.504   3.128   6.173
 3575SOL     OW11623   5.006   6.137   1.088
 3575SOL    HW111624   4.971   6.230   1.098
 3575SOL    HW211625   5.051   6.128   0.999
 3576SOL     OW11626   0.257   3.051   6.836
 3576SOL    HW111627   0.321   2.982   6.802
 3576SOL    HW211628   0.301   3.106   6.906
 3577SOL     OW11629   2.245   2.604   5.191
 3577SOL    HW111630   2.232   2.565   5.283
 3577SOL    HW211631   2.236   2.703   5.196
 3578SOL     OW11632   3.067   2.700   0.486
 3578SOL    HW111633   3.046   2.614   0.438
 3578SOL    HW211634   3.049   2.689   0.584
 3579SOL     OW11635   0.245   3.461   2.483
 3579SOL    HW111636   0.217   3.373   2.446
 3579SOL    HW211637   0.327   3.450   2.538
 3580SOL     OW11638   0.605   3.010   1.034
 3580SOL    HW111639   0.683   3.022   1.096
 3580SOL    HW211640   0.616   3.069   0.954
 3581SOL     OW11641   0.887   0.223   3.241
 3581SOL    HW111642   0.906   0.242   3.337
 3581SOL    HW211643   0.788   0.223   3.225
 3582SOL     OW11644   3.085   4.247   5.831
 3582SOL    HW111645   3.106   4.344   5.841
 3582SOL    HW211646   3.004   4.236   5.772
 3583SOL     OW11647   0.626   4.704   0.481
 3583SOL    HW111648   0.610   4.763   0.560
 3583SOL    HW211649   0.711   4.652   0.494
 3584SOL     OW11650   5.618   4.749   5.476
 3584SOL    HW111651   5.539   4.806   5.454
 3584SOL    HW211652   5.632   4.748   5.575
 3585SOL     OW11653   2.534   2.477   4.646
 3585SOL    HW111654   2.510   2.473   4.549
 3585SOL    HW211655   2.628   2.447   4.658
 3586SOL     OW11656   6.425   2.871   3.948
 3586SOL    HW111657   6.429   2.912   3.857
 3586SOL    HW211658   6.426   2.771   3.939
 3587SOL     OW11659   3.596   6.185   6.199
 3587SOL    HW111660   3.670   6.168   6.133
 3587SOL    HW211661   3.629   6.171   6.292
 3588SOL     OW11662   6.378   4.072   4.636
 3588SOL    HW111663   6.433   4.103   4.559
 3588SOL    HW211664   6.315   4.001   4.606
 3589SOL     OW11665   0.138   0.025   5.873
 3589SOL    HW111666   0.204   0.084   5.919
 3589SOL    HW211667   0.121   6.962   5.929
 3590SOL     OW11668   0.043   4.110   0.161
 3590SOL    HW111669   0.072   4.174   0.232
 3590SOL    HW211670   7.013   4.160   0.088
 3591SOL     OW11671   5.601   2.260   6.425
 3591SOL    HW111672   5.639   2.169   6.408
 3591SOL    HW211673   5.566   2.298   6.339
 3592SOL     OW11674   0.784   0.653   2.247
 3592SOL    HW111675   0.878   0.684   2.238
 3592SOL    HW211676   0.781   0.553   2.251
 3593SOL     OW11677   6.147   3.457   5.969
 3593SOL    HW111678   6.224   3.520   5.963
 3593SOL    HW211679   6.062   3.508   5.981
 3594SOL     OW11680   3.974   5.740   4.961
 3594SOL    HW111681   4.002   5.767   4.869
 3594SOL    HW211682   4.044   5.765   5.026
 3595SOL     OW11683   5.745   5.864   6.936
 3595SOL    HW111684   5.691   5.909   7.007
 3595SOL    HW211685   5.764   5.929   6.862
 3596SOL     OW11686   3.741   1.545   2.974
 3596SOL    HW111687   3.710   1.458   2.936
 3596SOL    HW211688   3.697   1.561   3.063
 3597SOL     OW11689   1.892   3.088   4.929
 3597SOL    HW111690   1.844   3.169   4.896
 3597SOL    HW211691   1.981   3.115   4.966
 3598SOL     OW11692   1.360   5.640   5.245
 3598SOL    HW111693   1.429   5.577   5.279
 3598SOL    HW211694   1.370   5.651   5.146
 3599SOL     OW11695   4.654   1.537   5.849
 3599SOL    HW111696   4.593   1.534   5.769
 3599SOL    HW211697   4.697   1.628   5.854
 3600SOL     OW11698   3.292   3.773   0.664
 3600SOL    HW111699   3.231   3.771   0.585
 3600SOL    HW211700   3.317   3.680   0.689
 3601SOL     OW11701   4.920   1.141   5.384
 3601SOL    HW111702   4.966   1.068   5.333
 3601SOL    HW211703   4.868   1.102   5.460
 3602SOL     OW11704   2.055   2.593   1.889
 3602SOL    HW111705   2.023   2.506   1.926
 3602SOL    HW211706   2.108   2.576   1.805
 3603SOL     OW11707   3.297   0.746   5.928
 3603SOL    HW111708   3.316   0.819   5.994
 3603SOL    HW211709   3.264   0.786   5.843
 3604SOL     OW11710   6.722   0.908   3.730
 3604SOL    HW111711   6.669   0.824   3.739
 3604SOL    HW211712   6.794   0.910   3.800
 3605SOL     OW11713   1.199   5.166   3.112
 3605SOL    HW111714   1.144   5.091   3.148
 3605SOL    HW211715   1.290   5.133   3.090
 3606SOL     OW11716   2.035   6.441   1.890
 3606SOL    HW111717   2.129   6.464   1.917
 3606SOL    HW211718   2.034   6.412   1.794
 3607SOL     OW11719   5.199   2.785   2.758
 3607SOL    HW111720   5.154   2.842   2.827
 3607SOL    HW211721   5.130   2.747   2.696
 3608SOL     OW11722   4.098   2.115   4.218
 3608SOL    HW111723   4.104   2.074   4.308
 3608SOL    HW211724   4.171   2.182   4.206
 3609SOL     OW11725   2.433   6.773   4.415
 3609SOL    HW111726   2.340   6.743   4.393
 3609SOL    HW211727   2.477   6.807   4.332
 3610SOL     OW11728   2.440   6.908   5.481
 3610SOL    HW111729   2.508   6.892   5.409
 3610SOL    HW211730   2.447   6.836   5.550
 3611SOL     OW11731   4.466   4.602   3.773
 3611SOL    HW111732   4.550   4.655   3.782
 3611SOL    HW211733   4.488   4.507   3.749
 3612SOL     OW11734   5.803   1.144   6.394
 3612SOL    HW111735   5.878   1.190   6.442
 3612SOL    HW211736   5.757   1.210   6.334
 3613SOL     OW11737   3.366   5.090   1.242
 3613SOL    HW111738   3.400   5.088   1.336
 3613SOL    HW211739   3.436   5.130   1.182
 3614SOL     OW11740   3.448   4.213   6.539
 3614SOL    HW111741   3.353   4.224   6.570
 3614SOL    HW211742   3.488   4.303   6.521
 3615SOL     OW11743   6.537   2.704   5.471
 3615SOL    HW111744   6.523   2.623   5.415
 3615SOL    HW211745   6.468   2.708   5.543
 3616SOL     OW11746   1.949   1.711   6.801
 3616SOL    HW111747   1.945   1.766   6.718
 3616SOL    HW211748   1.880   1.638   6.795
 3617SOL     OW11749   4.084   0.104   5.732
 3617SOL    HW111750   4.138   0.023   5.755
 3617SOL    HW211751   3.989   0.078   5.717
 3618SOL     OW11752   1.686   4.233   4.977
 3618SOL    HW111753   1.769   4.216   4.923
 3618SOL    HW211754   1.645   4.146   5.004
 3619SOL     OW11755   6.030   2.855   1.100
 3619SOL    HW111756   5.951   2.827   1.045
 3619SOL    HW211757   6.037   2.955   1.100
 3620SOL     OW11758   6.190   6.666   4.846
 3620SOL    HW111759   6.168   6.624   4.934
 3620SOL    HW211760   6.250   6.745   4.860
 3621SOL     OW11761   3.780   3.048   4.053
 3621SOL    HW111762   3.788   3.002   4.141
 3621SOL    HW211763   3.863   3.101   4.035
 3622SOL     OW11764   0.865   6.665   0.549
 3622SOL    HW111765   0.887   6.725   0.472
 3622SOL    HW211766   0.929   6.683   0.624
 3623SOL     OW11767   1.383   5.454   5.989
 3623SOL    HW111768   1.395   5.355   5.987
 3623SOL    HW211769   1.464   5.496   6.031
 3624SOL     OW11770   3.114   0.775   1.724
 3624SOL    HW111771   3.177   0.736   1.656
 3624SOL    HW211772   3.152   0.762   1.815
 3625SOL     OW11773   6.433   3.127   6.631
 3625SOL    HW111774   6.351   3.147   6.577
 3625SOL    HW211775   6.408   3.067   6.707
 3626SOL     OW11776   0.544   2.452   5.225
 3626SOL    HW111777   0.465   2.404   5.264
 3626SOL    HW211778   0.599   2.388   5.171
 3627SOL     OW11779   4.244   2.929   1.262
 3627SOL    HW111780   4.274   2.919   1.167
 3627SOL    HW211781   4.162   2.986   1.265
 3628SOL     OW11782   0.375   1.191   2.168
 3628SOL    HW111783   0.463   1.224   2.201
 3628SOL    HW211784   0.316   1.269   2.144
 3629SOL     OW11785   1.135   1.257   4.462
 3629SOL    HW111786   1.082   1.295   4.387
 3629SOL    HW211787   1.097   1.290   4.549
 3630SOL     OW11788   6.944   2.724   3.540
 3630SOL    HW111789   6.973   2.810   3.498
 3630SOL    HW211790   6.914   2.741   3.634
 3631SOL     OW11791   1.513   6.492   2.672
 3631SOL    HW111792   1.454   6.568   2.701
 3631SOL    HW211793   1.549   6.445   2.752
 3632SOL     OW11794   4.532   3.255   0.976
 3632SOL    HW111795   4.591   3.189   1.024
 3632SOL    HW211796   4.483   3.311   1.043
 3633SOL     OW11797   3.792   2.750   6.160
 3633SOL    HW111798   3.881   2.723   6.123
 3633SOL    HW211799   3.805   2.823   6.227
 3634SOL     OW11800   3.164   5.425   5.726
 3634SOL    HW111801   3.134   5.480   5.804
 3634SOL    HW211802   3.239   5.472   5.679
 3635SOL     OW11803   3.116   1.067   1.526
 3635SOL    HW111804   3.172   1.123   1.466
 3635SOL    HW211805   3.152   1.072   1.619
 3636SOL     OW11806   1.166   5.536   6.781
 3636SOL    HW111807   1.131   5.625   6.752
 3636SOL    HW211808   1.127   5.464   6.723
 3637SOL     OW11809   0.044   3.065   6.641
 3637SOL    HW111810   0.117   3.051   6.707
 3637SOL    HW211811   0.069   3.023   6.554
 3638SOL     OW11812   5.983   4.737   2.370
 3638SOL    HW111813   5.955   4.769   2.280
 3638SOL    HW211814   5.993   4.638   2.369
 3639SOL     OW11815   3.634   4.175   4.505
 3639SOL    HW111816   3.597   4.206   4.592
 3639SOL    HW211817   3.577   4.209   4.430
 3640SOL     OW11818   5.192   2.797   0.340
 3640SOL    HW111819   5.183   2.698   0.332
 3640SOL    HW211820   5.189   2.838   0.249
 3641SOL     OW11821   6.922   4.363   1.487
 3641SOL    HW111822   6.914   4.442   1.548
 3641SOL    HW211823   6.855   4.294   1.514
 3642SOL     OW11824   5.924   2.285   6.547
 3642SOL    HW111825   5.884   2.237   6.626
 3642SOL    HW211826   6.021   2.302   6.564
 3643SOL     OW11827   3.909   5.580   5.685
 3643SOL    HW111828   3.863   5.667   5.669
 3643SOL    HW211829   3.842   5.509   5.706
 3644SOL     OW11830   3.474   0.847   1.787
 3644SOL    HW111831   3.445   0.791   1.864
 3644SOL    HW211832   3.564   0.887   1.806
 3645SOL     OW11833   1.719   4.067   4.196
 3645SOL    HW111834   1.637   4.124   4.203
 3645SOL    HW211835   1.725   4.007   4.276
 3646SOL     OW11836   2.665   4.691   4.855
 3646SOL    HW111837   2.744   4.684   4.915
 3646SOL    HW211838   2.581   4.681   4.908
 3647SOL     OW11839   2.396   0.480   0.621
 3647SOL    HW111840   2.493   0.464   0.603
 3647SOL    HW211841   2.342   0.405   0.584
 3648SOL     OW11842   4.496   5.455   3.557
 3648SOL    HW111843   4.450   5.542   3.537
 3648SOL    HW211844   4.588   5.457   3.519
 3649SOL     OW11845   5.746   3.389   0.344
 3649SOL    HW111846   5.739   3.488   0.327
 3649SOL    HW211847   5.686   3.364   0.420
 3650SOL     OW11848   5.008   4.855   0.335
 3650SOL    HW111849   4.980   4.950   0.352
 3650SOL    HW211850   5.057   4.820   0.414
 3651SOL     OW11851   1.199   2.319   5.999
 3651SOL    HW111852   1.258   2.380   6.051
 3651SOL    HW211853   1.255   2.262   5.938
 3652SOL     OW11854   5.101   1.593   1.726
 3652SOL    HW111855   5.004   1.586   1.704
 3652SOL    HW211856   5.146   1.506   1.705
 3653SOL     OW11857   0.543   1.355   1.700
 3653SOL    HW111858   0.531   1.331   1.603
 3653SOL    HW211859   0.574   1.275   1.750
 3654SOL     OW11860   5.811   0.302   0.535
 3654SOL    HW111861   5.859   0.221   0.500
 3654SOL    HW211862   5.714   0.281   0.548
 3655SOL     OW11863   1.703   1.992   4.380
 3655SOL    HW111864   1.691   2.078   4.430
 3655SOL    HW211865   1.799   1.963   4.385
 3656SOL     OW11866   0.394   5.803   1.418
 3656SOL    HW111867   0.316   5.766   1.368
 3656SOL    HW211868   0.378   5.795   1.516
 3657SOL     OW11869   4.930   6.348   4.543
 3657SOL    HW111870   4.857   6.302   4.493
 3657SOL    HW211871   4.952   6.297   4.625
 3658SOL     OW11872   1.422   5.337   6.393
 3658SOL    HW111873   1.434   5.395   6.473
 3658SOL    HW211874   1.486   5.364   6.322
 3659SOL     OW11875   6.606   2.101   6.236
 3659SOL    HW111876   6.636   2.096   6.331
 3659SOL    HW211877   6.639   2.021   6.186
 3660SOL     OW11878   5.958   5.463   6.233
 3660SOL    HW111879   6.015   5.431   6.309
 3660SOL    HW211880   5.880   5.401   6.222
 3661SOL     OW11881   6.876   1.465   4.777
 3661SOL    HW111882   6.823   1.402   4.722
 3661SOL    HW211883   6.896   1.424   4.866
 3662SOL     OW11884   3.435   0.925   5.231
 3662SOL    HW111885   3.527   0.947   5.263
 3662SOL    HW211886   3.395   0.855   5.290
 3663SOL     OW11887   2.403   2.547   6.491
 3663SOL    HW111888   2.447   2.531   6.402
 3663SOL    HW211889   2.337   2.474   6.508
 3664SOL     OW11890   4.034   1.863   2.096
 3664SOL    HW111891   3.997   1.955   2.090
 3664SOL    HW211892   4.079   1.839   2.010
 3665SOL     OW11893   1.040   5.884   5.492
 3665SOL    HW111894   1.026   5.798   5.443
 3665SOL    HW211895   1.122   5.877   5.549
 3666SOL     OW11896   2.241   1.841   4.966
 3666SOL    HW111897   2.188   1.848   5.050
 3666SOL    HW211898   2.286   1.928   4.947
 3667SOL     OW11899   2.283   0.662   2.813
 3667SOL    HW111900   2.216   0.589   2.797
 3667SOL    HW211901   2.335   0.678   2.729
 3668SOL     OW11902   0.484   0.561   1.472
 3668SOL    HW111903   0.549   0.545   1.397
 3668SOL    HW211904   0.506   0.500   1.548
 3669SOL     OW11905   6.898   1.435   4.021
 3669SOL    HW111906   6.961   1.512   4.016
 3669SOL    HW211907   6.915   1.373   3.944
 3670SOL     OW11908   3.587   5.441   1.530
 3670SOL    HW111909   3.577   5.351   1.572
 3670SOL    HW211910   3.501   5.492   1.540
 3671SOL     OW11911   0.255   0.346   3.461
 3671SOL    HW111912   0.231   0.435   3.499
 3671SOL    HW211913   0.207   0.332   3.375
 3672SOL     OW11914   4.380   0.257   3.115
 3672SOL    HW111915   4.476   0.234   3.131
 3672SOL    HW211916   4.343   0.197   3.044
 3673SOL     OW11917   4.609   6.344   1.336
 3673SOL    HW111918   4.637   6.279   1.265
 3673SOL    HW211919   4.640   6.436   1.311
 3674SOL     OW11920   1.391   5.186   6.071
 3674SOL    HW111921   1.457   5.121   6.034
 3674SOL    HW211922   1.396   5.187   6.171
 3675SOL     OW11923   0.236   1.479   4.110
 3675SOL    HW111924   0.319   1.521   4.147
 3675SOL    HW211925   0.171   1.551   4.084
 3676SOL     OW11926   4.414   1.698   3.427
 3676SOL    HW111927   4.322   1.665   3.447
 3676SOL    HW211928   4.426   1.707   3.328
 3677SOL     OW11929   2.100   0.467   3.786
 3677SOL    HW111930   2.185   0.490   3.833
 3677SOL    HW211931   2.095   0.517   3.700
 3678SOL     OW11932   1.626   0.409   3.788
 3678SOL    HW111933   1.702   0.391   3.850
 3678SOL    HW211934   1.570   0.327   3.778
 3679SOL     OW11935   4.693   1.215   2.206
 3679SOL    HW111936   4.615   1.242   2.262
 3679SOL    HW211937   4.679   1.245   2.112
 3680SOL     OW11938   4.093   0.928   4.024
 3680SOL    HW111939   4.105   0.856   3.955
 3680SOL    HW211940   4.108   1.017   3.982
 3681SOL     OW11941   1.471   6.893   4.986
 3681SOL    HW111942   1.425   6.982   4.976
 3681SOL    HW211943   1.429   6.827   4.924
 3682SOL     OW11944   5.610   2.491   1.214
 3682SOL    HW111945   5.599   2.393   1.196
 3682SOL    HW211946   5.688   2.504   1.276
 3683SOL     OW11947   6.626   0.695   6.104
 3683SOL    HW111948   6.543   0.693   6.048
 3683SOL    HW211949   6.626   0.617   6.167
 3684SOL     OW11950   1.966   6.659   5.455
 3684SOL    HW111951   2.025   6.704   5.522
 3684SOL    HW211952   1.932   6.726   5.390
 3685SOL     OW11953   2.166   6.052   5.753
 3685SOL    HW111954   2.249   6.021   5.706
 3685SOL    HW211955   2.094   5.984   5.740
 3686SOL     OW11956   0.220   4.150   3.839
 3686SOL    HW111957   0.317   4.150   3.860
 3686SOL    HW211958   0.175   4.224   3.889
 3687SOL     OW11959   5.063   5.899   3.507
 3687SOL    HW111960   5.140   5.896   3.571
 3687SOL    HW211961   5.082   5.838   3.430
 3688SOL     OW11962   5.681   3.352   0.636
 3688SOL    HW111963   5.599   3.296   0.624
 3688SOL    HW211964   5.748   3.302   0.692
 3689SOL     OW11965   1.590   0.446   5.777
 3689SOL    HW111966   1.507   0.407   5.737
 3689SOL    HW211967   1.598   0.415   5.872
 3690SOL     OW11968   4.659   4.921   0.772
 3690SOL    HW111969   4.654   4.932   0.871
 3690SOL    HW211970   4.672   4.825   0.749
 3691SOL     OW11971   2.378   2.328   0.252
 3691SOL    HW111972   2.363   2.231   0.235
 3691SOL    HW211973   2.441   2.339   0.329
 3692SOL     OW11974   1.121   3.348   6.380
 3692SOL    HW111975   1.155   3.418   6.443
 3692SOL    HW211976   1.100   3.264   6.430
 3693SOL     OW11977   0.327   1.585   2.493
 3693SOL    HW111978   0.316   1.668   2.547
 3693SOL    HW211979   0.243   1.568   2.441
 3694SOL     OW11980   6.843   0.280   1.417
 3694SOL    HW111981   6.847   0.345   1.341
 3694SOL    HW211982   6.903   0.312   1.490
 3695SOL     OW11983   6.686   2.833   2.780
 3695SOL    HW111984   6.657   2.918   2.735
 3695SOL    HW211985   6.652   2.755   2.729
 3696SOL     OW11986   5.088   1.065   4.790
 3696SOL    HW111987   5.100   1.110   4.702
 3696SOL    HW211988   5.174   1.066   4.841
 3697SOL     OW11989   6.359   6.710   3.413
 3697SOL    HW111990   6.405   6.637   3.464
 3697SOL    HW211991   6.303   6.764   3.476
 3698SOL     OW11992   2.350   0.664   3.078
 3698SOL    HW111993   2.327   0.656   2.981
 3698SOL    HW211994   2.304   0.744   3.117
 3699SOL     OW11995   2.476   2.183   3.701
 3699SOL    HW111996   2.403   2.212   3.762
 3699SOL    HW211997   2.548   2.137   3.753
 3700SOL     OW11998   0.854   5.023   5.151
 3700SOL    HW111999   0.784   4.999   5.219
 3700SOL    HW212000   0.898   4.940   5.118
 3701SOL     OW12001   1.407   0.401   2.632
 3701SOL    HW112002   1.454   0.319   2.664
 3701SOL    HW212003   1.391   0.394   2.533
 3702SOL     OW12004   5.189   4.632   3.994
 3702SOL    HW112005   5.223   4.548   4.036
 3702SOL    HW212006   5.267   4.688   3.966
 3703SOL     OW12007   1.306   1.959   4.482
 3703SOL    HW112008   1.271   1.865   4.477
 3703SOL    HW212009   1.389   1.960   4.538
 3704SOL     OW12010   0.078   2.182   0.858
 3704SOL    HW112011   0.153   2.141   0.804
 3704SOL    HW212012   7.017   2.197   0.799
 3705SOL     OW12013   4.928   4.389   3.176
 3705SOL    HW112014   4.961   4.481   3.197
 3705SOL    HW212015   4.836   4.378   3.214
 3706SOL     OW12016   0.686   3.730   0.490
 3706SOL    HW112017   0.760   3.697   0.549
 3706SOL    HW212018   0.681   3.672   0.408
 3707SOL     OW12019   1.730   4.995   3.497
 3707SOL    HW112020   1.790   5.010   3.576
 3707SOL    HW212021   1.736   4.899   3.470
 3708SOL     OW12022   3.721   0.071   0.776
 3708SOL    HW112023   3.727   0.067   0.676
 3708SOL    HW212024   3.761   7.006   0.815
 3709SOL     OW12025   1.597   0.565   2.721
 3709SOL    HW112026   1.655   0.570   2.640
 3709SOL    HW212027   1.510   0.521   2.698
 3710SOL     OW12028   0.019   5.127   5.579
 3710SOL    HW112029   0.035   5.029   5.567
 3710SOL    HW212030   6.971   5.141   5.653
 3711SOL     OW12031   1.521   5.716   4.701
 3711SOL    HW112032   1.475   5.628   4.693
 3711SOL    HW212033   1.618   5.703   4.718
 3712SOL     OW12034   1.824   5.309   4.963
 3712SOL    HW112035   1.849   5.335   4.870
 3712SOL    HW212036   1.724   5.310   4.972
 3713SOL     OW12037   6.304   6.281   4.846
 3713SOL    HW112038   6.362   6.200   4.854
 3713SOL    HW212039   6.351   6.359   4.886
 3714SOL     OW12040   0.848   4.717   0.049
 3714SOL    HW112041   0.936   4.713   0.001
 3714SOL    HW212042   0.837   4.808   0.090
 3715SOL     OW12043   6.642   5.737   3.639
 3715SOL    HW112044   6.602   5.717   3.728
 3715SOL    HW212045   6.714   5.670   3.618
 3716SOL     OW12046   4.993   5.593   3.606
 3716SOL    HW112047   5.049   5.600   3.689
 3716SOL    HW212048   5.026   5.658   3.538
 3717SOL     OW12049   4.320   1.136   1.388
 3717SOL    HW112050   4.320   1.214   1.450
 3717SOL    HW212051   4.361   1.162   1.301
 3718SOL     OW12052   6.810   6.659   6.087
 3718SOL    HW112053   6.865   6.689   6.166
 3718SOL    HW212054   6.782   6.564   6.100
 3719SOL     OW12055   4.242   3.883   6.274
 3719SOL    HW112056   4.288   3.796   6.258
 3719SOL    HW212057   4.144   3.873   6.256
 3720SOL     OW12058   0.151   2.827   1.536
 3720SOL    HW112059   0.212   2.800   1.611
 3720SOL    HW212060   0.091   2.751   1.512
 3721SOL     OW12061   6.432   4.772   6.812
 3721SOL    HW112062   6.369   4.796   6.738
 3721SOL    HW212063   6.526   4.780   6.781
 3722SOL     OW12064   4.391   6.804   2.829
 3722SOL    HW112065   4.450   6.879   2.857
 3722SOL    HW212066   4.304   6.809   2.879
 3723SOL     OW12067   4.782   4.776   6.862
 3723SOL    HW112068   4.818   4.789   6.954
 3723SOL    HW212069   4.690   4.815   6.856
 3724SOL     OW12070   1.375   4.918   5.371
 3724SOL    HW112071   1.329   4.937   5.284
 3724SOL    HW212072   1.463   4.965   5.374
 3725SOL     OW12073   0.721   6.289   6.613
 3725SOL    HW112074   0.793   6.298   6.545
 3725SOL    HW212075   0.703   6.192   6.629
 3726SOL     OW12076   5.635   3.556   3.586
 3726SOL    HW112077   5.701   3.630   3.573
 3726SOL    HW212078   5.546   3.585   3.550
 3727SOL     OW12079   0.030   3.260   4.455
 3727SOL    HW112080   0.100   3.199   4.490
 3727SOL    HW212081   6.961   3.241   4.500
 3728SOL     OW12082   3.162   3.536   0.213
 3728SOL    HW112083   3.235   3.600   0.189
 3728SOL    HW212084   3.192   3.442   0.193
 3729SOL     OW12085   0.672   7.012   5.753
 3729SOL    HW112086   0.742   0.003   5.824
 3729SOL    HW212087   0.697   6.938   5.691
 3730SOL     OW12088   3.632   5.641   5.412
 3730SOL    HW112089   3.666   5.679   5.326
 3730SOL    HW212090   3.643   5.541   5.411
 3731SOL     OW12091   0.456   2.222   6.419
 3731SOL    HW112092   0.495   2.145   6.369
 3731SOL    HW212093   0.517   2.301   6.412
 3732SOL     OW12094   2.849   1.789   0.272
 3732SOL    HW112095   2.780   1.769   0.202
 3732SOL    HW212096   2.933   1.821   0.228
 3733SOL     OW12097   1.742   1.891   3.638
 3733SOL    HW112098   1.731   1.815   3.574
 3733SOL    HW212099   1.837   1.923   3.636
 3734SOL     OW12100   4.096   0.135   1.012
 3734SOL    HW112101   4.000   0.117   0.991
 3734SOL    HW212102   4.130   0.065   1.074
 3735SOL     OW12103   4.118   6.815   2.357
 3735SOL    HW112104   4.147   6.871   2.435
 3735SOL    HW212105   4.040   6.759   2.384
 3736SOL     OW12106   6.953   1.119   0.934
 3736SOL    HW112107   6.992   1.030   0.911
 3736SOL    HW212108   6.855   1.109   0.952
 3737SOL     OW12109   0.301   2.388   3.098
 3737SOL    HW112110   0.378   2.410   3.039
 3737SOL    HW212111   0.290   2.460   3.167
 3738SOL     OW12112   6.840   6.854   0.914
 3738SOL    HW112113   6.821   6.804   0.998
 3738SOL    HW212114   6.855   6.951   0.935
 3739SOL     OW12115   2.931   5.050   1.069
 3739SOL    HW112116   3.000   5.074   1.000
 3739SOL    HW212117   2.963   5.081   1.159
 3740SOL     OW12118   5.500   5.376   6.678
 3740SOL    HW112119   5.457   5.426   6.602
 3740SOL    HW212120   5.435   5.310   6.715
 3741SOL     OW12121   5.036   3.235   0.563
 3741SOL    HW112122   5.060   3.302   0.492
 3741SOL    HW212123   5.007   3.150   0.519
 3742SOL     OW12124   3.457   5.819   0.145
 3742SOL    HW112125   3.429   5.827   0.241
 3742SOL    HW212126   3.517   5.740   0.134
 3743SOL     OW12127   4.260   3.459   1.723
 3743SOL    HW112128   4.186   3.525   1.731
 3743SOL    HW212129   4.234   3.386   1.660
 3744SOL     OW12130   0.033   6.861   2.447
 3744SOL    HW112131   6.978   6.814   2.497
 3744SOL    HW212132   0.120   6.814   2.465
 3745SOL     OW12133   4.858   4.118   2.242
 3745SOL    HW112134   4.809   4.160   2.165
 3745SOL    HW212135   4.887   4.026   2.216
 3746SOL     OW12136   6.330   0.587   4.424
 3746SOL    HW112137   6.251   0.571   4.366
 3746SOL    HW212138   6.325   0.529   4.505
 3747SOL     OW12139   3.954   6.692   5.661
 3747SOL    HW112140   3.945   6.707   5.563
 3747SOL    HW212141   4.003   6.606   5.678
 3748SOL     OW12142   5.308   1.557   2.678
 3748SOL    HW112143   5.364   1.630   2.716
 3748SOL    HW212144   5.310   1.562   2.578
 3749SOL     OW12145   0.189   6.182   3.203
 3749SOL    HW112146   0.118   6.245   3.235
 3749SOL    HW212147   0.272   6.233   3.183
 3750SOL     OW12148   5.825   4.041   0.511
 3750SOL    HW112149   5.907   4.054   0.566
 3750SOL    HW212150   5.848   4.041   0.414
 3751SOL     OW12151   1.973   3.818   1.719
 3751SOL    HW112152   1.881   3.839   1.751
 3751SOL    HW212153   2.007   3.893   1.663
 3752SOL     OW12154   1.092   6.455   6.575
 3752SOL    HW112155   1.120   6.409   6.490
 3752SOL    HW212156   1.023   6.524   6.553
 3753SOL     OW12157   6.920   6.248   4.557
 3753SOL    HW112158   6.849   6.304   4.515
 3753SOL    HW212159   7.005   6.257   4.505
 3754SOL     OW12160   6.012   6.086   1.700
 3754SOL    HW112161   6.017   6.030   1.617
 3754SOL    HW212162   6.103   6.090   1.742
 3755SOL     OW12163   4.988   4.053   3.450
 3755SOL    HW112164   4.965   3.981   3.384
 3755SOL    HW212165   5.070   4.102   3.418
 3756SOL     OW12166   2.387   1.739   6.730
 3756SOL    HW112167   2.396   1.779   6.821
 3756SOL    HW212168   2.477   1.718   6.693
 3757SOL     OW12169   2.893   5.591   6.393
 3757SOL    HW112170   2.982   5.551   6.414
 3757SOL    HW212171   2.859   5.554   6.306
 3758SOL     OW12172   1.972   1.133   4.273
 3758SOL    HW112173   2.010   1.042   4.290
 3758SOL    HW212174   1.921   1.163   4.354
 3759SOL     OW12175   5.246   4.546   6.212
 3759SOL    HW112176   5.166   4.607   6.215
 3759SOL    HW212177   5.216   4.451   6.223
 3760SOL     OW12178   1.748   2.480   4.773
 3760SOL    HW112179   1.735   2.543   4.849
 3760SOL    HW212180   1.797   2.527   4.699
 3761SOL     OW12181   0.952   6.486   4.716
 3761SOL    HW112182   0.875   6.465   4.776
 3761SOL    HW212183   0.962   6.586   4.708
 3762SOL     OW12184   0.399   4.076   0.326
 3762SOL    HW112185   0.461   4.089   0.403
 3762SOL    HW212186   0.337   3.999   0.345
 3763SOL     OW12187   6.513   2.975   6.409
 3763SOL    HW112188   6.478   2.975   6.503
 3763SOL    HW212189   6.437   2.975   6.345
 3764SOL     OW12190   2.452   6.674   3.545
 3764SOL    HW112191   2.521   6.657   3.474
 3764SOL    HW212192   2.361   6.677   3.502
 3765SOL     OW12193   5.691   0.537   3.097
 3765SOL    HW112194   5.737   0.460   3.140
 3765SOL    HW212195   5.674   0.608   3.166
 3766SOL     OW12196   0.378   0.847   4.152
 3766SOL    HW112197   0.436   0.772   4.184
 3766SOL    HW212198   0.433   0.912   4.099
 3767SOL     OW12199   1.574   5.135   0.115
 3767SOL    HW112200   1.530   5.107   0.200
 3767SOL    HW212201   1.672   5.147   0.130
 3768SOL     OW12202   5.037   6.509   0.258
 3768SOL    HW112203   4.943   6.530   0.231
 3768SOL    HW212204   5.079   6.450   0.189
 3769SOL     OW12205   4.975   6.427   5.512
 3769SOL    HW112206   4.969   6.329   5.493
 3769SOL    HW212207   4.903   6.454   5.576
 3770SOL     OW12208   2.112   1.565   7.001
 3770SOL    HW112209   2.200   1.527   6.972
 3770SOL    HW212210   2.067   1.609   6.923
 3771SOL     OW12211   5.576   1.693   6.221
 3771SOL    HW112212   5.502   1.632   6.248
 3771SOL    HW212213   5.539   1.783   6.198
 3772SOL     OW12214   5.518   0.722   1.550
 3772SOL    HW112215   5.458   0.699   1.473
 3772SOL    HW212216   5.605   0.675   1.539
 3773SOL     OW12217   6.252   2.419   6.362
 3773SOL    HW112218   6.213   2.415   6.269
 3773SOL    HW212219   6.309   2.500   6.371
 3774SOL     OW12220   0.035   0.999   0.032
 3774SOL    HW112221   0.018   0.986   6.952
 3774SOL    HW212222   0.115   1.056   0.045
 3775SOL     OW12223   6.040   3.583   3.400
 3775SOL    HW112224   6.136   3.573   3.372
 3775SOL    HW212225   5.981   3.535   3.334
 3776SOL     OW12226   2.267   2.769   1.479
 3776SOL    HW112227   2.206   2.760   1.558
 3776SOL    HW212228   2.347   2.710   1.492
 3777SOL     OW12229   2.441   5.173   3.946
 3777SOL    HW112230   2.503   5.105   3.906
 3777SOL    HW212231   2.478   5.204   4.034
 3778SOL     OW12232   3.079   5.320   1.677
 3778SOL    HW112233   3.105   5.393   1.614
 3778SOL    HW212234   3.103   5.231   1.638
 3779SOL     OW12235   2.747   4.762   6.994
 3779SOL    HW112236   2.727   4.678   0.026
 3779SOL    HW212237   2.779   4.739   6.902
 3780SOL     OW12238   3.143   6.107   5.044
 3780SOL    HW112239   3.090   6.047   5.104
 3780SOL    HW212240   3.208   6.053   4.991
 3781SOL     OW12241   3.079   6.219   4.465
 3781SOL    HW112242   3.036   6.308   4.447
 3781SOL    HW212243   3.012   6.146   4.454
 3782SOL     OW12244   2.167   1.543   4.364
 3782SOL    HW112245   2.254   1.581   4.397
 3782SOL    HW212246   2.135   1.596   4.286
 3783SOL     OW12247   5.122   6.473   4.860
 3783SOL    HW112248   5.059   6.480   4.937
 3783SOL    HW212249   5.116   6.382   4.820
 3784SOL     OW12250   5.530   0.968   3.134
 3784SOL    HW112251   5.473   1.032   3.186
 3784SOL    HW212252   5.510   0.976   3.037
 3785SOL     OW12253   2.405   2.203   1.128
 3785SOL    HW112254   2.384   2.294   1.163
 3785SOL    HW212255   2.489   2.207   1.074
 3786SOL     OW12256   3.105   5.388   2.595
 3786SOL    HW112257   3.188   5.359   2.549
 3786SOL    HW212258   3.025   5.365   2.540
 3787SOL     OW12259   4.463   1.262   3.514
 3787SOL    HW112260   4.374   1.267   3.468
 3787SOL    HW212261   4.449   1.262   3.613
 3788SOL     OW12262   5.599   3.129   2.638
 3788SOL    HW112263   5.507   3.121   2.600
 3788SOL    HW212264   5.594   3.138   2.737
 3789SOL     OW12265   1.775   5.096   4.223
 3789SOL    HW112266   1.804   5.085   4.318
 3789SOL    HW212267   1.675   5.086   4.217
 3790SOL     OW12268   2.223   3.063   3.927
 3790SOL    HW112269   2.125   3.044   3.937
 3790SOL    HW212270   2.235   3.158   3.897
 3791SOL     OW12271   5.057   6.514   1.630
 3791SOL    HW112272   4.991   6.517   1.705
 3791SOL    HW212273   5.048   6.427   1.581
 3792SOL     OW12274   6.290   6.917   5.487
 3792SOL    HW112275   6.345   6.869   5.555
 3792SOL    HW212276   6.347   6.981   5.437
 3793SOL     OW12277   2.072   1.368   2.783
 3793SOL    HW112278   2.139   1.346   2.854
 3793SOL    HW212279   1.981   1.378   2.824
 3794SOL     OW12280   4.161   6.055   2.036
 3794SOL    HW112281   4.098   5.978   2.047
 3794SOL    HW212282   4.202   6.077   2.125
 3795SOL     OW12283   5.164   0.409   6.421
 3795SOL    HW112284   5.180   0.313   6.447
 3795SOL    HW212285   5.245   0.446   6.376
 3796SOL     OW12286   1.314   1.934   1.723
 3796SOL    HW112287   1.218   1.959   1.711
 3796SOL    HW212288   1.329   1.841   1.689
 3797SOL     OW12289   1.424   4.746   2.827
 3797SOL    HW112290   1.344   4.688   2.813
 3797SOL    HW212291   1.429   4.814   2.753
 3798SOL     OW12292   2.382   5.096   2.717
 3798SOL    HW112293   2.405   5.045   2.634
 3798SOL    HW212294   2.380   5.034   2.795
 3799SOL     OW12295   1.656   1.377   5.536
 3799SOL    HW112296   1.756   1.380   5.536
 3799SOL    HW212297   1.623   1.387   5.630
 3800SOL     OW12298   4.702   2.328   4.739
 3800SOL    HW112299   4.785   2.366   4.780
 3800SOL    HW212300   4.635   2.400   4.726
 3801SOL     OW12301   6.788   6.381   6.037
 3801SOL    HW112302   6.833   6.299   6.002
 3801SOL    HW212303   6.689   6.371   6.028
 3802SOL     OW12304   1.210   2.273   5.076
 3802SOL    HW112305   1.293   2.240   5.030
 3802SOL    HW212306   1.186   2.210   5.150
 3803SOL     OW12307   3.632   0.365   1.236
 3803SOL    HW112308   3.619   0.441   1.300
 3803SOL    HW212309   3.688   0.396   1.159
 3804SOL     OW12310   4.449   2.152   4.493
 3804SOL    HW112311   4.419   2.227   4.434
 3804SOL    HW212312   4.391   2.147   4.573
 3805SOL     OW12313   2.877   4.229   1.719
 3805SOL    HW112314   2.884   4.320   1.761
 3805SOL    HW212315   2.783   4.212   1.691
 3806SOL     OW12316   2.862   2.590   0.125
 3806SOL    HW112317   2.763   2.590   0.109
 3806SOL    HW212318   2.881   2.549   0.214
 3807SOL     OW12319   1.108   0.070   3.689
 3807SOL    HW112320   1.123   0.146   3.627
 3807SOL    HW212321   1.058   0.102   3.770
 3808SOL     OW12322   3.690   6.754   1.799
 3808SOL    HW112323   3.718   6.666   1.759
 3808SOL    HW212324   3.716   6.828   1.738
 3809SOL     OW12325   5.885   1.324   0.131
 3809SOL    HW112326   5.831   1.353   0.209
 3809SOL    HW212327   5.949   1.397   0.105
 3810SOL     OW12328   3.164   3.168   5.226
 3810SOL    HW112329   3.092   3.115   5.271
 3810SOL    HW212330   3.241   3.109   5.205
 3811SOL     OW12331   0.575   4.832   4.873
 3811SOL    HW112332   0.577   4.733   4.858
 3811SOL    HW212333   0.667   4.870   4.858
 3812SOL     OW12334   6.068   1.547   5.289
 3812SOL    HW112335   6.083   1.448   5.295
 3812SOL    HW212336   5.970   1.566   5.295
 3813SOL     OW12337   3.159   5.542   0.231
 3813SOL    HW112338   3.060   5.536   0.219
 3813SOL    HW212339   3.184   5.505   0.320
 3814SOL     OW12340   0.093   5.999   2.027
 3814SOL    HW112341   0.058   5.923   1.972
 3814SOL    HW212342   0.069   5.985   2.123
 3815SOL     OW12343   5.500   2.124   1.722
 3815SOL    HW112344   5.469   2.072   1.642
 3815SOL    HW212345   5.542   2.061   1.788
 3816SOL     OW12346   0.518   0.478   1.994
 3816SOL    HW112347   0.504   0.398   2.053
 3816SOL    HW212348   0.473   0.557   2.035
 3817SOL     OW12349   4.372   1.894   4.420
 3817SOL    HW112350   4.422   1.977   4.443
 3817SOL    HW212351   4.361   1.838   4.503
 3818SOL     OW12352   4.731   6.327   2.716
 3818SOL    HW112353   4.806   6.260   2.717
 3818SOL    HW212354   4.729   6.376   2.803
 3819SOL     OW12355   4.962   5.124   0.410
 3819SOL    HW112356   5.054   5.163   0.420
 3819SOL    HW212357   4.904   5.155   0.485
 3820SOL     OW12358   4.999   5.974   3.905
 3820SOL    HW112359   4.906   6.009   3.899
 3820SOL    HW212360   5.022   5.927   3.820
 3821SOL     OW12361   1.591   3.499   1.671
 3821SOL    HW112362   1.652   3.437   1.621
 3821SOL    HW212363   1.645   3.574   1.711
 3822SOL     OW12364   2.702   5.265   1.238
 3822SOL    HW112365   2.606   5.292   1.251
 3822SOL    HW212366   2.729   5.284   1.144
 3823SOL     OW12367   3.514   2.817   5.625
 3823SOL    HW112368   3.599   2.797   5.576
 3823SOL    HW212369   3.492   2.742   5.687
 3824SOL     OW12370   6.216   2.081   6.007
 3824SOL    HW112371   6.252   2.111   6.095
 3824SOL    HW212372   6.133   2.027   6.022
 3825SOL     OW12373   0.323   6.451   6.066
 3825SOL    HW112374   0.355   6.383   6.131
 3825SOL    HW212375   0.224   6.461   6.073
 3826SOL     OW12376   6.675   3.392   1.526
 3826SOL    HW112377   6.664   3.307   1.475
 3826SOL    HW212378   6.657   3.469   1.466
 3827SOL     OW12379   4.146   3.394   0.326
 3827SOL    HW112380   4.075   3.426   0.388
 3827SOL    HW212381   4.227   3.368   0.378
 3828SOL     OW12382   5.199   2.094   2.442
 3828SOL    HW112383   5.152   2.098   2.530
 3828SOL    HW212384   5.277   2.157   2.443
 3829SOL     OW12385   2.462   5.398   3.794
 3829SOL    HW112386   2.552   5.389   3.751
 3829SOL    HW212387   2.439   5.313   3.842
 3830SOL     OW12388   2.674   0.463   4.860
 3830SOL    HW112389   2.773   0.478   4.856
 3830SOL    HW212390   2.638   0.504   4.944
 3831SOL     OW12391   4.097   1.884   2.649
 3831SOL    HW112392   4.022   1.941   2.682
 3831SOL    HW212393   4.065   1.789   2.642
 3832SOL     OW12394   6.451   0.773   1.776
 3832SOL    HW112395   6.355   0.778   1.749
 3832SOL    HW212396   6.484   0.865   1.800
 3833SOL     OW12397   0.665   4.935   0.114
 3833SOL    HW112398   0.595   4.969   0.176
 3833SOL    HW212399   0.755   4.964   0.146
 3834SOL     OW12400   3.584   1.483   0.593
 3834SOL    HW112401   3.595   1.393   0.551
 3834SOL    HW212402   3.511   1.479   0.661
 3835SOL     OW12403   3.586   5.233   5.554
 3835SOL    HW112404   3.681   5.231   5.521
 3835SOL    HW212405   3.573   5.159   5.620
 3836SOL     OW12406   1.254   3.863   6.180
 3836SOL    HW112407   1.240   3.766   6.199
 3836SOL    HW212408   1.310   3.873   6.097
 3837SOL     OW12409   3.726   3.701   0.490
 3837SOL    HW112410   3.773   3.758   0.423
 3837SOL    HW212411   3.716   3.608   0.453
 3838SOL     OW12412   6.687   2.391   4.577
 3838SOL    HW112413   6.614   2.428   4.521
 3838SOL    HW212414   6.681   2.428   4.670
 3839SOL     OW12415   5.786   6.131   5.647
 3839SOL    HW112416   5.790   6.143   5.746
 3839SOL    HW212417   5.756   6.216   5.604
 3840SOL     OW12418   1.615   1.396   4.020
 3840SOL    HW112419   1.591   1.377   3.925
 3840SOL    HW212420   1.676   1.325   4.054
 3841SOL     OW12421   0.655   3.369   5.478
 3841SOL    HW112422   0.715   3.368   5.558
 3841SOL    HW212423   0.680   3.295   5.416
 3842SOL     OW12424   0.686   5.011   6.757
 3842SOL    HW112425   0.779   5.014   6.793
 3842SOL    HW212426   0.653   4.916   6.757
 3843SOL     OW12427   6.058   3.225   0.688
 3843SOL    HW112428   5.973   3.201   0.735
 3843SOL    HW212429   6.125   3.257   0.755
 3844SOL     OW12430   1.814   5.112   6.396
 3844SOL    HW112431   1.864   5.053   6.459
 3844SOL    HW212432   1.749   5.057   6.344
 3845SOL     OW12433   3.197   4.081   3.454
 3845SOL    HW112434   3.152   4.006   3.502
 3845SOL    HW212435   3.274   4.114   3.508
 3846SOL     OW12436   0.182   5.029   4.543
 3846SOL    HW112437   0.223   4.968   4.611
 3846SOL    HW212438   0.116   5.089   4.588
 3847SOL     OW12439   0.455   0.019   6.563
 3847SOL    HW112440   0.543   0.048   6.601
 3847SOL    HW212441   0.410   6.976   6.628
 3848SOL     OW12442   2.496   5.023   1.090
 3848SOL    HW112443   2.556   5.017   1.170
 3848SOL    HW212444   2.429   5.095   1.105
 3849SOL     OW12445   1.360   1.890   5.368
 3849SOL    HW112446   1.354   1.836   5.283
 3849SOL    HW212447   1.448   1.872   5.412
 3850SOL     OW12448   3.345   4.118   1.927
 3850SOL    HW112449   3.262   4.134   1.874
 3850SOL    HW212450   3.423   4.161   1.880
 3851SOL     OW12451   2.131   3.225   2.718
 3851SOL    HW112452   2.174   3.156   2.776
 3851SOL    HW212453   2.083   3.291   2.776
 3852SOL     OW12454   4.143   0.940   4.822
 3852SOL    HW112455   4.215   0.943   4.892
 3852SOL    HW212456   4.183   0.951   4.732
 3853SOL     OW12457   0.818   3.578   1.501
 3853SOL    HW112458   0.830   3.518   1.422
 3853SOL    HW212459   0.908   3.600   1.540
 3854SOL     OW12460   1.407   3.669   4.414
 3854SOL    HW112461   1.429   3.723   4.333
 3854SOL    HW212462   1.417   3.571   4.393
 3855SOL     OW12463   6.727   3.114   5.769
 3855SOL    HW112464   6.676   3.105   5.855
 3855SOL    HW212465   6.668   3.155   5.700
 3856SOL     OW12466   0.462   6.074   5.930
 3856SOL    HW112467   0.383   6.015   5.916
 3856SOL    HW212468   0.541   6.036   5.881
 3857SOL     OW12469   0.774   6.510   4.961
 3857SOL    HW112470   0.853   6.451   4.976
 3857SOL    HW212471   0.804   6.606   4.960
 3858SOL     OW12472   2.524   5.795   6.756
 3858SOL    HW112473   2.594   5.732   6.722
 3858SOL    HW212474   2.503   5.773   6.852
 3859SOL     OW12475   0.478   3.261   2.271
 3859SOL    HW112476   0.501   3.232   2.364
 3859SOL    HW212477   0.463   3.181   2.213
 3860SOL     OW12478   2.541   0.087   5.785
 3860SOL    HW112479   2.570   0.003   5.832
 3860SOL    HW212480   2.616   0.153   5.786
 3861SOL     OW12481   4.749   4.615   0.947
 3861SOL    HW112482   4.655   4.586   0.966
 3861SOL    HW212483   4.763   4.621   0.848
 3862SOL     OW12484   1.333   5.796   5.993
 3862SOL    HW112485   1.260   5.852   5.954
 3862SOL    HW212486   1.380   5.747   5.921
 3863SOL     OW12487   3.207   3.835   1.727
 3863SOL    HW112488   3.238   3.830   1.822
 3863SOL    HW212489   3.113   3.871   1.725
 3864SOL     OW12490   3.202   2.061   0.332
 3864SOL    HW112491   3.137   1.997   0.291
 3864SOL    HW212492   3.152   2.137   0.374
 3865SOL     OW12493   4.566   0.334   2.326
 3865SOL    HW112494   4.612   0.279   2.256
 3865SOL    HW212495   4.486   0.285   2.359
 3866SOL     OW12496   4.148   6.752   6.824
 3866SOL    HW112497   4.052   6.731   6.841
 3866SOL    HW212498   4.171   6.840   6.866
 3867SOL     OW12499   1.879   3.376   3.404
 3867SOL    HW112500   1.978   3.385   3.395
 3867SOL    HW212501   1.835   3.403   3.319
 3868SOL     OW12502   1.546   6.016   2.888
 3868SOL    HW112503   1.500   6.051   2.806
 3868SOL    HW212504   1.499   6.049   2.969
 3869SOL     OW12505   0.999   2.956   3.423
 3869SOL    HW112506   0.930   2.916   3.484
 3869SOL    HW212507   0.973   2.938   3.328
 3870SOL     OW12508   2.436   4.683   0.245
 3870SOL    HW112509   2.412   4.607   0.184
 3870SOL    HW212510   2.498   4.745   0.198
 3871SOL     OW12511   2.423   0.294   3.151
 3871SOL    HW112512   2.436   0.309   3.053
 3871SOL    HW212513   2.512   0.287   3.196
 3872SOL     OW12514   3.605   4.174   0.374
 3872SOL    HW112515   3.604   4.125   0.461
 3872SOL    HW212516   3.694   4.218   0.361
 3873SOL     OW12517   4.742   5.102   2.511
 3873SOL    HW112518   4.675   5.168   2.476
 3873SOL    HW212519   4.786   5.055   2.434
 3874SOL     OW12520   4.200   0.397   6.369
 3874SOL    HW112521   4.108   0.437   6.369
 3874SOL    HW212522   4.231   0.385   6.274
 3875SOL     OW12523   1.325   5.066   1.219
 3875SOL    HW112524   1.380   5.115   1.287
 3875SOL    HW212525   1.344   5.103   1.128
 3876SOL     OW12526   5.129   3.632   3.077
 3876SOL    HW112527   5.057   3.610   3.010
 3876SOL    HW212528   5.189   3.703   3.039
 3877SOL     OW12529   5.765   1.209   2.070
 3877SOL    HW112530   5.684   1.246   2.115
 3877SOL    HW212531   5.838   1.195   2.137
 3878SOL     OW12532   3.087   6.399   5.601
 3878SOL    HW112533   3.032   6.343   5.662
 3878SOL    HW212534   3.069   6.496   5.619
 3879SOL     OW12535   3.797   6.186   1.518
 3879SOL    HW112536   3.811   6.242   1.436
 3879SOL    HW212537   3.699   6.178   1.535
 3880SOL     OW12538   5.445   3.172   4.188
 3880SOL    HW112539   5.376   3.107   4.154
 3880SOL    HW212540   5.484   3.137   4.273
 3881SOL     OW12541   1.637   3.692   0.434
 3881SOL    HW112542   1.617   3.673   0.338
 3881SOL    HW212543   1.726   3.653   0.458
 3882SOL     OW12544   0.375   0.419   6.221
 3882SOL    HW112545   0.430   0.379   6.148
 3882SOL    HW212546   0.350   0.348   6.286
 3883SOL     OW12547   3.585   0.685   5.837
 3883SOL    HW112548   3.545   0.698   5.928
 3883SOL    HW212549   3.518   0.708   5.767
 3884SOL     OW12550   1.446   4.710   6.087
 3884SOL    HW112551   1.378   4.780   6.066
 3884SOL    HW212552   1.427   4.628   6.033
 3885SOL     OW12553   6.703   1.413   4.238
 3885SOL    HW112554   6.765   1.430   4.161
 3885SOL    HW212555   6.647   1.333   4.219
 3886SOL     OW12556   6.661   5.753   5.372
 3886SOL    HW112557   6.746   5.789   5.410
 3886SOL    HW212558   6.636   5.805   5.291
 3887SOL     OW12559   4.581   2.636   5.608
 3887SOL    HW112560   4.518   2.588   5.547
 3887SOL    HW212561   4.540   2.643   5.699
 3888SOL     OW12562   6.339   2.194   0.749
 3888SOL    HW112563   6.391   2.217   0.667
 3888SOL    HW212564   6.254   2.248   0.751
 3889SOL     OW12565   0.760   5.926   6.406
 3889SOL    HW112566   0.725   5.968   6.489
 3889SOL    HW212567   0.732   5.980   6.327
 3890SOL     OW12568   5.915   3.771   2.634
 3890SOL    HW112569   5.872   3.684   2.610
 3890SOL    HW212570   5.872   3.845   2.584
 3891SOL     OW12571   5.495   5.014   5.475
 3891SOL    HW112572   5.569   5.036   5.412
 3891SOL    HW212573   5.524   5.033   5.569
 3892SOL     OW12574   5.221   6.798   3.272
 3892SOL    HW112575   5.270   6.844   3.198
 3892SOL    HW212576   5.219   6.700   3.255
 3893SOL     OW12577   2.968   6.266   3.852
 3893SOL    HW112578   2.874   6.276   3.819
 3893SOL    HW212579   2.968   6.251   3.950
 3894SOL     OW12580   5.227   4.182   0.399
 3894SOL    HW112581   5.213   4.201   0.302
 3894SOL    HW212582   5.249   4.086   0.411
 3895SOL     OW12583   2.264   1.894   5.862
 3895SOL    HW112584   2.262   1.868   5.765
 3895SOL    HW212585   2.288   1.991   5.870
 3896SOL     OW12586   6.808   2.256   5.780
 3896SOL    HW112587   6.905   2.271   5.796
 3896SOL    HW212588   6.755   2.330   5.821
 3897SOL     OW12589   3.434   6.339   2.105
 3897SOL    HW112590   3.487   6.418   2.136
 3897SOL    HW212591   3.465   6.311   2.014
 3898SOL     OW12592   3.807   4.072   4.261
 3898SOL    HW112593   3.743   4.117   4.323
 3898SOL    HW212594   3.822   3.978   4.292
 3899SOL     OW12595   4.535   1.511   4.936
 3899SOL    HW112596   4.512   1.553   5.024
 3899SOL    HW212597   4.604   1.567   4.889
 3900SOL     OW12598   6.826   2.463   3.717
 3900SOL    HW112599   6.774   2.448   3.633
 3900SOL    HW212600   6.811   2.388   3.781
 3901SOL     OW12601   2.083   5.853   5.294
 3901SOL    HW112602   2.067   5.879   5.199
 3901SOL    HW212603   2.109   5.756   5.298
 3902SOL     OW12604   4.396   5.178   1.459
 3902SOL    HW112605   4.459   5.202   1.532
 3902SOL    HW212606   4.424   5.223   1.374
 3903SOL     OW12607   3.520   2.979   5.888
 3903SOL    HW112608   3.490   2.972   5.793
 3903SOL    HW212609   3.613   3.014   5.891
 3904SOL     OW12610   2.082   6.283   0.847
 3904SOL    HW112611   2.109   6.372   0.883
 3904SOL    HW212612   1.987   6.265   0.872
 3905SOL     OW12613   0.192   0.291   5.264
 3905SOL    HW112614   0.235   0.240   5.189
 3905SOL    HW212615   0.094   0.299   5.247
 3906SOL     OW12616   0.456   5.713   5.087
 3906SOL    HW112617   0.449   5.707   5.187
 3906SOL    HW212618   0.397   5.787   5.054
 3907SOL     OW12619   0.825   0.848   4.702
 3907SOL    HW112620   0.913   0.837   4.657
 3907SOL    HW212621   0.753   0.859   4.634
 3908SOL     OW12622   1.980   0.314   4.496
 3908SOL    HW112623   1.918   0.317   4.418
 3908SOL    HW212624   2.048   0.242   4.482
 3909SOL     OW12625   5.990   2.532   0.693
 3909SOL    HW112626   5.990   2.492   0.601
 3909SOL    HW212627   5.925   2.608   0.696
 3910SOL     OW12628   3.591   3.215   0.921
 3910SOL    HW112629   3.514   3.261   0.876
 3910SOL    HW212630   3.596   3.244   1.016
 3911SOL     OW12631   6.448   0.958   0.595
 3911SOL    HW112632   6.367   0.950   0.537
 3911SOL    HW212633   6.527   0.979   0.539
 3912SOL     OW12634   3.805   2.751   0.277
 3912SOL    HW112635   3.779   2.841   0.311
 3912SOL    HW212636   3.724   2.696   0.260
 3913SOL     OW12637   4.716   5.905   1.543
 3913SOL    HW112638   4.616   5.902   1.537
 3913SOL    HW212639   4.751   5.812   1.556
 3914SOL     OW12640   6.869   1.276   0.535
 3914SOL    HW112641   6.799   1.346   0.552
 3914SOL    HW212642   6.939   1.282   0.606
 3915SOL     OW12643   4.838   5.796   5.738
 3915SOL    HW112644   4.750   5.840   5.719
 3915SOL    HW212645   4.911   5.864   5.735
 3916SOL     OW12646   2.474   1.888   2.804
 3916SOL    HW112647   2.377   1.871   2.783
 3916SOL    HW212648   2.481   1.936   2.891
 3917SOL     OW12649   3.581   4.369   1.359
 3917SOL    HW112650   3.570   4.465   1.384
 3917SOL    HW212651   3.490   4.326   1.355
 3918SOL     OW12652   5.123   1.235   0.277
 3918SOL    HW112653   5.101   1.332   0.288
 3918SOL    HW212654   5.071   1.181   0.343
 3919SOL     OW12655   4.390   6.292   2.414
 3919SOL    HW112656   4.398   6.266   2.510
 3919SOL    HW212657   4.334   6.375   2.406
 3920SOL     OW12658   2.856   1.458   5.355
 3920SOL    HW112659   2.886   1.520   5.428
 3920SOL    HW212660   2.846   1.510   5.270
 3921SOL     OW12661   6.934   2.950   6.126
 3921SOL    HW112662   6.971   3.023   6.069
 3921SOL    HW212663   6.854   2.984   6.177
 3922SOL     OW12664   4.782   4.139   2.868
 3922SOL    HW112665   4.795   4.042   2.847
 3922SOL    HW212666   4.685   4.162   2.862
 3923SOL     OW12667   4.982   0.960   1.521
 3923SOL    HW112668   4.917   1.035   1.534
 3923SOL    HW212669   5.016   0.961   1.427
 3924SOL     OW12670   5.545   5.340   4.262
 3924SOL    HW112671   5.573   5.377   4.174
 3924SOL    HW212672   5.498   5.252   4.247
 3925SOL     OW12673   5.025   4.076   0.974
 3925SOL    HW112674   5.005   4.174   0.982
 3925SOL    HW212675   5.123   4.064   0.956
 3926SOL     OW12676   0.709   5.736   5.627
 3926SOL    HW112677   0.617   5.710   5.654
 3926SOL    HW212678   0.708   5.773   5.534
 3927SOL     OW12679   5.478   2.331   5.690
 3927SOL    HW112680   5.451   2.245   5.646
 3927SOL    HW212681   5.398   2.390   5.698
 3928SOL     OW12682   3.409   5.995   2.066
 3928SOL    HW112683   3.447   6.060   2.132
 3928SOL    HW212684   3.483   5.940   2.027
 3929SOL     OW12685   0.790   2.044   5.150
 3929SOL    HW112686   0.816   2.028   5.054
 3929SOL    HW212687   0.695   2.019   5.163
 3930SOL     OW12688   2.122   4.491   3.928
 3930SOL    HW112689   2.193   4.552   3.894
 3930SOL    HW212690   2.153   4.396   3.920
 3931SOL     OW12691   2.126   2.401   1.493
 3931SOL    HW112692   2.138   2.391   1.395
 3931SOL    HW212693   2.080   2.320   1.530
 3932SOL     OW12694   2.331   4.835   3.889
 3932SOL    HW112695   2.240   4.841   3.930
 3932SOL    HW212696   2.366   4.742   3.900
 3933SOL     OW12697   1.816   6.109   1.372
 3933SOL    HW112698   1.725   6.131   1.336
 3933SOL    HW212699   1.864   6.193   1.395
 3934SOL     OW12700   0.216   0.502   1.731
 3934SOL    HW112701   0.158   0.527   1.654
 3934SOL    HW212702   0.295   0.450   1.698
 3935SOL     OW12703   6.447   3.483   5.795
 3935SOL    HW112704   6.390   3.402   5.781
 3935SOL    HW212705   6.413   3.535   5.873
 3936SOL     OW12706   6.496   4.341   5.570
 3936SOL    HW112707   6.592   4.321   5.588
 3936SOL    HW212708   6.441   4.317   5.651
 3937SOL     OW12709   0.422   6.284   1.501
 3937SOL    HW112710   0.390   6.371   1.539
 3937SOL    HW212711   0.343   6.227   1.478
 3938SOL     OW12712   1.031   3.491   1.871
 3938SOL    HW112713   0.946   3.441   1.857
 3938SOL    HW212714   1.044   3.556   1.796
 3939SOL     OW12715   1.084   0.928   3.100
 3939SOL    HW112716   1.114   0.978   3.181
 3939SOL    HW212717   1.020   0.856   3.126
 3940SOL     OW12718   3.036   6.045   0.526
 3940SOL    HW112719   3.029   6.024   0.429
 3940SOL    HW212720   3.013   6.142   0.540
 3941SOL     OW12721   5.520   5.995   2.081
 3941SOL    HW112722   5.486   6.088   2.099
 3941SOL    HW212723   5.463   5.929   2.130
 3942SOL     OW12724   6.980   5.823   5.206
 3942SOL    HW112725   0.020   5.780   5.136
 3942SOL    HW212726   6.950   5.913   5.174
 3943SOL     OW12727   1.418   2.966   0.240
 3943SOL    HW112728   1.512   2.946   0.213
 3943SOL    HW212729   1.360   2.887   0.220
 3944SOL     OW12730   5.227   3.248   6.669
 3944SOL    HW112731   5.311   3.298   6.690
 3944SOL    HW212732   5.208   3.255   6.571
 3945SOL     OW12733   5.661   0.646   3.469
 3945SOL    HW112734   5.590   0.668   3.403
 3945SOL    HW212735   5.652   0.706   3.549
 3946SOL     OW12736   0.848   3.231   0.181
 3946SOL    HW112737   0.773   3.199   0.239
 3946SOL    HW212738   0.923   3.263   0.238
 3947SOL     OW12739   5.863   5.459   2.095
 3947SOL    HW112740   5.811   5.543   2.081
 3947SOL    HW212741   5.801   5.381   2.096
 3948SOL     OW12742   1.619   3.098   5.664
 3948SOL    HW112743   1.567   3.135   5.742
 3948SOL    HW212744   1.609   3.160   5.586
 3949SOL     OW12745   5.666   0.384   1.660
 3949SOL    HW112746   5.657   0.463   1.600
 3949SOL    HW212747   5.742   0.327   1.628
 3950SOL     OW12748   3.198   4.446   1.655
 3950SOL    HW112749   3.204   4.365   1.713
 3950SOL    HW212750   3.109   4.490   1.669
 3951SOL     OW12751   0.747   2.821   4.461
 3951SOL    HW112752   0.672   2.859   4.515
 3951SOL    HW212753   0.833   2.833   4.511
 3952SOL     OW12754   5.570   3.851   0.272
 3952SOL    HW112755   5.620   3.930   0.238
 3952SOL    HW212756   5.474   3.874   0.284
 3953SOL     OW12757   3.351   3.611   6.826
 3953SOL    HW112758   3.260   3.646   6.847
 3953SOL    HW212759   3.369   3.530   6.882
 3954SOL     OW12760   0.514   2.388   5.778
 3954SOL    HW112761   0.536   2.381   5.680
 3954SOL    HW212762   0.455   2.311   5.804
 3955SOL     OW12763   0.017   3.676   0.535
 3955SOL    HW112764   0.009   3.745   0.463
 3955SOL    HW212765   0.079   3.708   0.606
 3956SOL     OW12766   6.919   2.928   5.475
 3956SOL    HW112767   6.891   3.011   5.522
 3956SOL    HW212768   6.890   2.848   5.527
 3957SOL     OW12769   0.986   1.309   3.486
 3957SOL    HW112770   0.992   1.233   3.422
 3957SOL    HW212771   1.015   1.279   3.577
 3958SOL     OW12772   5.713   5.941   0.198
 3958SOL    HW112773   5.803   5.977   0.224
 3958SOL    HW212774   5.642   6.002   0.234
 3959SOL     OW12775   2.688   5.695   0.748
 3959SOL    HW112776   2.627   5.683   0.669
 3959SOL    HW212777   2.737   5.781   0.740
 3960SOL     OW12778   5.271   3.490   1.218
 3960SOL    HW112779   5.171   3.502   1.220
 3960SOL    HW212780   5.293   3.397   1.190
 3961SOL     OW12781   5.383   0.282   1.723
 3961SOL    HW112782   5.478   0.303   1.701
 3961SOL    HW212783   5.360   0.192   1.688
 3962SOL     OW12784   0.811   6.536   5.751
 3962SOL    HW112785   0.825   6.575   5.842
 3962SOL    HW212786   0.765   6.448   5.760
 3963SOL     OW12787   4.430   5.639   3.226
 3963SOL    HW112788   4.485   5.722   3.229
 3963SOL    HW212789   4.479   5.569   3.173
 3964SOL     OW12790   5.752   6.500   6.192
 3964SOL    HW112791   5.708   6.412   6.208
 3964SOL    HW212792   5.848   6.494   6.218
 3965SOL     OW12793   4.148   2.637   7.003
 3965SOL    HW112794   4.131   2.607   0.079
 3965SOL    HW212795   4.076   2.701   6.975
 3966SOL     OW12796   6.050   3.468   5.304
 3966SOL    HW112797   6.125   3.419   5.259
 3966SOL    HW212798   5.988   3.403   5.346
 3967SOL     OW12799   1.532   6.660   6.854
 3967SOL    HW112800   1.576   6.717   6.924
 3967SOL    HW212801   1.593   6.651   6.775
 3968SOL     OW12802   5.694   0.185   1.029
 3968SOL    HW112803   5.729   0.092   1.039
 3968SOL    HW212804   5.626   0.203   1.100
 3969SOL     OW12805   0.513   6.201   2.053
 3969SOL    HW112806   0.602   6.205   2.009
 3969SOL    HW212807   0.525   6.185   2.151
 3970SOL     OW12808   4.582   4.419   4.322
 3970SOL    HW112809   4.679   4.421   4.298
 3970SOL    HW212810   4.555   4.325   4.345
 3971SOL     OW12811   1.663   6.061   3.964
 3971SOL    HW112812   1.572   6.030   3.992
 3971SOL    HW212813   1.658   6.158   3.938
 3972SOL     OW12814   1.338   0.445   0.482
 3972SOL    HW112815   1.381   0.510   0.420
 3972SOL    HW212816   1.256   0.486   0.523
 3973SOL     OW12817   3.776   2.895   2.717
 3973SOL    HW112818   3.745   2.868   2.626
 3973SOL    HW212819   3.808   2.814   2.767
 3974SOL     OW12820   5.722   0.602   5.978
 3974SOL    HW112821   5.782   0.666   5.930
 3974SOL    HW212822   5.628   0.636   5.974
 3975SOL     OW12823   6.866   6.135   5.451
 3975SOL    HW112824   6.935   6.183   5.397
 3975SOL    HW212825   6.787   6.195   5.466
 3976SOL     OW12826   1.346   3.056   6.540
 3976SOL    HW112827   1.383   2.998   6.612
 3976SOL    HW212828   1.381   3.149   6.551
 3977SOL     OW12829   4.172   6.347   6.072
 3977SOL    HW112830   4.098   6.393   6.023
 3977SOL    HW212831   4.260   6.373   6.033
 3978SOL     OW12832   5.969   3.820   6.751
 3978SOL    HW112833   5.973   3.854   6.657
 3978SOL    HW212834   6.053   3.769   6.771
 3979SOL     OW12835   1.082   0.005   3.420
 3979SOL    HW112836   1.005   0.066   3.402
 3979SOL    HW212837   1.079   6.992   3.515
 3980SOL     OW12838   4.926   3.514   4.765
 3980SOL    HW112839   5.009   3.467   4.795
 3980SOL    HW212840   4.879   3.552   4.845
 3981SOL     OW12841   6.338   1.996   5.565
 3981SOL    HW112842   6.267   1.943   5.519
 3981SOL    HW212843   6.302   2.035   5.649
 3982SOL     OW12844   2.952   1.986   3.807
 3982SOL    HW112845   2.984   1.894   3.827
 3982SOL    HW212846   2.985   2.049   3.877
 3983SOL     OW12847   3.784   6.708   4.147
 3983SOL    HW112848   3.754   6.615   4.168
 3983SOL    HW212849   3.730   6.745   4.072
 3984SOL     OW12850   1.372   0.295   1.709
 3984SOL    HW112851   1.274   0.298   1.691
 3984SOL    HW212852   1.387   0.264   1.803
 3985SOL     OW12853   1.291   3.450   1.861
 3985SOL    HW112854   1.290   3.506   1.779
 3985SOL    HW212855   1.198   3.416   1.879
 3986SOL     OW12856   0.960   2.738   2.128
 3986SOL    HW112857   0.865   2.723   2.156
 3986SOL    HW212858   0.965   2.744   2.029
 3987SOL     OW12859   2.190   4.581   6.308
 3987SOL    HW112860   2.194   4.673   6.346
 3987SOL    HW212861   2.229   4.582   6.216
 3988SOL     OW12862   4.670   1.939   6.776
 3988SOL    HW112863   4.666   2.005   6.851
 3988SOL    HW212864   4.638   1.983   6.692
 3989SOL     OW12865   4.233   0.990   6.655
 3989SOL    HW112866   4.271   1.039   6.577
 3989SOL    HW212867   4.280   1.018   6.738
 3990SOL     OW12868   1.282   2.630   3.409
 3990SOL    HW112869   1.205   2.567   3.417
 3990SOL    HW212870   1.368   2.579   3.414
 3991SOL     OW12871   6.885   1.277   4.455
 3991SOL    HW112872   6.846   1.339   4.387
 3991SOL    HW212873   6.976   1.309   4.481
 3992SOL     OW12874   5.174   3.811   6.346
 3992SOL    HW112875   5.220   3.894   6.376
 3992SOL    HW212876   5.184   3.740   6.416
 3993SOL     OW12877   1.589   1.544   3.330
 3993SOL    HW112878   1.666   1.497   3.287
 3993SOL    HW212879   1.607   1.555   3.428
 3994SOL     OW12880   2.465   2.062   4.011
 3994SOL    HW112881   2.408   2.131   3.967
 3994SOL    HW212882   2.561   2.085   3.998
 3995SOL     OW12883   1.533   3.799   1.972
 3995SOL    HW112884   1.620   3.802   2.021
 3995SOL    HW212885   1.458   3.784   2.037
 3996SOL     OW12886   5.801   6.716   3.621
 3996SOL    HW112887   5.753   6.644   3.670
 3996SOL    HW212888   5.758   6.729   3.531
 3997SOL     OW12889   5.626   3.752   3.077
 3997SOL    HW112890   5.549   3.704   3.035
 3997SOL    HW212891   5.606   3.849   3.082
 3998SOL     OW12892   5.628   2.636   3.109
 3998SOL    HW112893   5.560   2.691   3.156
 3998SOL    HW212894   5.587   2.592   3.030
 3999SOL     OW12895   5.028   2.577   1.436
 3999SOL    HW112896   5.127   2.564   1.441
 3999SOL    HW212897   4.997   2.553   1.344
 4000SOL     OW12898   3.310   5.339   2.400
 4000SOL    HW112899   3.335   5.251   2.361
 4000SOL    HW212900   3.341   5.413   2.340
 4001SOL     OW12901   1.371   4.635   4.344
 4001SOL    HW112902   1.452   4.584   4.372
 4001SOL    HW212903   1.393   4.733   4.341
 4002SOL     OW12904   3.403   4.136   3.643
 4002SOL    HW112905   3.449   4.054   3.677
 4002SOL    HW212906   3.439   4.217   3.690
 4003SOL     OW12907   2.412   1.187   5.635
 4003SOL    HW112908   2.333   1.161   5.579
 4003SOL    HW212909   2.458   1.265   5.594
 4004SOL     OW12910   1.120   3.765   3.388
 4004SOL    HW112911   1.189   3.701   3.352
 4004SOL    HW212912   1.147   3.794   3.480
 4005SOL     OW12913   4.933   2.869   0.945
 4005SOL    HW112914   5.004   2.824   1.000
 4005SOL    HW212915   4.976   2.921   0.871
 4006SOL     OW12916   4.844   4.997   3.331
 4006SOL    HW112917   4.811   5.068   3.268
 4006SOL    HW212918   4.934   5.023   3.366
 4007SOL     OW12919   6.869   1.316   3.237
 4007SOL    HW112920   6.959   1.276   3.257
 4007SOL    HW212921   6.853   1.313   3.138
 4008SOL     OW12922   3.211   0.735   0.881
 4008SOL    HW112923   3.191   0.719   0.978
 4008SOL    HW212924   3.283   0.673   0.851
 4009SOL     OW12925   4.661   1.964   0.649
 4009SOL    HW112926   4.715   2.043   0.620
 4009SOL    HW212927   4.576   1.962   0.598
 4010SOL     OW12928   2.874   4.971   1.741
 4010SOL    HW112929   2.862   5.037   1.814
 4010SOL    HW212930   2.933   4.896   1.773
 4011SOL     OW12931   4.900   5.735   0.060
 4011SOL    HW112932   4.805   5.702   0.066
 4011SOL    HW212933   4.910   5.793   6.997
 4012SOL     OW12934   4.326   0.198   2.385
 4012SOL    HW112935   4.256   0.197   2.457
 4012SOL    HW212936   4.345   0.104   2.356
 4013SOL     OW12937   0.358   1.216   6.463
 4013SOL    HW112938   0.290   1.283   6.434
 4013SOL    HW212939   0.314   1.130   6.486
 4014SOL     OW12940   2.899   5.374   2.381
 4014SOL    HW112941   2.841   5.424   2.445
 4014SOL    HW212942   2.871   5.279   2.376
 4015SOL     OW12943   4.028   4.610   6.096
 4015SOL    HW112944   4.001   4.683   6.033
 4015SOL    HW212945   3.989   4.523   6.064
 4016SOL     OW12946   4.121   5.486   5.540
 4016SOL    HW112947   4.122   5.542   5.458
 4016SOL    HW212948   4.048   5.516   5.601
 4017SOL     OW12949   0.397   4.884   5.969
 4017SOL    HW112950   0.447   4.842   6.044
 4017SOL    HW212951   0.303   4.901   5.996
 4018SOL     OW12952   4.581   6.509   1.990
 4018SOL    HW112953   4.564   6.422   2.035
 4018SOL    HW212954   4.578   6.583   2.057
 4019SOL     OW12955   5.191   3.513   3.528
 4019SOL    HW112956   5.097   3.535   3.554
 4019SOL    HW212957   5.253   3.583   3.564
 4020SOL     OW12958   6.431   5.088   4.145
 4020SOL    HW112959   6.389   4.997   4.147
 4020SOL    HW212960   6.364   5.157   4.173
 4021SOL     OW12961   4.250   3.836   5.971
 4021SOL    HW112962   4.249   3.896   5.892
 4021SOL    HW212963   4.340   3.841   6.015
 4022SOL     OW12964   2.397   0.961   1.421
 4022SOL    HW112965   2.411   0.867   1.391
 4022SOL    HW212966   2.460   1.021   1.372
 4023SOL     OW12967   0.219   1.533   4.896
 4023SOL    HW112968   0.269   1.590   4.832
 4023SOL    HW212969   0.254   1.440   4.892
 4024SOL     OW12970   0.413   5.651   4.552
 4024SOL    HW112971   0.386   5.594   4.474
 4024SOL    HW212972   0.469   5.597   4.614
 4025SOL     OW12973   0.404   5.639   4.003
 4025SOL    HW112974   0.423   5.614   4.098
 4025SOL    HW212975   0.357   5.564   3.958
 4026SOL     OW12976   6.421   6.487   3.609
 4026SOL    HW112977   6.437   6.411   3.672
 4026SOL    HW212978   6.362   6.554   3.653
 4027SOL     OW12979   2.677   4.069   5.755
 4027SOL    HW112980   2.656   4.114   5.842
 4027SOL    HW212981   2.605   4.003   5.733
 4028SOL     OW12982   4.630   1.547   2.745
 4028SOL    HW112983   4.702   1.534   2.677
 4028SOL    HW212984   4.668   1.533   2.836
 4029SOL     OW12985   1.845   5.416   6.642
 4029SOL    HW112986   1.921   5.449   6.586
 4029SOL    HW212987   1.774   5.378   6.582
 4030SOL     OW12988   0.091   1.329   2.834
 4030SOL    HW112989   0.072   1.335   2.736
 4030SOL    HW212990   0.127   1.417   2.866
 4031SOL     OW12991   6.207   6.399   1.471
 4031SOL    HW112992   6.228   6.495   1.491
 4031SOL    HW212993   6.244   6.341   1.544
 4032SOL     OW12994   5.784   0.907   1.378
 4032SOL    HW112995   5.801   0.922   1.475
 4032SOL    HW212996   5.686   0.912   1.361
 4033SOL     OW12997   1.967   2.842   2.416
 4033SOL    HW112998   1.972   2.828   2.317
 4033SOL    HW212999   2.034   2.912   2.442
 4034SOL     OW13000   0.016   2.846   5.060
 4034SOL    HW113001   0.093   2.795   5.100
 4034SOL    HW213002   7.010   2.922   5.120
 4035SOL     OW13003   5.240   1.777   1.385
 4035SOL    HW113004   5.266   1.786   1.481
 4035SOL    HW213005   5.151   1.821   1.371
 4036SOL     OW13006   2.566   5.517   2.871
 4036SOL    HW113007   2.527   5.460   2.798
 4036SOL    HW213008   2.549   5.474   2.959
 4037SOL     OW13009   2.403   0.753   5.884
 4037SOL    HW113010   2.459   0.726   5.963
 4037SOL    HW213011   2.307   0.761   5.913
 4038SOL     OW13012   3.394   3.741   5.749
 4038SOL    HW113013   3.423   3.692   5.667
 4038SOL    HW213014   3.295   3.756   5.747
 4039SOL     OW13015   5.977   5.117   1.760
 4039SOL    HW113016   6.048   5.048   1.743
 4039SOL    HW213017   5.912   5.082   1.827
 4040SOL     OW13018   3.364   5.603   4.993
 4040SOL    HW113019   3.294   5.543   4.954
 4040SOL    HW213020   3.448   5.597   4.939
 4041SOL     OW13021   2.837   5.944   0.702
 4041SOL    HW113022   2.745   5.977   0.680
 4041SOL    HW213023   2.894   5.948   0.621
 4042SOL     OW13024   6.136   0.664   3.987
 4042SOL    HW113025   6.204   0.731   4.017
 4042SOL    HW213026   6.130   0.665   3.887
 4043SOL     OW13027   5.306   3.715   6.647
 4043SOL    HW113028   5.307   3.755   6.738
 4043SOL    HW213029   5.397   3.680   6.624
 4044SOL     OW13030   4.166   4.993   3.522
 4044SOL    HW113031   4.222   5.068   3.555
 4044SOL    HW213032   4.084   5.030   3.477
 4045SOL     OW13033   5.158   0.112   5.440
 4045SOL    HW113034   5.146   0.042   5.510
 4045SOL    HW213035   5.069   0.130   5.396
 4046SOL     OW13036   6.724   1.925   2.431
 4046SOL    HW113037   6.668   1.967   2.502
 4046SOL    HW213038   6.669   1.864   2.375
 4047SOL     OW13039   2.791   3.192   6.698
 4047SOL    HW113040   2.764   3.200   6.794
 4047SOL    HW213041   2.741   3.118   6.655
 4048SOL     OW13042   4.482   1.470   2.068
 4048SOL    HW113043   4.425   1.518   2.001
 4048SOL    HW213044   4.579   1.488   2.050
 4049SOL     OW13045   3.844   4.663   6.546
 4049SOL    HW113046   3.830   4.564   6.559
 4049SOL    HW213047   3.895   4.678   6.462
 4050SOL     OW13048   0.231   5.437   2.958
 4050SOL    HW113049   0.207   5.407   2.866
 4050SOL    HW213050   0.277   5.363   3.007
 4051SOL     OW13051   5.125   0.983   5.264
 4051SOL    HW113052   5.178   1.036   5.331
 4051SOL    HW213053   5.185   0.917   5.219
 4052SOL     OW13054   6.358   1.801   3.788
 4052SOL    HW113055   6.446   1.802   3.740
 4052SOL    HW213056   6.322   1.894   3.794
 4053SOL     OW13057   1.229   5.684   4.603
 4053SOL    HW113058   1.249   5.781   4.591
 4053SOL    HW213059   1.248   5.635   4.517
 4054SOL     OW13060   4.854   4.168   0.754
 4054SOL    HW113061   4.896   4.248   0.710
 4054SOL    HW213062   4.920   4.127   0.817
 4055SOL     OW13063   1.009   3.653   1.117
 4055SOL    HW113064   1.029   3.751   1.120
 4055SOL    HW213065   1.048   3.613   1.034
 4056SOL     OW13066   4.881   3.367   0.996
 4056SOL    HW113067   4.813   3.301   1.028
 4056SOL    HW213068   4.936   3.399   1.073
 4057SOL     OW13069   6.603   3.294   6.472
 4057SOL    HW113070   6.533   3.226   6.452
 4057SOL    HW213071   6.628   3.288   6.569
 4058SOL     OW13072   2.821   6.322   5.688
 4058SOL    HW113073   2.806   6.319   5.787
 4058SOL    HW213074   2.738   6.295   5.640
 4059SOL     OW13075   1.112   1.825   4.245
 4059SOL    HW113076   1.040   1.761   4.216
 4059SOL    HW213077   1.191   1.815   4.186
 4060SOL     OW13078   6.223   5.757   5.082
 4060SOL    HW113079   6.229   5.678   5.143
 4060SOL    HW213080   6.206   5.839   5.137
 4061SOL     OW13081   2.244   5.208   1.473
 4061SOL    HW113082   2.321   5.256   1.516
 4061SOL    HW213083   2.159   5.252   1.501
 4062SOL     OW13084   2.057   1.944   2.002
 4062SOL    HW113085   1.962   1.936   1.973
 4062SOL    HW213086   2.090   1.855   2.034
 4063SOL     OW13087   5.564   1.899   0.506
 4063SOL    HW113088   5.493   1.829   0.495
 4063SOL    HW213089   5.650   1.855   0.533
 4064SOL     OW13090   2.027   1.996   5.040
 4064SOL    HW113091   2.064   2.084   5.069
 4064SOL    HW213092   2.019   1.994   4.940
 4065SOL     OW13093   2.020   0.011   0.838
 4065SOL    HW113094   1.934   0.060   0.856
 4065SOL    HW213095   2.096   0.075   0.847
 4066SOL     OW13096   0.274   4.125   3.433
 4066SOL    HW113097   0.322   4.079   3.358
 4066SOL    HW213098   0.208   4.190   3.396
 4067SOL     OW13099   5.150   5.127   2.058
 4067SOL    HW113100   5.213   5.052   2.040
 4067SOL    HW213101   5.058   5.102   2.029
 4068SOL     OW13102   1.907   2.788   5.204
 4068SOL    HW113103   1.860   2.744   5.280
 4068SOL    HW213104   1.981   2.845   5.239
 4069SOL     OW13105   3.949   0.131   6.962
 4069SOL    HW113106   3.906   0.172   6.882
 4069SOL    HW213107   3.879   0.109   0.012
 4070SOL     OW13108   1.440   2.832   2.896
 4070SOL    HW113109   1.424   2.782   2.981
 4070SOL    HW213110   1.386   2.917   2.896
 4071SOL     OW13111   0.611   0.586   3.976
 4071SOL    HW113112   0.670   0.605   3.897
 4071SOL    HW213113   0.550   0.510   3.955
 4072SOL     OW13114   1.815   5.420   3.577
 4072SOL    HW113115   1.913   5.433   3.564
 4072SOL    HW213116   1.768   5.508   3.564
 4073SOL     OW13117   2.941   5.001   0.147
 4073SOL    HW113118   2.858   4.998   0.091
 4073SOL    HW213119   2.977   4.909   0.159
 4074SOL     OW13120   0.861   5.849   2.633
 4074SOL    HW113121   0.894   5.896   2.715
 4074SOL    HW213122   0.923   5.866   2.557
 4075SOL     OW13123   5.368   0.025   0.589
 4075SOL    HW113124   5.326   0.053   0.503
 4075SOL    HW213125   5.320   0.069   0.665
 4076SOL     OW13126   3.228   3.658   5.085
 4076SOL    HW113127   3.215   3.619   4.993
 4076SOL    HW213128   3.240   3.584   5.151
 4077SOL     OW13129   3.968   2.022   1.680
 4077SOL    HW113130   3.977   2.111   1.724
 4077SOL    HW213131   4.059   1.985   1.661
 4078SOL     OW13132   3.080   4.975   2.781
 4078SOL    HW113133   3.173   4.948   2.757
 4078SOL    HW213134   3.082   5.067   2.820
 4079SOL     OW13135   1.038   2.660   4.174
 4079SOL    HW113136   1.093   2.702   4.246
 4079SOL    HW213137   0.945   2.696   4.177
 4080SOL     OW13138   5.680   1.230   5.031
 4080SOL    HW113139   5.762   1.221   5.088
 4080SOL    HW213140   5.599   1.228   5.089
 4081SOL     OW13141   1.465   3.382   3.293
 4081SOL    HW113142   1.535   3.449   3.314
 4081SOL    HW213143   1.494   3.327   3.215
 4082SOL     OW13144   1.194   3.080   1.186
 4082SOL    HW113145   1.258   3.082   1.110
 4082SOL    HW213146   1.109   3.125   1.158
 4083SOL     OW13147   5.759   2.403   4.443
 4083SOL    HW113148   5.841   2.355   4.412
 4083SOL    HW213149   5.777   2.446   4.532
 4084SOL     OW13150   6.490   1.862   4.094
 4084SOL    HW113151   6.517   1.846   3.999
 4084SOL    HW213152   6.390   1.865   4.100
 4085SOL     OW13153   3.650   5.996   0.436
 4085SOL    HW113154   3.578   5.934   0.405
 4085SOL    HW213155   3.690   6.042   0.356
 4086SOL     OW13156   1.843   5.180   1.167
 4086SOL    HW113157   1.758   5.225   1.140
 4086SOL    HW213158   1.830   5.134   1.255
 4087SOL     OW13159   2.149   2.015   3.290
 4087SOL    HW113160   2.185   2.055   3.206
 4087SOL    HW213161   2.223   2.001   3.355
 4088SOL     OW13162   6.540   1.879   1.034
 4088SOL    HW113163   6.486   1.866   1.117
 4088SOL    HW213164   6.636   1.892   1.059
 4089SOL     OW13165   1.166   0.928   4.174
 4089SOL    HW113166   1.109   0.942   4.255
 4089SOL    HW213167   1.248   0.985   4.181
 4090SOL     OW13168   2.171   4.123   6.390
 4090SOL    HW113169   2.126   4.067   6.320
 4090SOL    HW213170   2.145   4.219   6.378
 4091SOL     OW13171   4.866   6.204   0.189
 4091SOL    HW113172   4.834   6.111   0.208
 4091SOL    HW213173   4.943   6.225   0.249
 4092SOL     OW13174   0.641   2.659   5.050
 4092SOL    HW113175   0.602   2.581   5.099
 4092SOL    HW213176   0.567   2.713   5.010
 4093SOL     OW13177   5.468   1.171   3.520
 4093SOL    HW113178   5.561   1.202   3.502
 4093SOL    HW213179   5.470   1.080   3.562
 4094SOL     OW13180   1.976   4.158   5.131
 4094SOL    HW113181   2.065   4.201   5.142
 4094SOL    HW213182   1.906   4.216   5.171
 4095SOL     OW13183   1.176   2.911   5.827
 4095SOL    HW113184   1.227   2.969   5.890
 4095SOL    HW213185   1.240   2.850   5.779
 4096SOL     OW13186   4.669   4.855   6.533
 4096SOL    HW113187   4.734   4.922   6.499
 4096SOL    HW213188   4.615   4.819   6.458
 4097SOL     OW13189   3.438   3.384   5.716
 4097SOL    HW113190   3.386   3.444   5.656
 4097SOL    HW213191   3.382   3.306   5.742
 4098SOL     OW13192   0.594   2.678   3.229
 4098SOL    HW113193   0.532   2.754   3.250
 4098SOL    HW213194   0.540   2.598   3.203
 4099SOL     OW13195   3.144   5.901   2.169
 4099SOL    HW113196   3.242   5.918   2.155
 4099SOL    HW213197   3.102   5.982   2.208
 4100SOL     OW13198   4.405   5.757   3.599
 4100SOL    HW113199   4.322   5.790   3.554
 4100SOL    HW213200   4.398   5.772   3.698
 4101SOL     OW13201   5.747   1.613   5.741
 4101SOL    HW113202   5.726   1.640   5.835
 4101SOL    HW213203   5.829   1.556   5.740
 4102SOL     OW13204   5.903   0.975   0.503
 4102SOL    HW113205   5.885   0.891   0.554
 4102SOL    HW213206   5.829   0.991   0.437
 4103SOL     OW13207   0.240   1.012   2.362
 4103SOL    HW113208   0.154   0.978   2.324
 4103SOL    HW213209   0.285   1.071   2.295
 4104SOL     OW13210   1.709   4.490   2.748
 4104SOL    HW113211   1.790   4.523   2.700
 4104SOL    HW213212   1.632   4.485   2.683
 4105SOL     OW13213   3.912   5.456   0.512
 4105SOL    HW113214   3.945   5.469   0.605
 4105SOL    HW213215   3.886   5.545   0.473
 4106SOL     OW13216   0.069   3.785   4.837
 4106SOL    HW113217   0.017   3.718   4.784
 4106SOL    HW213218   0.165   3.758   4.839
 4107SOL     OW13219   0.506   6.852   1.641
 4107SOL    HW113220   0.456   6.857   1.727
 4107SOL    HW213221   0.537   6.758   1.626
 4108SOL     OW13222   6.487   3.527   6.421
 4108SOL    HW113223   6.571   3.580   6.414
 4108SOL    HW213224   6.509   3.432   6.444
 4109SOL     OW13225   4.122   6.452   3.886
 4109SOL    HW113226   4.221   6.465   3.900
 4109SOL    HW213227   4.072   6.513   3.947
 4110SOL     OW13228   5.072   3.327   6.012
 4110SOL    HW113229   5.045   3.234   6.037
 4110SOL    HW213230   5.091   3.380   6.095
 4111SOL     OW13231   4.414   2.578   7.009
 4111SOL    HW113232   4.315   2.590   7.013
 4111SOL    HW213233   4.449   2.614   6.923
 4112SOL     OW13234   4.016   1.541   4.143
 4112SOL    HW113235   3.939   1.479   4.131
 4112SOL    HW213236   4.021   1.604   4.066
 4113SOL     OW13237   3.460   5.115   5.110
 4113SOL    HW113238   3.533   5.057   5.074
 4113SOL    HW213239   3.499   5.203   5.137
 4114SOL     OW13240   3.035   1.715   4.079
 4114SOL    HW113241   2.997   1.632   4.119
 4114SOL    HW213242   3.089   1.764   4.148
 4115SOL     OW13243   4.761   5.687   1.938
 4115SOL    HW113244   4.834   5.755   1.941
 4115SOL    HW213245   4.797   5.598   1.966
 4116SOL     OW13246   3.735   1.974   1.836
 4116SOL    HW113247   3.790   2.001   1.757
 4116SOL    HW213248   3.724   2.052   1.897
 4117SOL     OW13249   1.050   4.974   1.176
 4117SOL    HW113250   0.981   5.006   1.241
 4117SOL    HW213251   1.137   5.019   1.195
 4118SOL     OW13252   1.299   6.822   0.758
 4118SOL    HW113253   1.304   6.747   0.823
 4118SOL    HW213254   1.355   6.800   0.678
 4119SOL     OW13255   3.576   0.684   4.226
 4119SOL    HW113256   3.481   0.704   4.201
 4119SOL    HW213257   3.602   0.595   4.189
 4120SOL     OW13258   3.693   6.951   1.555
 4120SOL    HW113259   3.703   0.026   1.521
 4120SOL    HW213260   3.597   6.932   1.574
 4121SOL     OW13261   6.796   2.829   4.486
 4121SOL    HW113262   6.739   2.844   4.406
 4121SOL    HW213263   6.742   2.840   4.569
 4122SOL     OW13264   0.354   6.861   5.022
 4122SOL    HW113265   0.282   6.875   5.091
 4122SOL    HW213266   0.443   6.853   5.068
 4123SOL     OW13267   5.554   4.274   6.024
 4123SOL    HW113268   5.516   4.366   6.015
 4123SOL    HW213269   5.557   4.230   5.934
 4124SOL     OW13270   5.337   6.532   3.964
 4124SOL    HW113271   5.287   6.445   3.972
 4124SOL    HW213272   5.375   6.557   4.053
 4125SOL     OW13273   4.630   0.852   1.799
 4125SOL    HW113274   4.539   0.880   1.831
 4125SOL    HW213275   4.673   0.792   1.867
 4126SOL     OW13276   1.774   4.275   4.526
 4126SOL    HW113277   1.675   4.275   4.513
 4126SOL    HW213278   1.816   4.331   4.455
 4127SOL     OW13279   5.593   3.091   4.827
 4127SOL    HW113280   5.612   3.158   4.756
 4127SOL    HW213281   5.637   3.004   4.805
 4128SOL     OW13282   1.685   3.689   2.538
 4128SOL    HW113283   1.682   3.767   2.475
 4128SOL    HW213284   1.599   3.639   2.534
 4129SOL     OW13285   5.992   2.306   5.868
 4129SOL    HW113286   5.963   2.213   5.847
 4129SOL    HW213287   6.030   2.348   5.786
 4130SOL     OW13288   6.598   4.399   6.270
 4130SOL    HW113289   6.657   4.344   6.329
 4130SOL    HW213290   6.518   4.346   6.243
 4131SOL     OW13291   0.271   5.428   3.888
 4131SOL    HW113292   0.310   5.358   3.948
 4131SOL    HW213293   0.185   5.395   3.849
 4132SOL     OW13294   4.858   3.302   3.408
 4132SOL    HW113295   4.780   3.360   3.383
 4132SOL    HW213296   4.942   3.342   3.371
 4133SOL     OW13297   2.814   1.053   1.469
 4133SOL    HW113298   2.776   0.963   1.490
 4133SOL    HW213299   2.894   1.070   1.526
 4134SOL     OW13300   2.544   1.525   0.645
 4134SOL    HW113301   2.636   1.540   0.683
 4134SOL    HW213302   2.509   1.437   0.679
 4135SOL     OW13303   1.731   0.798   2.827
 4135SOL    HW113304   1.688   0.792   2.917
 4135SOL    HW213305   1.674   0.752   2.760
 4136SOL     OW13306   0.220   2.309   3.886
 4136SOL    HW113307   0.151   2.362   3.837
 4136SOL    HW213308   0.261   2.365   3.958
 4137SOL     OW13309   3.422   4.059   6.318
 4137SOL    HW113310   3.463   4.100   6.400
 4137SOL    HW213311   3.495   4.033   6.254
 4138SOL     OW13312   4.171   4.737   4.222
 4138SOL    HW113313   4.119   4.673   4.166
 4138SOL    HW213314   4.237   4.785   4.164
 4139SOL     OW13315   1.777   1.758   6.141
 4139SOL    HW113316   1.686   1.724   6.117
 4139SOL    HW213317   1.838   1.746   6.062
 4140SOL     OW13318   3.687   1.068   5.293
 4140SOL    HW113319   3.643   1.156   5.274
 4140SOL    HW213320   3.784   1.074   5.272
 4141SOL     OW13321   5.342   5.060   0.883
 4141SOL    HW113322   5.383   4.980   0.926
 4141SOL    HW213323   5.400   5.091   0.808
 4142SOL     OW13324   6.762   4.308   1.015
 4142SOL    HW113325   6.674   4.342   0.983
 4142SOL    HW213326   6.802   4.372   1.079
 4143SOL     OW13327   6.499   2.769   0.840
 4143SOL    HW113328   6.482   2.672   0.823
 4143SOL    HW213329   6.436   2.802   0.910
 4144SOL     OW13330   5.402   1.543   1.789
 4144SOL    HW113331   5.378   1.612   1.857
 4144SOL    HW213332   5.502   1.541   1.776
 4145SOL     OW13333   1.482   0.022   1.523
 4145SOL    HW113334   1.426   6.979   1.466
 4145SOL    HW213335   1.426   0.057   1.598
 4146SOL     OW13336   5.253   0.048   6.309
 4146SOL    HW113337   5.214   0.006   6.227
 4146SOL    HW213338   5.337   0.097   6.283
 4147SOL     OW13339   3.518   2.173   5.915
 4147SOL    HW113340   3.481   2.264   5.898
 4147SOL    HW213341   3.464   2.129   5.987
 4148SOL     OW13342   6.780   0.390   3.979
 4148SOL    HW113343   6.859   0.360   3.925
 4148SOL    HW213344   6.696   0.357   3.935
 4149SOL     OW13345   6.349   3.410   1.003
 4149SOL    HW113346   6.416   3.484   1.004
 4149SOL    HW213347   6.397   3.322   0.999
 4150SOL     OW13348   5.415   0.522   6.305
 4150SOL    HW113349   5.470   0.584   6.360
 4150SOL    HW213350   5.428   0.543   6.208
 4151SOL     OW13351   0.095   6.223   0.813
 4151SOL    HW113352   0.173   6.286   0.807
 4151SOL    HW213353   0.116   6.139   0.764
 4152SOL     OW13354   4.395   4.718   2.079
 4152SOL    HW113355   4.405   4.814   2.055
 4152SOL    HW213356   4.364   4.666   2.000
 4153SOL     OW13357   6.101   5.063   6.321
 4153SOL    HW113358   6.054   5.076   6.408
 4153SOL    HW213359   6.034   5.048   6.248
 4154SOL     OW13360   6.033   3.227   4.843
 4154SOL    HW113361   6.044   3.162   4.918
 4154SOL    HW213362   6.059   3.184   4.757
 4155SOL     OW13363   1.059   3.536   2.444
 4155SOL    HW113364   0.990   3.466   2.458
 4155SOL    HW213365   1.034   3.592   2.365
 4156SOL     OW13366   5.703   6.796   5.456
 4156SOL    HW113367   5.733   6.843   5.373
 4156SOL    HW213368   5.783   6.769   5.510
 4157SOL     OW13369   4.156   0.998   3.620
 4157SOL    HW113370   4.159   0.899   3.635
 4157SOL    HW213371   4.219   1.043   3.684
 4158SOL     OW13372   0.737   5.071   3.177
 4158SOL    HW113373   0.690   5.159   3.173
 4158SOL    HW213374   0.678   4.999   3.141
 4159SOL     OW13375   1.038   3.061   4.274
 4159SOL    HW113376   0.981   2.979   4.266
 4159SOL    HW213377   1.078   3.083   4.185
 4160SOL     OW13378   6.220   0.381   0.849
 4160SOL    HW113379   6.144   0.382   0.783
 4160SOL    HW213380   6.204   0.308   0.916
 4161SOL     OW13381   1.459   1.207   6.955
 4161SOL    HW113382   1.360   1.201   6.943
 4161SOL    HW213383   1.499   1.256   6.877
 4162SOL     OW13384   5.905   6.495   4.720
 4162SOL    HW113385   5.917   6.593   4.709
 4162SOL    HW213386   5.957   6.447   4.649
 4163SOL     OW13387   5.446   1.696   3.494
 4163SOL    HW113388   5.523   1.639   3.463
 4163SOL    HW213389   5.443   1.694   3.594
 4164SOL     OW13390   1.846   1.102   6.925
 4164SOL    HW113391   1.944   1.119   6.913
 4164SOL    HW213392   1.832   1.006   6.950
 4165SOL     OW13393   3.845   6.447   0.909
 4165SOL    HW113394   3.907   6.414   0.979
 4165SOL    HW213395   3.895   6.460   0.823
 4166SOL     OW13396   4.233   2.943   0.661
 4166SOL    HW113397   4.272   3.028   0.697
 4166SOL    HW213398   4.306   2.886   0.623
 4167SOL     OW13399   2.240   2.547   1.677
 4167SOL    HW113400   2.318   2.491   1.705
 4167SOL    HW213401   2.183   2.494   1.614
 4168SOL     OW13402   0.351   5.377   1.415
 4168SOL    HW113403   0.416   5.308   1.447
 4168SOL    HW213404   0.260   5.337   1.409
 4169SOL     OW13405   4.977   3.717   3.677
 4169SOL    HW113406   4.942   3.679   3.763
 4169SOL    HW213407   5.016   3.807   3.695
 4170SOL     OW13408   3.925   2.759   5.769
 4170SOL    HW113409   3.980   2.712   5.699
 4170SOL    HW213410   3.946   2.721   5.859
 4171SOL     OW13411   5.230   3.977   1.322
 4171SOL    HW113412   5.166   3.972   1.398
 4171SOL    HW213413   5.212   4.059   1.267
 4172SOL     OW13414   0.387   2.028   1.054
 4172SOL    HW113415   0.320   1.967   1.098
 4172SOL    HW213416   0.477   1.985   1.056
 4173SOL     OW13417   5.384   2.872   4.754
 4173SOL    HW113418   5.480   2.866   4.728
 4173SOL    HW213419   5.377   2.894   4.852
 4174SOL     OW13420   4.765   0.941   3.455
 4174SOL    HW113421   4.742   0.934   3.552
 4174SOL    HW213422   4.766   1.038   3.429
 4175SOL     OW13423   3.429   0.032   3.449
 4175SOL    HW113424   3.345   7.007   3.416
 4175SOL    HW213425   3.492   6.979   3.481
 4176SOL     OW13426   4.709   0.121   2.654
 4176SOL    HW113427   4.666   0.205   2.619
 4176SOL    HW213428   4.781   0.145   2.719
 4177SOL     OW13429   0.271   6.417   3.711
 4177SOL    HW113430   0.177   6.417   3.746
 4177SOL    HW213431   0.333   6.387   3.783
 4178SOL     OW13432   3.446   1.710   6.084
 4178SOL    HW113433   3.446   1.691   6.182
 4178SOL    HW213434   3.532   1.754   6.059
 4179SOL     OW13435   5.142   3.564   5.282
 4179SOL    HW113436   5.127   3.533   5.376
 4179SOL    HW213437   5.117   3.490   5.219
 4180SOL     OW13438   5.123   4.522   1.222
 4180SOL    HW113439   5.040   4.576   1.239
 4180SOL    HW213440   5.173   4.509   1.308
 4181SOL     OW13441   0.591   1.612   6.576
 4181SOL    HW113442   0.521   1.680   6.600
 4181SOL    HW213443   0.646   1.590   6.656
 4182SOL     OW13444   6.421   0.310   2.554
 4182SOL    HW113445   6.357   0.387   2.547
 4182SOL    HW213446   6.496   0.324   2.490
 4183SOL     OW13447   2.517   1.397   1.856
 4183SOL    HW113448   2.460   1.343   1.794
 4183SOL    HW213449   2.541   1.342   1.936
 4184SOL     OW13450   3.808   5.704   0.431
 4184SOL    HW113451   3.827   5.777   0.496
 4184SOL    HW213452   3.886   5.693   0.368
 4185SOL     OW13453   0.312   0.092   3.592
 4185SOL    HW113454   0.275   0.160   3.529
 4185SOL    HW213455   0.392   0.049   3.552
 4186SOL     OW13456   2.352   3.688   1.074
 4186SOL    HW113457   2.310   3.609   1.119
 4186SOL    HW213458   2.436   3.660   1.029
 4187SOL     OW13459   3.587   3.394   6.440
 4187SOL    HW113460   3.526   3.442   6.377
 4187SOL    HW213461   3.625   3.314   6.394
 4188SOL     OW13462   4.815   0.615   4.183
 4188SOL    HW113463   4.765   0.529   4.171
 4188SOL    HW213464   4.773   0.667   4.258
 4189SOL     OW13465   2.427   1.552   4.619
 4189SOL    HW113466   2.370   1.560   4.701
 4189SOL    HW213467   2.402   1.623   4.553
 4190SOL     OW13468   3.148   1.158   6.888
 4190SOL    HW113469   3.167   1.248   6.848
 4190SOL    HW213470   3.234   1.108   6.900
 4191SOL     OW13471   6.453   2.654   2.777
 4191SOL    HW113472   6.408   2.721   2.835
 4191SOL    HW213473   6.444   2.563   2.818
 4192SOL     OW13474   5.792   0.933   3.224
 4192SOL    HW113475   5.843   1.012   3.192
 4192SOL    HW213476   5.696   0.941   3.196
 4193SOL     OW13477   2.084   6.989   2.532
 4193SOL    HW113478   2.027   0.001   2.609
 4193SOL    HW213479   2.112   0.051   2.479
 4194SOL     OW13480   6.799   1.927   3.974
 4194SOL    HW113481   6.896   1.953   3.974
 4194SOL    HW213482   6.766   1.923   4.068
 4195SOL     OW13483   5.759   0.600   1.456
 4195SOL    HW113484   5.802   0.690   1.457
 4195SOL    HW213485   5.784   0.552   1.373
 4196SOL     OW13486   4.982   2.511   4.190
 4196SOL    HW113487   4.956   2.473   4.279
 4196SOL    HW213488   4.908   2.497   4.124
 4197SOL     OW13489   4.771   4.349   4.902
 4197SOL    HW113490   4.782   4.260   4.946
 4197SOL    HW213491   4.746   4.417   4.970
 4198SOL     OW13492   6.007   3.977   0.054
 4198SOL    HW113493   6.050   4.049   0.109
 4198SOL    HW213494   6.077   3.919   0.014
 4199SOL     OW13495   3.160   3.548   4.828
 4199SOL    HW113496   3.064   3.520   4.834
 4199SOL    HW213497   3.171   3.614   4.754
 4200SOL     OW13498   1.905   0.523   6.981
 4200SOL    HW113499   1.982   0.480   6.934
 4200SOL    HW213500   1.873   0.602   6.929
 4201SOL     OW13501   5.669   0.085   3.853
 4201SOL    HW113502   5.637   0.032   3.775
 4201SOL    HW213503   5.718   0.026   3.917
 4202SOL     OW13504   5.330   4.865   5.317
 4202SOL    HW113505   5.341   4.894   5.222
 4202SOL    HW213506   5.396   4.913   5.374
 4203SOL     OW13507   5.215   5.552   3.127
 4203SOL    HW113508   5.309   5.524   3.111
 4203SOL    HW213509   5.153   5.478   3.099
 4204SOL     OW13510   3.388   2.995   1.324
 4204SOL    HW113511   3.443   2.936   1.383
 4204SOL    HW213512   3.357   3.075   1.377
 4205SOL     OW13513   3.194   5.334   4.146
 4205SOL    HW113514   3.185   5.405   4.216
 4205SOL    HW213515   3.289   5.328   4.116
 4206SOL     OW13516   4.748   0.304   5.007
 4206SOL    HW113517   4.800   0.225   5.039
 4206SOL    HW213518   4.758   0.311   4.907
 4207SOL     OW13519   1.308   0.791   1.881
 4207SOL    HW113520   1.373   0.775   1.807
 4207SOL    HW213521   1.218   0.758   1.855
 4208SOL     OW13522   1.109   2.971   0.623
 4208SOL    HW113523   1.177   3.002   0.558
 4208SOL    HW213524   1.059   3.050   0.659
 4209SOL     OW13525   2.747   6.904   5.119
 4209SOL    HW113526   2.675   6.948   5.066
 4209SOL    HW213527   2.710   6.823   5.166
 4210SOL     OW13528   4.167   3.183   1.013
 4210SOL    HW113529   4.090   3.146   1.065
 4210SOL    HW213530   4.199   3.115   0.946
 4211SOL     OW13531   4.313   4.749   3.969
 4211SOL    HW113532   4.350   4.718   3.881
 4211SOL    HW213533   4.226   4.795   3.955
 4212SOL     OW13534   6.387   1.223   2.842
 4212SOL    HW113535   6.440   1.141   2.867
 4212SOL    HW213536   6.437   1.275   2.773
 4213SOL     OW13537   1.841   1.048   2.220
 4213SOL    HW113538   1.807   1.001   2.301
 4213SOL    HW213539   1.771   1.111   2.185
 4214SOL     OW13540   0.956   3.315   5.194
 4214SOL    HW113541   1.013   3.310   5.112
 4214SOL    HW213542   1.014   3.322   5.275
 4215SOL     OW13543   0.680   5.155   4.977
 4215SOL    HW113544   0.758   5.103   5.012
 4215SOL    HW213545   0.699   5.184   4.884
 4216SOL     OW13546   0.761   3.044   4.837
 4216SOL    HW113547   0.813   2.979   4.893
 4216SOL    HW213548   0.822   3.087   4.770
 4217SOL     OW13549   0.134   0.865   3.329
 4217SOL    HW113550   0.145   0.773   3.293
 4217SOL    HW213551   0.195   0.928   3.281
 4218SOL     OW13552   3.934   0.023   1.903
 4218SOL    HW113553   3.892   6.950   1.900
 4218SOL    HW213554   3.864   0.090   1.927
 4219SOL     OW13555   4.460   5.731   4.214
 4219SOL    HW113556   4.476   5.779   4.300
 4219SOL    HW213557   4.546   5.722   4.164
 4220SOL     OW13558   6.353   3.184   4.224
 4220SOL    HW113559   6.344   3.266   4.168
 4220SOL    HW213560   6.292   3.113   4.189
 4221SOL     OW13561   5.338   5.575   6.560
 4221SOL    HW113562   5.314   5.633   6.482
 4221SOL    HW213563   5.426   5.605   6.598
 4222SOL     OW13564   4.913   2.770   1.572
 4222SOL    HW113565   4.906   2.756   1.671
 4222SOL    HW213566   4.932   2.683   1.527
 4223SOL     OW13567   3.384   4.087   2.280
 4223SOL    HW113568   3.364   4.117   2.187
 4223SOL    HW213569   3.482   4.088   2.296
 4224SOL     OW13570   4.384   2.301   4.772
 4224SOL    HW113571   4.459   2.355   4.736
 4224SOL    HW213572   4.334   2.355   4.840
 4225SOL     OW13573   5.907   6.868   4.909
 4225SOL    HW113574   5.900   6.847   4.812
 4225SOL    HW213575   6.002   6.888   4.933
 4226SOL     OW13576   0.081   1.634   3.967
 4226SOL    HW113577   0.067   1.732   3.952
 4226SOL    HW213578   0.138   1.597   3.893
 4227SOL     OW13579   4.695   4.658   0.376
 4227SOL    HW113580   4.610   4.658   0.323
 4227SOL    HW213581   4.765   4.605   0.327
 4228SOL     OW13582   6.330   5.243   3.321
 4228SOL    HW113583   6.317   5.256   3.223
 4228SOL    HW213584   6.275   5.308   3.372
 4229SOL     OW13585   4.733   4.875   5.588
 4229SOL    HW113586   4.777   4.897   5.675
 4229SOL    HW213587   4.654   4.935   5.576
 4230SOL     OW13588   3.618   0.825   4.781
 4230SOL    HW113589   3.618   0.922   4.759
 4230SOL    HW213590   3.600   0.772   4.698
 4231SOL     OW13591   4.200   7.000   5.243
 4231SOL    HW113592   4.296   7.007   5.269
 4231SOL    HW213593   4.192   6.944   5.160
 4232SOL     OW13594   2.329   4.921   2.905
 4232SOL    HW113595   2.258   4.862   2.867
 4232SOL    HW213596   2.351   4.892   2.998
 4233SOL     OW13597   6.907   6.547   0.128
 4233SOL    HW113598   6.814   6.550   0.166
 4233SOL    HW213599   6.971   6.588   0.192
 4234SOL     OW13600   2.982   4.803   6.276
 4234SOL    HW113601   3.075   4.770   6.257
 4234SOL    HW213602   2.961   4.879   6.215
 4235SOL     OW13603   6.211   3.360   5.697
 4235SOL    HW113604   6.159   3.372   5.782
 4235SOL    HW213605   6.169   3.415   5.625
 4236SOL     OW13606   1.365   2.984   4.448
 4236SOL    HW113607   1.458   2.994   4.411
 4236SOL    HW213608   1.338   3.068   4.494
 4237SOL     OW13609   5.180   3.382   4.715
 4237SOL    HW113610   5.222   3.440   4.645
 4237SOL    HW213611   5.224   3.292   4.715
 4238SOL     OW13612   3.960   5.697   3.990
 4238SOL    HW113613   3.963   5.736   4.082
 4238SOL    HW213614   4.009   5.757   3.927
 4239SOL     OW13615   5.067   5.947   5.715
 4239SOL    HW113616   5.119   5.868   5.746
 4239SOL    HW213617   5.055   6.011   5.790
 4240SOL     OW13618   2.594   4.643   6.486
 4240SOL    HW113619   2.514   4.661   6.543
 4240SOL    HW213620   2.609   4.544   6.479
 4241SOL     OW13621   4.374   0.395   0.657
 4241SOL    HW113622   4.374   0.481   0.709
 4241SOL    HW213623   4.320   0.326   0.707
 4242SOL     OW13624   1.995   0.662   3.124
 4242SOL    HW113625   1.984   0.571   3.165
 4242SOL    HW213626   1.978   0.732   3.193
 4243SOL     OW13627   1.196   3.379   2.222
 4243SOL    HW113628   1.172   3.371   2.319
 4243SOL    HW213629   1.295   3.370   2.211
 4244SOL     OW13630   4.652   6.889   1.195
 4244SOL    HW113631   4.695   6.838   1.270
 4244SOL    HW213632   4.683   6.853   1.108
 4245SOL     OW13633   6.700   3.235   1.076
 4245SOL    HW113634   6.797   3.253   1.090
 4245SOL    HW213635   6.685   3.199   0.984
 4246SOL     OW13636   5.411   1.748   3.049
 4246SOL    HW113637   5.449   1.784   3.134
 4246SOL    HW213638   5.445   1.802   2.972
 4247SOL     OW13639   1.642   5.024   5.445
 4247SOL    HW113640   1.683   5.102   5.397
 4247SOL    HW213641   1.576   5.057   5.512
 4248SOL     OW13642   1.893   0.831   3.331
 4248SOL    HW113643   1.794   0.832   3.346
 4248SOL    HW213644   1.940   0.852   3.417
 4249SOL     OW13645   6.607   0.089   5.181
 4249SOL    HW113646   6.621   0.063   5.276
 4249SOL    HW213647   6.540   0.163   5.176
 4250SOL     OW13648   0.090   5.710   4.222
 4250SOL    HW113649   0.155   5.786   4.211
 4250SOL    HW213650   0.141   5.625   4.234
 4251SOL     OW13651   5.860   1.851   5.595
 4251SOL    HW113652   5.829   1.783   5.661
 4251SOL    HW213653   5.958   1.839   5.577
 4252SOL     OW13654   6.638   6.738   6.895
 4252SOL    HW113655   6.600   6.782   6.977
 4252SOL    HW213656   6.713   6.794   6.860
 4253SOL     OW13657   4.556   5.578   2.578
 4253SOL    HW113658   4.550   5.672   2.611
 4253SOL    HW213659   4.471   5.530   2.599
 4254SOL     OW13660   1.781   3.128   6.955
 4254SOL    HW113661   1.704   3.190   6.939
 4254SOL    HW213662   1.801   3.124   0.035
 4255SOL     OW13663   0.891   3.679   2.900
 4255SOL    HW113664   0.903   3.584   2.872
 4255SOL    HW213665   0.793   3.698   2.912
 4256SOL     OW13666   0.641   5.281   1.704
 4256SOL    HW113667   0.602   5.237   1.623
 4256SOL    HW213668   0.737   5.255   1.712
 4257SOL     OW13669   5.670   0.433   5.091
 4257SOL    HW113670   5.618   0.465   5.011
 4257SOL    HW213671   5.607   0.389   5.155
 4258SOL     OW13672   3.859   5.677   6.999
 4258SOL    HW113673   3.809   5.702   6.916
 4258SOL    HW213674   3.925   5.749   0.003
 4259SOL     OW13675   1.005   0.058   2.267
 4259SOL    HW113676   1.095   0.100   2.278
 4259SOL    HW213677   0.955   0.063   2.353
 4260SOL     OW13678   5.006   0.556   4.393
 4260SOL    HW113679   4.951   0.596   4.319
 4260SOL    HW213680   5.100   0.588   4.385
 4261SOL     OW13681   2.019   0.081   3.948
 4261SOL    HW113682   2.022   0.128   3.860
 4261SOL    HW213683   2.073   7.014   3.942
 4262SOL     OW13684   1.442   4.143   6.764
 4262SOL    HW113685   1.509   4.089   6.712
 4262SOL    HW213686   1.427   4.102   6.853
 4263SOL     OW13687   2.552   2.485   4.110
 4263SOL    HW113688   2.537   2.552   4.183
 4263SOL    HW213689   2.474   2.487   4.047
 4264SOL     OW13690   5.362   1.270   4.651
 4264SOL    HW113691   5.286   1.333   4.669
 4264SOL    HW213692   5.379   1.266   4.553
 4265SOL     OW13693   3.774   0.944   0.473
 4265SOL    HW113694   3.754   0.891   0.555
 4265SOL    HW213695   3.722   0.907   0.396
 4266SOL     OW13696   1.568   6.591   0.853
 4266SOL    HW113697   1.591   6.574   0.757
 4266SOL    HW213698   1.612   6.675   0.883
 4267SOL     OW13699   1.563   4.415   4.811
 4267SOL    HW113700   1.527   4.356   4.739
 4267SOL    HW213701   1.610   4.359   4.880
 4268SOL     OW13702   1.268   4.178   6.362
 4268SOL    HW113703   1.343   4.205   6.301
 4268SOL    HW213704   1.189   4.237   6.345
 4269SOL     OW13705   2.768   1.533   4.513
 4269SOL    HW113706   2.740   1.598   4.443
 4269SOL    HW213707   2.706   1.455   4.514
 4270SOL     OW13708   4.002   2.525   0.528
 4270SOL    HW113709   3.942   2.447   0.514
 4270SOL    HW213710   4.073   2.526   0.458
 4271SOL     OW13711   6.964   0.691   1.073
 4271SOL    HW113712   6.997   0.752   1.001
 4271SOL    HW213713   0.021   0.633   1.104
 4272SOL     OW13714   6.818   1.406   6.057
 4272SOL    HW113715   6.810   1.307   6.057
 4272SOL    HW213716   6.780   1.443   5.972
 4273SOL     OW13717   3.680   5.326   4.519
 4273SOL    HW113718   3.698   5.251   4.456
 4273SOL    HW213719   3.583   5.328   4.541
 4274SOL     OW13720   6.845   1.105   1.769
 4274SOL    HW113721   6.914   1.034   1.754
 4274SOL    HW213722   6.754   1.067   1.753
 4275SOL     OW13723   0.225   2.958   3.643
 4275SOL    HW113724   0.219   3.002   3.733
 4275SOL    HW213725   0.247   2.861   3.655
 4276SOL     OW13726   2.081   5.816   4.410
 4276SOL    HW113727   2.129   5.878   4.348
 4276SOL    HW213728   2.114   5.723   4.397
 4277SOL     OW13729   6.142   5.432   3.372
 4277SOL    HW113730   6.147   5.468   3.465
 4277SOL    HW213731   6.148   5.508   3.306
 4278SOL     OW13732   1.133   6.669   2.011
 4278SOL    HW113733   1.086   6.736   2.068
 4278SOL    HW213734   1.218   6.708   1.976
 4279SOL     OW13735   1.880   1.870   3.317
 4279SOL    HW113736   1.812   1.943   3.326
 4279SOL    HW213737   1.956   1.902   3.259
 4280SOL     OW13738   0.736   6.832   6.153
 4280SOL    HW113739   0.725   6.796   6.246
 4280SOL    HW213740   0.646   6.840   6.110
 4281SOL     OW13741   4.306   6.105   3.450
 4281SOL    HW113742   4.374   6.051   3.401
 4281SOL    HW213743   4.219   6.055   3.452
 4282SOL     OW13744   3.609   4.125   1.121
 4282SOL    HW113745   3.708   4.112   1.133
 4282SOL    HW213746   3.561   4.045   1.157
 4283SOL     OW13747   4.916   1.434   3.765
 4283SOL    HW113748   4.937   1.449   3.862
 4283SOL    HW213749   5.000   1.408   3.717
 4284SOL     OW13750   4.688   5.716   5.961
 4284SOL    HW113751   4.722   5.748   5.873
 4284SOL    HW213752   4.763   5.674   6.013
 4285SOL     OW13753   3.067   0.208   5.471
 4285SOL    HW113754   3.016   0.290   5.497
 4285SOL    HW213755   3.022   0.163   5.394
 4286SOL     OW13756   5.513   0.741   6.443
 4286SOL    HW113757   5.494   0.731   6.540
 4286SOL    HW213758   5.540   0.836   6.424
 4287SOL     OW13759   4.644   0.771   0.233
 4287SOL    HW113760   4.630   0.688   0.286
 4287SOL    HW213761   4.578   0.774   0.158
 4288SOL     OW13762   6.637   6.697   2.549
 4288SOL    HW113763   6.622   6.790   2.582
 4288SOL    HW213764   6.563   6.637   2.583
 4289SOL     OW13765   0.540   3.413   4.602
 4289SOL    HW113766   0.443   3.394   4.586
 4289SOL    HW213767   0.554   3.432   4.699
 4290SOL     OW13768   0.372   1.051   3.541
 4290SOL    HW113769   0.390   1.046   3.639
 4290SOL    HW213770   0.324   0.968   3.512
 4291SOL     OW13771   5.298   3.228   6.340
 4291SOL    HW113772   5.260   3.138   6.319
 4291SOL    HW213773   5.247   3.298   6.290
 4292SOL     OW13774   5.917   2.186   0.834
 4292SOL    HW113775   5.981   2.121   0.874
 4292SOL    HW213776   5.919   2.272   0.886
 4293SOL     OW13777   3.382   4.339   0.024
 4293SOL    HW113778   3.479   4.318   0.018
 4293SOL    HW213779   3.329   4.259   7.012
 4294SOL     OW13780   2.430   1.992   6.434
 4294SOL    HW113781   2.350   2.002   6.493
 4294SOL    HW213782   2.401   1.979   6.339
 4295SOL     OW13783   3.877   6.234   2.965
 4295SOL    HW113784   3.860   6.158   2.902
 4295SOL    HW213785   3.815   6.309   2.945
 4296SOL     OW13786   2.777   6.147   2.129
 4296SOL    HW113787   2.761   6.244   2.114
 4296SOL    HW213788   2.847   6.135   2.199
 4297SOL     OW13789   5.954   4.771   0.794
 4297SOL    HW113790   5.975   4.856   0.841
 4297SOL    HW213791   5.856   4.768   0.772
 4298SOL     OW13792   3.337   6.594   0.192
 4298SOL    HW113793   3.283   6.535   0.252
 4298SOL    HW213794   3.361   6.544   0.108
 4299SOL     OW13795   1.311   2.826   6.971
 4299SOL    HW113796   1.278   2.916   6.946
 4299SOL    HW213797   1.396   2.807   6.923
 4300SOL     OW13798   3.095   1.284   0.868
 4300SOL    HW113799   3.078   1.323   0.959
 4300SOL    HW213800   3.188   1.249   0.865
 4301SOL     OW13801   2.938   6.593   1.492
 4301SOL    HW113802   3.010   6.645   1.446
 4301SOL    HW213803   2.980   6.526   1.553
 4302SOL     OW13804   1.930   5.592   6.013
 4302SOL    HW113805   1.839   5.625   6.038
 4302SOL    HW213806   1.971   5.543   6.090
 4303SOL     OW13807   6.067   4.291   3.361
 4303SOL    HW113808   6.045   4.370   3.305
 4303SOL    HW213809   6.137   4.316   3.428
 4304SOL     OW13810   3.511   3.603   1.525
 4304SOL    HW113811   3.478   3.690   1.491
 4304SOL    HW213812   3.486   3.594   1.622
 4305SOL     OW13813   1.669   0.469   5.322
 4305SOL    HW113814   1.675   0.372   5.299
 4305SOL    HW213815   1.744   0.493   5.382
 4306SOL     OW13816   5.450   3.292   5.017
 4306SOL    HW113817   5.487   3.214   4.967
 4306SOL    HW213818   5.354   3.274   5.041
 4307SOL     OW13819   6.619   1.524   5.399
 4307SOL    HW113820   6.673   1.466   5.459
 4307SOL    HW213821   6.579   1.468   5.326
 4308SOL     OW13822   4.911   5.325   0.085
 4308SOL    HW113823   4.869   5.358   0.169
 4308SOL    HW213824   4.991   5.381   0.064
 4309SOL     OW13825   1.356   3.060   0.496
 4309SOL    HW113826   1.434   3.035   0.554
 4309SOL    HW213827   1.368   3.020   0.405
 4310SOL     OW13828   0.054   1.741   2.654
 4310SOL    HW113829   7.015   1.795   2.716
 4310SOL    HW213830   0.146   1.732   2.693
 4311SOL     OW13831   0.848   0.475   2.501
 4311SOL    HW113832   0.829   0.483   2.599
 4311SOL    HW213833   0.944   0.452   2.487
 4312SOL     OW13834   0.629   4.724   2.470
 4312SOL    HW113835   0.692   4.653   2.502
 4312SOL    HW213836   0.668   4.814   2.490
 4313SOL     OW13837   5.994   1.864   0.276
 4313SOL    HW113838   5.949   1.940   0.228
 4313SOL    HW213839   6.045   1.901   0.354
 4314SOL     OW13840   6.554   2.044   5.337
 4314SOL    HW113841   6.602   2.069   5.421
 4314SOL    HW213842   6.456   2.056   5.350
 4315SOL     OW13843   2.635   1.655   4.289
 4315SOL    HW113844   2.671   1.722   4.224
 4315SOL    HW213845   2.574   1.592   4.242
 4316SOL     OW13846   5.368   0.045   1.591
 4316SOL    HW113847   5.269   0.037   1.604
 4316SOL    HW213848   5.387   0.069   1.496
 4317SOL     OW13849   4.391   0.908   5.907
 4317SOL    HW113850   4.380   0.817   5.945
 4317SOL    HW213851   4.313   0.929   5.848
 4318SOL     OW13852   0.417   1.252   4.308
 4318SOL    HW113853   0.492   1.196   4.271
 4318SOL    HW213854   0.336   1.240   4.251
 4319SOL     OW13855   1.243   4.592   2.460
 4319SOL    HW113856   1.225   4.539   2.543
 4319SOL    HW213857   1.192   4.552   2.384
 4320SOL     OW13858   3.257   5.971   0.679
 4320SOL    HW113859   3.276   6.054   0.730
 4320SOL    HW213860   3.172   5.982   0.628
 4321SOL     OW13861   6.506   6.708   2.301
 4321SOL    HW113862   6.560   6.695   2.384
 4321SOL    HW213863   6.545   6.783   2.248
 4322SOL     OW13864   0.713   2.917   5.478
 4322SOL    HW113865   0.636   2.857   5.457
 4322SOL    HW213866   0.789   2.862   5.512
 4323SOL     OW13867   3.995   5.296   6.590
 4323SOL    HW113868   4.049   5.254   6.664
 4323SOL    HW213869   4.050   5.366   6.545
 4324SOL     OW13870   6.716   4.284   6.006
 4324SOL    HW113871   6.650   4.218   6.044
 4324SOL    HW213872   6.749   4.250   5.918
 4325SOL     OW13873   2.684   0.464   2.351
 4325SOL    HW113874   2.687   0.420   2.441
 4325SOL    HW213875   2.630   0.548   2.358
 4326SOL     OW13876   4.550   2.497   2.715
 4326SOL    HW113877   4.492   2.505   2.796
 4326SOL    HW213878   4.497   2.458   2.640
 4327SOL     OW13879   3.184   5.810   4.184
 4327SOL    HW113880   3.271   5.762   4.182
 4327SOL    HW213881   3.198   5.906   4.159
 4328SOL     OW13882   5.685   6.301   4.893
 4328SOL    HW113883   5.597   6.316   4.938
 4328SOL    HW213884   5.719   6.387   4.856
 4329SOL     OW13885   6.747   1.957   5.826
 4329SOL    HW113886   6.771   2.053   5.838
 4329SOL    HW213887   6.648   1.950   5.810
 4330SOL     OW13888   3.012   4.840   5.136
 4330SOL    HW113889   2.983   4.834   5.232
 4330SOL    HW213890   2.968   4.766   5.084
 4331SOL     OW13891   6.190   0.820   2.144
 4331SOL    HW113892   6.103   0.838   2.098
 4331SOL    HW213893   6.204   0.721   2.152
 4332SOL     OW13894   0.415   4.962   2.675
 4332SOL    HW113895   0.378   4.899   2.606
 4332SOL    HW213896   0.440   5.048   2.631
 4333SOL     OW13897   3.512   2.100   5.627
 4333SOL    HW113898   3.425   2.051   5.636
 4333SOL    HW213899   3.540   2.135   5.716
 4334SOL     OW13900   0.226   2.527   4.090
 4334SOL    HW113901   0.165   2.517   4.169
 4334SOL    HW213902   0.228   2.623   4.062
 4335SOL     OW13903   2.652   3.632   1.300
 4335SOL    HW113904   2.593   3.682   1.364
 4335SOL    HW213905   2.641   3.534   1.314
 4336SOL     OW13906   3.036   5.194   5.671
 4336SOL    HW113907   3.081   5.179   5.583
 4336SOL    HW213908   3.088   5.260   5.725
 4337SOL     OW13909   1.688   5.249   3.812
 4337SOL    HW113910   1.738   5.218   3.893
 4337SOL    HW213911   1.746   5.307   3.756
 4338SOL     OW13912   4.186   0.748   6.198
 4338SOL    HW113913   4.215   0.694   6.119
 4338SOL    HW213914   4.088   0.732   6.214
 4339SOL     OW13915   3.965   3.129   5.977
 4339SOL    HW113916   3.898   3.078   5.922
 4339SOL    HW213917   3.926   3.153   6.065
 4340SOL     OW13918   0.065   3.446   0.918
 4340SOL    HW113919   0.155   3.424   0.881
 4340SOL    HW213920   0.003   3.473   0.844
 4341SOL     OW13921   6.929   6.891   2.833
 4341SOL    HW113922   0.004   6.923   2.853
 4341SOL    HW213923   6.933   6.813   2.771
 4342SOL     OW13924   5.597   3.980   2.647
 4342SOL    HW113925   5.565   4.033   2.725
 4342SOL    HW213926   5.537   3.900   2.634
 4343SOL     OW13927   4.362   0.423   6.132
 4343SOL    HW113928   4.393   0.331   6.110
 4343SOL    HW213929   4.440   0.480   6.159
 4344SOL     OW13930   0.592   3.344   3.752
 4344SOL    HW113931   0.664   3.277   3.768
 4344SOL    HW213932   0.628   3.436   3.769
 4345SOL     OW13933   2.941   3.581   2.127
 4345SOL    HW113934   3.013   3.515   2.105
 4345SOL    HW213935   2.922   3.638   2.047
 4346SOL     OW13936   1.133   3.614   2.105
 4346SOL    HW113937   1.089   3.578   2.023
 4346SOL    HW213938   1.153   3.539   2.168
 4347SOL     OW13939   5.980   4.979   1.230
 4347SOL    HW113940   5.946   5.035   1.305
 4347SOL    HW213941   6.059   5.025   1.187
 4348SOL     OW13942   5.437   5.728   4.242
 4348SOL    HW113943   5.362   5.672   4.277
 4348SOL    HW213944   5.400   5.804   4.190
 4349SOL     OW13945   0.043   3.370   4.874
 4349SOL    HW113946   7.007   3.300   4.920
 4349SOL    HW213947   0.128   3.330   4.840
 4350SOL     OW13948   4.368   1.321   4.844
 4350SOL    HW113949   4.421   1.278   4.771
 4350SOL    HW213950   4.425   1.387   4.892
 4351SOL     OW13951   1.006   6.394   0.239
 4351SOL    HW113952   0.944   6.421   0.165
 4351SOL    HW213953   0.961   6.409   0.327
 4352SOL     OW13954   3.524   3.784   1.023
 4352SOL    HW113955   3.570   3.850   0.963
 4352SOL    HW213956   3.475   3.832   1.095
 4353SOL     OW13957   3.152   2.923   0.883
 4353SOL    HW113958   3.145   2.967   0.973
 4353SOL    HW213959   3.071   2.945   0.829
 4354SOL     OW13960   5.546   6.940   3.686
 4354SOL    HW113961   5.545   6.846   3.720
 4354SOL    HW213962   5.453   6.966   3.659
 4355SOL     OW13963   1.169   6.220   3.372
 4355SOL    HW113964   1.171   6.120   3.383
 4355SOL    HW213965   1.075   6.249   3.355
 4356SOL     OW13966   5.646   2.641   5.667
 4356SOL    HW113967   5.680   2.615   5.577
 4356SOL    HW213968   5.716   2.622   5.736
 4357SOL     OW13969   6.366   0.905   2.634
 4357SOL    HW113970   6.370   0.807   2.655
 4357SOL    HW213971   6.377   0.918   2.536
 4358SOL     OW13972   1.281   6.784   6.546
 4358SOL    HW113973   1.330   6.697   6.557
 4358SOL    HW213974   1.302   6.823   6.456
 4359SOL     OW13975   1.687   1.718   0.115
 4359SOL    HW113976   1.691   1.718   0.215
 4359SOL    HW213977   1.756   1.656   0.078
 4360SOL     OW13978   1.288   3.470   3.485
 4360SOL    HW113979   1.192   3.461   3.459
 4360SOL    HW213980   1.345   3.427   3.415
 4361SOL     OW13981   0.182   1.440   0.895
 4361SOL    HW113982   0.104   1.484   0.939
 4361SOL    HW213983   0.263   1.450   0.952
 4362SOL     OW13984   1.221   5.935   3.698
 4362SOL    HW113985   1.219   5.875   3.777
 4362SOL    HW213986   1.316   5.952   3.671
 4363SOL     OW13987   4.771   1.508   2.065
 4363SOL    HW113988   4.865   1.473   2.071
 4363SOL    HW213989   4.749   1.559   2.148
 4364SOL     OW13990   3.981   3.932   2.449
 4364SOL    HW113991   4.017   3.935   2.356
 4364SOL    HW213992   4.032   3.863   2.501
 4365SOL     OW13993   3.073   1.926   1.687
 4365SOL    HW113994   3.101   1.895   1.596
 4365SOL    HW213995   3.101   2.021   1.700
 4366SOL     OW13996   4.073   6.302   5.086
 4366SOL    HW113997   4.099   6.398   5.072
 4366SOL    HW213998   4.092   6.249   5.003
 4367SOL     OW13999   2.122   5.544   3.600
 4367SOL    HW114000   2.217   5.572   3.592
 4367SOL    HW214001   2.072   5.613   3.653
 4368SOL     OW14002   4.890   4.377   2.898
 4368SOL    HW114003   4.915   4.381   2.995
 4368SOL    HW214004   4.876   4.282   2.871
 4369SOL     OW14005   4.395   4.845   3.230
 4369SOL    HW114006   4.353   4.822   3.318
 4369SOL    HW214007   4.370   4.777   3.162
 4370SOL     OW14008   4.013   4.348   1.448
 4370SOL    HW114009   3.920   4.312   1.451
 4370SOL    HW214010   4.076   4.276   1.418
 4371SOL     OW14011   3.482   1.287   1.354
 4371SOL    HW114012   3.489   1.187   1.350
 4371SOL    HW214013   3.564   1.325   1.397
 4372SOL     OW14014   1.934   3.137   4.573
 4372SOL    HW114015   1.965   3.211   4.632
 4372SOL    HW214016   1.843   3.106   4.602
 4373SOL     OW14017   4.497   1.393   5.645
 4373SOL    HW114018   4.464   1.428   5.558
 4373SOL    HW214019   4.568   1.324   5.628
 4374SOL     OW14020   2.052   1.336   1.654
 4374SOL    HW114021   1.985   1.411   1.651
 4374SOL    HW214022   2.100   1.332   1.566
 4375SOL     OW14023   4.481   0.966   3.305
 4375SOL    HW114024   4.533   1.051   3.302
 4375SOL    HW214025   4.538   0.893   3.342
 4376SOL     OW14026   0.309   6.710   1.369
 4376SOL    HW114027   0.390   6.652   1.375
 4376SOL    HW214028   0.315   6.783   1.437
 4377SOL     OW14029   5.721   6.875   6.435
 4377SOL    HW114030   5.676   6.922   6.511
 4377SOL    HW214031   5.656   6.812   6.392
 4378SOL     OW14032   2.029   5.365   2.895
 4378SOL    HW114033   2.006   5.270   2.873
 4378SOL    HW214034   1.945   5.416   2.915
 4379SOL     OW14035   1.138   0.369   1.956
 4379SOL    HW114036   1.129   0.411   1.866
 4379SOL    HW214037   1.234   0.348   1.973
 4380SOL     OW14038   1.458   5.842   5.414
 4380SOL    HW114039   1.430   5.781   5.339
 4380SOL    HW214040   1.506   5.921   5.376
 4381SOL     OW14041   3.472   6.189   4.769
 4381SOL    HW114042   3.547   6.233   4.818
 4381SOL    HW214043   3.440   6.110   4.821
 4382SOL     OW14044   4.923   3.660   3.960
 4382SOL    HW114045   4.874   3.744   3.984
 4382SOL    HW214046   4.925   3.599   4.039
 4383SOL     OW14047   0.802   3.114   5.923
 4383SOL    HW114048   0.875   3.140   5.986
 4383SOL    HW214049   0.715   3.113   5.973
 4384SOL     OW14050   3.471   5.800   0.710
 4384SOL    HW114051   3.510   5.819   0.800
 4384SOL    HW214052   3.393   5.861   0.693
 4385SOL     OW14053   0.515   2.435   2.294
 4385SOL    HW114054   0.595   2.403   2.345
 4385SOL    HW214055   0.501   2.533   2.313
 4386SOL     OW14056   0.887   3.204   6.704
 4386SOL    HW114057   0.945   3.129   6.671
 4386SOL    HW214058   0.848   3.179   6.792
 4387SOL     OW14059   6.991   3.373   1.965
 4387SOL    HW114060   7.008   3.357   2.062
 4387SOL    HW214061   0.038   3.439   1.929
 4388SOL     OW14062   3.702   0.960   6.058
 4388SOL    HW114063   3.685   0.997   5.967
 4388SOL    HW214064   3.769   0.886   6.052
 4389SOL     OW14065   5.342   2.613   3.027
 4389SOL    HW114066   5.243   2.620   3.016
 4389SOL    HW214067   5.387   2.689   2.980
 4390SOL     OW14068   4.742   2.808   2.214
 4390SOL    HW114069   4.763   2.743   2.142
 4390SOL    HW214070   4.742   2.901   2.176
 4391SOL     OW14071   1.496   5.468   0.607
 4391SOL    HW114072   1.574   5.411   0.632
 4391SOL    HW214073   1.504   5.495   0.511
 4392SOL     OW14074   4.818   3.079   4.340
 4392SOL    HW114075   4.784   3.153   4.398
 4392SOL    HW214076   4.879   3.117   4.270
 4393SOL     OW14077   4.840   6.441   2.956
 4393SOL    HW114078   4.886   6.367   3.004
 4393SOL    HW214079   4.893   6.466   2.875
 4394SOL     OW14080   5.057   0.125   2.620
 4394SOL    HW114081   5.007   0.116   2.706
 4394SOL    HW214082   4.993   0.120   2.544
 4395SOL     OW14083   5.972   1.915   1.898
 4395SOL    HW114084   5.899   1.926   1.965
 4395SOL    HW214085   5.970   1.823   1.860
 4396SOL     OW14086   1.006   0.650   4.346
 4396SOL    HW114087   1.061   0.576   4.308
 4396SOL    HW214088   1.052   0.688   4.426
 4397SOL     OW14089   6.411   0.261   5.529
 4397SOL    HW114090   6.469   0.184   5.502
 4397SOL    HW214091   6.468   0.337   5.561
 4398SOL     OW14092   0.166   4.265   4.570
 4398SOL    HW114093   0.128   4.235   4.482
 4398SOL    HW214094   0.106   4.336   4.609
 4399SOL     OW14095   1.926   1.429   1.018
 4399SOL    HW114096   1.936   1.433   0.919
 4399SOL    HW214097   1.836   1.391   1.041
 4400SOL     OW14098   3.256   6.344   4.678
 4400SOL    HW114099   3.220   6.294   4.599
 4400SOL    HW214100   3.316   6.284   4.731
 4401SOL     OW14101   5.573   5.959   4.698
 4401SOL    HW114102   5.639   6.024   4.660
 4401SOL    HW214103   5.481   5.983   4.667
 4402SOL     OW14104   0.347   6.583   2.778
 4402SOL    HW114105   0.370   6.646   2.852
 4402SOL    HW214106   0.409   6.504   2.781
 4403SOL     OW14107   0.722   0.472   3.591
 4403SOL    HW114108   0.730   0.541   3.662
 4403SOL    HW214109   0.760   0.507   3.505
 4404SOL     OW14110   0.848   3.966   3.560
 4404SOL    HW114111   0.906   4.046   3.579
 4404SOL    HW214112   0.905   3.884   3.557
 4405SOL     OW14113   3.380   4.250   5.721
 4405SOL    HW114114   3.388   4.170   5.661
 4405SOL    HW214115   3.290   4.251   5.763
 4406SOL     OW14116   5.860   4.247   1.446
 4406SOL    HW114117   5.780   4.197   1.480
 4406SOL    HW214118   5.943   4.211   1.488
 4407SOL     OW14119   5.910   0.183   0.011
 4407SOL    HW114120   5.953   0.248   6.967
 4407SOL    HW214121   5.830   0.142   6.984
 4408SOL     OW14122   4.533   6.596   6.240
 4408SOL    HW114123   4.608   6.659   6.221
 4408SOL    HW214124   4.567   6.521   6.296
 4409SOL     OW14125   3.748   0.781   1.538
 4409SOL    HW114126   3.785   0.712   1.600
 4409SOL    HW214127   3.737   0.868   1.587
 4410SOL     OW14128   2.231   5.035   1.745
 4410SOL    HW114129   2.271   5.117   1.786
 4410SOL    HW214130   2.132   5.038   1.755
 4411SOL     OW14131   4.001   3.548   2.965
 4411SOL    HW114132   3.997   3.637   2.921
 4411SOL    HW214133   3.910   3.509   2.971
 4412SOL     OW14134   3.831   1.282   6.618
 4412SOL    HW114135   3.736   1.254   6.631
 4412SOL    HW214136   3.854   1.355   6.683
 4413SOL     OW14137   4.320   6.411   4.295
 4413SOL    HW114138   4.370   6.388   4.378
 4413SOL    HW214139   4.236   6.460   4.319
 4414SOL     OW14140   3.972   4.858   1.995
 4414SOL    HW114141   3.916   4.937   2.021
 4414SOL    HW214142   3.914   4.777   1.987
 4415SOL     OW14143   5.289   2.505   6.675
 4415SOL    HW114144   5.362   2.438   6.684
 4415SOL    HW214145   5.235   2.508   6.760
 4416SOL     OW14146   3.232   0.328   4.125
 4416SOL    HW114147   3.320   0.325   4.171
 4416SOL    HW214148   3.169   0.386   4.177
 4417SOL     OW14149   7.005   6.296   2.603
 4417SOL    HW114150   0.041   6.277   2.520
 4417SOL    HW214151   0.032   6.367   2.656
 4418SOL     OW14152   3.609   0.123   3.706
 4418SOL    HW114153   3.676   0.162   3.642
 4418SOL    HW214154   3.598   0.026   3.688
 4419SOL     OW14155   0.476   5.193   6.726
 4419SOL    HW114156   0.542   5.123   6.755
 4419SOL    HW214157   0.520   5.283   6.728
 4420SOL     OW14158   5.381   1.485   6.340
 4420SOL    HW114159   5.357   1.390   6.317
 4420SOL    HW214160   5.364   1.501   6.437
 4421SOL     OW14161   1.359   1.410   3.323
 4421SOL    HW114162   1.271   1.444   3.356
 4421SOL    HW214163   1.430   1.479   3.337
 4422SOL     OW14164   1.922   4.232   5.835
 4422SOL    HW114165   1.945   4.229   5.737
 4422SOL    HW214166   1.854   4.162   5.855
 4423SOL     OW14167   1.546   1.977   6.330
 4423SOL    HW114168   1.523   1.880   6.338
 4423SOL    HW214169   1.465   2.027   6.299
 4424SOL     OW14170   6.786   0.169   2.968
 4424SOL    HW114171   6.731   0.175   2.884
 4424SOL    HW214172   6.751   0.233   3.035
 4425SOL     OW14173   4.567   4.497   6.293
 4425SOL    HW114174   4.529   4.481   6.202
 4425SOL    HW214175   4.497   4.479   6.363
 4426SOL     OW14176   0.483   0.530   5.626
 4426SOL    HW114177   0.527   0.447   5.595
 4426SOL    HW214178   0.385   0.513   5.638
 4427SOL     OW14179   1.258   0.322   3.394
 4427SOL    HW114180   1.220   0.383   3.463
 4427SOL    HW214181   1.292   0.239   3.438
 4428SOL     OW14182   2.427   5.683   3.850
 4428SOL    HW114183   2.458   5.588   3.851
 4428SOL    HW214184   2.406   5.710   3.756
 4429SOL     OW14185   3.716   6.733   3.454
 4429SOL    HW114186   3.712   6.679   3.370
 4429SOL    HW214187   3.648   6.699   3.519
 4430SOL     OW14188   2.475   0.614   2.110
 4430SOL    HW114189   2.547   0.679   2.136
 4430SOL    HW214190   2.470   0.608   2.010
 4431SOL     OW14191   2.542   2.111   3.127
 4431SOL    HW114192   2.585   2.192   3.086
 4431SOL    HW214193   2.588   2.090   3.213
 4432SOL     OW14194   2.966   3.751   2.976
 4432SOL    HW114195   3.064   3.756   2.959
 4432SOL    HW214196   2.949   3.750   3.074
 4433SOL     OW14197   6.281   0.036   2.318
 4433SOL    HW114198   6.362   6.994   2.322
 4433SOL    HW214199   6.252   0.058   2.411
 4434SOL     OW14200   6.170   2.513   4.324
 4434SOL    HW114201   6.211   2.604   4.328
 4434SOL    HW214202   6.143   2.493   4.230
 4435SOL     OW14203   3.552   3.010   1.740
 4435SOL    HW114204   3.561   3.110   1.738
 4435SOL    HW214205   3.632   2.971   1.786
 4436SOL     OW14206   4.963   1.784   6.755
 4436SOL    HW114207   4.900   1.706   6.756
 4436SOL    HW214208   4.987   1.808   6.849
 4437SOL     OW14209   3.450   1.001   4.620
 4437SOL    HW114210   3.466   0.915   4.571
 4437SOL    HW214211   3.468   1.078   4.559
 4438SOL     OW14212   4.480   2.929   6.929
 4438SOL    HW114213   4.482   3.027   6.952
 4438SOL    HW214214   4.388   2.904   6.898
 4439SOL     OW14215   2.170   5.950   2.346
 4439SOL    HW114216   2.128   6.040   2.351
 4439SOL    HW214217   2.112   5.883   2.394
 4440SOL     OW14218   1.039   0.115   6.631
 4440SOL    HW114219   1.070   0.105   6.726
 4440SOL    HW214220   0.966   0.183   6.627
 4441SOL     OW14221   5.715   2.912   3.046
 4441SOL    HW114222   5.703   2.837   3.112
 4441SOL    HW214223   5.633   2.920   2.990
 4442SOL     OW14224   3.291   6.137   3.574
 4442SOL    HW114225   3.368   6.089   3.616
 4442SOL    HW214226   3.275   6.102   3.482
 4443SOL     OW14227   2.522   1.637   5.781
 4443SOL    HW114228   2.455   1.564   5.791
 4443SOL    HW214229   2.608   1.610   5.824
 4444SOL     OW14230   5.666   0.359   0.828
 4444SOL    HW114231   5.674   0.285   0.895
 4444SOL    HW214232   5.636   0.322   0.741
 4445SOL     OW14233   1.214   0.822   6.314
 4445SOL    HW114234   1.137   0.833   6.252
 4445SOL    HW214235   1.210   0.891   6.386
 4446SOL     OW14236   6.670   0.211   2.721
 4446SOL    HW114237   6.746   0.259   2.678
 4446SOL    HW214238   6.584   0.259   2.703
 4447SOL     OW14239   5.769   2.512   5.472
 4447SOL    HW114240   5.805   2.435   5.524
 4447SOL    HW214241   5.796   2.503   5.376
 4448SOL     OW14242   2.364   3.850   6.793
 4448SOL    HW114243   2.395   3.878   6.702
 4448SOL    HW214244   2.431   3.787   6.833
 4449SOL     OW14245   1.457   1.626   5.034
 4449SOL    HW114246   1.507   1.597   5.116
 4449SOL    HW214247   1.383   1.689   5.061
 4450SOL     OW14248   3.869   3.498   3.405
 4450SOL    HW114249   3.963   3.512   3.436
 4450SOL    HW214250   3.870   3.454   3.315
 4451SOL     OW14251   6.740   4.631   2.353
 4451SOL    HW114252   6.749   4.536   2.382
 4451SOL    HW214253   6.818   4.684   2.387
 4452SOL     OW14254   6.079   6.257   6.411
 4452SOL    HW114255   6.177   6.260   6.393
 4452SOL    HW214256   6.061   6.198   6.489
 4453SOL     OW14257   5.361   2.542   1.096
 4453SOL    HW114258   5.446   2.532   1.148
 4453SOL    HW214259   5.337   2.454   1.055
 4454SOL     OW14260   5.466   3.201   1.494
 4454SOL    HW114261   5.502   3.273   1.434
 4454SOL    HW214262   5.368   3.192   1.479
 4455SOL     OW14263   3.889   1.494   2.426
 4455SOL    HW114264   3.878   1.580   2.375
 4455SOL    HW214265   3.957   1.437   2.381
 4456SOL     OW14266   1.450   5.170   3.374
 4456SOL    HW114267   1.387   5.101   3.409
 4456SOL    HW214268   1.544   5.146   3.398
 4457SOL     OW14269   5.162   2.109   5.926
 4457SOL    HW114270   5.080   2.097   5.872
 4457SOL    HW214271   5.156   2.055   6.010
 4458SOL     OW14272   3.735   2.474   6.294
 4458SOL    HW114273   3.781   2.497   6.208
 4458SOL    HW214274   3.728   2.555   6.351
 4459SOL     OW14275   4.850   6.596   4.638
 4459SOL    HW114276   4.880   6.672   4.580
 4459SOL    HW214277   4.876   6.509   4.596
 4460SOL     OW14278   2.976   2.113   6.477
 4460SOL    HW114279   3.002   2.082   6.568
 4460SOL    HW214280   2.876   2.113   6.469
 4461SOL     OW14281   2.133   0.254   2.417
 4461SOL    HW114282   2.098   0.344   2.445
 4461SOL    HW214283   2.222   0.265   2.373
 4462SOL     OW14284   6.924   5.168   1.386
 4462SOL    HW114285   6.985   5.204   1.316
 4462SOL    HW214286   6.830   5.196   1.366
 4463SOL     OW14287   1.481   3.626   6.230
 4463SOL    HW114288   1.529   3.573   6.160
 4463SOL    HW214289   1.528   3.713   6.244
 4464SOL     OW14290   5.539   3.591   6.538
 4464SOL    HW114291   5.502   3.499   6.521
 4464SOL    HW214292   5.531   3.646   6.455
 4465SOL     OW14293   1.438   6.163   1.892
 4465SOL    HW114294   1.467   6.133   1.983
 4465SOL    HW214295   1.360   6.108   1.863
 4466SOL     OW14296   0.730   1.879   3.163
 4466SOL    HW114297   0.830   1.882   3.166
 4466SOL    HW214298   0.697   1.811   3.228
 4467SOL     OW14299   1.221   6.574   3.705
 4467SOL    HW114300   1.222   6.670   3.733
 4467SOL    HW214301   1.278   6.562   3.624
 4468SOL     OW14302   0.962   2.921   0.400
 4468SOL    HW114303   0.984   2.932   0.497
 4468SOL    HW214304   1.013   2.989   0.347
 4469SOL     OW14305   4.017   0.126   0.552
 4469SOL    HW114306   3.930   0.079   0.534
 4469SOL    HW214307   3.999   0.208   0.607
 4470SOL     OW14308   5.017   3.772   1.172
 4470SOL    HW114309   5.002   3.801   1.078
 4470SOL    HW214310   4.951   3.816   1.232
 4471SOL     OW14311   6.649   2.951   1.065
 4471SOL    HW114312   6.678   3.039   1.101
 4471SOL    HW214313   6.699   2.878   1.111
 4472SOL     OW14314   1.830   4.248   2.168
 4472SOL    HW114315   1.779   4.185   2.110
 4472SOL    HW214316   1.819   4.221   2.264
 4473SOL     OW14317   6.614   6.845   4.394
 4473SOL    HW114318   6.523   6.860   4.432
 4473SOL    HW214319   6.615   6.868   4.297
 4474SOL     OW14320   4.448   0.532   2.753
 4474SOL    HW114321   4.482   0.561   2.663
 4474SOL    HW214322   4.350   0.513   2.747
 4475SOL     OW14323   1.857   4.026   0.162
 4475SOL    HW114324   1.841   4.070   0.250
 4475SOL    HW214325   1.951   3.990   0.159
 4476SOL     OW14326   4.907   6.509   2.133
 4476SOL    HW114327   4.828   6.540   2.186
 4476SOL    HW214328   4.876   6.453   2.056
 4477SOL     OW14329   1.341   1.393   0.598
 4477SOL    HW114330   1.336   1.491   0.615
 4477SOL    HW214331   1.254   1.351   0.622
 4478SOL     OW14332   2.172   6.760   2.435
 4478SOL    HW114333   2.111   6.745   2.357
 4478SOL    HW214334   2.145   6.843   2.483
 4479SOL     OW14335   1.108   0.127   5.642
 4479SOL    HW114336   1.163   0.044   5.640
 4479SOL    HW214337   1.085   0.154   5.549
 4480SOL     OW14338   1.014   4.689   4.375
 4480SOL    HW114339   1.031   4.765   4.438
 4480SOL    HW214340   0.950   4.624   4.417
 4481SOL     OW14341   1.212   6.486   4.349
 4481SOL    HW114342   1.135   6.475   4.412
 4481SOL    HW214343   1.270   6.405   4.354
 4482SOL     OW14344   0.377   4.715   3.983
 4482SOL    HW114345   0.302   4.691   3.922
 4482SOL    HW214346   0.340   4.746   4.071
 4483SOL     OW14347   5.354   3.162   2.039
 4483SOL    HW114348   5.297   3.228   2.088
 4483SOL    HW214349   5.372   3.195   1.946
 4484SOL     OW14350   4.074   2.601   5.561
 4484SOL    HW114351   4.141   2.530   5.583
 4484SOL    HW214352   4.084   2.626   5.465
 4485SOL     OW14353   5.409   1.650   6.589
 4485SOL    HW114354   5.405   1.624   6.686
 4485SOL    HW214355   5.332   1.711   6.568
 4486SOL     OW14356   6.176   3.215   4.602
 4486SOL    HW114357   6.133   3.268   4.529
 4486SOL    HW214358   6.249   3.269   4.645
 4487SOL     OW14359   3.033   3.529   6.339
 4487SOL    HW114360   2.967   3.469   6.384
 4487SOL    HW214361   2.990   3.617   6.321
 4488SOL     OW14362   6.544   1.483   4.474
 4488SOL    HW114363   6.456   1.512   4.436
 4488SOL    HW214364   6.606   1.458   4.400
 4489SOL     OW14365   5.756   6.649   4.468
 4489SOL    HW114366   5.734   6.722   4.533
 4489SOL    HW214367   5.853   6.652   4.446
 4490SOL     OW14368   6.495   2.059   2.701
 4490SOL    HW114369   6.549   1.982   2.734
 4490SOL    HW214370   6.398   2.040   2.712
 4491SOL     OW14371   0.783   3.605   2.550
 4491SOL    HW114372   0.759   3.676   2.616
 4491SOL    HW214373   0.750   3.631   2.459
 4492SOL     OW14374   4.873   2.868   0.224
 4492SOL    HW114375   4.936   2.902   0.155
 4492SOL    HW214376   4.783   2.910   0.210
 4493SOL     OW14377   5.904   5.540   4.278
 4493SOL    HW114378   5.878   5.444   4.272
 4493SOL    HW214379   5.824   5.594   4.304
 4494SOL     OW14380   6.621   4.109   5.404
 4494SOL    HW114381   6.669   4.181   5.453
 4494SOL    HW214382   6.528   4.138   5.384
 4495SOL     OW14383   4.731   6.092   1.885
 4495SOL    HW114384   4.805   6.076   1.819
 4495SOL    HW214385   4.648   6.119   1.836
 4496SOL     OW14386   4.571   3.648   5.571
 4496SOL    HW114387   4.583   3.719   5.501
 4496SOL    HW214388   4.598   3.560   5.534
 4497SOL     OW14389   6.137   5.116   0.246
 4497SOL    HW114390   6.122   5.018   0.232
 4497SOL    HW214391   6.182   5.130   0.334
 4498SOL     OW14392   6.968   3.242   0.004
 4498SOL    HW114393   0.019   3.306   6.989
 4498SOL    HW214394   7.007   3.184   0.075
 4499SOL     OW14395   7.015   2.722   5.973
 4499SOL    HW114396   0.022   2.780   6.050
 4499SOL    HW214397   0.018   2.769   5.887
 4500SOL     OW14398   3.060   3.708   4.441
 4500SOL    HW114399   3.016   3.749   4.521
 4500SOL    HW214400   3.104   3.622   4.467
 4501SOL     OW14401   6.840   4.634   5.621
 4501SOL    HW114402   6.823   4.600   5.529
 4501SOL    HW214403   6.873   4.559   5.679
 4502SOL     OW14404   0.768   2.599   6.950
 4502SOL    HW114405   0.808   2.689   6.934
 4502SOL    HW214406   0.787   2.571   0.026
 4503SOL     OW14407   1.173   1.671   3.656
 4503SOL    HW114408   1.090   1.657   3.709
 4503SOL    HW214409   1.158   1.641   3.562
 4504SOL     OW14410   5.554   2.296   4.570
 4504SOL    HW114411   5.633   2.338   4.525
 4504SOL    HW214412   5.473   2.307   4.511
 4505SOL     OW14413   1.685   6.452   5.330
 4505SOL    HW114414   1.717   6.476   5.421
 4505SOL    HW214415   1.755   6.478   5.263
 4506SOL     OW14416   3.744   0.412   5.191
 4506SOL    HW114417   3.778   0.489   5.138
 4506SOL    HW214418   3.656   0.382   5.156
 4507SOL     OW14419   5.812   4.358   0.653
 4507SOL    HW114420   5.737   4.370   0.718
 4507SOL    HW214421   5.776   4.353   0.560
 4508SOL     OW14422   1.204   3.753   6.735
 4508SOL    HW114423   1.304   3.753   6.732
 4508SOL    HW214424   1.170   3.832   6.683
 4509SOL     OW14425   3.046   1.737   4.455
 4509SOL    HW114426   2.978   1.665   4.440
 4509SOL    HW214427   3.138   1.700   4.439
 4510SOL     OW14428   4.738   6.902   5.359
 4510SOL    HW114429   4.823   6.854   5.378
 4510SOL    HW214430   4.670   6.838   5.322
 4511SOL     OW14431   6.483   2.489   0.693
 4511SOL    HW114432   6.556   2.427   0.720
 4511SOL    HW214433   6.395   2.452   0.722
 4512SOL     OW14434   2.772   5.813   0.064
 4512SOL    HW114435   2.850   5.859   0.021
 4512SOL    HW214436   2.765   5.843   0.159
 4513SOL     OW14437   4.798   0.479   1.888
 4513SOL    HW114438   4.806   0.564   1.940
 4513SOL    HW214439   4.887   0.435   1.882
 4514SOL     OW14440   2.579   1.056   5.376
 4514SOL    HW114441   2.502   1.111   5.407
 4514SOL    HW214442   2.629   1.105   5.305
 4515SOL     OW14443   0.524   5.039   0.809
 4515SOL    HW114444   0.564   5.056   0.899
 4515SOL    HW214445   0.426   5.060   0.811
 4516SOL     OW14446   0.888   1.161   5.191
 4516SOL    HW114447   0.809   1.220   5.210
 4516SOL    HW214448   0.858   1.066   5.186
 4517SOL     OW14449   3.765   6.840   5.793
 4517SOL    HW114450   3.843   6.795   5.748
 4517SOL    HW214451   3.715   6.773   5.847
 4518SOL     OW14452   0.810   2.330   3.726
 4518SOL    HW114453   0.818   2.279   3.812
 4518SOL    HW214454   0.844   2.274   3.651
 4519SOL     OW14455   0.137   3.134   3.866
 4519SOL    HW114456   0.194   3.216   3.868
 4519SOL    HW214457   0.069   3.143   3.793
 4520SOL     OW14458   6.921   4.620   3.323
 4520SOL    HW114459   6.991   4.681   3.288
 4520SOL    HW214460   6.891   4.558   3.250
 4521SOL     OW14461   5.341   2.895   6.837
 4521SOL    HW114462   5.299   2.877   6.748
 4521SOL    HW214463   5.337   2.993   6.857
 4522SOL     OW14464   6.155   6.889   4.267
 4522SOL    HW114465   6.172   6.953   4.192
 4522SOL    HW214466   6.172   6.935   4.354
 4523SOL     OW14467   3.176   4.241   6.511
 4523SOL    HW114468   3.221   4.249   6.422
 4523SOL    HW214469   3.077   4.230   6.497
 4524SOL     OW14470   4.916   0.473   4.830
 4524SOL    HW114471   4.950   0.459   4.923
 4524SOL    HW214472   4.862   0.557   4.826
 4525SOL     OW14473   6.331   1.551   4.877
 4525SOL    HW114474   6.403   1.484   4.894
 4525SOL    HW214475   6.369   1.644   4.882
 4526SOL     OW14476   4.856   6.747   0.696
 4526SOL    HW114477   4.895   6.770   0.606
 4526SOL    HW214478   4.926   6.702   0.751
 4527SOL     OW14479   4.992   0.320   2.120
 4527SOL    HW114480   5.021   0.233   2.080
 4527SOL    HW214481   5.071   0.380   2.129
 4528SOL     OW14482   5.955   0.046   0.695
 4528SOL    HW114483   6.032   0.082   0.641
 4528SOL    HW214484   5.881   0.018   0.634
 4529SOL     OW14485   3.212   0.109   2.993
 4529SOL    HW114486   3.133   0.053   2.967
 4529SOL    HW214487   3.183   0.182   3.055
 4530SOL     OW14488   0.349   3.139   5.861
 4530SOL    HW114489   0.375   3.135   5.764
 4530SOL    HW214490   0.359   3.049   5.902
 4531SOL     OW14491   0.382   3.348   4.209
 4531SOL    HW114492   0.460   3.289   4.229
 4531SOL    HW214493   0.301   3.291   4.195
 4532SOL     OW14494   6.385   1.374   0.923
 4532SOL    HW114495   6.460   1.318   0.888
 4532SOL    HW214496   6.341   1.326   0.999
 4533SOL     OW14497   2.091   5.448   3.138
 4533SOL    HW114498   2.165   5.515   3.133
 4533SOL    HW214499   2.072   5.412   3.046
 4534SOL     OW14500   5.969   3.743   5.290
 4534SOL    HW114501   6.024   3.803   5.348
 4534SOL    HW214502   5.997   3.648   5.303
 4535SOL     OW14503   4.861   3.129   2.272
 4535SOL    HW114504   4.808   3.076   2.339
 4535SOL    HW214505   4.836   3.099   2.180
 4536SOL     OW14506   5.894   0.989   4.536
 4536SOL    HW114507   5.949   1.027   4.610
 4536SOL    HW214508   5.819   1.052   4.515
 4537SOL     OW14509   3.969   2.824   6.907
 4537SOL    HW114510   3.912   2.779   6.839
 4537SOL    HW214511   3.914   2.891   6.957
 4538SOL     OW14512   3.126   1.515   2.879
 4538SOL    HW114513   3.099   1.431   2.831
 4538SOL    HW214514   3.120   1.500   2.977
 4539SOL     OW14515   2.128   2.089   2.792
 4539SOL    HW114516   2.188   2.164   2.765
 4539SOL    HW214517   2.175   2.002   2.779
 4540SOL     OW14518   3.749   3.528   4.447
 4540SOL    HW114519   3.695   3.446   4.424
 4540SOL    HW214520   3.826   3.501   4.504
 4541SOL     OW14521   4.989   1.877   1.385
 4541SOL    HW114522   4.990   1.977   1.382
 4541SOL    HW214523   4.926   1.847   1.457
 4542SOL     OW14524   5.939   6.613   2.634
 4542SOL    HW114525   6.029   6.609   2.589
 4542SOL    HW214526   5.909   6.708   2.640
 4543SOL     OW14527   5.864   1.542   0.897
 4543SOL    HW114528   5.842   1.640   0.901
 4543SOL    HW214529   5.957   1.528   0.931
 4544SOL     OW14530   3.392   5.511   6.839
 4544SOL    HW114531   3.336   5.557   6.909
 4544SOL    HW214532   3.355   5.420   6.822
 4545SOL     OW14533   4.021   2.309   5.775
 4545SOL    HW114534   4.087   2.367   5.728
 4545SOL    HW214535   3.942   2.293   5.716
 4546SOL     OW14536   0.914   6.246   6.417
 4546SOL    HW114537   1.002   6.286   6.391
 4546SOL    HW214538   0.930   6.158   6.463
 4547SOL     OW14539   5.388   2.578   1.637
 4547SOL    HW114540   5.365   2.671   1.667
 4547SOL    HW214541   5.389   2.516   1.715
 4548SOL     OW14542   0.611   4.071   3.576
 4548SOL    HW114543   0.704   4.044   3.550
 4548SOL    HW214544   0.549   3.992   3.565
 4549SOL     OW14545   6.759   3.116   2.924
 4549SOL    HW114546   6.857   3.126   2.940
 4549SOL    HW214547   6.737   3.019   2.914
 4550SOL     OW14548   1.021   5.486   3.674
 4550SOL    HW114549   1.114   5.520   3.682
 4550SOL    HW214550   0.984   5.511   3.585
 4551SOL     OW14551   0.946   2.539   5.657
 4551SOL    HW114552   0.946   2.627   5.610
 4551SOL    HW214553   0.900   2.470   5.601
 4552SOL     OW14554   0.276   3.542   4.760
 4552SOL    HW114555   0.207   3.562   4.691
 4552SOL    HW214556   0.252   3.458   4.808
 4553SOL     OW14557   4.354   5.003   0.363
 4553SOL    HW114558   4.269   4.961   0.330
 4553SOL    HW214559   4.403   4.937   0.421
 4554SOL     OW14560   4.760   6.719   2.688
 4554SOL    HW114561   4.733   6.774   2.767
 4554SOL    HW214562   4.828   6.768   2.635
 4555SOL     OW14563   5.144   2.318   6.351
 4555SOL    HW114564   5.098   2.403   6.377
 4555SOL    HW214565   5.098   2.241   6.394
 4556SOL     OW14566   4.213   0.975   3.307
 4556SOL    HW114567   4.186   0.993   3.401
 4556SOL    HW214568   4.312   0.963   3.303
 4557SOL     OW14569   5.411   0.009   5.989
 4557SOL    HW114570   5.443   0.081   6.050
 4557SOL    HW214571   5.425   6.938   6.032
 4558SOL     OW14572   6.708   3.254   6.766
 4558SOL    HW114573   6.787   3.303   6.804
 4558SOL    HW214574   6.644   3.231   6.839
 4559SOL     OW14575   1.831   6.457   1.349
 4559SOL    HW114576   1.747   6.404   1.336
 4559SOL    HW214577   1.809   6.555   1.349
 4560SOL     OW14578   5.120   3.321   3.011
 4560SOL    HW114579   5.040   3.293   2.959
 4560SOL    HW214580   5.092   3.353   3.102
 4561SOL     OW14581   3.473   0.273   6.828
 4561SOL    HW114582   3.450   0.313   6.739
 4561SOL    HW214583   3.390   0.240   6.873
 4562SOL     OW14584   2.870   5.062   6.819
 4562SOL    HW114585   2.962   5.096   6.839
 4562SOL    HW214586   2.876   4.973   6.775
 4563SOL     OW14587   5.674   1.756   6.534
 4563SOL    HW114588   5.578   1.730   6.528
 4563SOL    HW214589   5.686   1.825   6.605
 4564SOL     OW14590   1.664   6.259   0.488
 4564SOL    HW114591   1.741   6.322   0.481
 4564SOL    HW214592   1.698   6.167   0.503
 4565SOL     OW14593   0.928   0.856   5.383
 4565SOL    HW114594   0.878   0.893   5.304
 4565SOL    HW214595   0.984   0.928   5.423
 4566SOL     OW14596   6.832   0.765   6.932
 4566SOL    HW114597   6.771   0.712   6.874
 4566SOL    HW214598   6.894   0.703   6.980
 4567SOL     OW14599   6.753   1.365   0.997
 4567SOL    HW114600   6.701   1.323   0.923
 4567SOL    HW214601   6.821   1.427   0.958
 4568SOL     OW14602   3.096   4.509   5.793
 4568SOL    HW114603   3.137   4.596   5.819
 4568SOL    HW214604   3.014   4.492   5.849
 4569SOL     OW14605   0.947   1.432   4.332
 4569SOL    HW114606   0.870   1.373   4.357
 4569SOL    HW214607   0.979   1.482   4.414
 4570SOL     OW14608   0.200   5.787   3.860
 4570SOL    HW114609   0.258   5.744   3.929
 4570SOL    HW214610   0.112   5.738   3.855
 4571SOL     OW14611   3.461   3.260   4.637
 4571SOL    HW114612   3.479   3.355   4.613
 4571SOL    HW214613   3.538   3.203   4.608
 4572SOL     OW14614   1.456   6.877   1.238
 4572SOL    HW114615   1.415   6.917   1.156
 4572SOL    HW214616   1.555   6.893   1.237
 4573SOL     OW14617   5.510   5.827   0.849
 4573SOL    HW114618   5.553   5.894   0.909
 4573SOL    HW214619   5.412   5.846   0.844
 4574SOL     OW14620   7.012   4.540   1.761
 4574SOL    HW114621   6.941   4.554   1.831
 4574SOL    HW214622   0.045   4.457   1.782
 4575SOL     OW14623   6.920   0.637   2.199
 4575SOL    HW114624   6.928   0.701   2.123
 4575SOL    HW214625   6.824   0.615   2.214
 4576SOL     OW14626   3.436   5.294   6.421
 4576SOL    HW114627   3.415   5.199   6.445
 4576SOL    HW214628   3.374   5.325   6.350
 4577SOL     OW14629   1.216   3.194   3.134
 4577SOL    HW114630   1.179   3.287   3.128
 4577SOL    HW214631   1.315   3.199   3.147
 4578SOL     OW14632   7.009   3.929   4.099
 4578SOL    HW114633   0.051   3.982   4.158
 4578SOL    HW214634   6.978   3.847   4.147
 4579SOL     OW14635   5.498   2.201   3.422
 4579SOL    HW114636   5.480   2.160   3.332
 4579SOL    HW214637   5.498   2.129   3.491
 4580SOL     OW14638   6.405   6.251   0.507
 4580SOL    HW114639   6.452   6.168   0.476
 4580SOL    HW214640   6.356   6.231   0.592
 4581SOL     OW14641   3.203   5.268   3.311
 4581SOL    HW114642   3.176   5.173   3.291
 4581SOL    HW214643   3.195   5.284   3.409
 4582SOL     OW14644   5.358   6.298   3.241
 4582SOL    HW114645   5.275   6.347   3.214
 4582SOL    HW214646   5.430   6.364   3.265
 4583SOL     OW14647   3.268   1.962   5.614
 4583SOL    HW114648   3.292   1.865   5.618
 4583SOL    HW214649   3.193   1.981   5.677
 4584SOL     OW14650   0.600   5.295   5.241
 4584SOL    HW114651   0.581   5.389   5.214
 4584SOL    HW214652   0.595   5.235   5.160
 4585SOL     OW14653   3.361   6.198   2.958
 4585SOL    HW114654   3.383   6.258   3.035
 4585SOL    HW214655   3.269   6.219   2.924
 4586SOL     OW14656   3.651   5.899   1.932
 4586SOL    HW114657   3.708   5.981   1.942
 4586SOL    HW214658   3.707   5.822   1.903
 4587SOL     OW14659   2.803   3.223   1.531
 4587SOL    HW114660   2.900   3.234   1.552
 4587SOL    HW214661   2.777   3.127   1.541
 4588SOL     OW14662   3.805   3.485   5.216
 4588SOL    HW114663   3.896   3.478   5.176
 4588SOL    HW214664   3.766   3.394   5.227
 4589SOL     OW14665   6.291   2.160   4.381
 4589SOL    HW114666   6.381   2.203   4.376
 4589SOL    HW214667   6.269   2.140   4.477
 4590SOL     OW14668   4.426   5.271   2.729
 4590SOL    HW114669   4.518   5.311   2.732
 4590SOL    HW214670   4.431   5.174   2.755
 4591SOL     OW14671   5.368   5.786   5.504
 4591SOL    HW114672   5.363   5.722   5.581
 4591SOL    HW214673   5.461   5.823   5.497
 4592SOL     OW14674   3.980   2.506   6.621
 4592SOL    HW114675   3.898   2.563   6.622
 4592SOL    HW214676   3.987   2.457   6.708
 4593SOL     OW14677   3.809   6.539   2.589
 4593SOL    HW114678   3.719   6.552   2.549
 4593SOL    HW214679   3.842   6.447   2.570
 4594SOL     OW14680   2.223   1.497   2.109
 4594SOL    HW114681   2.152   1.517   2.041
 4594SOL    HW214682   2.270   1.413   2.084
 4595SOL     OW14683   4.300   3.082   6.650
 4595SOL    HW114684   4.374   3.035   6.602
 4595SOL    HW214685   4.247   3.015   6.703
 4596SOL     OW14686   5.721   0.084   1.776
 4596SOL    HW114687   5.754   0.073   1.870
 4596SOL    HW214688   5.771   0.159   1.732
 4597SOL     OW14689   5.324   3.962   6.532
 4597SOL    HW114690   5.321   3.875   6.580
 4597SOL    HW214691   5.378   4.028   6.585
 4598SOL     OW14692   2.381   5.441   6.898
 4598SOL    HW114693   2.355   5.469   6.805
 4598SOL    HW214694   2.303   5.397   6.942
 4599SOL     OW14695   1.579   4.711   1.504
 4599SOL    HW114696   1.586   4.776   1.428
 4599SOL    HW214697   1.661   4.655   1.508
 4600SOL     OW14698   3.137   5.696   0.627
 4600SOL    HW114699   3.070   5.679   0.699
 4600SOL    HW214700   3.090   5.729   0.545
 4601SOL     OW14701   1.966   0.341   5.231
 4601SOL    HW114702   1.948   0.320   5.327
 4601SOL    HW214703   1.971   0.441   5.220
 4602SOL     OW14704   1.327   0.124   2.266
 4602SOL    HW114705   1.354   0.034   2.233
 4602SOL    HW214706   1.334   0.127   2.366
 4603SOL     OW14707   3.188   6.706   1.249
 4603SOL    HW114708   3.128   6.754   1.184
 4603SOL    HW214709   3.262   6.767   1.277
 4604SOL     OW14710   3.288   0.114   1.942
 4604SOL    HW114711   3.297   0.129   2.040
 4604SOL    HW214712   3.309   0.199   1.893
 4605SOL     OW14713   5.155   0.328   4.719
 4605SOL    HW114714   5.079   0.391   4.737
 4605SOL    HW214715   5.172   0.323   4.621
 4606SOL     OW14716   6.505   6.279   5.141
 4606SOL    HW114717   6.480   6.364   5.096
 4606SOL    HW214718   6.585   6.239   5.097
 4607SOL     OW14719   3.395   1.515   1.590
 4607SOL    HW114720   3.348   1.597   1.559
 4607SOL    HW214721   3.330   1.453   1.633
 4608SOL     OW14722   1.960   3.954   5.709
 4608SOL    HW114723   1.910   4.010   5.642
 4608SOL    HW214724   2.048   3.927   5.669
 4609SOL     OW14725   4.757   6.543   0.134
 4609SOL    HW114726   4.666   6.510   0.159
 4609SOL    HW214727   4.791   6.491   0.056
 4610SOL     OW14728   0.238   3.120   6.378
 4610SOL    HW114729   0.175   3.182   6.423
 4610SOL    HW214730   0.317   3.171   6.343
 4611SOL     OW14731   0.676   4.078   0.084
 4611SOL    HW114732   0.686   4.115   0.176
 4611SOL    HW214733   0.682   4.153   0.018
 4612SOL     OW14734   2.299   6.803   6.675
 4612SOL    HW114735   2.296   6.789   6.774
 4612SOL    HW214736   2.393   6.798   6.643
 4613SOL     OW14737   3.126   5.492   2.263
 4613SOL    HW114738   3.181   5.542   2.330
 4613SOL    HW214739   3.056   5.437   2.310
 4614SOL     OW14740   1.626   5.481   0.299
 4614SOL    HW114741   1.574   5.454   0.219
 4614SOL    HW214742   1.723   5.463   0.283
 4615SOL     OW14743   1.501   2.335   0.184
 4615SOL    HW114744   1.456   2.382   0.108
 4615SOL    HW214745   1.492   2.390   0.267
 4616SOL     OW14746   5.567   1.193   6.167
 4616SOL    HW114747   5.474   1.182   6.202
 4616SOL    HW214748   5.590   1.290   6.162
 4617SOL     OW14749   0.374   2.417   1.607
 4617SOL    HW114750   0.291   2.367   1.632
 4617SOL    HW214751   0.454   2.365   1.639
 4618SOL     OW14752   1.324   2.113   6.249
 4618SOL    HW114753   1.268   2.102   6.331
 4618SOL    HW214754   1.288   2.188   6.194
 4619SOL     OW14755   4.128   0.649   3.236
 4619SOL    HW114756   4.111   0.747   3.225
 4619SOL    HW214757   4.055   0.609   3.291
 4620SOL     OW14758   2.715   4.386   6.464
 4620SOL    HW114759   2.681   4.315   6.401
 4620SOL    HW214760   2.808   4.411   6.439
 4621SOL     OW14761   0.770   0.208   5.279
 4621SOL    HW114762   0.763   0.226   5.181
 4621SOL    HW214763   0.699   0.143   5.306
 4622SOL     OW14764   1.460   3.865   0.585
 4622SOL    HW114765   1.532   3.802   0.554
 4622SOL    HW214766   1.480   3.895   0.678
 4623SOL     OW14767   6.936   5.110   1.649
 4623SOL    HW114768   6.935   5.197   1.699
 4623SOL    HW214769   6.939   5.128   1.551
 4624SOL     OW14770   5.150   0.220   4.141
 4624SOL    HW114771   5.083   0.148   4.124
 4624SOL    HW214772   5.236   0.179   4.171
 4625SOL     OW14773   1.155   4.028   6.582
 4625SOL    HW114774   1.110   3.955   6.532
 4625SOL    HW214775   1.228   4.068   6.526
 4626SOL     OW14776   6.734   5.102   0.967
 4626SOL    HW114777   6.797   5.132   0.895
 4626SOL    HW214778   6.762   5.012   1.001
 4627SOL     OW14779   3.481   5.930   5.691
 4627SOL    HW114780   3.495   5.950   5.594
 4627SOL    HW214781   3.510   5.837   5.711
 4628SOL     OW14782   6.824   4.462   1.975
 4628SOL    HW114783   6.766   4.439   2.054
 4628SOL    HW214784   6.838   4.380   1.919
 4629SOL     OW14785   2.131   4.554   5.405
 4629SOL    HW114786   2.075   4.547   5.323
 4629SOL    HW214787   2.080   4.519   5.483
 4630SOL     OW14788   2.535   5.798   2.857
 4630SOL    HW114789   2.550   5.699   2.862
 4630SOL    HW214790   2.607   5.845   2.908
 4631SOL     OW14791   2.848   6.436   2.655
 4631SOL    HW114792   2.925   6.500   2.657
 4631SOL    HW214793   2.762   6.486   2.667
 4632SOL     OW14794   5.026   5.449   4.416
 4632SOL    HW114795   4.979   5.392   4.348
 4632SOL    HW214796   4.973   5.531   4.433
 4633SOL     OW14797   6.700   1.965   4.263
 4633SOL    HW114798   6.674   2.049   4.311
 4633SOL    HW214799   6.619   1.924   4.221
 4634SOL     OW14800   3.140   4.854   0.750
 4634SOL    HW114801   3.092   4.767   0.764
 4634SOL    HW214802   3.148   4.902   0.837
 4635SOL     OW14803   5.117   3.228   2.192
 4635SOL    HW114804   5.027   3.205   2.228
 4635SOL    HW214805   5.118   3.217   2.093
 4636SOL     OW14806   3.132   5.402   0.477
 4636SOL    HW114807   3.097   5.440   0.563
 4636SOL    HW214808   3.077   5.322   0.451
 4637SOL     OW14809   1.280   1.065   5.339
 4637SOL    HW114810   1.279   0.966   5.328
 4637SOL    HW214811   1.359   1.092   5.395
 4638SOL     OW14812   4.859   3.186   5.805
 4638SOL    HW114813   4.783   3.251   5.813
 4638SOL    HW214814   4.935   3.217   5.861
 4639SOL     OW14815   0.335   3.774   5.851
 4639SOL    HW114816   0.307   3.681   5.874
 4639SOL    HW214817   0.413   3.801   5.907
 4640SOL     OW14818   5.625   4.219   2.887
 4640SOL    HW114819   5.568   4.276   2.945
 4640SOL    HW214820   5.638   4.264   2.798
 4641SOL     OW14821   2.350   4.932   4.560
 4641SOL    HW114822   2.272   4.870   4.555
 4641SOL    HW214823   2.410   4.903   4.635
 4642SOL     OW14824   6.137   5.932   4.381
 4642SOL    HW114825   6.172   5.970   4.467
 4642SOL    HW214826   6.213   5.912   4.320
 4643SOL     OW14827   3.953   2.256   1.796
 4643SOL    HW114828   3.992   2.348   1.797
 4643SOL    HW214829   3.862   2.257   1.838
 4644SOL     OW14830   1.872   6.134   4.809
 4644SOL    HW114831   1.899   6.143   4.905
 4644SOL    HW214832   1.824   6.216   4.780
 4645SOL     OW14833   2.112   6.233   4.656
 4645SOL    HW114834   2.029   6.182   4.678
 4645SOL    HW214835   2.192   6.182   4.688
 4646SOL     OW14836   3.240   0.667   1.918
 4646SOL    HW114837   3.305   0.675   1.994
 4646SOL    HW214838   3.176   0.593   1.937
 4647SOL     OW14839   6.124   0.464   4.265
 4647SOL    HW114840   6.101   0.450   4.169
 4647SOL    HW214841   6.049   0.429   4.322
 4648SOL     OW14842   2.347   5.734   2.660
 4648SOL    HW114843   2.421   5.767   2.719
 4648SOL    HW214844   2.291   5.669   2.710
 4649SOL     OW14845   5.046   0.525   5.370
 4649SOL    HW114846   4.981   0.467   5.419
 4649SOL    HW214847   4.999   0.604   5.332
 4650SOL     OW14848   5.023   5.143   2.442
 4650SOL    HW114849   4.973   5.079   2.383
 4650SOL    HW214850   5.106   5.174   2.395
 4651SOL     OW14851   0.361   2.221   1.921
 4651SOL    HW114852   0.403   2.181   1.839
 4651SOL    HW214853   0.270   2.256   1.899
 4652SOL     OW14854   6.920   6.865   5.674
 4652SOL    HW114855   6.903   6.904   5.583
 4652SOL    HW214856   7.015   6.882   5.700
 4653SOL     OW14857   0.194   6.237   6.801
 4653SOL    HW114858   0.260   6.276   6.736
 4653SOL    HW214859   0.142   6.311   6.843
 4654SOL     OW14860   1.215   0.387   7.003
 4654SOL    HW114861   1.199   0.469   0.039
 4654SOL    HW214862   1.200   0.306   0.042
 4655SOL     OW14863   0.472   4.492   3.187
 4655SOL    HW114864   0.412   4.493   3.267
 4655SOL    HW214865   0.555   4.544   3.207
 4656SOL     OW14866   1.377   0.513   3.781
 4656SOL    HW114867   1.467   0.470   3.777
 4656SOL    HW214868   1.384   0.608   3.752
 4657SOL     OW14869   5.264   7.005   1.119
 4657SOL    HW114870   5.318   6.998   1.036
 4657SOL    HW214871   5.182   6.949   1.111
 4658SOL     OW14872   4.838   0.357   2.789
 4658SOL    HW114873   4.785   0.427   2.838
 4658SOL    HW214874   4.832   0.374   2.691
 4659SOL     OW14875   2.081   2.590   4.819
 4659SOL    HW114876   2.141   2.596   4.739
 4659SOL    HW214877   2.017   2.667   4.819
 4660SOL     OW14878   0.086   1.252   5.975
 4660SOL    HW114879   0.072   1.329   6.038
 4660SOL    HW214880   0.135   1.284   5.894
 4661SOL     OW14881   3.259   3.724   3.833
 4661SOL    HW114882   3.274   3.640   3.780
 4661SOL    HW214883   3.161   3.741   3.842
 4662SOL     OW14884   4.857   0.371   5.486
 4662SOL    HW114885   4.782   0.437   5.489
 4662SOL    HW214886   4.827   0.289   5.436
 4663SOL     OW14887   0.088   2.246   2.284
 4663SOL    HW114888   0.035   2.194   2.352
 4663SOL    HW214889   0.030   2.265   2.205
 4664SOL     OW14890   3.600   2.517   0.307
 4664SOL    HW114891   3.522   2.573   0.281
 4664SOL    HW214892   3.626   2.538   0.402
 4665SOL     OW14893   5.044   0.089   7.002
 4665SOL    HW114894   5.048   0.180   0.025
 4665SOL    HW214895   4.969   0.037   0.024
 4666SOL     OW14896   2.337   1.299   0.825
 4666SOL    HW114897   2.285   1.291   0.740
 4666SOL    HW214898   2.315   1.222   0.886
 4667SOL     OW14899   0.021   5.165   6.481
 4667SOL    HW114900   0.076   5.105   6.539
 4667SOL    HW214901   0.030   5.137   6.386
 4668SOL     OW14902   6.403   1.547   4.161
 4668SOL    HW114903   6.371   1.597   4.242
 4668SOL    HW214904   6.417   1.451   4.185
 4669SOL     OW14905   1.157   0.239   0.558
 4669SOL    HW114906   1.214   0.314   0.526
 4669SOL    HW214907   1.064   0.249   0.521
 4670SOL     OW14908   2.681   2.096   4.277
 4670SOL    HW114909   2.592   2.121   4.314
 4670SOL    HW214910   2.740   2.062   4.351
 4671SOL     OW14911   5.339   3.524   1.747
 4671SOL    HW114912   5.434   3.494   1.755
 4671SOL    HW214913   5.317   3.538   1.651
 4672SOL     OW14914   2.012   3.939   6.575
 4672SOL    HW114915   2.056   4.012   6.523
 4672SOL    HW214916   1.992   3.972   6.668
 4673SOL     OW14917   3.794   1.218   2.388
 4673SOL    HW114918   3.865   1.280   2.421
 4673SOL    HW214919   3.735   1.191   2.463
 4674SOL     OW14920   4.394   5.648   4.882
 4674SOL    HW114921   4.396   5.711   4.960
 4674SOL    HW214922   4.488   5.631   4.852
 4675SOL     OW14923   0.926   4.071   0.268
 4675SOL    HW114924   0.849   4.055   0.207
 4675SOL    HW214925   0.896   4.124   0.348
 4676SOL     OW14926   1.400   5.444   3.310
 4676SOL    HW114927   1.301   5.443   3.292
 4676SOL    HW214928   1.427   5.357   3.351
 4677SOL     OW14929   1.713   2.883   0.294
 4677SOL    HW114930   1.798   2.885   0.345
 4677SOL    HW214931   1.707   2.797   0.243
 4678SOL     OW14932   2.042   4.734   2.914
 4678SOL    HW114933   2.055   4.686   3.002
 4678SOL    HW214934   1.967   4.691   2.864
 4679SOL     OW14935   5.082   0.081   1.655
 4679SOL    HW114936   5.015   0.152   1.634
 4679SOL    HW214937   5.035   7.016   1.686
 4680SOL     OW14938   2.376   1.245   1.640
 4680SOL    HW114939   2.324   1.237   1.555
 4680SOL    HW214940   2.451   1.178   1.639
 4681SOL     OW14941   5.608   4.119   1.572
 4681SOL    HW114942   5.526   4.076   1.535
 4681SOL    HW214943   5.594   4.140   1.669
 4682SOL     OW14944   4.164   3.474   6.428
 4682SOL    HW114945   4.221   3.399   6.463
 4682SOL    HW214946   4.207   3.561   6.452
 4683SOL     OW14947   6.218   4.162   3.773
 4683SOL    HW114948   6.235   4.125   3.864
 4683SOL    HW214949   6.258   4.102   3.704
 4684SOL     OW14950   4.323   6.131   6.998
 4684SOL    HW114951   4.274   6.086   0.054
 4684SOL    HW214952   4.420   6.106   7.003
 4685SOL     OW14953   2.873   3.524   5.746
 4685SOL    HW114954   2.908   3.563   5.831
 4685SOL    HW214955   2.950   3.499   5.687
 4686SOL     OW14956   2.750   5.907   0.340
 4686SOL    HW114957   2.745   6.001   0.307
 4686SOL    HW214958   2.679   5.893   0.410
 4687SOL     OW14959   3.016   0.820   2.707
 4687SOL    HW114960   3.029   0.787   2.614
 4687SOL    HW214961   3.039   0.747   2.772
 4688SOL     OW14962   5.633   3.052   5.904
 4688SOL    HW114963   5.577   3.089   5.979
 4688SOL    HW214964   5.730   3.063   5.927
 4689SOL     OW14965   5.521   0.753   0.618
 4689SOL    HW114966   5.483   0.794   0.535
 4689SOL    HW214967   5.473   0.668   0.638
 4690SOL     OW14968   2.623   1.228   0.714
 4690SOL    HW114969   2.592   1.164   0.644
 4690SOL    HW214970   2.603   1.190   0.805
 4691SOL     OW14971   6.051   4.997   0.881
 4691SOL    HW114972   6.133   4.962   0.926
 4691SOL    HW214973   6.077   5.058   0.806
 4692SOL     OW14974   6.611   4.268   2.995
 4692SOL    HW114975   6.635   4.322   2.915
 4692SOL    HW214976   6.511   4.270   3.007
 4693SOL     OW14977   2.058   0.872   3.805
 4693SOL    HW114978   2.050   0.920   3.717
 4693SOL    HW214979   1.978   0.814   3.818
 4694SOL     OW14980   2.562   1.436   0.395
 4694SOL    HW114981   2.582   1.457   0.491
 4694SOL    HW214982   2.648   1.418   0.347
 4695SOL     OW14983   1.153   5.787   1.257
 4695SOL    HW114984   1.234   5.765   1.202
 4695SOL    HW214985   1.174   5.772   1.354
 4696SOL     OW14986   1.056   5.249   6.391
 4696SOL    HW114987   1.023   5.174   6.334
 4696SOL    HW214988   1.040   5.336   6.344
 4697SOL     OW14989   2.742   4.738   0.957
 4697SOL    HW114990   2.776   4.749   1.050
 4697SOL    HW214991   2.732   4.828   0.914
 4698SOL     OW14992   4.693   0.933   3.112
 4698SOL    HW114993   4.707   0.839   3.141
 4698SOL    HW214994   4.620   0.936   3.044
 4699SOL     OW14995   0.727   0.391   2.267
 4699SOL    HW114996   0.749   0.406   2.364
 4699SOL    HW214997   0.654   0.323   2.260
 4700SOL     OW14998   5.932   2.096   2.824
 4700SOL    HW114999   5.963   2.033   2.895
 4700SOL    HW215000   5.838   2.074   2.797
 4701SOL     OW15001   3.196   1.687   1.768
 4701SOL    HW115002   3.167   1.757   1.703
 4701SOL    HW215003   3.121   1.669   1.833
 4702SOL     OW15004   5.555   5.112   6.335
 4702SOL    HW115005   5.534   5.030   6.281
 4702SOL    HW215006   5.477   5.134   6.393
 4703SOL     OW15007   1.124   4.609   3.270
 4703SOL    HW115008   1.091   4.672   3.339
 4703SOL    HW215009   1.219   4.631   3.247
 4704SOL     OW15010   0.526   5.218   5.498
 4704SOL    HW115011   0.530   5.301   5.554
 4704SOL    HW215012   0.558   5.240   5.406
 4705SOL     OW15013   3.238   2.770   1.877
 4705SOL    HW115014   3.193   2.819   1.952
 4705SOL    HW215015   3.170   2.716   1.827
 4706SOL     OW15016   1.269   0.892   0.416
 4706SOL    HW115017   1.298   0.798   0.399
 4706SOL    HW215018   1.349   0.952   0.421
 4707SOL     OW15019   1.085   0.274   1.647
 4707SOL    HW115020   1.024   0.319   1.713
 4707SOL    HW215021   1.065   0.308   1.555
 4708SOL     OW15022   0.609   2.638   4.028
 4708SOL    HW115023   0.693   2.624   4.081
 4708SOL    HW215024   0.599   2.566   3.960
 4709SOL     OW15025   4.544   4.055   5.278
 4709SOL    HW115026   4.618   4.116   5.304
 4709SOL    HW215027   4.552   3.969   5.329
 4710SOL     OW15028   5.562   6.307   4.182
 4710SOL    HW115029   5.528   6.300   4.088
 4710SOL    HW215030   5.562   6.216   4.224
 4711SOL     OW15031   6.147   3.089   3.169
 4711SOL    HW115032   6.051   3.068   3.187
 4711SOL    HW215033   6.161   3.105   3.072
 4712SOL     OW15034   4.267   4.178   5.284
 4712SOL    HW115035   4.282   4.259   5.227
 4712SOL    HW215036   4.336   4.109   5.262
 4713SOL     OW15037   5.842   4.347   1.173
 4713SOL    HW115038   5.854   4.330   1.270
 4713SOL    HW215039   5.745   4.357   1.152
 4714SOL     OW15040   6.583   0.972   6.173
 4714SOL    HW115041   6.669   0.959   6.125
 4714SOL    HW215042   6.573   0.902   6.244
 4715SOL     OW15043   6.118   2.073   1.751
 4715SOL    HW115044   6.064   2.005   1.801
 4715SOL    HW215045   6.080   2.087   1.660
 4716SOL     OW15046   3.687   4.461   5.616
 4716SOL    HW115047   3.721   4.482   5.524
 4716SOL    HW215048   3.603   4.408   5.609
 4717SOL     OW15049   3.192   4.763   5.535
 4717SOL    HW115050   3.230   4.852   5.512
 4717SOL    HW215051   3.101   4.775   5.575
 4718SOL     OW15052   5.575   4.387   1.467
 4718SOL    HW115053   5.619   4.382   1.557
 4718SOL    HW215054   5.546   4.296   1.438
 4719SOL     OW15055   6.471   3.402   3.552
 4719SOL    HW115056   6.395   3.390   3.616
 4719SOL    HW215057   6.539   3.330   3.567
 4720SOL     OW15058   2.841   4.387   6.875
 4720SOL    HW115059   2.921   4.444   6.855
 4720SOL    HW215060   2.834   4.314   6.808
 4721SOL     OW15061   6.538   3.601   2.509
 4721SOL    HW115062   6.454   3.627   2.463
 4721SOL    HW215063   6.550   3.502   2.503
 4722SOL     OW15064   1.019   4.290   6.282
 4722SOL    HW115065   0.978   4.381   6.270
 4722SOL    HW215066   0.950   4.226   6.314
 4723SOL     OW15067   3.898   4.045   6.475
 4723SOL    HW115068   3.815   4.029   6.528
 4723SOL    HW215069   3.935   3.957   6.442
 4724SOL     OW15070   0.697   6.524   4.206
 4724SOL    HW115071   0.784   6.473   4.206
 4724SOL    HW215072   0.673   6.548   4.112
 4725SOL     OW15073   6.149   5.427   0.683
 4725SOL    HW115074   6.145   5.495   0.756
 4725SOL    HW215075   6.158   5.473   0.595
 4726SOL     OW15076   1.870   3.006   5.738
 4726SOL    HW115077   1.913   3.064   5.807
 4726SOL    HW215078   1.794   3.057   5.695
 4727SOL     OW15079   1.097   5.710   0.205
 4727SOL    HW115080   1.075   5.620   0.166
 4727SOL    HW215081   1.050   5.781   0.154
 4728SOL     OW15082   6.008   0.940   3.972
 4728SOL    HW115083   5.945   0.952   4.049
 4728SOL    HW215084   6.101   0.926   4.008
 4729SOL     OW15085   6.211   0.772   0.644
 4729SOL    HW115086   6.304   0.767   0.680
 4729SOL    HW215087   6.212   0.750   0.546
 4730SOL     OW15088   3.230   0.058   4.777
 4730SOL    HW115089   3.179   6.991   4.785
 4730SOL    HW215090   3.284   0.073   4.859
 4731SOL     OW15091   3.023   0.420   0.709
 4731SOL    HW115092   3.044   0.329   0.744
 4731SOL    HW215093   2.978   0.474   0.781
 4732SOL     OW15094   6.869   3.656   4.536
 4732SOL    HW115095   6.803   3.592   4.497
 4732SOL    HW215096   6.882   3.635   4.633
 4733SOL     OW15097   2.161   3.343   3.105
 4733SOL    HW115098   2.169   3.432   3.060
 4733SOL    HW215099   2.134   3.356   3.200
 4734SOL     OW15100   4.928   3.950   6.426
 4734SOL    HW115101   4.932   4.018   6.499
 4734SOL    HW215102   5.021   3.927   6.397
 4735SOL     OW15103   0.152   6.466   4.828
 4735SOL    HW115104   0.244   6.470   4.867
 4735SOL    HW215105   0.155   6.492   4.732
 4736SOL     OW15106   6.515   2.082   3.039
 4736SOL    HW115107   6.491   2.068   2.943
 4736SOL    HW215108   6.433   2.076   3.095
 4737SOL     OW15109   2.053   4.895   1.154
 4737SOL    HW115110   2.058   4.926   1.249
 4737SOL    HW215111   2.010   4.804   1.151
 4738SOL     OW15112   2.141   0.198   3.722
 4738SOL    HW115113   2.240   0.205   3.735
 4738SOL    HW215114   2.100   0.288   3.735
 4739SOL     OW15115   5.790   3.542   4.377
 4739SOL    HW115116   5.769   3.566   4.282
 4739SOL    HW215117   5.705   3.526   4.427
 4740SOL     OW15118   0.128   1.144   1.512
 4740SOL    HW115119   0.119   1.235   1.471
 4740SOL    HW215120   0.172   1.152   1.601
 4741SOL     OW15121   4.563   4.804   1.489
 4741SOL    HW115122   4.471   4.765   1.480
 4741SOL    HW215123   4.570   4.853   1.576
 4742SOL     OW15124   2.666   5.805   1.208
 4742SOL    HW115125   2.644   5.746   1.285
 4742SOL    HW215126   2.764   5.823   1.205
 4743SOL     OW15127   2.031   1.863   0.007
 4743SOL    HW115128   1.996   1.830   6.937
 4743SOL    HW215129   1.961   1.850   0.077
 4744SOL     OW15130   2.043   3.592   5.699
 4744SOL    HW115131   2.078   3.664   5.639
 4744SOL    HW215132   2.047   3.504   5.651
 4745SOL     OW15133   3.602   5.408   4.837
 4745SOL    HW115134   3.697   5.420   4.864
 4745SOL    HW215135   3.590   5.319   4.792
 4746SOL     OW15136   6.763   6.488   0.931
 4746SOL    HW115137   6.675   6.536   0.934
 4746SOL    HW215138   6.808   6.496   1.020
 4747SOL     OW15139   6.661   2.153   0.575
 4747SOL    HW115140   6.584   2.176   0.515
 4747SOL    HW215141   6.633   2.085   0.642
 4748SOL     OW15142   1.045   0.773   1.268
 4748SOL    HW115143   1.117   0.818   1.215
 4748SOL    HW215144   1.061   0.788   1.365
 4749SOL     OW15145   2.404   6.763   0.179
 4749SOL    HW115146   2.442   6.764   0.272
 4749SOL    HW215147   2.413   6.854   0.138
 4750SOL     OW15148   7.005   0.802   4.395
 4750SOL    HW115149   0.008   0.719   4.343
 4750SOL    HW215150   0.068   0.861   4.396
 4751SOL     OW15151   1.726   4.639   6.184
 4751SOL    HW115152   1.762   4.572   6.120
 4751SOL    HW215153   1.630   4.657   6.164
 4752SOL     OW15154   2.882   6.171   1.845
 4752SOL    HW115155   2.904   6.145   1.751
 4752SOL    HW215156   2.961   6.154   1.904
 4753SOL     OW15157   5.650   6.615   5.065
 4753SOL    HW115158   5.700   6.543   5.114
 4753SOL    HW215159   5.641   6.588   4.969
 4754SOL     OW15160   0.229   0.472   5.753
 4754SOL    HW115161   0.185   0.418   5.824
 4754SOL    HW215162   0.167   0.481   5.675
 4755SOL     OW15163   2.503   1.349   6.166
 4755SOL    HW115164   2.416   1.370   6.121
 4755SOL    HW215165   2.501   1.384   6.259
 4756SOL     OW15166   4.607   2.849   1.441
 4756SOL    HW115167   4.645   2.769   1.394
 4756SOL    HW215168   4.566   2.911   1.373
 4757SOL     OW15169   2.248   2.109   1.857
 4757SOL    HW115170   2.336   2.073   1.827
 4757SOL    HW215171   2.208   2.048   1.924
 4758SOL     OW15172   4.860   5.291   5.227
 4758SOL    HW115173   4.948   5.282   5.180
 4758SOL    HW215174   4.856   5.225   5.303
 4759SOL     OW15175   5.499   5.524   6.246
 4759SOL    HW115176   5.577   5.496   6.303
 4759SOL    HW215177   5.531   5.543   6.153
 4760SOL     OW15178   2.043   1.057   1.706
 4760SOL    HW115179   2.048   1.044   1.805
 4760SOL    HW215180   2.016   1.152   1.686
 4761SOL     OW15181   6.612   6.804   6.513
 4761SOL    HW115182   6.680   6.763   6.453
 4761SOL    HW215183   6.597   6.899   6.487
 4762SOL     OW15184   2.469   5.469   2.004
 4762SOL    HW115185   2.517   5.459   1.917
 4762SOL    HW215186   2.396   5.536   1.995
 4763SOL     OW15187   5.958   6.387   3.329
 4763SOL    HW115188   6.027   6.415   3.262
 4763SOL    HW215189   5.942   6.462   3.394
 4764SOL     OW15190   4.005   3.687   4.986
 4764SOL    HW115191   4.019   3.759   4.918
 4764SOL    HW215192   4.051   3.604   4.956
 4765SOL     OW15193   4.847   5.893   4.825
 4765SOL    HW115194   4.913   5.818   4.818
 4765SOL    HW215195   4.850   5.948   4.741
 4766SOL     OW15196   2.545   6.970   3.407
 4766SOL    HW115197   2.596   6.909   3.347
 4766SOL    HW215198   2.521   6.922   3.491
 4767SOL     OW15199   4.344   6.615   6.731
 4767SOL    HW115200   4.259   6.649   6.772
 4767SOL    HW215201   4.392   6.691   6.687
 4768SOL     OW15202   6.018   0.371   4.539
 4768SOL    HW115203   6.095   0.349   4.598
 4768SOL    HW215204   6.019   0.469   4.519
 4769SOL     OW15205   4.176   6.505   1.788
 4769SOL    HW115206   4.187   6.446   1.869
 4769SOL    HW215207   4.098   6.566   1.802
 4770SOL     OW15208   2.592   0.546   2.958
 4770SOL    HW115209   2.533   0.592   3.023
 4770SOL    HW215210   2.557   0.454   2.940
 4771SOL     OW15211   3.791   4.084   5.751
 4771SOL    HW115212   3.749   4.048   5.667
 4771SOL    HW215213   3.800   4.183   5.743
 4772SOL     OW15214   3.041   1.477   1.366
 4772SOL    HW115215   2.948   1.446   1.389
 4772SOL    HW215216   3.052   1.572   1.394
 4773SOL     OW15217   0.257   5.781   3.420
 4773SOL    HW115218   0.292   5.821   3.505
 4773SOL    HW215219   0.334   5.751   3.364
 4774SOL     OW15220   0.886   3.450   1.251
 4774SOL    HW115221   0.917   3.526   1.193
 4774SOL    HW215222   0.965   3.407   1.294
 4775SOL     OW15223   4.460   0.048   2.843
 4775SOL    HW115224   4.400   0.120   2.877
 4775SOL    HW215225   4.532   0.088   2.788
 4776SOL     OW15226   2.695   5.764   2.197
 4776SOL    HW115227   2.700   5.802   2.104
 4776SOL    HW215228   2.787   5.742   2.228
 4777SOL     OW15229   2.685   4.470   1.235
 4777SOL    HW115230   2.627   4.519   1.169
 4777SOL    HW215231   2.693   4.524   1.318
 4778SOL     OW15232   4.878   3.617   2.086
 4778SOL    HW115233   4.896   3.538   2.028
 4778SOL    HW215234   4.809   3.675   2.043
 4779SOL     OW15235   6.502   0.375   3.111
 4779SOL    HW115236   6.588   0.421   3.132
 4779SOL    HW215237   6.464   0.413   3.026
 4780SOL     OW15238   0.939   6.673   6.382
 4780SOL    HW115239   0.973   6.745   6.442
 4780SOL    HW215240   0.841   6.659   6.399
 4781SOL     OW15241   2.473   5.420   1.239
 4781SOL    HW115242   2.414   5.454   1.312
 4781SOL    HW215243   2.504   5.496   1.182
 4782SOL     OW15244   5.603   6.375   0.229
 4782SOL    HW115245   5.540   6.298   0.243
 4782SOL    HW215246   5.669   6.377   0.305
 4783SOL     OW15247   5.530   4.160   1.257
 4783SOL    HW115248   5.553   4.069   1.223
 4783SOL    HW215249   5.437   4.159   1.294
 4784SOL     OW15250   5.484   5.011   5.051
 4784SOL    HW115251   5.528   4.964   4.975
 4784SOL    HW215252   5.551   5.029   5.123
 4785SOL     OW15253   6.867   6.226   0.914
 4785SOL    HW115254   6.965   6.224   0.892
 4785SOL    HW215255   6.834   6.320   0.907
 4786SOL     OW15256   1.876   3.152   2.071
 4786SOL    HW115257   1.950   3.103   2.025
 4786SOL    HW215258   1.795   3.093   2.073
 4787SOL     OW15259   3.222   2.135   3.319
 4787SOL    HW115260   3.139   2.081   3.301
 4787SOL    HW215261   3.207   2.229   3.290
 4788SOL     OW15262   1.069   4.846   4.692
 4788SOL    HW115263   1.124   4.923   4.660
 4788SOL    HW215264   0.974   4.875   4.705
 4789SOL     OW15265   5.726   0.688   6.698
 4789SOL    HW115266   5.751   0.729   6.611
 4789SOL    HW215267   5.628   0.667   6.699
 4790SOL     OW15268   5.776   2.542   6.424
 4790SOL    HW115269   5.857   2.593   6.454
 4790SOL    HW215270   5.789   2.445   6.443
 4791SOL     OW15271   5.515   6.873   1.917
 4791SOL    HW115272   5.419   6.895   1.930
 4791SOL    HW215273   5.566   6.897   1.999
 4792SOL     OW15274   2.329   2.641   2.789
 4792SOL    HW115275   2.299   2.683   2.875
 4792SOL    HW215276   2.276   2.678   2.713
 4793SOL     OW15277   1.349   6.919   6.292
 4793SOL    HW115278   1.434   6.958   6.257
 4793SOL    HW215279   1.304   6.985   6.352
 4794SOL     OW15280   2.570   6.986   3.029
 4794SOL    HW115281   2.478   6.996   3.067
 4794SOL    HW215282   2.564   6.954   2.935
 4795SOL     OW15283   6.659   2.996   4.077
 4795SOL    HW115284   6.572   2.970   4.034
 4795SOL    HW215285   6.669   2.947   4.163
 4796SOL     OW15286   5.908   3.692   0.815
 4796SOL    HW115287   5.826   3.658   0.768
 4796SOL    HW215288   5.986   3.686   0.752
 4797SOL     OW15289   0.759   4.805   6.109
 4797SOL    HW115290   0.689   4.799   6.180
 4797SOL    HW215291   0.741   4.737   6.038
 4798SOL     OW15292   0.328   3.856   4.159
 4798SOL    HW115293   0.381   3.887   4.238
 4798SOL    HW215294   0.269   3.779   4.187
 4799SOL     OW15295   3.992   1.710   4.863
 4799SOL    HW115296   3.983   1.666   4.773
 4799SOL    HW215297   3.985   1.641   4.935
 4800SOL     OW15298   2.742   2.731   5.369
 4800SOL    HW115299   2.652   2.692   5.351
 4800SOL    HW215300   2.739   2.830   5.357
 4801SOL     OW15301   1.287   1.667   0.588
 4801SOL    HW115302   1.270   1.643   0.492
 4801SOL    HW215303   1.313   1.763   0.594
 4802SOL     OW15304   2.941   0.159   1.639
 4802SOL    HW115305   2.893   0.185   1.555
 4802SOL    HW215306   2.875   0.132   1.709
 4803SOL     OW15307   0.903   6.794   0.302
 4803SOL    HW115308   0.898   6.802   0.202
 4803SOL    HW215309   0.996   6.768   0.329
 4804SOL     OW15310   3.979   5.209   6.221
 4804SOL    HW115311   4.068   5.218   6.267
 4804SOL    HW215312   3.980   5.265   6.138
 4805SOL     OW15313   6.927   1.626   7.002
 4805SOL    HW115314   6.954   1.708   0.034
 4805SOL    HW215315   6.856   1.649   6.935
 4806SOL     OW15316   0.224   3.251   2.808
 4806SOL    HW115317   0.134   3.244   2.763
 4806SOL    HW215318   0.253   3.161   2.838
 4807SOL     OW15319   0.562   6.306   1.283
 4807SOL    HW115320   0.493   6.350   1.225
 4807SOL    HW215321   0.523   6.286   1.373
 4808SOL     OW15322   5.308   3.508   1.477
 4808SOL    HW115323   5.403   3.515   1.506
 4808SOL    HW215324   5.303   3.506   1.377
 4809SOL     OW15325   3.482   5.159   0.049
 4809SOL    HW115326   3.390   5.196   0.062
 4809SOL    HW215327   3.525   5.143   0.138
 4810SOL     OW15328   0.901   6.275   1.571
 4810SOL    HW115329   0.927   6.253   1.665
 4810SOL    HW215330   0.803   6.259   1.559
 4811SOL     OW15331   3.641   5.284   2.108
 4811SOL    HW115332   3.667   5.189   2.121
 4811SOL    HW215333   3.551   5.289   2.067
 4812SOL     OW15334   0.186   5.445   4.251
 4812SOL    HW115335   0.273   5.431   4.300
 4812SOL    HW215336   0.168   5.366   4.193
 4813SOL     OW15337   4.973   1.815   2.437
 4813SOL    HW115338   5.000   1.782   2.346
 4813SOL    HW215339   4.947   1.911   2.431
 4814SOL     OW15340   0.130   3.910   1.058
 4814SOL    HW115341   0.211   3.868   1.018
 4814SOL    HW215342   0.129   4.008   1.035
 4815SOL     OW15343   4.944   5.625   1.487
 4815SOL    HW115344   4.956   5.526   1.499
 4815SOL    HW215345   4.883   5.641   1.409
 4816SOL     OW15346   5.221   5.298   2.784
 4816SOL    HW115347   5.208   5.200   2.774
 4816SOL    HW215348   5.178   5.329   2.869
 4817SOL     OW15349   1.592   2.334   6.006
 4817SOL    HW115350   1.544   2.253   5.973
 4817SOL    HW215351   1.534   2.414   5.995
 4818SOL     OW15352   6.932   6.702   3.762
 4818SOL    HW115353   6.863   6.631   3.743
 4818SOL    HW215354   6.886   6.790   3.773
 4819SOL     OW15355   1.552   3.256   6.894
 4819SOL    HW115356   1.497   3.287   6.817
 4819SOL    HW215357   1.502   3.273   6.979
 4820SOL     OW15358   6.912   3.090   1.935
 4820SOL    HW115359   6.850   3.098   2.013
 4820SOL    HW215360   6.954   3.179   1.916
 4821SOL     OW15361   6.701   5.803   2.645
 4821SOL    HW115362   6.785   5.791   2.699
 4821SOL    HW215363   6.644   5.721   2.654
 4822SOL     OW15364   1.402   3.980   4.564
 4822SOL    HW115365   1.410   3.885   4.593
 4822SOL    HW215366   1.308   3.999   4.537
 4823SOL     OW15367   1.714   2.499   2.091
 4823SOL    HW115368   1.651   2.457   2.157
 4823SOL    HW215369   1.808   2.478   2.119
 4824SOL     OW15370   5.779   0.934   5.093
 4824SOL    HW115371   5.719   1.013   5.111
 4824SOL    HW215372   5.784   0.919   4.994
 4825SOL     OW15373   1.740   0.096   3.954
 4825SOL    HW115374   1.836   0.113   3.935
 4825SOL    HW215375   1.732   0.022   4.021
 4826SOL     OW15376   4.673   0.280   1.413
 4826SOL    HW115377   4.707   0.366   1.375
 4826SOL    HW215378   4.631   0.297   1.502
 4827SOL     OW15379   6.786   1.940   1.166
 4827SOL    HW115380   6.801   1.876   1.242
 4827SOL    HW215381   6.874   1.976   1.135
 4828SOL     OW15382   4.596   0.938   2.222
 4828SOL    HW115383   4.515   0.954   2.278
 4828SOL    HW215384   4.654   1.020   2.224
 4829SOL     OW15385   3.540   0.129   5.419
 4829SOL    HW115386   3.549   0.118   5.320
 4829SOL    HW215387   3.612   0.188   5.453
 4830SOL     OW15388   3.279   5.846   3.749
 4830SOL    HW115389   3.332   5.839   3.665
 4830SOL    HW215390   3.202   5.909   3.735
 4831SOL     OW15391   3.407   5.042   6.509
 4831SOL    HW115392   3.381   4.947   6.491
 4831SOL    HW215393   3.402   5.059   6.608
 4832SOL     OW15394   3.116   3.120   3.863
 4832SOL    HW115395   3.191   3.172   3.822
 4832SOL    HW215396   3.030   3.170   3.850
 4833SOL     OW15397   0.287   2.855   3.989
 4833SOL    HW115398   0.271   2.905   4.074
 4833SOL    HW215399   0.215   2.876   3.923
 4834SOL     OW15400   1.981   4.837   1.666
 4834SOL    HW115401   1.966   4.934   1.681
 4834SOL    HW215402   1.904   4.784   1.702
 4835SOL     OW15403   6.904   2.359   5.044
 4835SOL    HW115404   6.956   2.409   5.114
 4835SOL    HW215405   6.938   2.384   4.953
 4836SOL     OW15406   4.820   1.359   5.220
 4836SOL    HW115407   4.872   1.288   5.268
 4836SOL    HW215408   4.736   1.319   5.184
 4837SOL     OW15409   6.887   3.579   4.792
 4837SOL    HW115410   6.940   3.501   4.824
 4837SOL    HW215411   6.852   3.630   4.870
 4838SOL     OW15412   1.164   4.637   6.500
 4838SOL    HW115413   1.189   4.636   6.404
 4838SOL    HW215414   1.246   4.622   6.556
 4839SOL     OW15415   2.356   1.719   0.068
 4839SOL    HW115416   2.277   1.675   0.109
 4839SOL    HW215417   2.331   1.811   0.036
 4840SOL     OW15418   5.516   3.555   5.009
 4840SOL    HW115419   5.508   3.457   4.990
 4840SOL    HW215420   5.603   3.589   4.975
 4841SOL     OW15421   3.150   5.406   3.092
 4841SOL    HW115422   3.165   5.374   3.185
 4841SOL    HW215423   3.079   5.475   3.091
 4842SOL     OW15424   2.990   5.618   3.191
 4842SOL    HW115425   2.969   5.541   3.251
 4842SOL    HW215426   2.912   5.638   3.132
 4843SOL     OW15427   0.487   2.619   2.518
 4843SOL    HW115428   0.388   2.602   2.519
 4843SOL    HW215429   0.536   2.533   2.534
 4844SOL     OW15430   0.975   5.758   4.657
 4844SOL    HW115431   0.950   5.731   4.750
 4844SOL    HW215432   1.054   5.703   4.627
 4845SOL     OW15433   4.850   3.860   4.932
 4845SOL    HW115434   4.837   3.763   4.953
 4845SOL    HW215435   4.811   3.916   5.005
 4846SOL     OW15436   0.090   3.587   5.369
 4846SOL    HW115437   0.147   3.607   5.290
 4846SOL    HW215438   0.128   3.632   5.450
 4847SOL     OW15439   2.286   6.722   6.314
 4847SOL    HW115440   2.333   6.668   6.384
 4847SOL    HW215441   2.342   6.801   6.289
 4848SOL     OW15442   2.555   0.844   4.165
 4848SOL    HW115443   2.539   0.750   4.135
 4848SOL    HW215444   2.519   0.908   4.097
 4849SOL     OW15445   1.771   6.896   1.183
 4849SOL    HW115446   1.845   6.958   1.158
 4849SOL    HW215447   1.738   6.849   1.101
 4850SOL     OW15448   4.861   0.620   0.582
 4850SOL    HW115449   4.779   0.627   0.526
 4850SOL    HW215450   4.867   0.528   0.621
 4851SOL     OW15451   3.691   5.435   6.625
 4851SOL    HW115452   3.620   5.368   6.607
 4851SOL    HW215453   3.781   5.395   6.608
 4852SOL     OW15454   4.438   5.128   4.445
 4852SOL    HW115455   4.408   5.177   4.527
 4852SOL    HW215456   4.538   5.121   4.445
 4853SOL     OW15457   3.402   0.368   2.633
 4853SOL    HW115458   3.426   0.304   2.706
 4853SOL    HW215459   3.315   0.413   2.656
 4854SOL     OW15460   5.944   6.337   1.633
 4854SOL    HW115461   5.977   6.251   1.671
 4854SOL    HW215462   5.890   6.319   1.551
 4855SOL     OW15463   6.373   4.914   4.640
 4855SOL    HW115464   6.374   4.988   4.573
 4855SOL    HW215465   6.318   4.941   4.719
 4856SOL     OW15466   0.295   3.801   3.057
 4856SOL    HW115467   0.204   3.763   3.071
 4856SOL    HW215468   0.319   3.861   3.134
 4857SOL     OW15469   2.682   1.918   4.973
 4857SOL    HW115470   2.648   1.929   5.066
 4857SOL    HW215471   2.738   1.997   4.948
 4858SOL     OW15472   0.323   5.924   4.150
 4858SOL    HW115473   0.333   5.978   4.067
 4858SOL    HW215474   0.344   5.980   4.230
 4859SOL     OW15475   0.664   5.871   2.236
 4859SOL    HW115476   0.589   5.909   2.183
 4859SOL    HW215477   0.632   5.849   2.329
 4860SOL     OW15478   4.682   5.670   0.924
 4860SOL    HW115479   4.734   5.617   0.992
 4860SOL    HW215480   4.710   5.765   0.927
 4861SOL     OW15481   0.330   4.857   6.807
 4861SOL    HW115482   0.421   4.831   6.839
 4861SOL    HW215483   0.282   4.905   6.880
 4862SOL     OW15484   2.580   4.709   5.482
 4862SOL    HW115485   2.595   4.716   5.384
 4862SOL    HW215486   2.495   4.660   5.500
 4863SOL     OW15487   4.446   1.720   2.845
 4863SOL    HW115488   4.516   1.656   2.815
 4863SOL    HW215489   4.427   1.786   2.773
 4864SOL     OW15490   3.250   1.334   1.766
 4864SOL    HW115491   3.153   1.358   1.777
 4864SOL    HW215492   3.263   1.238   1.789
 4865SOL     OW15493   3.734   5.727   5.171
 4865SOL    HW115494   3.804   5.689   5.110
 4865SOL    HW215495   3.730   5.826   5.161
 4866SOL     OW15496   6.420   4.694   0.933
 4866SOL    HW115497   6.362   4.625   0.888
 4866SOL    HW215498   6.368   4.779   0.943
 4867SOL     OW15499   5.015   5.826   2.816
 4867SOL    HW115500   5.007   5.742   2.763
 4867SOL    HW215501   5.094   5.878   2.785
 4868SOL     OW15502   0.483   5.578   1.304
 4868SOL    HW115503   0.438   5.501   1.349
 4868SOL    HW215504   0.446   5.664   1.339
 4869SOL     OW15505   6.705   1.059   0.488
 4869SOL    HW115506   6.659   1.079   0.401
 4869SOL    HW215507   6.769   1.133   0.509
 4870SOL     OW15508   5.790   6.474   2.461
 4870SOL    HW115509   5.834   6.538   2.524
 4870SOL    HW215510   5.818   6.381   2.484
 4871SOL     OW15511   1.383   3.399   4.344
 4871SOL    HW115512   1.305   3.427   4.288
 4871SOL    HW215513   1.443   3.339   4.291
 4872SOL     OW15514   1.136   0.807   2.558
 4872SOL    HW115515   1.135   0.714   2.520
 4872SOL    HW215516   1.156   0.872   2.485
 4873SOL     OW15517   0.155   5.861   5.589
 4873SOL    HW115518   0.220   5.807   5.536
 4873SOL    HW215519   0.098   5.800   5.644
 4874SOL     OW15520   5.102   3.440   3.279
 4874SOL    HW115521   5.090   3.518   3.218
 4874SOL    HW215522   5.143   3.471   3.365
 4875SOL     OW15523   5.938   2.291   0.036
 4875SOL    HW115524   5.860   2.250   0.083
 4875SOL    HW215525   5.913   2.383   0.006
 4876SOL     OW15526   0.402   1.331   6.686
 4876SOL    HW115527   0.328   1.397   6.697
 4876SOL    HW215528   0.388   1.279   6.602
 4877SOL     OW15529   6.379   1.500   1.297
 4877SOL    HW115530   6.466   1.454   1.279
 4877SOL    HW215531   6.388   1.556   1.379
 4878SOL     OW15532   6.967   1.991   1.902
 4878SOL    HW115533   0.044   1.969   1.926
 4878SOL    HW215534   6.905   1.944   1.965
 4879SOL     OW15535   4.331   5.230   3.538
 4879SOL    HW115536   4.390   5.162   3.493
 4879SOL    HW215537   4.368   5.321   3.522
 4880SOL     OW15538   5.689   1.721   5.971
 4880SOL    HW115539   5.654   1.786   5.904
 4880SOL    HW215540   5.650   1.743   6.061
 4881SOL     OW15541   3.572   6.205   6.695
 4881SOL    HW115542   3.623   6.189   6.611
 4881SOL    HW215543   3.611   6.284   6.743
 4882SOL     OW15544   5.498   0.419   5.364
 4882SOL    HW115545   5.451   0.505   5.348
 4882SOL    HW215546   5.435   0.353   5.404
 4883SOL     OW15547   0.149   5.129   1.866
 4883SOL    HW115548   0.119   5.057   1.804
 4883SOL    HW215549   0.230   5.174   1.828
 4884SOL     OW15550   3.094   6.393   1.588
 4884SOL    HW115551   3.116   6.424   1.681
 4884SOL    HW215552   3.125   6.299   1.576
 4885SOL     OW15553   1.655   0.040   1.882
 4885SOL    HW115554   1.746   0.080   1.888
 4885SOL    HW215555   1.627   0.036   1.786
 4886SOL     OW15556   6.319   0.485   6.890
 4886SOL    HW115557   6.279   0.544   6.819
 4886SOL    HW215558   6.403   0.526   6.924
 4887SOL     OW15559   0.557   1.930   3.932
 4887SOL    HW115560   0.504   1.872   3.870
 4887SOL    HW215561   0.545   2.026   3.908
 4888SOL     OW15562   2.852   5.246   2.884
 4888SOL    HW115563   2.761   5.225   2.919
 4888SOL    HW215564   2.843   5.303   2.802
 4889SOL     OW15565   0.924   2.028   0.265
 4889SOL    HW115566   0.914   1.970   0.184
 4889SOL    HW215567   0.952   2.120   0.237
 4890SOL     OW15568   1.371   0.711   4.726
 4890SOL    HW115569   1.380   0.615   4.753
 4890SOL    HW215570   1.462   0.749   4.707
 4891SOL     OW15571   1.051   4.685   0.339
 4891SOL    HW115572   1.039   4.731   0.251
 4891SOL    HW215573   0.988   4.608   0.345
 4892SOL     OW15574   1.018   5.311   0.725
 4892SOL    HW115575   0.923   5.341   0.718
 4892SOL    HW215576   1.026   5.244   0.799
 4893SOL     OW15577   0.482   3.500   6.502
 4893SOL    HW115578   0.545   3.575   6.523
 4893SOL    HW215579   0.521   3.443   6.429
 4894SOL     OW15580   2.638   1.160   3.344
 4894SOL    HW115581   2.658   1.175   3.247
 4894SOL    HW215582   2.700   1.215   3.400
 4895SOL     OW15583   0.972   3.424   0.015
 4895SOL    HW115584   1.010   3.495   0.073
 4895SOL    HW215585   0.929   3.353   0.072
 4896SOL     OW15586   3.846   5.498   4.904
 4896SOL    HW115587   3.900   5.423   4.866
 4896SOL    HW215588   3.885   5.585   4.874
 4897SOL     OW15589   3.570   5.610   6.349
 4897SOL    HW115590   3.507   5.599   6.426
 4897SOL    HW215591   3.585   5.521   6.305
 4898SOL     OW15592   5.486   2.032   5.224
 4898SOL    HW115593   5.501   2.114   5.279
 4898SOL    HW215594   5.558   1.965   5.244
 4899SOL     OW15595   5.786   4.005   3.998
 4899SOL    HW115596   5.719   4.047   3.937
 4899SOL    HW215597   5.838   3.936   3.947
 4900SOL     OW15598   0.969   6.761   5.462
 4900SOL    HW115599   1.029   6.739   5.539
 4900SOL    HW215600   0.878   6.784   5.497
 4901SOL     OW15601   0.501   0.093   3.994
 4901SOL    HW115602   0.501   0.033   4.074
 4901SOL    HW215603   0.447   0.052   3.921
 4902SOL     OW15604   2.400   4.625   1.684
 4902SOL    HW115605   2.464   4.548   1.688
 4902SOL    HW215606   2.323   4.601   1.625
 4903SOL     OW15607   4.772   0.105   6.688
 4903SOL    HW115608   4.702   0.176   6.679
 4903SOL    HW215609   4.780   0.056   6.601
 4904SOL     OW15610   2.663   5.988   3.889
 4904SOL    HW115611   2.684   5.970   3.986
 4904SOL    HW215612   2.586   5.931   3.860
 4905SOL     OW15613   5.307   3.498   2.095
 4905SOL    HW115614   5.275   3.438   2.022
 4905SOL    HW215615   5.407   3.490   2.103
 4906SOL     OW15616   5.168   0.605   0.472
 4906SOL    HW115617   5.158   0.683   0.411
 4906SOL    HW215618   5.094   0.606   0.540
 4907SOL     OW15619   3.204   1.099   2.926
 4907SOL    HW115620   3.284   1.048   2.895
 4907SOL    HW215621   3.233   1.171   2.989
 4908SOL     OW15622   3.205   6.005   6.384
 4908SOL    HW115623   3.231   5.922   6.334
 4908SOL    HW215624   3.266   6.016   6.463
 4909SOL     OW15625   6.872   6.820   5.087
 4909SOL    HW115626   6.890   6.729   5.050
 4909SOL    HW215627   6.937   6.885   5.047
 4910SOL     OW15628   5.628   6.922   4.873
 4910SOL    HW115629   5.592   6.981   4.946
 4910SOL    HW215630   5.726   6.906   4.888
 4911SOL     OW15631   6.831   2.505   6.032
 4911SOL    HW115632   6.890   2.564   5.976
 4911SOL    HW215633   6.883   2.469   6.109
 4912SOL     OW15634   2.631   2.203   2.385
 4912SOL    HW115635   2.533   2.182   2.390
 4912SOL    HW215636   2.652   2.246   2.297
 4913SOL     OW15637   2.936   3.712   3.252
 4913SOL    HW115638   2.899   3.701   3.344
 4913SOL    HW215639   3.008   3.782   3.253
 4914SOL     OW15640   2.187   6.585   3.510
 4914SOL    HW115641   2.164   6.491   3.539
 4914SOL    HW215642   2.127   6.650   3.557
 4915SOL     OW15643   3.200   5.649   3.934
 4915SOL    HW115644   3.224   5.715   3.863
 4915SOL    HW215645   3.181   5.698   4.019
 4916SOL     OW15646   2.502   1.354   2.566
 4916SOL    HW115647   2.416   1.357   2.514
 4916SOL    HW215648   2.512   1.263   2.607
 4917SOL     OW15649   1.913   5.153   0.740
 4917SOL    HW115650   1.864   5.070   0.766
 4917SOL    HW215651   1.959   5.191   0.821
 4918SOL     OW15652   2.353   0.110   1.898
 4918SOL    HW115653   2.414   0.186   1.921
 4918SOL    HW215654   2.370   0.034   1.962
 4919SOL     OW15655   2.388   2.524   1.967
 4919SOL    HW115656   2.352   2.476   2.047
 4919SOL    HW215657   2.411   2.457   1.896
 4920SOL     OW15658   4.310   0.998   0.222
 4920SOL    HW115659   4.289   0.901   0.220
 4920SOL    HW215660   4.373   1.017   0.296
 4921SOL     OW15661   1.465   4.530   1.704
 4921SOL    HW115662   1.367   4.533   1.685
 4921SOL    HW215663   1.511   4.602   1.653
 4922SOL     OW15664   1.561   2.897   5.260
 4922SOL    HW115665   1.643   2.930   5.212
 4922SOL    HW215666   1.527   2.815   5.215
 4923SOL     OW15667   5.034   1.076   1.027
 4923SOL    HW115668   4.938   1.048   1.017
 4923SOL    HW215669   5.052   1.100   1.122
 4924SOL     OW15670   0.433   3.989   4.929
 4924SOL    HW115671   0.421   3.889   4.927
 4924SOL    HW215672   0.463   4.016   5.021
 4925SOL     OW15673   4.562   6.027   6.947
 4925SOL    HW115674   4.620   5.972   7.007
 4925SOL    HW215675   4.617   6.098   6.903
 4926SOL     OW15676   4.784   2.463   1.870
 4926SOL    HW115677   4.707   2.491   1.813
 4926SOL    HW215678   4.869   2.471   1.817
 4927SOL     OW15679   3.590   2.906   3.320
 4927SOL    HW115680   3.499   2.899   3.360
 4927SOL    HW215681   3.583   2.911   3.221
 4928SOL     OW15682   0.647   5.815   6.809
 4928SOL    HW115683   0.689   5.725   6.800
 4928SOL    HW215684   0.712   5.877   6.855
 4929SOL     OW15685   0.880   5.229   3.948
 4929SOL    HW115686   0.970   5.198   3.978
 4929SOL    HW215687   0.874   5.220   3.849
 4930SOL     OW15688   0.462   2.400   0.860
 4930SOL    HW115689   0.464   2.336   0.783
 4930SOL    HW215690   0.556   2.422   0.888
 4931SOL     OW15691   6.879   0.801   0.287
 4931SOL    HW115692   6.861   0.891   0.247
 4931SOL    HW215693   6.794   0.748   0.288
 4932SOL     OW15694   2.809   2.245   1.578
 4932SOL    HW115695   2.793   2.344   1.575
 4932SOL    HW215696   2.889   2.226   1.635
 4933SOL     OW15697   3.012   0.748   4.138
 4933SOL    HW115698   2.955   0.826   4.164
 4933SOL    HW215699   3.107   0.778   4.131
 4934SOL     OW15700   1.128   6.091   4.348
 4934SOL    HW115701   1.062   6.061   4.418
 4934SOL    HW215702   1.193   6.155   4.388
 4935SOL     OW15703   1.595   1.292   0.552
 4935SOL    HW115704   1.628   1.279   0.645
 4935SOL    HW215705   1.502   1.329   0.555
 4936SOL     OW15706   3.980   5.459   0.852
 4936SOL    HW115707   4.009   5.554   0.838
 4936SOL    HW215708   3.883   5.450   0.830
 4937SOL     OW15709   0.641   2.934   6.138
 4937SOL    HW115710   0.692   2.860   6.094
 4937SOL    HW215711   0.626   2.912   6.234
 4938SOL     OW15712   3.613   4.634   1.458
 4938SOL    HW115713   3.561   4.620   1.543
 4938SOL    HW215714   3.613   4.731   1.435
 4939SOL     OW15715   1.985   1.617   2.025
 4939SOL    HW115716   1.968   1.531   1.976
 4939SOL    HW215717   1.899   1.667   2.034
 4940SOL     OW15718   0.265   2.412   5.023
 4940SOL    HW115719   0.354   2.420   4.977
 4940SOL    HW215720   0.193   2.408   4.953
 4941SOL     OW15721   3.795   2.185   5.252
 4941SOL    HW115722   3.869   2.253   5.255
 4941SOL    HW215723   3.810   2.123   5.175
 4942SOL     OW15724   6.154   1.772   3.957
 4942SOL    HW115725   6.161   1.698   4.023
 4942SOL    HW215726   6.225   1.763   3.888
 4943SOL     OW15727   5.731   2.952   6.518
 4943SOL    HW115728   5.784   2.975   6.600
 4943SOL    HW215729   5.640   2.919   6.545
 4944SOL     OW15730   1.608   5.295   1.101
 4944SOL    HW115731   1.545   5.259   1.032
 4944SOL    HW215732   1.561   5.301   1.189
 4945SOL     OW15733   1.911   0.984   4.904
 4945SOL    HW115734   1.968   1.062   4.879
 4945SOL    HW215735   1.815   1.007   4.892
 4946SOL     OW15736   2.089   5.381   6.929
 4946SOL    HW115737   2.059   5.435   7.007
 4946SOL    HW215738   2.073   5.284   6.948
 4947SOL     OW15739   1.630   0.920   1.912
 4947SOL    HW115740   1.618   0.842   1.851
 4947SOL    HW215741   1.713   0.907   1.967
 4948SOL     OW15742   1.363   2.419   1.845
 4948SOL    HW115743   1.350   2.482   1.769
 4948SOL    HW215744   1.274   2.397   1.886
 4949SOL     OW15745   6.742   4.080   0.380
 4949SOL    HW115746   6.761   4.047   0.287
 4949SOL    HW215747   6.643   4.080   0.395
 4950SOL     OW15748   2.152   3.915   5.164
 4950SOL    HW115749   2.078   3.976   5.194
 4950SOL    HW215750   2.237   3.967   5.160
 4951SOL     OW15751   4.782   5.427   3.503
 4951SOL    HW115752   4.823   5.336   3.500
 4951SOL    HW215753   4.848   5.492   3.539
 4952SOL     OW15754   0.504   6.831   5.979
 4952SOL    HW115755   0.523   6.908   5.918
 4952SOL    HW215756   0.419   6.787   5.950
 4953SOL     OW15757   0.499   2.435   4.835
 4953SOL    HW115758   0.569   2.492   4.792
 4953SOL    HW215759   0.490   2.350   4.785
 4954SOL     OW15760   3.144   4.028   4.845
 4954SOL    HW115761   3.180   4.121   4.841
 4954SOL    HW215762   3.213   3.968   4.885
 4955SOL     OW15763   3.241   5.676   0.010
 4955SOL    HW115764   3.211   5.621   0.088
 4955SOL    HW215765   3.307   5.744   0.041
 4956SOL     OW15766   2.492   6.712   4.878
 4956SOL    HW115767   2.474   6.810   4.889
 4956SOL    HW215768   2.418   6.670   4.825
 4957SOL     OW15769   5.961   4.454   0.247
 4957SOL    HW115770   5.979   4.546   0.282
 4957SOL    HW215771   5.877   4.419   0.287
 4958SOL     OW15772   3.058   6.319   0.080
 4958SOL    HW115773   3.021   6.400   0.126
 4958SOL    HW215774   3.048   6.328   6.999
 4959SOL     OW15775   0.916   3.326   2.497
 4959SOL    HW115776   0.862   3.395   2.544
 4959SOL    HW215777   0.905   3.237   2.542
 4960SOL     OW15778   3.953   5.933   4.217
 4960SOL    HW115779   4.007   6.017   4.215
 4960SOL    HW215780   4.012   5.857   4.244
 4961SOL     OW15781   4.000   1.227   0.554
 4961SOL    HW115782   4.058   1.227   0.635
 4961SOL    HW215783   3.918   1.173   0.572
 4962SOL     OW15784   1.098   4.393   1.003
 4962SOL    HW115785   1.082   4.448   1.086
 4962SOL    HW215786   1.153   4.446   0.939
 4963SOL     OW15787   0.945   3.844   5.999
 4963SOL    HW115788   0.993   3.931   6.001
 4963SOL    HW215789   0.871   3.844   6.066
 4964SOL     OW15790   2.868   6.988   4.527
 4964SOL    HW115791   2.769   6.981   4.538
 4964SOL    HW215792   2.897   0.065   4.544
 4965SOL     OW15793   1.653   6.283   2.879
 4965SOL    HW115794   1.661   6.191   2.918
 4965SOL    HW215795   1.626   6.348   2.950
 4966SOL     OW15796   3.579   6.278   4.518
 4966SOL    HW115797   3.541   6.243   4.604
 4966SOL    HW215798   3.513   6.265   4.445
 4967SOL     OW15799   4.288   4.792   4.944
 4967SOL    HW115800   4.373   4.833   4.976
 4967SOL    HW215801   4.286   4.695   4.968
 4968SOL     OW15802   6.655   1.767   3.063
 4968SOL    HW115803   6.664   1.667   3.062
 4968SOL    HW215804   6.740   1.807   3.097
 4969SOL     OW15805   0.742   6.032   3.013
 4969SOL    HW115806   0.781   5.945   3.041
 4969SOL    HW215807   0.673   6.061   3.079
 4970SOL     OW15808   1.474   1.615   1.795
 4970SOL    HW115809   1.454   1.651   1.704
 4970SOL    HW215810   1.484   1.516   1.790
 4971SOL     OW15811   0.001   6.361   3.298
 4971SOL    HW115812   6.971   6.342   3.212
 4971SOL    HW215813   6.980   6.443   3.340
 4972SOL     OW15814   1.675   4.256   1.263
 4972SOL    HW115815   1.681   4.296   1.172
 4972SOL    HW215816   1.616   4.176   1.261
 4973SOL     OW15817   6.709   0.744   0.947
 4973SOL    HW115818   6.723   0.702   0.857
 4973SOL    HW215819   6.778   0.710   1.010
 4974SOL     OW15820   3.829   5.021   5.285
 4974SOL    HW115821   3.744   5.058   5.246
 4974SOL    HW215822   3.907   5.051   5.230
 4975SOL     OW15823   5.984   3.623   0.437
 4975SOL    HW115824   6.015   3.528   0.431
 4975SOL    HW215825   6.050   3.676   0.489
 4976SOL     OW15826   1.523   6.820   4.388
 4976SOL    HW115827   1.484   6.912   4.376
 4976SOL    HW215828   1.612   6.816   4.344
 4977SOL     OW15829   2.436   4.804   6.312
 4977SOL    HW115830   2.488   4.773   6.392
 4977SOL    HW215831   2.391   4.891   6.333
 4978SOL     OW15832   5.052   4.658   5.028
 4978SOL    HW115833   4.962   4.688   4.995
 4978SOL    HW215834   5.120   4.671   4.956
 4979SOL     OW15835   1.763   6.612   6.286
 4979SOL    HW115836   1.766   6.565   6.198
 4979SOL    HW215837   1.755   6.544   6.359
 4980SOL     OW15838   5.963   3.894   2.901
 4980SOL    HW115839   5.922   3.840   2.827
 4980SOL    HW215840   6.055   3.860   2.920
 4981SOL     OW15841   3.688   4.959   1.802
 4981SOL    HW115842   3.725   4.909   1.724
 4981SOL    HW215843   3.651   4.895   1.869
 4982SOL     OW15844   4.677   1.338   6.510
 4982SOL    HW115845   4.772   1.336   6.481
 4982SOL    HW215846   4.617   1.343   6.430
 4983SOL     OW15847   6.929   5.233   3.216
 4983SOL    HW115848   6.930   5.315   3.158
 4983SOL    HW215849   7.008   5.176   3.194
 4984SOL     OW15850   5.389   4.404   2.960
 4984SOL    HW115851   5.329   4.483   2.954
 4984SOL    HW215852   5.374   4.344   2.881
 4985SOL     OW15853   5.840   6.013   3.024
 4985SOL    HW115854   5.741   6.027   3.018
 4985SOL    HW215855   5.868   6.007   3.120
 4986SOL     OW15856   1.083   4.918   2.726
 4986SOL    HW115857   1.102   4.888   2.819
 4986SOL    HW215858   1.161   4.971   2.691
 4987SOL     OW15859   0.517   0.926   2.113
 4987SOL    HW115860   0.461   1.002   2.080
 4987SOL    HW215861   0.459   0.857   2.155
 4988SOL     OW15862   5.965   0.358   3.554
 4988SOL    HW115863   5.987   0.289   3.622
 4988SOL    HW215864   6.001   0.331   3.465
 4989SOL     OW15865   4.174   1.051   2.783
 4989SOL    HW115866   4.208   1.079   2.872
 4989SOL    HW215867   4.231   0.977   2.747
 4990SOL     OW15868   4.444   1.832   5.359
 4990SOL    HW115869   4.526   1.844   5.303
 4990SOL    HW215870   4.378   1.903   5.338
 4991SOL     OW15871   1.050   5.350   4.892
 4991SOL    HW115872   1.046   5.449   4.909
 4991SOL    HW215873   1.012   5.301   4.970
 4992SOL     OW15874   0.105   1.482   3.534
 4992SOL    HW115875   0.019   1.451   3.572
 4992SOL    HW215876   0.151   1.406   3.487
 4993SOL     OW15877   4.122   6.756   4.557
 4993SOL    HW115878   4.214   6.728   4.582
 4993SOL    HW215879   4.080   6.805   4.634
 4994SOL     OW15880   3.197   5.016   5.805
 4994SOL    HW115881   3.151   5.036   5.891
 4994SOL    HW215882   3.154   5.067   5.731
 4995SOL     OW15883   1.011   0.239   5.391
 4995SOL    HW115884   1.054   0.161   5.345
 4995SOL    HW215885   0.918   0.251   5.356
 4996SOL     OW15886   6.647   1.059   4.565
 4996SOL    HW115887   6.646   1.140   4.623
 4996SOL    HW215888   6.697   1.078   4.481
 4997SOL     OW15889   3.422   2.125   1.294
 4997SOL    HW115890   3.339   2.171   1.324
 4997SOL    HW215891   3.500   2.187   1.302
 4998SOL     OW15892   1.185   3.486   4.160
 4998SOL    HW115893   1.242   3.543   4.102
 4998SOL    HW215894   1.090   3.518   4.155
 4999SOL     OW15895   0.438   3.727   4.899
 4999SOL    HW115896   0.413   3.643   4.852
 4999SOL    HW215897   0.490   3.705   4.981
 5000SOL     OW15898   3.190   5.289   3.576
 5000SOL    HW115899   3.121   5.332   3.633
 5000SOL    HW215900   3.281   5.313   3.609
 5001SOL     OW15901   0.866   5.023   2.871
 5001SOL    HW115902   0.936   5.003   2.803
 5001SOL    HW215903   0.896   5.099   2.929
 5002SOL     OW15904   0.621   3.687   2.902
 5002SOL    HW115905   0.601   3.652   2.993
 5002SOL    HW215906   0.536   3.698   2.850
 5003SOL     OW15907   4.436   6.660   3.692
 5003SOL    HW115908   4.429   6.757   3.669
 5003SOL    HW215909   4.492   6.614   3.622
 5004SOL     OW15910   2.495   5.785   6.295
 5004SOL    HW115911   2.593   5.794   6.308
 5004SOL    HW215912   2.453   5.753   6.380
 5005SOL     OW15913   2.993   2.642   6.429
 5005SOL    HW115914   3.067   2.692   6.383
 5005SOL    HW215915   2.941   2.705   6.486
 5006SOL     OW15916   5.557   1.955   1.946
 5006SOL    HW115917   5.499   1.887   1.992
 5006SOL    HW215918   5.617   1.998   2.013
 5007SOL     OW15919   6.101   0.160   1.880
 5007SOL    HW115920   6.168   0.122   1.816
 5007SOL    HW215921   6.087   0.095   1.955
 5008SOL     OW15922   6.166   6.656   1.592
 5008SOL    HW115923   6.140   6.599   1.670
 5008SOL    HW215924   6.084   6.700   1.554
 5009SOL     OW15925   0.883   2.560   0.173
 5009SOL    HW115926   0.882   2.656   0.202
 5009SOL    HW215927   0.859   2.501   0.250
 5010SOL     OW15928   3.767   3.007   0.410
 5010SOL    HW115929   3.671   2.979   0.412
 5010SOL    HW215930   3.804   3.003   0.503
 5011SOL     OW15931   1.980   4.036   6.834
 5011SOL    HW115932   2.058   4.001   6.886
 5011SOL    HW215933   1.898   3.983   6.856
 5012SOL     OW15934   6.092   1.528   5.012
 5012SOL    HW115935   6.107   1.514   5.110
 5012SOL    HW215936   6.176   1.560   4.969
 5013SOL     OW15937   5.807   0.185   5.829
 5013SOL    HW115938   5.808   0.268   5.774
 5013SOL    HW215939   5.737   0.123   5.795
 5014SOL     OW15940   6.477   3.483   1.827
 5014SOL    HW115941   6.425   3.398   1.839
 5014SOL    HW215942   6.574   3.465   1.843
 5015SOL     OW15943   5.525   6.681   3.823
 5015SOL    HW115944   5.451   6.623   3.856
 5015SOL    HW215945   5.613   6.645   3.855
 5016SOL     OW15946   1.742   3.326   4.845
 5016SOL    HW115947   1.778   3.412   4.808
 5016SOL    HW215948   1.659   3.302   4.796
 5017SOL     OW15949   0.442   2.496   1.331
 5017SOL    HW115950   0.420   2.508   1.428
 5017SOL    HW215951   0.480   2.582   1.294
 5018SOL     OW15952   0.660   6.116   1.574
 5018SOL    HW115953   0.572   6.158   1.554
 5018SOL    HW215954   0.675   6.038   1.514
 5019SOL     OW15955   1.244   4.993   5.148
 5019SOL    HW115956   1.307   5.040   5.087
 5019SOL    HW215957   1.198   5.059   5.207
 5020SOL     OW15958   0.725   6.731   4.397
 5020SOL    HW115959   0.712   6.674   4.316
 5020SOL    HW215960   0.643   6.784   4.415
 5021SOL     OW15961   1.947   0.871   1.080
 5021SOL    HW115962   1.916   0.965   1.089
 5021SOL    HW215963   1.869   0.809   1.086
 5022SOL     OW15964   0.270   2.888   1.275
 5022SOL    HW115965   0.271   2.987   1.291
 5022SOL    HW215966   0.255   2.840   1.361
 5023SOL     OW15967   0.574   4.407   2.218
 5023SOL    HW115968   0.584   4.307   2.224
 5023SOL    HW215969   0.556   4.433   2.124
 5024SOL     OW15970   5.425   3.938   1.498
 5024SOL    HW115971   5.469   3.856   1.462
 5024SOL    HW215972   5.351   3.966   1.437
 5025SOL     OW15973   3.832   1.275   3.354
 5025SOL    HW115974   3.911   1.287   3.414
 5025SOL    HW215975   3.772   1.204   3.391
 5026SOL     OW15976   5.924   6.130   5.302
 5026SOL    HW115977   6.001   6.167   5.250
 5026SOL    HW215978   5.942   6.141   5.400
 5027SOL     OW15979   5.409   0.994   6.902
 5027SOL    HW115980   5.370   0.919   6.956
 5027SOL    HW215981   5.442   0.957   6.815
 5028SOL     OW15982   0.074   2.642   2.639
 5028SOL    HW115983   0.062   2.739   2.616
 5028SOL    HW215984   0.135   2.635   2.718
 5029SOL     OW15985   6.480   2.203   2.422
 5029SOL    HW115986   6.437   2.291   2.404
 5029SOL    HW215987   6.580   2.212   2.416
 5030SOL     OW15988   6.907   5.338   6.858
 5030SOL    HW115989   6.955   5.255   6.828
 5030SOL    HW215990   6.969   5.393   6.914
 5031SOL     OW15991   6.782   0.472   5.524
 5031SOL    HW115992   6.756   0.437   5.433
 5031SOL    HW215993   6.706   0.459   5.587
 5032SOL     OW15994   3.743   2.628   5.288
 5032SOL    HW115995   3.664   2.682   5.317
 5032SOL    HW215996   3.771   2.658   5.197
 5033SOL     OW15997   2.133   1.240   0.622
 5033SOL    HW115998   2.083   1.324   0.601
 5033SOL    HW215999   2.070   1.172   0.661
 5034SOL     OW16000   4.685   6.023   3.918
 5034SOL    HW116001   4.754   6.051   3.985
 5034SOL    HW216002   4.603   5.991   3.967
 5035SOL     OW16003   0.471   4.365   4.578
 5035SOL    HW116004   0.376   4.343   4.553
 5035SOL    HW216005   0.507   4.293   4.638
 5036SOL     OW16006   6.674   3.338   5.215
 5036SOL    HW116007   6.768   3.365   5.197
 5036SOL    HW216008   6.614   3.417   5.207
 5037SOL     OW16009   4.460   4.291   1.158
 5037SOL    HW116010   4.389   4.222   1.170
 5037SOL    HW216011   4.422   4.373   1.116
 5038SOL     OW16012   3.191   3.352   4.024
 5038SOL    HW116013   3.242   3.370   4.108
 5038SOL    HW216014   3.248   3.299   3.962
 5039SOL     OW16015   1.982   2.910   6.497
 5039SOL    HW116016   1.988   2.822   6.452
 5039SOL    HW216017   2.052   2.915   6.569
 5040SOL     OW16018   1.104   5.322   5.938
 5040SOL    HW116019   1.179   5.346   5.999
 5040SOL    HW216020   1.017   5.328   5.988
 5041SOL     OW16021   0.227   3.348   2.189
 5041SOL    HW116022   0.319   3.312   2.204
 5041SOL    HW216023   0.232   3.424   2.124
 5042SOL     OW16024   0.071   3.248   5.928
 5042SOL    HW116025   0.055   3.207   5.838
 5042SOL    HW216026   0.170   3.257   5.943
 5043SOL     OW16027   4.260   0.719   0.571
 5043SOL    HW116028   4.220   0.669   0.648
 5043SOL    HW216029   4.190   0.774   0.526
 5044SOL     OW16030   6.955   5.357   0.408
 5044SOL    HW116031   6.898   5.424   0.456
 5044SOL    HW216032   0.019   5.338   0.463
 5045SOL     OW16033   6.005   3.967   6.416
 5045SOL    HW116034   5.941   4.034   6.456
 5045SOL    HW216035   5.987   3.960   6.318
 5046SOL     OW16036   3.367   3.237   3.811
 5046SOL    HW116037   3.428   3.196   3.879
 5046SOL    HW216038   3.417   3.250   3.725
 5047SOL     OW16039   1.825   3.624   3.120
 5047SOL    HW116040   1.809   3.720   3.098
 5047SOL    HW216041   1.829   3.571   3.036
 5048SOL     OW16042   1.391   1.502   5.806
 5048SOL    HW116043   1.353   1.425   5.755
 5048SOL    HW216044   1.490   1.497   5.804
 5049SOL     OW16045   6.279   0.834   6.186
 5049SOL    HW116046   6.286   0.916   6.130
 5049SOL    HW216047   6.287   0.753   6.128
 5050SOL     OW16048   1.806   0.936   0.598
 5050SOL    HW116049   1.882   0.881   0.563
 5050SOL    HW216050   1.809   1.027   0.555
 5051SOL     OW16051   3.852   4.703   1.308
 5051SOL    HW116052   3.774   4.666   1.359
 5051SOL    HW216053   3.936   4.661   1.343
 5052SOL     OW16054   3.236   1.663   5.435
 5052SOL    HW116055   3.271   1.582   5.483
 5052SOL    HW216056   3.138   1.672   5.451
 5053SOL     OW16057   0.450   5.197   2.551
 5053SOL    HW116058   0.468   5.176   2.455
 5053SOL    HW216059   0.523   5.256   2.586
 5054SOL     OW16060   4.063   4.770   5.286
 5054SOL    HW116061   4.009   4.800   5.364
 5054SOL    HW216062   4.057   4.670   5.278
 5055SOL     OW16063   6.300   3.099   6.251
 5055SOL    HW116064   6.244   3.095   6.334
 5055SOL    HW216065   6.247   3.144   6.178
 5056SOL     OW16066   4.938   3.715   5.209
 5056SOL    HW116067   4.918   3.683   5.116
 5056SOL    HW216068   5.006   3.655   5.251
 5057SOL     OW16069   1.025   6.507   2.221
 5057SOL    HW116070   0.933   6.484   2.254
 5057SOL    HW216071   1.018   6.549   2.130
 5058SOL     OW16072   2.863   4.781   6.736
 5058SOL    HW116073   2.809   4.744   6.660
 5058SOL    HW216074   2.957   4.794   6.707
 5059SOL     OW16075   0.742   0.759   2.921
 5059SOL    HW116076   0.790   0.691   2.866
 5059SOL    HW216077   0.730   0.843   2.867
 5060SOL     OW16078   5.989   1.747   6.419
 5060SOL    HW116079   6.062   1.814   6.407
 5060SOL    HW216080   5.928   1.778   6.492
 5061SOL     OW16081   4.704   3.219   0.229
 5061SOL    HW116082   4.675   3.298   0.175
 5061SOL    HW216083   4.635   3.146   0.220
 5062SOL     OW16084   0.190   0.216   1.232
 5062SOL    HW116085   0.142   0.304   1.225
 5062SOL    HW216086   0.287   0.229   1.212
 5063SOL     OW16087   0.922   6.800   2.151
 5063SOL    HW116088   0.841   6.794   2.093
 5063SOL    HW216089   0.934   6.894   2.182
 5064SOL     OW16090   4.342   3.351   0.523
 5064SOL    HW116091   4.317   3.395   0.609
 5064SOL    HW216092   4.427   3.300   0.536
 5065SOL     OW16093   2.543   6.503   5.388
 5065SOL    HW116094   2.451   6.504   5.428
 5065SOL    HW216095   2.575   6.408   5.382
 5066SOL     OW16096   5.913   4.808   1.545
 5066SOL    HW116097   5.835   4.755   1.511
 5066SOL    HW216098   5.998   4.758   1.529
 5067SOL     OW16099   4.999   0.842   0.634
 5067SOL    HW116100   4.942   0.762   0.617
 5067SOL    HW216101   5.024   0.845   0.731
 5068SOL     OW16102   2.969   4.698   0.151
 5068SOL    HW116103   3.007   4.607   0.138
 5068SOL    HW216104   2.895   4.714   0.085
 5069SOL     OW16105   0.735   4.657   2.819
 5069SOL    HW116106   0.716   4.559   2.824
 5069SOL    HW216107   0.779   4.677   2.731
 5070SOL     OW16108   5.049   3.183   4.177
 5070SOL    HW116109   5.048   3.240   4.259
 5070SOL    HW216110   5.135   3.133   4.172
 5071SOL     OW16111   4.562   2.041   5.727
 5071SOL    HW116112   4.580   2.107   5.800
 5071SOL    HW216113   4.485   2.072   5.672
 5072SOL     OW16114   0.219   4.470   0.947
 5072SOL    HW116115   0.245   4.461   1.043
 5072SOL    HW216116   0.241   4.562   0.914
 5073SOL     OW16117   6.089   7.003   2.087
 5073SOL    HW116118   6.137   0.020   2.167
 5073SOL    HW216119   6.103   6.905   2.079
 5074SOL     OW16120   2.837   4.213   6.661
 5074SOL    HW116121   2.780   4.281   6.615
 5074SOL    HW216122   2.889   4.162   6.592
 5075SOL     OW16123   0.275   5.201   4.839
 5075SOL    HW116124   0.323   5.184   4.925
 5075SOL    HW216125   0.269   5.115   4.787
 5076SOL     OW16126   3.173   0.977   0.770
 5076SOL    HW116127   3.174   0.885   0.810
 5076SOL    HW216128   3.262   1.021   0.785
 5077SOL     OW16129   1.535   3.029   3.455
 5077SOL    HW116130   1.457   2.999   3.510
 5077SOL    HW216131   1.560   3.123   3.480
 5078SOL     OW16132   1.523   2.010   4.646
 5078SOL    HW116133   1.607   1.958   4.627
 5078SOL    HW216134   1.546   2.107   4.655
 5079SOL     OW16135   3.549   4.842   5.539
 5079SOL    HW116136   3.616   4.819   5.469
 5079SOL    HW216137   3.492   4.762   5.559
 5080SOL     OW16138   5.659   6.359   5.490
 5080SOL    HW116139   5.581   6.310   5.451
 5080SOL    HW216140   5.711   6.402   5.416
 5081SOL     OW16141   3.400   3.482   3.108
 5081SOL    HW116142   3.427   3.451   3.017
 5081SOL    HW216143   3.378   3.579   3.105
 5082SOL     OW16144   5.435   5.903   6.001
 5082SOL    HW116145   5.460   5.940   6.091
 5082SOL    HW216146   5.507   5.922   5.936
 5083SOL     OW16147   1.788   6.533   1.908
 5083SOL    HW116148   1.720   6.496   1.972
 5083SOL    HW216149   1.878   6.495   1.930
 5084SOL     OW16150   1.236   5.760   3.940
 5084SOL    HW116151   1.165   5.691   3.954
 5084SOL    HW216152   1.245   5.817   4.021
 5085SOL     OW16153   5.788   1.520   6.444
 5085SOL    HW116154   5.857   1.520   6.372
 5085SOL    HW216155   5.748   1.612   6.452
 5086SOL     OW16156   6.454   4.611   3.984
 5086SOL    HW116157   6.410   4.568   3.906
 5086SOL    HW216158   6.421   4.705   3.994
 5087SOL     OW16159   6.527   5.649   5.077
 5087SOL    HW116160   6.511   5.666   4.979
 5087SOL    HW216161   6.524   5.736   5.127
 5088SOL     OW16162   6.139   0.460   5.810
 5088SOL    HW116163   6.172   0.371   5.780
 5088SOL    HW216164   6.060   0.448   5.870
 5089SOL     OW16165   5.635   3.354   3.076
 5089SOL    HW116166   5.602   3.271   3.031
 5089SOL    HW216167   5.559   3.397   3.125
 5090SOL     OW16168   1.503   4.953   1.706
 5090SOL    HW116169   1.510   4.914   1.798
 5090SOL    HW216170   1.547   4.892   1.640
 5091SOL     OW16171   0.953   6.218   2.344
 5091SOL    HW116172   0.947   6.144   2.277
 5091SOL    HW216173   1.048   6.248   2.353
 5092SOL     OW16174   3.378   2.015   0.803
 5092SOL    HW116175   3.451   1.948   0.793
 5092SOL    HW216176   3.418   2.104   0.825
 5093SOL     OW16177   1.691   1.679   1.978
 5093SOL    HW116178   1.603   1.637   1.954
 5093SOL    HW216179   1.682   1.730   2.063
 5094SOL     OW16180   0.587   6.332   5.071
 5094SOL    HW116181   0.665   6.393   5.059
 5094SOL    HW216182   0.598   6.253   5.010
 5095SOL     OW16183   2.378   0.268   5.226
 5095SOL    HW116184   2.305   0.333   5.207
 5095SOL    HW216185   2.452   0.281   5.160
 5096SOL     OW16186   5.308   3.746   1.119
 5096SOL    HW116187   5.241   3.812   1.154
 5096SOL    HW216188   5.285   3.655   1.151
 5097SOL     OW16189   1.848   6.742   5.888
 5097SOL    HW116190   1.867   6.840   5.895
 5097SOL    HW216191   1.781   6.726   5.816
 5098SOL     OW16192   0.363   1.524   2.843
 5098SOL    HW116193   0.359   1.597   2.774
 5098SOL    HW216194   0.434   1.546   2.910
 5099SOL     OW16195   1.625   0.214   5.208
 5099SOL    HW116196   1.543   0.271   5.209
 5099SOL    HW216197   1.691   0.251   5.143
 5100SOL     OW16198   5.911   5.835   0.444
 5100SOL    HW116199   5.876   5.786   0.364
 5100SOL    HW216200   5.926   5.931   0.420
 5101SOL     OW16201   4.156   6.112   6.740
 5101SOL    HW116202   4.234   6.111   6.802
 5101SOL    HW216203   4.159   6.195   6.684
 5102SOL     OW16204   4.156   6.856   5.002
 5102SOL    HW116205   4.101   6.905   4.934
 5102SOL    HW216206   4.215   6.789   4.956
 5103SOL     OW16207   0.125   0.331   3.822
 5103SOL    HW116208   0.130   0.429   3.837
 5103SOL    HW216209   0.174   0.283   3.894
 5104SOL     OW16210   1.471   0.597   2.017
 5104SOL    HW116211   1.426   0.666   1.960
 5104SOL    HW216212   1.463   0.623   2.113
 5105SOL     OW16213   3.412   3.758   6.386
 5105SOL    HW116214   3.384   3.830   6.449
 5105SOL    HW216215   3.358   3.675   6.404
 5106SOL     OW16216   3.363   0.198   2.200
 5106SOL    HW116217   3.427   0.259   2.153
 5106SOL    HW216218   3.413   0.144   2.268
 5107SOL     OW16219   2.560   0.150   6.203
 5107SOL    HW116220   2.646   0.162   6.153
 5107SOL    HW216221   2.489   0.207   6.161
 5108SOL     OW16222   2.958   3.674   4.186
 5108SOL    HW116223   2.985   3.688   4.282
 5108SOL    HW216224   2.976   3.757   4.134
 5109SOL     OW16225   7.013   0.902   1.415
 5109SOL    HW116226   6.917   0.929   1.411
 5109SOL    HW216227   0.050   0.981   1.443
 5110SOL     OW16228   2.007   5.596   5.712
 5110SOL    HW116229   1.945   5.573   5.788
 5110SOL    HW216230   2.021   5.515   5.655
 5111SOL     OW16231   1.726   1.318   0.002
 5111SOL    HW116232   1.761   1.231   6.986
 5111SOL    HW216233   1.629   1.326   6.996
 5112SOL     OW16234   0.588   5.940   3.727
 5112SOL    HW116235   0.601   5.912   3.823
 5112SOL    HW216236   0.491   5.946   3.707
 5113SOL     OW16237   1.472   0.635   0.340
 5113SOL    HW116238   1.514   0.672   0.422
 5113SOL    HW216239   1.544   0.601   0.278
 5114SOL     OW16240   3.594   4.830   6.849
 5114SOL    HW116241   3.538   4.812   6.768
 5114SOL    HW216242   3.537   4.873   6.919
 5115SOL     OW16243   1.772   3.578   5.380
 5115SOL    HW116244   1.699   3.568   5.447
 5115SOL    HW216245   1.849   3.519   5.405
 5116SOL     OW16246   6.169   4.863   0.180
 5116SOL    HW116247   6.230   4.879   0.103
 5116SOL    HW216248   6.223   4.838   0.261
 5117SOL     OW16249   2.391   4.467   4.699
 5117SOL    HW116250   2.475   4.487   4.751
 5117SOL    HW216251   2.325   4.422   4.759
 5118SOL     OW16252   4.448   6.015   0.277
 5118SOL    HW116253   4.374   6.076   0.246
 5118SOL    HW216254   4.425   5.978   0.367
 5119SOL     OW16255   5.876   0.663   1.877
 5119SOL    HW116256   5.910   0.703   1.962
 5119SOL    HW216257   5.807   0.594   1.898
 5120SOL     OW16258   5.062   1.687   2.676
 5120SOL    HW116259   5.032   1.735   2.593
 5120SOL    HW216260   5.159   1.663   2.667
 5121SOL     OW16261   6.927   3.103   5.225
 5121SOL    HW116262   6.856   3.121   5.293
 5121SOL    HW216263   7.013   3.080   5.272
 5122SOL     OW16264   2.005   6.720   3.651
 5122SOL    HW116265   1.919   6.683   3.616
 5122SOL    HW216266   2.020   6.811   3.611
 5123SOL     OW16267   4.828   4.509   2.491
 5123SOL    HW116268   4.892   4.542   2.561
 5123SOL    HW216269   4.734   4.532   2.518
 5124SOL     OW16270   3.091   6.518   6.489
 5124SOL    HW116271   3.069   6.595   6.550
 5124SOL    HW216272   3.161   6.461   6.532
 5125SOL     OW16273   0.234   2.580   4.478
 5125SOL    HW116274   0.182   2.525   4.413
 5125SOL    HW216275   0.304   2.632   4.429
 5126SOL     OW16276   6.010   4.354   6.249
 5126SOL    HW116277   5.940   4.322   6.185
 5126SOL    HW216278   6.097   4.363   6.202
 5127SOL     OW16279   5.824   3.175   6.756
 5127SOL    HW116280   5.880   3.213   6.829
 5127SOL    HW216281   5.807   3.078   6.774
 5128SOL     OW16282   0.100   0.604   6.709
 5128SOL    HW116283   0.009   0.563   6.715
 5128SOL    HW216284   0.110   0.650   6.620
 5129SOL     OW16285   4.695   1.743   2.230
 5129SOL    HW116286   4.709   1.838   2.257
 5129SOL    HW216287   4.704   1.684   2.311
 5130SOL     OW16288   0.985   5.585   3.959
 5130SOL    HW116289   1.004   5.525   3.881
 5130SOL    HW216290   0.887   5.586   3.977
 5131SOL     OW16291   3.280   4.900   3.072
 5131SOL    HW116292   3.196   4.850   3.051
 5131SOL    HW216293   3.268   4.996   3.050
 5132SOL     OW16294   3.913   1.453   6.799
 5132SOL    HW116295   4.003   1.451   6.844
 5132SOL    HW216296   3.847   1.404   6.856
 5133SOL     OW16297   4.145   4.376   6.588
 5133SOL    HW116298   4.045   4.368   6.586
 5133SOL    HW216299   4.174   4.442   6.519
 5134SOL     OW16300   6.663   6.169   1.621
 5134SOL    HW116301   6.621   6.221   1.696
 5134SOL    HW216302   6.761   6.188   1.618
 5135SOL     OW16303   6.260   3.314   2.054
 5135SOL    HW116304   6.360   3.322   2.056
 5135SOL    HW216305   6.233   3.260   1.974
 5136SOL     OW16306   0.611   0.595   5.869
 5136SOL    HW116307   0.706   0.608   5.840
 5136SOL    HW216308   0.551   0.603   5.790
 5137SOL     OW16309   5.348   1.107   4.861
 5137SOL    HW116310   5.430   1.126   4.914
 5137SOL    HW216311   5.336   1.178   4.792
 5138SOL     OW16312   3.440   2.878   4.129
 5138SOL    HW116313   3.357   2.917   4.088
 5138SOL    HW216314   3.438   2.895   4.228
 5139SOL     OW16315   2.265   0.228   4.690
 5139SOL    HW116316   2.251   0.322   4.656
 5139SOL    HW216317   2.246   0.164   4.616
 5140SOL     OW16318   4.457   2.101   6.585
 5140SOL    HW116319   4.491   2.027   6.527
 5140SOL    HW216320   4.404   2.165   6.530
 5141SOL     OW16321   6.155   3.238   2.286
 5141SOL    HW116322   6.164   3.139   2.297
 5141SOL    HW216323   6.200   3.267   2.201
 5142SOL     OW16324   0.261   0.215   2.499
 5142SOL    HW116325   0.326   0.291   2.494
 5142SOL    HW216326   0.279   0.151   2.425
 5143SOL     OW16327   0.643   5.277   3.690
 5143SOL    HW116328   0.614   5.337   3.615
 5143SOL    HW216329   0.742   5.281   3.700
 5144SOL     OW16330   2.763   2.935   5.987
 5144SOL    HW116331   2.831   2.993   5.944
 5144SOL    HW216332   2.702   2.897   5.918
 5145SOL     OW16333   3.073   6.122   6.720
 5145SOL    HW116334   2.986   6.137   6.675
 5145SOL    HW216335   3.113   6.036   6.690
 5146SOL     OW16336   5.454   4.871   6.224
 5146SOL    HW116337   5.355   4.883   6.220
 5146SOL    HW216338   5.479   4.785   6.180
 5147SOL     OW16339   4.733   2.708   3.420
 5147SOL    HW116340   4.668   2.694   3.495
 5147SOL    HW216341   4.820   2.740   3.457
 5148SOL     OW16342   0.535   0.032   0.624
 5148SOL    HW116343   0.621   7.004   0.643
 5148SOL    HW216344   0.459   6.995   0.659
 5149SOL     OW16345   5.323   4.416   3.319
 5149SOL    HW116346   5.390   4.483   3.350
 5149SOL    HW216347   5.268   4.456   3.245
 5150SOL     OW16348   0.320   5.903   3.653
 5150SOL    HW116349   0.297   6.000   3.652
 5150SOL    HW216350   0.273   5.858   3.729
 5151SOL     OW16351   5.925   5.371   1.649
 5151SOL    HW116352   5.846   5.415   1.691
 5151SOL    HW216353   5.943   5.284   1.695
 5152SOL     OW16354   0.905   1.151   6.670
 5152SOL    HW116355   0.861   1.103   6.594
 5152SOL    HW216356   0.841   1.216   6.710
 5153SOL     OW16357   1.126   1.958   0.995
 5153SOL    HW116358   1.027   1.947   1.004
 5153SOL    HW216359   1.149   1.972   0.899
 5154SOL     OW16360   6.828   2.985   6.729
 5154SOL    HW116361   6.774   3.065   6.753
 5154SOL    HW216362   6.919   3.014   6.699
 5155SOL     OW16363   1.668   1.566   0.799
 5155SOL    HW116364   1.722   1.644   0.829
 5155SOL    HW216365   1.571   1.585   0.811
 5156SOL     OW16366   5.309   5.590   5.713
 5156SOL    HW116367   5.407   5.572   5.704
 5156SOL    HW216368   5.267   5.519   5.769
 5157SOL     OW16369   4.064   0.214   1.570
 5157SOL    HW116370   4.143   0.157   1.594
 5157SOL    HW216371   4.093   0.286   1.507
 5158SOL     OW16372   2.660   1.557   2.436
 5158SOL    HW116373   2.644   1.571   2.338
 5158SOL    HW216374   2.595   1.489   2.471
 5159SOL     OW16375   6.325   3.104   5.249
 5159SOL    HW116376   6.424   3.087   5.246
 5159SOL    HW216377   6.282   3.036   5.308
 5160SOL     OW16378   6.695   6.329   3.522
 5160SOL    HW116379   6.664   6.304   3.431
 5160SOL    HW216380   6.745   6.253   3.563
 5161SOL     OW16381   1.062   3.594   0.188
 5161SOL    HW116382   1.011   3.653   0.251
 5161SOL    HW216383   1.139   3.644   0.150
 5162SOL     OW16384   0.126   0.053   3.190
 5162SOL    HW116385   0.058   0.039   3.262
 5162SOL    HW216386   0.100   0.131   3.134
 5163SOL     OW16387   3.224   6.812   1.988
 5163SOL    HW116388   3.152   6.801   2.057
 5163SOL    HW216389   3.232   6.909   1.964
 5164SOL     OW16390   3.298   3.581   0.885
 5164SOL    HW116391   3.338   3.645   0.950
 5164SOL    HW216392   3.369   3.543   0.826
 5165SOL     OW16393   1.193   4.392   0.012
 5165SOL    HW116394   1.186   4.337   6.947
 5165SOL    HW216395   1.153   4.342   0.089
 5166SOL     OW16396   1.770   5.816   1.669
 5166SOL    HW116397   1.697   5.867   1.624
 5166SOL    HW216398   1.856   5.866   1.661
 5167SOL     OW16399   5.142   2.356   5.217
 5167SOL    HW116400   5.107   2.449   5.211
 5167SOL    HW216401   5.215   2.344   5.149
 5168SOL     OW16402   4.379   2.410   2.218
 5168SOL    HW116403   4.442   2.332   2.220
 5168SOL    HW216404   4.285   2.377   2.227
 5169SOL     OW16405   4.102   6.165   3.845
 5169SOL    HW116406   4.109   6.262   3.868
 5169SOL    HW216407   4.008   6.144   3.818
 5170SOL     OW16408   1.642   3.337   6.238
 5170SOL    HW116409   1.733   3.379   6.234
 5170SOL    HW216410   1.647   3.254   6.294
 5171SOL     OW16411   1.725   5.863   5.540
 5171SOL    HW116412   1.631   5.831   5.546
 5171SOL    HW216413   1.773   5.814   5.467
 5172SOL     OW16414   0.032   5.585   3.984
 5172SOL    HW116415   0.095   5.509   3.997
 5172SOL    HW216416   0.031   5.642   4.066
 5173SOL     OW16417   4.380   4.290   5.516
 5173SOL    HW116418   4.305   4.349   5.545
 5173SOL    HW216419   4.356   4.245   5.430
 5174SOL     OW16420   2.297   6.161   3.253
 5174SOL    HW116421   2.346   6.164   3.167
 5174SOL    HW216422   2.256   6.250   3.272
 5175SOL     OW16423   2.922   4.057   6.917
 5175SOL    HW116424   2.933   4.074   6.819
 5175SOL    HW216425   2.890   3.963   6.930
 5176SOL     OW16426   5.739   5.525   0.676
 5176SOL    HW116427   5.800   5.602   0.696
 5176SOL    HW216428   5.677   5.551   0.601
 5177SOL     OW16429   5.445   0.140   0.000
 5177SOL    HW116430   5.536   0.099   7.014
 5177SOL    HW216431   5.409   0.151   6.926
 5178SOL     OW16432   1.128   3.935   1.616
 5178SOL    HW116433   1.149   4.033   1.623
 5178SOL    HW216434   1.108   3.913   1.520
 5179SOL     OW16435   5.743   4.743   2.915
 5179SOL    HW116436   5.798   4.711   2.838
 5179SOL    HW216437   5.797   4.806   2.970
 5180SOL     OW16438   2.290   6.976   2.289
 5180SOL    HW116439   2.282   6.902   2.356
 5180SOL    HW216440   2.382   7.015   2.292
 5181SOL     OW16441   0.675   0.152   6.067
 5181SOL    HW116442   0.624   0.084   6.120
 5181SOL    HW216443   0.758   0.111   6.029
 5182SOL     OW16444   3.710   5.550   3.373
 5182SOL    HW116445   3.701   5.555   3.274
 5182SOL    HW216446   3.660   5.471   3.407
 5183SOL     OW16447   4.043   1.318   3.528
 5183SOL    HW116448   3.998   1.391   3.580
 5183SOL    HW216449   4.090   1.257   3.591
 5184SOL     OW16450   2.762   1.283   3.854
 5184SOL    HW116451   2.812   1.198   3.871
 5184SOL    HW216452   2.811   1.359   3.897
 5185SOL     OW16453   5.855   0.860   1.644
 5185SOL    HW116454   5.848   0.768   1.684
 5185SOL    HW216455   5.825   0.928   1.711
 5186SOL     OW16456   6.850   3.365   6.346
 5186SOL    HW116457   6.843   3.359   6.246
 5186SOL    HW216458   6.759   3.353   6.386
 5187SOL     OW16459   2.043   4.878   5.363
 5187SOL    HW116460   2.126   4.824   5.376
 5187SOL    HW216461   1.977   4.857   5.434
 5188SOL     OW16462   6.270   6.553   2.202
 5188SOL    HW116463   6.218   6.627   2.159
 5188SOL    HW216464   6.362   6.585   2.225
 5189SOL     OW16465   5.236   6.877   6.503
 5189SOL    HW116466   5.285   6.952   6.458
 5189SOL    HW216467   5.156   6.853   6.448
 5190SOL     OW16468   1.206   4.047   0.853
 5190SOL    HW116469   1.115   4.044   0.893
 5190SOL    HW216470   1.220   4.134   0.807
 5191SOL     OW16471   3.217   4.878   2.432
 5191SOL    HW116472   3.122   4.891   2.458
 5191SOL    HW216473   3.275   4.872   2.513
 5192SOL     OW16474   2.002   4.782   2.133
 5192SOL    HW116475   1.950   4.705   2.097
 5192SOL    HW216476   2.100   4.760   2.133
 5193SOL     OW16477   5.447   0.228   6.198
 5193SOL    HW116478   5.391   0.310   6.199
 5193SOL    HW216479   5.541   0.251   6.224
 5194SOL     OW16480   5.193   1.892   6.616
 5194SOL    HW116481   5.205   1.991   6.627
 5194SOL    HW216482   5.110   1.863   6.663
 5195SOL     OW16483   6.844   0.531   4.610
 5195SOL    HW116484   6.823   0.438   4.638
 5195SOL    HW216485   6.913   0.530   4.538
 5196SOL     OW16486   5.232   6.575   2.283
 5196SOL    HW116487   5.267   6.590   2.190
 5196SOL    HW216488   5.308   6.579   2.348
 5197SOL     OW16489   0.982   3.966   5.644
 5197SOL    HW116490   0.997   3.966   5.545
 5197SOL    HW216491   0.961   3.873   5.675
 5198SOL     OW16492   5.894   5.596   2.596
 5198SOL    HW116493   5.946   5.543   2.529
 5198SOL    HW216494   5.854   5.677   2.551
 5199SOL     OW16495   6.813   4.770   0.822
 5199SOL    HW116496   6.832   4.801   0.915
 5199SOL    HW216497   6.883   4.705   0.793
 5200SOL     OW16498   0.260   3.656   5.188
 5200SOL    HW116499   0.297   3.634   5.098
 5200SOL    HW216500   0.282   3.751   5.211
 5201SOL     OW16501   1.475   5.393   4.246
 5201SOL    HW116502   1.512   5.408   4.154
 5201SOL    HW216503   1.417   5.311   4.245
 5202SOL     OW16504   0.324   4.654   0.721
 5202SOL    HW116505   0.279   4.688   0.804
 5202SOL    HW216506   0.422   4.672   0.726
 5203SOL     OW16507   1.501   2.511   6.678
 5203SOL    HW116508   1.467   2.546   6.765
 5203SOL    HW216509   1.574   2.445   6.696
 5204SOL     OW16510   4.566   5.251   6.853
 5204SOL    HW116511   4.634   5.321   6.830
 5204SOL    HW216512   4.487   5.293   6.896
 5205SOL     OW16513   1.371   0.277   2.012
 5205SOL    HW116514   1.465   0.311   2.003
 5205SOL    HW216515   1.368   0.207   2.083
 5206SOL     OW16516   0.423   4.406   6.481
 5206SOL    HW116517   0.425   4.412   6.381
 5206SOL    HW216518   0.441   4.312   6.510
 5207SOL     OW16519   1.689   4.763   4.147
 5207SOL    HW116520   1.730   4.848   4.179
 5207SOL    HW216521   1.713   4.748   4.051
 5208SOL     OW16522   3.718   1.275   6.904
 5208SOL    HW116523   3.747   1.180   6.915
 5208SOL    HW216524   3.620   1.282   6.919
 5209SOL     OW16525   5.656   5.793   3.131
 5209SOL    HW116526   5.622   5.864   3.069
 5209SOL    HW216527   5.606   5.798   3.217
 5210SOL     OW16528   5.103   5.007   4.244
 5210SOL    HW116529   5.128   4.934   4.181
 5210SOL    HW216530   5.049   5.076   4.196
 5211SOL     OW16531   4.011   3.231   3.496
 5211SOL    HW116532   4.039   3.203   3.404
 5211SOL    HW216533   3.984   3.151   3.549
 5212SOL     OW16534   0.856   1.990   0.949
 5212SOL    HW116535   0.768   1.968   0.993
 5212SOL    HW216536   0.850   2.081   0.906
 5213SOL     OW16537   4.807   2.613   5.744
 5213SOL    HW116538   4.722   2.620   5.692
 5213SOL    HW216539   4.884   2.643   5.687
 5214SOL     OW16540   5.375   1.346   5.606
 5214SOL    HW116541   5.365   1.256   5.564
 5214SOL    HW216542   5.390   1.336   5.704
 5215SOL     OW16543   5.272   4.680   2.941
 5215SOL    HW116544   5.262   4.737   2.860
 5215SOL    HW216545   5.287   4.738   3.021
 5216SOL     OW16546   4.954   4.898   0.663
 5216SOL    HW116547   4.897   4.980   0.658
 5216SOL    HW216548   5.029   4.915   0.727
 5217SOL     OW16549   2.592   5.282   4.161
 5217SOL    HW116550   2.620   5.250   4.251
 5217SOL    HW216551   2.670   5.323   4.114
 5218SOL     OW16552   1.413   6.427   3.318
 5218SOL    HW116553   1.383   6.499   3.255
 5218SOL    HW216554   1.351   6.349   3.311
 5219SOL     OW16555   3.265   6.817   6.374
 5219SOL    HW116556   3.345   6.856   6.420
 5219SOL    HW216557   3.294   6.765   6.294
 5220SOL     OW16558   0.533   6.403   2.795
 5220SOL    HW116559   0.571   6.311   2.791
 5220SOL    HW216560   0.572   6.453   2.872
 5221SOL     OW16561   4.891   1.193   4.942
 5221SOL    HW116562   4.955   1.143   4.882
 5221SOL    HW216563   4.836   1.256   4.887
 5222SOL     OW16564   1.865   0.415   3.961
 5222SOL    HW116565   1.950   0.455   3.924
 5222SOL    HW216566   1.883   0.375   4.050
 5223SOL     OW16567   4.644   0.928   1.537
 5223SOL    HW116568   4.605   0.839   1.512
 5223SOL    HW216569   4.654   0.933   1.636
 5224SOL     OW16570   6.302   1.989   2.447
 5224SOL    HW116571   6.380   2.052   2.455
 5224SOL    HW216572   6.217   2.042   2.439
 5225SOL     OW16573   6.019   6.133   4.150
 5225SOL    HW116574   5.946   6.064   4.148
 5225SOL    HW216575   6.025   6.173   4.241
 5226SOL     OW16576   1.041   6.564   4.097
 5226SOL    HW116577   1.100   6.558   4.177
 5226SOL    HW216578   1.069   6.495   4.030
 5227SOL     OW16579   6.050   4.561   2.967
 5227SOL    HW116580   5.984   4.506   2.916
 5227SOL    HW216581   6.030   4.555   3.065
 5228SOL     OW16582   5.450   1.673   0.790
 5228SOL    HW116583   5.504   1.750   0.826
 5228SOL    HW216584   5.360   1.672   0.833
 5229SOL     OW16585   1.443   3.732   5.386
 5229SOL    HW116586   1.528   3.771   5.350
 5229SOL    HW216587   1.366   3.790   5.358
 5230SOL     OW16588   0.274   0.478   0.272
 5230SOL    HW116589   0.277   0.510   0.366
 5230SOL    HW216590   0.228   0.547   0.215
 5231SOL     OW16591   3.949   3.254   3.958
 5231SOL    HW116592   4.016   3.327   3.965
 5231SOL    HW216593   3.891   3.269   3.877
 5232SOL     OW16594   4.488   2.319   6.958
 5232SOL    HW116595   4.418   2.256   6.925
 5232SOL    HW216596   4.447   2.409   6.973
 5233SOL     OW16597   0.513   6.372   2.499
 5233SOL    HW116598   0.525   6.379   2.598
 5233SOL    HW216599   0.456   6.448   2.468
 5234SOL     OW16600   3.356   6.797   0.601
 5234SOL    HW116601   3.453   6.776   0.612
 5234SOL    HW216602   3.303   6.712   0.605
 5235SOL     OW16603   1.054   3.376   0.647
 5235SOL    HW116604   1.139   3.363   0.597
 5235SOL    HW216605   1.013   3.287   0.667
 5236SOL     OW16606   5.004   3.489   1.244
 5236SOL    HW116607   4.933   3.485   1.314
 5236SOL    HW216608   4.998   3.577   1.196
 5237SOL     OW16609   2.273   2.530   5.480
 5237SOL    HW116610   2.372   2.521   5.483
 5237SOL    HW216611   2.232   2.454   5.531
 5238SOL     OW16612   2.039   4.677   0.725
 5238SOL    HW116613   2.135   4.657   0.706
 5238SOL    HW216614   1.994   4.595   0.760
 5239SOL     OW16615   3.320   2.899   3.536
 5239SOL    HW116616   3.239   2.848   3.507
 5239SOL    HW216617   3.314   2.917   3.635
 5240SOL     OW16618   3.113   2.076   5.204
 5240SOL    HW116619   3.168   2.101   5.284
 5240SOL    HW216620   3.127   2.144   5.132
 5241SOL     OW16621   1.741   6.425   6.506
 5241SOL    HW116622   1.668   6.369   6.468
 5241SOL    HW216623   1.797   6.371   6.568
 5242SOL     OW16624   5.945   1.400   5.712
 5242SOL    HW116625   5.917   1.376   5.805
 5242SOL    HW216626   6.038   1.438   5.715
 5243SOL     OW16627   1.361   5.208   0.980
 5243SOL    HW116628   1.325   5.155   0.903
 5243SOL    HW216629   1.303   5.288   0.995
 5244SOL     OW16630   4.744   4.618   5.568
 5244SOL    HW116631   4.831   4.572   5.584
 5244SOL    HW216632   4.754   4.716   5.583
 5245SOL     OW16633   4.981   3.909   6.835
 5245SOL    HW116634   4.901   3.904   6.895
 5245SOL    HW216635   5.053   3.850   6.871
 5246SOL     OW16636   1.203   3.418   2.642
 5246SOL    HW116637   1.145   3.452   2.569
 5246SOL    HW216638   1.217   3.319   2.632
 5247SOL     OW16639   0.220   5.166   0.288
 5247SOL    HW116640   0.169   5.221   0.353
 5247SOL    HW216641   0.159   5.136   0.215
 5248SOL     OW16642   5.473   0.638   5.749
 5248SOL    HW116643   5.430   0.727   5.762
 5248SOL    HW216644   5.408   0.577   5.703
 5249SOL     OW16645   0.895   4.781   5.018
 5249SOL    HW116646   0.994   4.779   5.016
 5249SOL    HW216647   0.860   4.690   5.041
 5250SOL     OW16648   0.337   1.695   6.327
 5250SOL    HW116649   0.300   1.602   6.317
 5250SOL    HW216650   0.421   1.703   6.272
 5251SOL     OW16651   6.094   3.413   1.376
 5251SOL    HW116652   6.102   3.382   1.470
 5251SOL    HW216653   6.183   3.410   1.331
 5252SOL     OW16654   4.114   5.950   0.434
 5252SOL    HW116655   4.039   6.006   0.470
 5252SOL    HW216656   4.194   5.958   0.493
 5253SOL     OW16657   5.562   3.454   4.514
 5253SOL    HW116658   5.547   3.535   4.570
 5253SOL    HW216659   5.476   3.425   4.472
 5254SOL     OW16660   4.126   0.750   3.803
 5254SOL    HW116661   4.218   0.726   3.771
 5254SOL    HW216662   4.098   0.683   3.873
 5255SOL     OW16663   2.964   6.331   5.043
 5255SOL    HW116664   2.993   6.235   5.043
 5255SOL    HW216665   2.997   6.376   4.960
 5256SOL     OW16666   4.971   0.510   3.211
 5256SOL    HW116667   4.946   0.432   3.153
 5256SOL    HW216668   4.939   0.595   3.168
 5257SOL     OW16669   4.074   0.265   0.162
 5257SOL    HW116670   4.076   0.197   0.235
 5257SOL    HW216671   4.026   0.227   0.083
 5258SOL     OW16672   5.031   4.289   2.387
 5258SOL    HW116673   5.002   4.201   2.350
 5258SOL    HW216674   4.951   4.349   2.396
 5259SOL     OW16675   4.710   5.614   3.104
 5259SOL    HW116676   4.734   5.703   3.142
 5259SOL    HW216677   4.623   5.621   3.056
 5260SOL     OW16678   5.538   3.598   1.552
 5260SOL    HW116679   5.516   3.658   1.475
 5260SOL    HW216680   5.608   3.640   1.609
 5261SOL     OW16681   0.731   2.081   4.608
 5261SOL    HW116682   0.729   2.023   4.526
 5261SOL    HW216683   0.765   2.172   4.584
 5262SOL     OW16684   2.902   6.826   2.069
 5262SOL    HW116685   2.967   6.765   2.024
 5262SOL    HW216686   2.845   6.871   2.000
 5263SOL     OW16687   1.784   6.889   6.229
 5263SOL    HW116688   1.739   6.939   6.303
 5263SOL    HW216689   1.771   6.791   6.243
 5264SOL     OW16690   6.932   2.201   1.415
 5264SOL    HW116691   0.010   2.205   1.387
 5264SOL    HW216692   6.927   2.196   1.515
 5265SOL     OW16693   5.312   4.872   1.985
 5265SOL    HW116694   5.316   4.795   2.048
 5265SOL    HW216695   5.404   4.902   1.962
 5266SOL     OW16696   1.558   6.691   1.753
 5266SOL    HW116697   1.603   6.632   1.820
 5266SOL    HW216698   1.628   6.738   1.699
 5267SOL     OW16699   5.016   4.944   5.062
 5267SOL    HW116700   5.062   4.903   5.140
 5267SOL    HW216701   5.075   4.938   4.981
 5268SOL     OW16702   6.325   5.528   5.203
 5268SOL    HW116703   6.409   5.574   5.176
 5268SOL    HW216704   6.327   5.433   5.171
 5269SOL     OW16705   2.063   5.324   4.268
 5269SOL    HW116706   2.110   5.351   4.184
 5269SOL    HW216707   2.057   5.224   4.273
 5270SOL     OW16708   6.039   2.870   1.836
 5270SOL    HW116709   6.017   2.884   1.933
 5270SOL    HW216710   6.017   2.776   1.811
 5271SOL     OW16711   5.147   4.537   5.269
 5271SOL    HW116712   5.178   4.619   5.316
 5271SOL    HW216713   5.092   4.563   5.189
 5272SOL     OW16714   0.165   6.649   4.261
 5272SOL    HW116715   0.231   6.574   4.266
 5272SOL    HW216716   0.107   6.637   4.181
 5273SOL     OW16717   0.657   1.399   3.968
 5273SOL    HW116718   0.636   1.491   4.003
 5273SOL    HW216719   0.573   1.354   3.939
 5274SOL     OW16720   6.829   4.962   4.242
 5274SOL    HW116721   6.833   4.926   4.148
 5274SOL    HW216722   6.826   5.061   4.239
 5275SOL     OW16723   2.649   0.348   0.211
 5275SOL    HW116724   2.657   0.446   0.194
 5275SOL    HW216725   2.738   0.304   0.200
 5276SOL     OW16726   6.715   0.117   1.682
 5276SOL    HW116727   6.715   0.216   1.675
 5276SOL    HW216728   6.629   0.081   1.647
 5277SOL     OW16729   1.108   1.586   3.381
 5277SOL    HW116730   1.069   1.675   3.356
 5277SOL    HW216731   1.036   1.517   3.381
 5278SOL     OW16732   0.491   5.461   5.645
 5278SOL    HW116733   0.574   5.478   5.697
 5278SOL    HW216734   0.415   5.512   5.685
 5279SOL     OW16735   1.596   5.514   6.178
 5279SOL    HW116736   1.603   5.602   6.131
 5279SOL    HW216737   1.647   5.517   6.263
 5280SOL     OW16738   3.769   5.944   4.843
 5280SOL    HW116739   3.703   5.937   4.767
 5280SOL    HW216740   3.805   5.853   4.864
 5281SOL     OW16741   1.904   0.569   4.540
 5281SOL    HW116742   1.899   0.611   4.631
 5281SOL    HW216743   1.909   0.470   4.550
 5282SOL     OW16744   1.379   0.406   2.342
 5282SOL    HW116745   1.339   0.331   2.289
 5282SOL    HW216746   1.426   0.469   2.279
 5283SOL     OW16747   6.955   1.077   4.158
 5283SOL    HW116748   6.876   1.136   4.177
 5283SOL    HW216749   6.972   1.017   4.236
 5284SOL     OW16750   5.687   2.146   2.088
 5284SOL    HW116751   5.627   2.208   2.038
 5284SOL    HW216752   5.754   2.198   2.140
 5285SOL     OW16753   0.815   3.154   3.816
 5285SOL    HW116754   0.900   3.125   3.860
 5285SOL    HW216755   0.778   3.079   3.760
 5286SOL     OW16756   6.379   2.972   1.081
 5286SOL    HW116757   6.361   2.971   1.180
 5286SOL    HW216758   6.478   2.975   1.066
 5287SOL     OW16759   3.591   4.916   1.430
 5287SOL    HW116760   3.617   4.971   1.350
 5287SOL    HW216761   3.517   4.962   1.479
 5288SOL     OW16762   5.185   0.135   1.950
 5288SOL    HW116763   5.157   0.159   1.857
 5288SOL    HW216764   5.284   0.148   1.959
 5289SOL     OW16765   1.659   4.872   6.625
 5289SOL    HW116766   1.694   4.795   6.571
 5289SOL    HW216767   1.589   4.920   6.573
 5290SOL     OW16768   1.804   3.743   5.850
 5290SOL    HW116769   1.841   3.656   5.818
 5290SOL    HW216770   1.824   3.815   5.784
 5291SOL     OW16771   2.650   4.325   5.311
 5291SOL    HW116772   2.683   4.401   5.255
 5291SOL    HW216773   2.723   4.296   5.374
 5292SOL     OW16774   6.766   4.252   6.461
 5292SOL    HW116775   6.864   4.272   6.456
 5292SOL    HW216776   6.727   4.297   6.541
 5293SOL     OW16777   2.072   5.095   4.719
 5293SOL    HW116778   2.160   5.116   4.678
 5293SOL    HW216779   2.043   5.003   4.691
 5294SOL     OW16780   4.078   0.542   5.127
 5294SOL    HW116781   4.030   0.455   5.115
 5294SOL    HW216782   4.033   0.596   5.198
 5295SOL     OW16783   3.456   0.667   2.534
 5295SOL    HW116784   3.536   0.625   2.491
 5295SOL    HW216785   3.373   0.634   2.490
 5296SOL     OW16786   3.792   4.285   0.937
 5296SOL    HW116787   3.821   4.360   0.877
 5296SOL    HW216788   3.857   4.276   1.013
 5297SOL     OW16789   2.402   4.195   0.499
 5297SOL    HW116790   2.487   4.145   0.516
 5297SOL    HW216791   2.331   4.131   0.470
 5298SOL     OW16792   2.691   6.787   0.108
 5298SOL    HW116793   2.755   6.720   0.073
 5298SOL    HW216794   2.633   6.820   0.034
 5299SOL     OW16795   3.340   1.911   0.500
 5299SOL    HW116796   3.386   1.920   0.588
 5299SOL    HW216797   3.292   1.997   0.479
 5300SOL     OW16798   1.734   4.638   0.554
 5300SOL    HW116799   1.668   4.665   0.484
 5300SOL    HW216800   1.766   4.719   0.603
 5301SOL     OW16801   4.636   0.510   6.453
 5301SOL    HW116802   4.599   0.422   6.423
 5301SOL    HW216803   4.730   0.498   6.484
 5302SOL     OW16804   4.803   5.671   3.373
 5302SOL    HW116805   4.903   5.668   3.376
 5302SOL    HW216806   4.765   5.592   3.420
 5303SOL     OW16807   6.870   4.974   6.129
 5303SOL    HW116808   6.818   5.041   6.076
 5303SOL    HW216809   6.824   4.885   6.124
 5304SOL     OW16810   6.171   1.531   0.823
 5304SOL    HW116811   6.190   1.570   0.913
 5304SOL    HW216812   6.238   1.460   0.803
 5305SOL     OW16813   1.228   5.446   2.843
 5305SOL    HW116814   1.205   5.396   2.927
 5305SOL    HW216815   1.326   5.438   2.825
 5306SOL     OW16816   6.541   4.105   6.076
 5306SOL    HW116817   6.607   4.038   6.108
 5306SOL    HW216818   6.455   4.094   6.125
 5307SOL     OW16819   4.800   2.213   0.563
 5307SOL    HW116820   4.888   2.215   0.515
 5307SOL    HW216821   4.726   2.204   0.497
 5308SOL     OW16822   1.630   4.520   2.996
 5308SOL    HW116823   1.582   4.436   3.019
 5308SOL    HW216824   1.662   4.516   2.901
 5309SOL     OW16825   4.289   5.848   2.449
 5309SOL    HW116826   4.250   5.789   2.379
 5309SOL    HW216827   4.362   5.799   2.497
 5310SOL     OW16828   6.070   3.208   2.633
 5310SOL    HW116829   5.985   3.255   2.605
 5310SOL    HW216830   6.148   3.265   2.609
 5311SOL     OW16831   5.762   6.390   0.455
 5311SOL    HW116832   5.753   6.487   0.475
 5311SOL    HW216833   5.858   6.363   0.462
 5312SOL     OW16834   0.296   6.500   1.643
 5312SOL    HW116835   0.203   6.513   1.610
 5312SOL    HW216836   0.329   6.586   1.683
 5313SOL     OW16837   6.906   4.904   5.234
 5313SOL    HW116838   6.879   4.918   5.329
 5313SOL    HW216839   7.006   4.897   5.228
 5314SOL     OW16840   5.649   6.390   1.133
 5314SOL    HW116841   5.740   6.428   1.115
 5314SOL    HW216842   5.582   6.436   1.075
 5315SOL     OW16843   4.493   2.102   3.508
 5315SOL    HW116844   4.583   2.096   3.464
 5315SOL    HW216845   4.433   2.031   3.471
 5316SOL     OW16846   0.941   2.932   5.170
 5316SOL    HW116847   0.958   2.952   5.267
 5316SOL    HW216848   0.845   2.948   5.150
 5317SOL     OW16849   6.530   1.233   5.598
 5317SOL    HW116850   6.617   1.192   5.628
 5317SOL    HW216851   6.507   1.310   5.656
 5318SOL     OW16852   6.741   3.024   0.291
 5318SOL    HW116853   6.741   2.989   0.197
 5318SOL    HW216854   6.835   3.035   0.323
 5319SOL     OW16855   4.417   6.837   0.874
 5319SOL    HW116856   4.402   6.846   0.973
 5319SOL    HW216857   4.438   6.927   0.835
 5320SOL     OW16858   4.169   5.614   1.176
 5320SOL    HW116859   4.166   5.683   1.104
 5320SOL    HW216860   4.095   5.547   1.162
 5321SOL     OW16861   1.593   4.610   5.137
 5321SOL    HW116862   1.690   4.586   5.131
 5321SOL    HW216863   1.572   4.639   5.231
 5322SOL     OW16864   5.490   6.744   1.558
 5322SOL    HW116865   5.525   6.652   1.573
 5322SOL    HW216866   5.408   6.739   1.500
 5323SOL     OW16867   4.298   1.421   5.860
 5323SOL    HW116868   4.259   1.511   5.880
 5323SOL    HW216869   4.374   1.431   5.795
 5324SOL     OW16870   2.745   2.702   6.775
 5324SOL    HW116871   2.829   2.648   6.781
 5324SOL    HW216872   2.766   2.798   6.793
 5325SOL     OW16873   2.495   1.747   5.282
 5325SOL    HW116874   2.462   1.699   5.363
 5325SOL    HW216875   2.594   1.762   5.290
 5326SOL     OW16876   6.639   5.805   3.297
 5326SOL    HW116877   6.637   5.708   3.320
 5326SOL    HW216878   6.720   5.847   3.337
 5327SOL     OW16879   5.186   2.057   4.714
 5327SOL    HW116880   5.154   2.147   4.685
 5327SOL    HW216881   5.282   2.063   4.742
 5328SOL     OW16882   4.182   4.099   5.853
 5328SOL    HW116883   4.102   4.073   5.907
 5328SOL    HW216884   4.154   4.117   5.759
 5329SOL     OW16885   1.431   5.698   6.443
 5329SOL    HW116886   1.367   5.653   6.380
 5329SOL    HW216887   1.450   5.790   6.411
 5330SOL     OW16888   3.613   3.949   0.559
 5330SOL    HW116889   3.669   3.867   0.553
 5330SOL    HW216890   3.521   3.929   0.524
 5331SOL     OW16891   6.863   2.275   6.917
 5331SOL    HW116892   6.875   2.202   6.850
 5331SOL    HW216893   6.773   2.317   6.905
 5332SOL     OW16894   1.610   4.061   1.810
 5332SOL    HW116895   1.628   4.061   1.908
 5332SOL    HW216896   1.542   3.991   1.789
 5333SOL     OW16897   1.345   0.755   3.350
 5333SOL    HW116898   1.440   0.737   3.323
 5333SOL    HW216899   1.283   0.700   3.295
 5334SOL     OW16900   3.073   0.468   5.140
 5334SOL    HW116901   3.094   0.548   5.084
 5334SOL    HW216902   3.151   0.405   5.139
 5335SOL     OW16903   6.528   5.869   0.702
 5335SOL    HW116904   6.429   5.860   0.709
 5335SOL    HW216905   6.565   5.901   0.789
 5336SOL     OW16906   1.717   3.542   2.216
 5336SOL    HW116907   1.669   3.518   2.131
 5336SOL    HW216908   1.759   3.460   2.255
 5337SOL     OW16909   4.824   3.838   1.358
 5337SOL    HW116910   4.819   3.937   1.351
 5337SOL    HW216911   4.834   3.811   1.455
 5338SOL     OW16912   6.595   2.099   6.956
 5338SOL    HW116913   6.506   2.108   7.001
 5338SOL    HW216914   6.583   2.108   6.857
 5339SOL     OW16915   6.462   2.191   4.005
 5339SOL    HW116916   6.473   2.172   3.907
 5339SOL    HW216917   6.396   2.126   4.044
 5340SOL     OW16918   5.590   2.799   6.875
 5340SOL    HW116919   5.597   2.797   6.974
 5340SOL    HW216920   5.496   2.820   6.848
 5341SOL     OW16921   3.881   2.080   5.565
 5341SOL    HW116922   3.939   2.142   5.511
 5341SOL    HW216923   3.937   2.034   5.634
 5342SOL     OW16924   3.718   0.555   4.805
 5342SOL    HW116925   3.815   0.534   4.801
 5342SOL    HW216926   3.702   0.648   4.770
 5343SOL     OW16927   4.048   3.850   2.890
 5343SOL    HW116928   4.126   3.856   2.952
 5343SOL    HW216929   3.970   3.899   2.929
 5344SOL     OW16930   1.790   2.564   2.445
 5344SOL    HW116931   1.715   2.624   2.420
 5344SOL    HW216932   1.809   2.573   2.542
 5345SOL     OW16933   4.527   6.394   1.002
 5345SOL    HW116934   4.602   6.333   1.026
 5345SOL    HW216935   4.543   6.484   1.043
 5346SOL     OW16936   3.048   6.012   3.767
 5346SOL    HW116937   3.018   5.992   3.674
 5346SOL    HW216938   3.015   6.103   3.794
 5347SOL     OW16939   6.925   2.264   2.091
 5347SOL    HW116940   6.971   2.199   2.030
 5347SOL    HW216941   6.831   2.279   2.059
 5348SOL     OW16942   0.853   1.515   0.650
 5348SOL    HW116943   0.922   1.444   0.641
 5348SOL    HW216944   0.896   1.605   0.648
 5349SOL     OW16945   0.424   2.376   0.052
 5349SOL    HW116946   0.513   2.343   0.082
 5349SOL    HW216947   0.436   2.458   7.014
 5350SOL     OW16948   2.408   0.526   6.208
 5350SOL    HW116949   2.420   0.625   6.197
 5350SOL    HW216950   2.493   0.480   6.182
 5351SOL     OW16951   5.200   6.122   1.263
 5351SOL    HW116952   5.134   6.145   1.191
 5351SOL    HW216953   5.287   6.168   1.245
 5352SOL     OW16954   2.245   5.930   4.240
 5352SOL    HW116955   2.272   6.016   4.283
 5352SOL    HW216956   2.324   5.868   4.238
 5353SOL     OW16957   4.497   6.386   4.515
 5353SOL    HW116958   4.463   6.464   4.567
 5353SOL    HW216959   4.553   6.328   4.574
 5354SOL     OW16960   2.707   4.726   2.519
 5354SOL    HW116961   2.708   4.710   2.421
 5354SOL    HW216962   2.616   4.755   2.548
 5355SOL     OW16963   4.439   1.806   3.656
 5355SOL    HW116964   4.431   1.744   3.578
 5355SOL    HW216965   4.531   1.847   3.657
 5356SOL     OW16966   6.358   3.952   1.674
 5356SOL    HW116967   6.301   3.873   1.647
 5356SOL    HW216968   6.300   4.032   1.687
 5357SOL     OW16969   3.858   0.689   0.627
 5357SOL    HW116970   3.785   0.744   0.667
 5357SOL    HW216971   3.937   0.688   0.687
 5358SOL     OW16972   4.022   2.061   0.568
 5358SOL    HW116973   4.060   2.111   0.647
 5358SOL    HW216974   3.923   2.050   0.580
 5359SOL     OW16975   2.533   1.712   1.022
 5359SOL    HW116976   2.573   1.657   1.096
 5359SOL    HW216977   2.554   1.808   1.037
 5360SOL     OW16978   3.716   6.586   5.075
 5360SOL    HW116979   3.666   6.660   5.030
 5360SOL    HW216980   3.656   6.543   5.143
 5361SOL     OW16981   2.179   1.149   4.672
 5361SOL    HW116982   2.223   1.196   4.595
 5361SOL    HW216983   2.098   1.199   4.700
 5362SOL     OW16984   5.052   4.100   3.151
 5362SOL    HW116985   5.030   4.195   3.131
 5362SOL    HW216986   5.118   4.095   3.225
 5363SOL     OW16987   1.005   6.292   5.801
 5363SOL    HW116988   1.000   6.205   5.753
 5363SOL    HW216989   0.980   6.366   5.739
 5364SOL     OW16990   6.474   5.512   0.762
 5364SOL    HW116991   6.545   5.578   0.785
 5364SOL    HW216992   6.398   5.559   0.718
 5365SOL     OW16993   4.502   3.147   6.260
 5365SOL    HW116994   4.497   3.158   6.161
 5365SOL    HW216995   4.596   3.161   6.290
 5366SOL     OW16996   4.393   4.648   0.706
 5366SOL    HW116997   4.307   4.636   0.656
 5366SOL    HW216998   4.403   4.575   0.774
 5367SOL     OW16999   0.736   4.969   0.634
 5367SOL    HW117000   0.772   5.046   0.580
 5367SOL    HW217001   0.658   5.000   0.687
 5368SOL     OW17002   5.630   1.673   2.482
 5368SOL    HW117003   5.539   1.715   2.483
 5368SOL    HW217004   5.695   1.737   2.523
 5369SOL     OW17005   2.375   4.879   3.407
 5369SOL    HW117006   2.448   4.909   3.467
 5369SOL    HW217007   2.305   4.950   3.401
 5370SOL     OW17008   4.150   3.281   1.571
 5370SOL    HW117009   4.071   3.339   1.590
 5370SOL    HW217010   4.148   3.202   1.632
 5371SOL     OW17011   1.778   4.057   4.661
 5371SOL    HW117012   1.770   4.143   4.610
 5371SOL    HW217013   1.844   4.070   4.736
 5372SOL     OW17014   2.933   5.598   1.917
 5372SOL    HW117015   2.941   5.618   2.015
 5372SOL    HW217016   2.941   5.683   1.865
 5373SOL     OW17017   2.891   4.859   4.477
 5373SOL    HW117018   2.859   4.951   4.498
 5373SOL    HW217019   2.991   4.857   4.481
 5374SOL     OW17020   1.606   3.203   6.473
 5374SOL    HW117021   1.627   3.111   6.506
 5374SOL    HW217022   1.682   3.264   6.495
 5375SOL     OW17023   0.883   4.158   5.278
 5375SOL    HW117024   0.783   4.157   5.287
 5375SOL    HW217025   0.920   4.073   5.313
 5376SOL     OW17026   1.754   3.346   1.516
 5376SOL    HW117027   1.690   3.273   1.492
 5376SOL    HW217028   1.822   3.310   1.580
 5377SOL     OW17029   6.456   0.056   1.601
 5377SOL    HW117030   6.449   6.976   1.585
 5377SOL    HW217031   6.418   0.105   1.523
 5378SOL     OW17032   6.436   0.534   0.636
 5378SOL    HW117033   6.361   0.476   0.667
 5378SOL    HW217034   6.452   0.606   0.703
 5379SOL     OW17035   0.409   5.018   3.999
 5379SOL    HW117036   0.462   4.937   4.023
 5379SOL    HW217037   0.315   4.992   3.976
 5380SOL     OW17038   2.295   0.774   3.537
 5380SOL    HW117039   2.307   0.716   3.456
 5380SOL    HW217040   2.381   0.779   3.588
 5381SOL     OW17041   6.570   3.870   0.916
 5381SOL    HW117042   6.489   3.876   0.975
 5381SOL    HW217043   6.599   3.962   0.890
 5382SOL     OW17044   3.124   0.350   1.503
 5382SOL    HW117045   3.081   0.262   1.526
 5382SOL    HW217046   3.058   0.408   1.456
 5383SOL     OW17047   2.842   2.330   5.595
 5383SOL    HW117048   2.872   2.333   5.500
 5383SOL    HW217049   2.744   2.347   5.600
 5384SOL     OW17050   6.310   6.359   4.320
 5384SOL    HW117051   6.306   6.445   4.270
 5384SOL    HW217052   6.302   6.376   4.418
 5385SOL     OW17053   2.932   3.867   2.732
 5385SOL    HW117054   2.947   3.826   2.822
 5385SOL    HW217055   2.839   3.904   2.728
 5386SOL     OW17056   4.839   6.168   4.093
 5386SOL    HW117057   4.899   6.243   4.062
 5386SOL    HW217058   4.744   6.198   4.089
 5387SOL     OW17059   2.711   5.795   2.502
 5387SOL    HW117060   2.727   5.699   2.524
 5387SOL    HW217061   2.684   5.802   2.406
 5388SOL     OW17062   5.042   6.523   2.489
 5388SOL    HW117063   4.949   6.497   2.467
 5388SOL    HW217064   5.100   6.514   2.408
 5389SOL     OW17065   5.019   1.026   1.781
 5389SOL    HW117066   5.012   0.999   1.684
 5389SOL    HW217067   5.032   0.944   1.837
 5390SOL     OW17068   4.981   4.858   4.468
 5390SOL    HW117069   4.914   4.916   4.513
 5390SOL    HW217070   5.031   4.911   4.399
 5391SOL     OW17071   2.681   3.333   0.531
 5391SOL    HW117072   2.680   3.417   0.477
 5391SOL    HW217073   2.710   3.257   0.473
 5392SOL     OW17074   5.954   3.166   1.374
 5392SOL    HW117075   5.994   3.122   1.454
 5392SOL    HW217076   5.979   3.263   1.374
 5393SOL     OW17077   0.050   6.955   0.060
 5393SOL    HW117078   6.999   0.009   0.058
 5393SOL    HW217079   0.040   6.901   0.144
 5394SOL     OW17080   0.763   3.812   6.208
 5394SOL    HW117081   0.788   3.721   6.239
 5394SOL    HW217082   0.687   3.846   6.264
 5395SOL     OW17083   4.824   0.426   0.799
 5395SOL    HW117084   4.812   0.380   0.887
 5395SOL    HW217085   4.920   0.427   0.773
 5396SOL     OW17086   5.222   3.861   2.370
 5396SOL    HW117087   5.241   3.888   2.464
 5396SOL    HW217088   5.214   3.761   2.365
 5397SOL     OW17089   6.844   2.831   1.797
 5397SOL    HW117090   6.884   2.905   1.851
 5397SOL    HW217091   6.893   2.746   1.815
 5398SOL     OW17092   3.358   2.596   1.603
 5398SOL    HW117093   3.264   2.612   1.632
 5398SOL    HW217094   3.373   2.498   1.592
 5399SOL     OW17095   2.928   6.392   0.784
 5399SOL    HW117096   2.910   6.490   0.776
 5399SOL    HW217097   2.951   6.355   0.694
 5400SOL     OW17098   2.746   4.129   0.821
 5400SOL    HW117099   2.647   4.120   0.832
 5400SOL    HW217100   2.771   4.225   0.831
 5401SOL     OW17101   5.755   3.233   2.154
 5401SOL    HW117102   5.783   3.241   2.058
 5401SOL    HW217103   5.820   3.282   2.212
 5402SOL     OW17104   2.624   5.750   1.750
 5402SOL    HW117105   2.548   5.815   1.751
 5402SOL    HW217106   2.691   5.776   1.821
 5403SOL     OW17107   0.081   3.329   6.433
 5403SOL    HW117108   7.006   3.330   6.395
 5403SOL    HW217109   0.135   3.402   6.391
 5404SOL     OW17110   1.245   2.887   3.552
 5404SOL    HW117111   1.176   2.954   3.525
 5404SOL    HW217112   1.249   2.813   3.485
 5405SOL     OW17113   6.966   5.789   6.664
 5405SOL    HW117114   6.941   5.850   6.738
 5405SOL    HW217115   0.034   5.742   6.687
 5406SOL     OW17116   1.970   2.010   0.409
 5406SOL    HW117117   1.933   2.020   0.316
 5406SOL    HW217118   1.944   2.090   0.463
 5407SOL     OW17119   4.263   3.622   0.449
 5407SOL    HW117120   4.321   3.646   0.526
 5407SOL    HW217121   4.231   3.527   0.460
 5408SOL     OW17122   2.282   0.839   5.418
 5408SOL    HW117123   2.326   0.791   5.494
 5408SOL    HW217124   2.252   0.929   5.448
 5409SOL     OW17125   5.093   0.221   3.149
 5409SOL    HW117126   5.117   0.226   3.246
 5409SOL    HW217127   5.041   0.137   3.132
 5410SOL     OW17128   3.029   2.225   1.730
 5410SOL    HW117129   3.126   2.212   1.747
 5410SOL    HW217130   2.984   2.256   1.814
 5411SOL     OW17131   6.655   5.124   6.044
 5411SOL    HW117132   6.615   5.147   5.956
 5411SOL    HW217133   6.677   5.208   6.094
 5412SOL     OW17134   5.053   3.015   0.771
 5412SOL    HW117135   4.985   3.049   0.707
 5412SOL    HW217136   5.135   2.987   0.721
 5413SOL     OW17137   2.915   1.728   1.440
 5413SOL    HW117138   2.928   1.779   1.355
 5413SOL    HW217139   2.858   1.781   1.502
 5414SOL     OW17140   5.021   1.838   4.722
 5414SOL    HW117141   4.961   1.870   4.795
 5414SOL    HW217142   5.083   1.911   4.695
 5415SOL     OW17143   0.442   6.032   1.201
 5415SOL    HW117144   0.487   6.111   1.243
 5415SOL    HW217145   0.461   5.950   1.256
 5416SOL     OW17146   4.449   5.127   5.318
 5416SOL    HW117147   4.444   5.076   5.404
 5416SOL    HW217148   4.545   5.136   5.290
 5417SOL     OW17149   3.830   6.671   5.383
 5417SOL    HW117150   3.885   6.700   5.305
 5417SOL    HW217151   3.739   6.712   5.377
 5418SOL     OW17152   3.558   0.348   2.411
 5418SOL    HW117153   3.504   0.370   2.493
 5418SOL    HW217154   3.581   0.433   2.363
 5419SOL     OW17155   3.618   4.769   0.206
 5419SOL    HW117156   3.519   4.773   0.202
 5419SOL    HW217157   3.649   4.769   0.301
 5420SOL     OW17158   2.289   2.760   3.017
 5420SOL    HW117159   2.243   2.786   3.103
 5420SOL    HW217160   2.372   2.709   3.038
 5421SOL     OW17161   1.597   3.732   1.271
 5421SOL    HW117162   1.692   3.762   1.282
 5421SOL    HW217163   1.537   3.793   1.322
 5422SOL     OW17164   1.035   5.051   0.876
 5422SOL    HW117165   1.001   5.046   0.970
 5422SOL    HW217166   1.002   4.972   0.825
 5423SOL     OW17167   6.220   3.146   6.879
 5423SOL    HW117168   6.148   3.209   6.906
 5423SOL    HW217169   6.201   3.055   6.916
 5424SOL     OW17170   5.102   3.460   4.151
 5424SOL    HW117171   5.168   3.425   4.217
 5424SOL    HW217172   5.043   3.386   4.120
 5425SOL     OW17173   4.058   1.303   5.103
 5425SOL    HW117174   4.016   1.212   5.100
 5425SOL    HW217175   3.988   1.372   5.089
 5426SOL     OW17176   5.610   6.096   4.321
 5426SOL    HW117177   5.699   6.050   4.314
 5426SOL    HW217178   5.600   6.134   4.413
 5427SOL     OW17179   4.259   5.805   6.459
 5427SOL    HW117180   4.231   5.807   6.555
 5427SOL    HW217181   4.213   5.879   6.410
 5428SOL     OW17182   0.603   0.305   0.723
 5428SOL    HW117183   0.702   0.310   0.740
 5428SOL    HW217184   0.577   0.210   0.707
 5429SOL     OW17185   1.524   1.360   6.759
 5429SOL    HW117186   1.620   1.377   6.738
 5429SOL    HW217187   1.475   1.447   6.764
 5430SOL     OW17188   0.239   1.932   6.286
 5430SOL    HW117189   0.209   1.965   6.376
 5430SOL    HW217190   0.296   1.851   6.298
 5431SOL     OW17191   3.348   6.652   6.643
 5431SOL    HW117192   3.291   6.580   6.683
 5431SOL    HW217193   3.301   6.691   6.564
 5432SOL     OW17194   5.371   0.250   6.759
 5432SOL    HW117195   5.424   0.322   6.714
 5432SOL    HW217196   5.318   0.199   6.690
 5433SOL     OW17197   0.402   1.839   4.505
 5433SOL    HW117198   0.340   1.917   4.497
 5433SOL    HW217199   0.375   1.767   4.440
 5434SOL     OW17200   2.788   0.083   5.578
 5434SOL    HW117201   2.793   0.162   5.640
 5434SOL    HW217202   2.750   0.112   5.490
 5435SOL     OW17203   4.717   6.824   1.897
 5435SOL    HW117204   4.661   6.818   1.979
 5435SOL    HW217205   4.693   6.907   1.846
 5436SOL     OW17206   4.686   4.179   3.317
 5436SOL    HW117207   4.709   4.090   3.275
 5436SOL    HW217208   4.753   4.200   3.388
 5437SOL     OW17209   2.680   4.079   0.487
 5437SOL    HW117210   2.695   4.004   0.551
 5437SOL    HW217211   2.766   4.127   0.471
 5438SOL     OW17212   6.740   2.756   1.555
 5438SOL    HW117213   6.773   2.781   1.646
 5438SOL    HW217214   6.762   2.660   1.536
 5439SOL     OW17215   1.549   2.018   1.226
 5439SOL    HW117216   1.489   2.058   1.156
 5439SOL    HW217217   1.614   2.087   1.258
 5440SOL     OW17218   1.589   1.402   1.487
 5440SOL    HW117219   1.625   1.455   1.410
 5440SOL    HW217220   1.620   1.308   1.480
 5441SOL     OW17221   3.979   1.686   3.898
 5441SOL    HW117222   4.056   1.740   3.863
 5441SOL    HW217223   3.903   1.747   3.920
 5442SOL     OW17224   4.479   6.671   2.607
 5442SOL    HW117225   4.444   6.714   2.690
 5442SOL    HW217226   4.578   6.660   2.614
 5443SOL     OW17227   3.019   0.194   4.848
 5443SOL    HW117228   3.113   0.175   4.820
 5443SOL    HW217229   2.995   0.135   4.925
 5444SOL     OW17230   0.922   0.461   4.113
 5444SOL    HW117231   0.970   0.534   4.064
 5444SOL    HW217232   0.896   0.493   4.203
 5445SOL     OW17233   6.408   3.965   3.357
 5445SOL    HW117234   6.347   3.895   3.320
 5445SOL    HW217235   6.503   3.936   3.345
 5446SOL     OW17236   5.833   5.698   5.111
 5446SOL    HW117237   5.908   5.705   5.045
 5446SOL    HW217238   5.757   5.649   5.069
 5447SOL     OW17239   3.443   2.353   0.110
 5447SOL    HW117240   3.422   2.408   0.029
 5447SOL    HW217241   3.408   2.400   0.192
 5448SOL     OW17242   4.610   2.486   5.059
 5448SOL    HW117243   4.552   2.526   5.130
 5448SOL    HW217244   4.606   2.387   5.064
 5449SOL     OW17245   1.636   2.305   6.267
 5449SOL    HW117246   1.558   2.247   6.288
 5449SOL    HW217247   1.648   2.311   6.168
 5450SOL     OW17248   2.465   0.859   1.850
 5450SOL    HW117249   2.550   0.907   1.870
 5450SOL    HW217250   2.418   0.905   1.774
 5451SOL     OW17251   1.403   5.783   3.106
 5451SOL    HW117252   1.316   5.751   3.067
 5451SOL    HW217253   1.463   5.814   3.033
 5452SOL     OW17254   1.841   4.288   0.052
 5452SOL    HW117255   1.930   4.316   0.089
 5452SOL    HW217256   1.837   4.188   0.050
 5453SOL     OW17257   6.669   4.101   0.837
 5453SOL    HW117258   6.766   4.124   0.835
 5453SOL    HW217259   6.621   4.162   0.900
 5454SOL     OW17260   0.121   4.375   6.617
 5454SOL    HW117261   0.077   4.433   6.686
 5454SOL    HW217262   0.074   4.386   6.529
 5455SOL     OW17263   0.013   3.024   0.987
 5455SOL    HW117264   6.993   3.106   1.030
 5455SOL    HW217265   0.020   2.951   1.055
 5456SOL     OW17266   3.333   0.684   6.238
 5456SOL    HW117267   3.341   0.586   6.256
 5456SOL    HW217268   3.402   0.711   6.171
 5457SOL     OW17269   5.321   2.274   0.948
 5457SOL    HW117270   5.406   2.221   0.940
 5457SOL    HW217271   5.281   2.287   0.857
 5458SOL     OW17272   1.072   4.616   6.927
 5458SOL    HW117273   1.105   4.547   6.992
 5458SOL    HW217274   1.037   4.571   6.845
 5459SOL     OW17275   1.830   5.122   0.211
 5459SOL    HW117276   1.827   5.051   0.282
 5459SOL    HW217277   1.844   5.079   0.122
 5460SOL     OW17278   3.377   0.230   1.630
 5460SOL    HW117279   3.426   0.219   1.543
 5460SOL    HW217280   3.290   0.277   1.613
 5461SOL     OW17281   5.189   6.429   5.216
 5461SOL    HW117282   5.265   6.473   5.167
 5461SOL    HW217283   5.217   6.338   5.246
 5462SOL     OW17284   1.529   0.652   1.142
 5462SOL    HW117285   1.523   0.751   1.131
 5462SOL    HW217286   1.597   0.616   1.078
 5463SOL     OW17287   6.227   2.453   0.775
 5463SOL    HW117288   6.152   2.492   0.723
 5463SOL    HW217289   6.252   2.515   0.849
 5464SOL     OW17290   1.750   0.580   4.301
 5464SOL    HW117291   1.727   0.667   4.257
 5464SOL    HW217292   1.799   0.598   4.386
 5465SOL     OW17293   4.033   0.068   3.699
 5465SOL    HW117294   4.119   0.016   3.705
 5465SOL    HW217295   3.957   0.011   3.729
 5466SOL     OW17296   5.501   4.716   4.754
 5466SOL    HW117297   5.585   4.667   4.776
 5466SOL    HW217298   5.497   4.734   4.656
 5467SOL     OW17299   5.249   2.033   2.760
 5467SOL    HW117300   5.175   2.082   2.714
 5467SOL    HW217301   5.215   1.994   2.846
 5468SOL     OW17302   4.860   1.664   4.597
 5468SOL    HW117303   4.901   1.736   4.652
 5468SOL    HW217304   4.887   1.676   4.501
 5469SOL     OW17305   3.895   4.761   6.288
 5469SOL    HW117306   3.872   4.853   6.257
 5469SOL    HW217307   3.903   4.700   6.209
 5470SOL     OW17308   1.894   4.816   3.770
 5470SOL    HW117309   1.820   4.751   3.753
 5470SOL    HW217310   1.884   4.895   3.709
 5471SOL     OW17311   5.629   5.818   1.195
 5471SOL    HW117312   5.696   5.893   1.203
 5471SOL    HW217313   5.541   5.855   1.168
 5472SOL     OW17314   4.578   3.987   6.066
 5472SOL    HW117315   4.627   3.972   5.980
 5472SOL    HW217316   4.513   4.062   6.056
 5473SOL     OW17317   0.931   3.399   2.809
 5473SOL    HW117318   1.018   3.402   2.759
 5473SOL    HW217319   0.948   3.402   2.907
 5474SOL     OW17320   2.327   5.005   4.200
 5474SOL    HW117321   2.374   5.073   4.256
 5474SOL    HW217322   2.371   5.001   4.110
 5475SOL     OW17323   3.840   2.575   1.183
 5475SOL    HW117324   3.769   2.542   1.121
 5475SOL    HW217325   3.803   2.580   1.276
 5476SOL     OW17326   2.069   3.469   6.095
 5476SOL    HW117327   2.071   3.369   6.103
 5476SOL    HW217328   2.156   3.501   6.058
 5477SOL     OW17329   2.159   3.394   3.360
 5477SOL    HW117330   2.210   3.477   3.381
 5477SOL    HW217331   2.187   3.321   3.423
 5478SOL     OW17332   5.315   5.733   6.343
 5478SOL    HW117333   5.356   5.825   6.346
 5478SOL    HW217334   5.375   5.672   6.292
 5479SOL     OW17335   4.762   0.756   4.835
 5479SOL    HW117336   4.816   0.734   4.916
 5479SOL    HW217337   4.799   0.839   4.792
 5480SOL     OW17338   0.817   4.260   4.564
 5480SOL    HW117339   0.764   4.237   4.645
 5480SOL    HW217340   0.894   4.196   4.555
 5481SOL     OW17341   2.874   0.229   4.627
 5481SOL    HW117342   2.940   0.225   4.702
 5481SOL    HW217343   2.899   0.304   4.566
 5482SOL     OW17344   3.452   4.506   1.659
 5482SOL    HW117345   3.465   4.583   1.722
 5482SOL    HW217346   3.355   4.488   1.649
 5483SOL     OW17347   0.750   2.503   6.150
 5483SOL    HW117348   0.787   2.417   6.114
 5483SOL    HW217349   0.679   2.483   6.217
 5484SOL     OW17350   4.645   0.562   4.678
 5484SOL    HW117351   4.556   0.535   4.714
 5484SOL    HW217352   4.693   0.618   4.745
 5485SOL     OW17353   2.563   6.243   5.322
 5485SOL    HW117354   2.620   6.242   5.239
 5485SOL    HW217355   2.529   6.151   5.341
 5486SOL     OW17356   2.740   5.695   5.254
 5486SOL    HW117357   2.745   5.794   5.238
 5486SOL    HW217358   2.828   5.653   5.231
 5487SOL     OW17359   2.873   4.469   5.927
 5487SOL    HW117360   2.789   4.493   5.977
 5487SOL    HW217361   2.858   4.384   5.877
 5488SOL     OW17362   5.840   1.230   0.572
 5488SOL    HW117363   5.749   1.216   0.612
 5488SOL    HW217364   5.893   1.145   0.579
 5489SOL     OW17365   6.751   3.091   2.153
 5489SOL    HW117366   6.746   3.157   2.229
 5489SOL    HW217367   6.698   3.010   2.176
 5490SOL     OW17368   0.797   6.713   2.481
 5490SOL    HW117369   0.885   6.760   2.467
 5490SOL    HW217370   0.811   6.614   2.479
 5491SOL     OW17371   6.935   3.059   0.740
 5491SOL    HW117372   6.989   3.033   0.821
 5491SOL    HW217373   6.857   3.113   0.769
 5492SOL     OW17374   0.482   2.108   5.442
 5492SOL    HW117375   0.570   2.148   5.469
 5492SOL    HW217376   0.426   2.092   5.524
 5493SOL     OW17377   4.099   3.662   1.744
 5493SOL    HW117378   4.123   3.754   1.714
 5493SOL    HW217379   4.106   3.656   1.844
 5494SOL     OW17380   6.083   4.166   5.279
 5494SOL    HW117381   6.060   4.084   5.228
 5494SOL    HW217382   6.136   4.141   5.361
 5495SOL     OW17383   5.931   0.718   0.271
 5495SOL    HW117384   5.899   0.752   0.359
 5495SOL    HW217385   5.927   0.619   0.270
 5496SOL     OW17386   4.740   0.941   4.274
 5496SOL    HW117387   4.832   0.904   4.284
 5496SOL    HW217388   4.684   0.915   4.353
 5497SOL     OW17389   0.575   1.271   5.886
 5497SOL    HW117390   0.654   1.276   5.947
 5497SOL    HW217391   0.606   1.258   5.792
 5498SOL     OW17392   0.850   4.806   1.821
 5498SOL    HW117393   0.822   4.844   1.909
 5498SOL    HW217394   0.914   4.731   1.835
 5499SOL     OW17395   0.626   0.575   4.959
 5499SOL    HW117396   0.574   0.588   5.044
 5499SOL    HW217397   0.700   0.643   4.955
 5500SOL     OW17398   2.290   0.735   0.382
 5500SOL    HW117399   2.224   0.665   0.355
 5500SOL    HW217400   2.301   0.734   0.481
 5501SOL     OW17401   4.015   2.269   6.798
 5501SOL    HW117402   3.984   2.242   6.889
 5501SOL    HW217403   4.114   2.259   6.792
 5502SOL     OW17404   4.977   2.622   7.016
 5502SOL    HW117405   5.042   2.664   0.062
 5502SOL    HW217406   4.901   2.685   6.999
 5503SOL     OW17407   0.588   3.568   0.257
 5503SOL    HW117408   0.656   3.525   0.197
 5503SOL    HW217409   0.581   3.665   0.236
 5504SOL     OW17410   3.630   0.876   6.953
 5504SOL    HW117411   3.686   0.933   7.012
 5504SOL    HW217412   3.652   0.896   6.857
 5505SOL     OW17413   2.611   4.895   4.122
 5505SOL    HW117414   2.619   4.908   4.221
 5505SOL    HW217415   2.698   4.919   4.079
 5506SOL     OW17416   0.335   3.377   6.004
 5506SOL    HW117417   0.408   3.436   5.969
 5506SOL    HW217418   0.371   3.286   6.024
 5507SOL     OW17419   3.014   6.984   6.461
 5507SOL    HW117420   3.094   0.014   6.496
 5507SOL    HW217421   2.934   0.025   6.466
 5508SOL     OW17422   0.615   0.731   6.679
 5508SOL    HW117423   0.709   0.713   6.705
 5508SOL    HW217424   0.584   0.816   6.721
 5509SOL     OW17425   0.134   5.241   0.569
 5509SOL    HW117426   0.064   5.180   0.607
 5509SOL    HW217427   0.224   5.202   0.584
 5510SOL     OW17428   4.170   5.203   6.794
 5510SOL    HW117429   4.235   5.142   6.749
 5510SOL    HW217430   4.111   5.150   6.854
 5511SOL     OW17431   0.652   1.522   5.462
 5511SOL    HW117432   0.720   1.557   5.397
 5511SOL    HW217433   0.578   1.589   5.472
 5512SOL     OW17434   3.784   0.968   2.071
 5512SOL    HW117435   3.782   1.047   2.010
 5512SOL    HW217436   3.866   0.972   2.128
 5513SOL     OW17437   4.265   4.866   0.086
 5513SOL    HW117438   4.230   4.838   7.014
 5513SOL    HW217439   4.363   4.882   0.080
 5514SOL     OW17440   3.026   6.965   5.930
 5514SOL    HW117441   2.945   6.981   5.873
 5514SOL    HW217442   3.090   6.907   5.880
 5515SOL     OW17443   2.216   5.884   2.038
 5515SOL    HW117444   2.183   5.874   2.132
 5515SOL    HW217445   2.245   5.978   2.022
 5516SOL     OW17446   2.480   2.774   5.269
 5516SOL    HW117447   2.455   2.722   5.187
 5516SOL    HW217448   2.475   2.872   5.250
 5517SOL     OW17449   1.742   3.884   3.013
 5517SOL    HW117450   1.794   3.967   2.996
 5517SOL    HW217451   1.730   3.833   2.927
 5518SOL     OW17452   4.628   4.324   5.823
 5518SOL    HW117453   4.719   4.295   5.855
 5518SOL    HW217454   4.584   4.248   5.776
 5519SOL     OW17455   4.578   2.622   3.621
 5519SOL    HW117456   4.617   2.535   3.592
 5519SOL    HW217457   4.478   2.619   3.609
 5520SOL     OW17458   5.808   6.608   1.943
 5520SOL    HW117459   5.804   6.684   1.879
 5520SOL    HW217460   5.726   6.551   1.933
 5521SOL     OW17461   5.859   5.705   1.338
 5521SOL    HW117462   5.912   5.706   1.253
 5521SOL    HW217463   5.833   5.611   1.360
 5522SOL     OW17464   6.245   5.185   0.735
 5522SOL    HW117465   6.328   5.185   0.791
 5522SOL    HW217466   6.228   5.278   0.701
 5523SOL     OW17467   5.770   1.525   2.020
 5523SOL    HW117468   5.756   1.427   2.011
 5523SOL    HW217469   5.827   1.557   1.944
 5524SOL     OW17470   3.019   0.688   4.712
 5524SOL    HW117471   3.022   0.603   4.765
 5524SOL    HW217472   3.105   0.738   4.726
 5525SOL     OW17473   6.286   2.548   1.419
 5525SOL    HW117474   6.369   2.603   1.411
 5525SOL    HW217475   6.309   2.460   1.461
 5526SOL     OW17476   5.076   4.662   3.139
 5526SOL    HW117477   5.107   4.659   3.044
 5526SOL    HW217478   5.052   4.756   3.164
 5527SOL     OW17479   5.605   2.257   4.019
 5527SOL    HW117480   5.696   2.293   4.039
 5527SOL    HW217481   5.536   2.327   4.035
 5528SOL     OW17482   1.056   1.861   1.419
 5528SOL    HW117483   1.140   1.913   1.403
 5528SOL    HW217484   1.075   1.763   1.413
 5529SOL     OW17485   3.490   0.723   2.066
 5529SOL    HW117486   3.578   0.701   2.022
 5529SOL    HW217487   3.505   0.793   2.136
 5530SOL     OW17488   6.543   2.638   1.413
 5530SOL    HW117489   6.546   2.543   1.442
 5530SOL    HW217490   6.615   2.690   1.460
 5531SOL     OW17491   3.406   3.951   1.249
 5531SOL    HW117492   3.414   3.936   1.348
 5531SOL    HW217493   3.340   4.024   1.231
 5532SOL     OW17494   1.542   3.221   1.400
 5532SOL    HW117495   1.538   3.310   1.355
 5532SOL    HW217496   1.585   3.155   1.339
 5533SOL     OW17497   4.198   1.425   3.935
 5533SOL    HW117498   4.246   1.511   3.918
 5533SOL    HW217499   4.132   1.437   4.009
 5534SOL     OW17500   1.055   1.494   5.263
 5534SOL    HW117501   1.138   1.492   5.317
 5534SOL    HW217502   0.999   1.414   5.283
 5535SOL     OW17503   0.581   2.097   3.172
 5535SOL    HW117504   0.649   2.169   3.158
 5535SOL    HW217505   0.627   2.009   3.182
 5536SOL     OW17506   2.966   0.450   4.501
 5536SOL    HW117507   2.899   0.518   4.531
 5536SOL    HW217508   2.985   0.464   4.403
 5537SOL     OW17509   3.002   1.228   2.797
 5537SOL    HW117510   3.080   1.174   2.830
 5537SOL    HW217511   2.985   1.206   2.701
 5538SOL     OW17512   4.525   5.875   4.454
 5538SOL    HW117513   4.442   5.832   4.489
 5538SOL    HW217514   4.605   5.825   4.489
 5539SOL     OW17515   2.524   2.726   1.008
 5539SOL    HW117516   2.581   2.780   0.947
 5539SOL    HW217517   2.487   2.647   0.959
 5540SOL     OW17518   5.351   4.458   2.594
 5540SOL    HW117519   5.423   4.515   2.635
 5540SOL    HW217520   5.335   4.378   2.652
 5541SOL     OW17521   4.768   1.310   5.783
 5541SOL    HW117522   4.712   1.385   5.819
 5541SOL    HW217523   4.733   1.223   5.817
 5542SOL     OW17524   4.847   4.484   6.256
 5542SOL    HW117525   4.755   4.523   6.264
 5542SOL    HW217526   4.840   4.385   6.246
 5543SOL     OW17527   6.291   2.357   5.815
 5543SOL    HW117528   6.272   2.425   5.887
 5543SOL    HW217529   6.346   2.283   5.853
 5544SOL     OW17530   5.845   0.831   5.900
 5544SOL    HW117531   5.930   0.851   5.851
 5544SOL    HW217532   5.770   0.882   5.859
 5545SOL     OW17533   3.164   2.113   2.058
 5545SOL    HW117534   3.172   2.104   2.157
 5545SOL    HW217535   3.079   2.160   2.035
 5546SOL     OW17536   1.568   5.001   6.000
 5546SOL    HW117537   1.545   4.926   5.938
 5546SOL    HW217538   1.582   4.966   6.092
 5547SOL     OW17539   3.664   5.656   4.676
 5547SOL    HW117540   3.628   5.596   4.748
 5547SOL    HW217541   3.721   5.602   4.614
 5548SOL     OW17542   6.288   3.361   5.189
 5548SOL    HW117543   6.361   3.425   5.214
 5548SOL    HW217544   6.314   3.268   5.215
 5549SOL     OW17545   2.357   5.149   6.753
 5549SOL    HW117546   2.337   5.121   6.847
 5549SOL    HW217547   2.454   5.134   6.734
 5550SOL     OW17548   3.999   6.531   1.313
 5550SOL    HW117549   3.935   6.594   1.358
 5550SOL    HW217550   4.086   6.533   1.361
 5551SOL     OW17551   0.862   1.530   3.013
 5551SOL    HW117552   0.859   1.629   3.000
 5551SOL    HW217553   0.819   1.485   2.934
 5552SOL     OW17554   0.116   2.703   1.910
 5552SOL    HW117555   0.093   2.659   1.997
 5552SOL    HW217556   0.212   2.731   1.911
 5553SOL     OW17557   5.262   5.789   0.471
 5553SOL    HW117558   5.224   5.790   0.564
 5553SOL    HW217559   5.188   5.789   0.404
 5554SOL     OW17560   2.687   2.258   4.734
 5554SOL    HW117561   2.645   2.168   4.718
 5554SOL    HW217562   2.784   2.245   4.756
 5555SOL     OW17563   0.302   5.801   2.762
 5555SOL    HW117564   0.238   5.858   2.812
 5555SOL    HW217565   0.256   5.717   2.732
 5556SOL     OW17566   6.976   1.040   4.756
 5556SOL    HW117567   6.930   1.091   4.683
 5556SOL    HW217568   6.986   0.944   4.729
 5557SOL     OW17569   2.429   0.240   3.708
 5557SOL    HW117570   2.460   0.319   3.760
 5557SOL    HW217571   2.491   0.224   3.631
 5558SOL     OW17572   5.214   3.100   4.891
 5558SOL    HW117573   5.271   3.098   4.974
 5558SOL    HW217574   5.131   3.046   4.907
 5559SOL     OW17575   1.964   0.652   1.486
 5559SOL    HW117576   1.951   0.571   1.429
 5559SOL    HW217577   2.035   0.633   1.554
 5560SOL     OW17578   0.193   1.216   4.191
 5560SOL    HW117579   0.109   1.166   4.174
 5560SOL    HW217580   0.180   1.312   4.165
 5561SOL     OW17581   1.928   3.125   3.566
 5561SOL    HW117582   1.904   3.196   3.499
 5561SOL    HW217583   1.848   3.068   3.585
 5562SOL     OW17584   2.626   2.532   5.755
 5562SOL    HW117585   2.588   2.622   5.779
 5562SOL    HW217586   2.715   2.521   5.800
 5563SOL     OW17587   4.230   5.527   1.456
 5563SOL    HW117588   4.232   5.571   1.367
 5563SOL    HW217589   4.324   5.509   1.486
 5564SOL     OW17590   5.567   4.636   1.730
 5564SOL    HW117591   5.596   4.653   1.636
 5564SOL    HW217592   5.471   4.610   1.731
 5565SOL     OW17593   3.320   3.618   5.489
 5565SOL    HW117594   3.384   3.618   5.412
 5565SOL    HW217595   3.248   3.685   5.473
 5566SOL     OW17596   1.844   4.698   1.077
 5566SOL    HW117597   1.846   4.637   1.157
 5566SOL    HW217598   1.825   4.644   0.995
 5567SOL     OW17599   1.250   5.481   2.022
 5567SOL    HW117600   1.267   5.505   1.927
 5567SOL    HW217601   1.303   5.399   2.046
 5568SOL     OW17602   3.333   2.316   1.582
 5568SOL    HW117603   3.258   2.300   1.518
 5568SOL    HW217604   3.342   2.238   1.643
 5569SOL     OW17605   5.470   1.777   6.868
 5569SOL    HW117606   5.563   1.808   6.846
 5569SOL    HW217607   5.428   1.842   6.932
 5570SOL     OW17608   6.876   4.458   6.135
 5570SOL    HW117609   6.872   4.557   6.123
 5570SOL    HW217610   6.787   4.418   6.116
 5571SOL     OW17611   6.853   4.872   5.847
 5571SOL    HW117612   6.883   4.836   5.759
 5571SOL    HW217613   6.900   4.824   5.921
 5572SOL     OW17614   5.358   2.606   5.665
 5572SOL    HW117615   5.452   2.570   5.667
 5572SOL    HW217616   5.342   2.654   5.579
 5573SOL     OW17617   1.048   3.961   0.602
 5573SOL    HW117618   1.036   4.027   0.528
 5573SOL    HW217619   1.121   3.992   0.663
 5574SOL     OW17620   0.517   5.977   4.677
 5574SOL    HW117621   0.423   5.952   4.654
 5574SOL    HW217622   0.555   5.908   4.739
 5575SOL     OW17623   1.852   1.117   1.138
 5575SOL    HW117624   1.855   1.075   1.229
 5575SOL    HW217625   1.786   1.192   1.139
 5576SOL     OW17626   6.052   5.960   6.882
 5576SOL    HW117627   6.041   5.894   6.808
 5576SOL    HW217628   5.984   6.033   6.871
 5577SOL     OW17629   2.133   3.853   5.533
 5577SOL    HW117630   2.051   3.865   5.478
 5577SOL    HW217631   2.209   3.824   5.474
 5578SOL     OW17632   4.051   2.663   6.408
 5578SOL    HW117633   4.097   2.631   6.326
 5578SOL    HW217634   4.027   2.585   6.466
 5579SOL     OW17635   4.899   4.763   0.089
 5579SOL    HW117636   4.896   4.668   0.120
 5579SOL    HW217637   4.918   4.824   0.166
 5580SOL     OW17638   6.002   1.418   0.425
 5580SOL    HW117639   5.929   1.378   0.480
 5580SOL    HW217640   6.036   1.351   0.359
 5581SOL     OW17641   2.936   2.540   6.879
 5581SOL    HW117642   2.923   2.526   6.977
 5581SOL    HW217643   3.002   2.474   6.843
 5582SOL     OW17644   3.585   3.490   3.431
 5582SOL    HW117645   3.679   3.481   3.465
 5582SOL    HW217646   3.553   3.401   3.400
 5583SOL     OW17647   3.785   0.167   1.019
 5583SOL    HW117648   3.798   0.265   1.030
 5583SOL    HW217649   3.745   0.149   0.929
 5584SOL     OW17650   6.340   2.840   3.379
 5584SOL    HW117651   6.374   2.916   3.324
 5584SOL    HW217652   6.240   2.838   3.375
 5585SOL     OW17653   6.034   6.679   4.381
 5585SOL    HW117654   6.095   6.744   4.335
 5585SOL    HW217655   6.036   6.696   4.480
 5586SOL     OW17656   2.195   0.987   6.427
 5586SOL    HW117657   2.276   1.046   6.431
 5586SOL    HW217658   2.176   0.950   6.518
 5587SOL     OW17659   3.159   0.079   4.030
 5587SOL    HW117660   3.198   0.164   4.065
 5587SOL    HW217661   3.121   0.095   3.939
 5588SOL     OW17662   4.135   0.450   6.745
 5588SOL    HW117663   4.222   0.483   6.708
 5588SOL    HW217664   4.132   0.467   6.844
 5589SOL     OW17665   4.110   3.353   6.195
 5589SOL    HW117666   4.035   3.288   6.203
 5589SOL    HW217667   4.131   3.391   6.286
 5590SOL     OW17668   0.095   6.679   3.463
 5590SOL    HW117669   0.161   6.608   3.441
 5590SOL    HW217670   0.006   6.638   3.484
 5591SOL     OW17671   4.841   0.974   0.235
 5591SOL    HW117672   4.786   0.892   0.250
 5591SOL    HW217673   4.916   0.953   0.172
 5592SOL     OW17674   1.988   2.175   2.568
 5592SOL    HW117675   1.982   2.148   2.472
 5592SOL    HW217676   1.976   2.094   2.627
 5593SOL     OW17677   1.630   3.223   5.132
 5593SOL    HW117678   1.667   3.314   5.110
 5593SOL    HW217679   1.578   3.188   5.054
 5594SOL     OW17680   2.856   0.628   6.840
 5594SOL    HW117681   2.846   0.529   6.837
 5594SOL    HW217682   2.902   0.655   6.925
 5595SOL     OW17683   6.993   1.129   5.182
 5595SOL    HW117684   0.046   1.082   5.131
 5595SOL    HW217685   0.012   1.160   5.270
 5596SOL     OW17686   5.278   1.502   2.943
 5596SOL    HW117687   5.316   1.582   2.990
 5596SOL    HW217688   5.270   1.521   2.846
 5597SOL     OW17689   0.349   1.115   5.972
 5597SOL    HW117690   0.259   1.156   5.963
 5597SOL    HW217691   0.419   1.184   5.955
 5598SOL     OW17692   6.837   2.435   4.032
 5598SOL    HW117693   6.760   2.453   4.093
 5598SOL    HW217694   6.891   2.360   4.068
 5599SOL     OW17695   5.062   2.625   3.096
 5599SOL    HW117696   5.002   2.557   3.055
 5599SOL    HW217697   5.081   2.600   3.191
 5600SOL     OW17698   2.674   1.027   1.918
 5600SOL    HW117699   2.767   0.989   1.922
 5600SOL    HW217700   2.675   1.121   1.950
 5601SOL     OW17701   6.195   2.905   5.390
 5601SOL    HW117702   6.211   2.822   5.336
 5601SOL    HW217703   6.121   2.889   5.455
 5602SOL     OW17704   6.652   2.326   3.073
 5602SOL    HW117705   6.750   2.340   3.087
 5602SOL    HW217706   6.633   2.229   3.058
 5603SOL     OW17707   4.316   1.205   5.444
 5603SOL    HW117708   4.235   1.147   5.451
 5603SOL    HW217709   4.295   1.297   5.478
 5604SOL     OW17710   1.029   0.187   3.917
 5604SOL    HW117711   0.978   0.262   3.960
 5604SOL    HW217712   1.063   0.125   3.989
 5605SOL     OW17713   4.445   6.670   4.282
 5605SOL    HW117714   4.409   6.704   4.196
 5605SOL    HW217715   4.391   6.592   4.313
 5606SOL     OW17716   4.935   2.998   0.477
 5606SOL    HW117717   4.842   2.974   0.504
 5606SOL    HW217718   4.973   2.926   0.419
 5607SOL     OW17719   6.206   2.966   2.220
 5607SOL    HW117720   6.174   2.911   2.298
 5607SOL    HW217721   6.229   2.905   2.144
 5608SOL     OW17722   5.038   0.564   2.917
 5608SOL    HW117723   5.089   0.629   2.973
 5608SOL    HW217724   5.100   0.519   2.853
 5609SOL     OW17725   0.508   0.492   0.550
 5609SOL    HW117726   0.532   0.411   0.604
 5609SOL    HW217727   0.417   0.523   0.575
 5610SOL     OW17728   5.382   4.643   1.178
 5610SOL    HW117729   5.401   4.726   1.231
 5610SOL    HW217730   5.299   4.600   1.212
 5611SOL     OW17731   6.231   5.124   1.924
 5611SOL    HW117732   6.197   5.077   2.006
 5611SOL    HW217733   6.233   5.060   1.847
 5612SOL     OW17734   3.520   1.714   0.357
 5612SOL    HW117735   3.525   1.628   0.407
 5612SOL    HW217736   3.467   1.781   0.410
 5613SOL     OW17737   5.834   4.868   5.938
 5613SOL    HW117738   5.827   4.880   5.839
 5613SOL    HW217739   5.902   4.930   5.974
 5614SOL     OW17740   5.346   3.328   3.904
 5614SOL    HW117741   5.414   3.257   3.923
 5614SOL    HW217742   5.325   3.328   3.806
 5615SOL     OW17743   6.970   2.113   3.181
 5615SOL    HW117744   7.000   2.166   3.102
 5615SOL    HW217745   6.983   2.167   3.264
 5616SOL     OW17746   1.632   3.052   2.360
 5616SOL    HW117747   1.665   2.985   2.426
 5616SOL    HW217748   1.672   3.142   2.379
 5617SOL     OW17749   1.888   4.957   6.017
 5617SOL    HW117750   1.789   4.945   6.005
 5617SOL    HW217751   1.936   4.921   5.937
 5618SOL     OW17752   5.731   6.265   2.831
 5618SOL    HW117753   5.710   6.245   2.926
 5618SOL    HW217754   5.661   6.224   2.772
 5619SOL     OW17755   3.882   3.012   3.638
 5619SOL    HW117756   3.783   3.001   3.634
 5619SOL    HW217757   3.919   2.952   3.710
 5620SOL     OW17758   5.425   4.333   4.917
 5620SOL    HW117759   5.515   4.334   4.874
 5620SOL    HW217760   5.434   4.351   5.015
 5621SOL     OW17761   0.975   2.111   5.734
 5621SOL    HW117762   1.054   2.171   5.723
 5621SOL    HW217763   0.908   2.154   5.794
 5622SOL     OW17764   4.796   5.983   3.592
 5622SOL    HW117765   4.873   5.937   3.547
 5622SOL    HW217766   4.743   5.916   3.644
 5623SOL     OW17767   4.876   5.320   4.226
 5623SOL    HW117768   4.796   5.263   4.248
 5623SOL    HW217769   4.928   5.278   4.152
 5624SOL     OW17770   6.439   5.024   3.450
 5624SOL    HW117771   6.510   4.973   3.402
 5624SOL    HW217772   6.426   5.113   3.406
 5625SOL     OW17773   1.549   6.245   5.537
 5625SOL    HW117774   1.601   6.304   5.598
 5625SOL    HW217775   1.489   6.186   5.591
 5626SOL     OW17776   1.099   4.824   6.699
 5626SOL    HW117777   1.118   4.759   6.626
 5626SOL    HW217778   1.145   4.795   6.783
 5627SOL     OW17779   0.697   5.930   0.045
 5627SOL    HW117780   0.656   5.847   0.083
 5627SOL    HW217781   0.626   5.995   0.020
 5628SOL     OW17782   2.553   2.710   1.280
 5628SOL    HW117783   2.642   2.720   1.324
 5628SOL    HW217784   2.563   2.722   1.182
 5629SOL     OW17785   5.683   3.610   2.589
 5629SOL    HW117786   5.667   3.643   2.496
 5629SOL    HW217787   5.672   3.510   2.591
 5630SOL     OW17788   1.045   3.988   6.289
 5630SOL    HW117789   1.124   3.936   6.256
 5630SOL    HW217790   1.072   4.084   6.302
 5631SOL     OW17791   3.473   1.908   1.766
 5631SOL    HW117792   3.565   1.943   1.786
 5631SOL    HW217793   3.418   1.911   1.849
 5632SOL     OW17794   5.392   6.933   5.738
 5632SOL    HW117795   5.386   6.967   5.831
 5632SOL    HW217796   5.484   6.951   5.702
 5633SOL     OW17797   0.633   4.873   5.597
 5633SOL    HW117798   0.677   4.876   5.686
 5633SOL    HW217799   0.567   4.948   5.589
 5634SOL     OW17800   2.253   0.079   1.192
 5634SOL    HW117801   2.251   0.057   1.289
 5634SOL    HW217802   2.322   0.022   1.146
 5635SOL     OW17803   2.681   0.456   0.627
 5635SOL    HW117804   2.704   0.500   0.540
 5635SOL    HW217805   2.761   0.407   0.661
 5636SOL     OW17806   5.349   1.513   5.251
 5636SOL    HW117807   5.389   1.507   5.343
 5636SOL    HW217808   5.253   1.486   5.255
 5637SOL     OW17809   5.154   6.335   4.357
 5637SOL    HW117810   5.232   6.388   4.391
 5637SOL    HW217811   5.091   6.317   4.433
 5638SOL     OW17812   6.143   5.352   1.063
 5638SOL    HW117813   6.057   5.334   1.015
 5638SOL    HW217814   6.125   5.406   1.145
 5639SOL     OW17815   1.959   0.400   1.348
 5639SOL    HW117816   1.984   0.343   1.427
 5639SOL    HW217817   1.869   0.373   1.315
 5640SOL     OW17818   2.859   6.347   2.927
 5640SOL    HW117819   2.855   6.329   2.829
 5640SOL    HW217820   2.794   6.287   2.974
 5641SOL     OW17821   0.642   4.304   4.102
 5641SOL    HW117822   0.621   4.381   4.042
 5641SOL    HW217823   0.694   4.236   4.050
 5642SOL     OW17824   1.755   4.516   6.984
 5642SOL    HW117825   1.779   4.445   0.032
 5642SOL    HW217826   1.671   4.491   6.937
 5643SOL     OW17827   4.302   2.259   5.244
 5643SOL    HW117828   4.248   2.338   5.213
 5643SOL    HW217829   4.400   2.278   5.229
 5644SOL     OW17830   4.096   1.283   4.803
 5644SOL    HW117831   4.047   1.229   4.871
 5644SOL    HW217832   4.185   1.310   4.839
 5645SOL     OW17833   6.157   5.819   3.972
 5645SOL    HW117834   6.114   5.762   3.902
 5645SOL    HW217835   6.123   5.791   4.062
 5646SOL     OW17836   0.478   5.697   4.274
 5646SOL    HW117837   0.541   5.740   4.338
 5646SOL    HW217838   0.411   5.765   4.242
 5647SOL     OW17839   5.733   5.290   6.263
 5647SOL    HW117840   5.678   5.214   6.298
 5647SOL    HW217841   5.749   5.277   6.165
 5648SOL     OW17842   1.961   1.733   5.115
 5648SOL    HW117843   2.001   1.825   5.111
 5648SOL    HW217844   1.887   1.732   5.183
 5649SOL     OW17845   0.859   0.623   5.541
 5649SOL    HW117846   0.887   0.642   5.635
 5649SOL    HW217847   0.894   0.695   5.481
 5650SOL     OW17848   6.355   4.921   0.005
 5650SOL    HW117849   6.316   5.010   7.000
 5650SOL    HW217850   6.395   4.880   6.942
 5651SOL     OW17851   6.501   0.990   2.882
 5651SOL    HW117852   6.442   0.969   2.804
 5651SOL    HW217853   6.466   0.944   2.964
 5652SOL     OW17854   4.772   5.116   0.603
 5652SOL    HW117855   4.733   5.075   0.685
 5652SOL    HW217856   4.710   5.102   0.526
 5653SOL     OW17857   1.440   6.223   6.086
 5653SOL    HW117858   1.405   6.152   6.148
 5653SOL    HW217859   1.364   6.260   6.032
 5654SOL     OW17860   0.712   6.087   5.550
 5654SOL    HW117861   0.696   6.035   5.466
 5654SOL    HW217862   0.635   6.074   5.612
 5655SOL     OW17863   0.118   3.303   3.579
 5655SOL    HW117864   0.154   3.396   3.570
 5655SOL    HW217865   0.028   3.297   3.537
 5656SOL     OW17866   3.219   4.520   0.130
 5656SOL    HW117867   3.283   4.457   0.085
 5656SOL    HW217868   3.171   4.472   0.204
 5657SOL     OW17869   4.230   6.340   2.009
 5657SOL    HW117870   4.207   6.242   2.014
 5657SOL    HW217871   4.324   6.353   2.043
 5658SOL     OW17872   4.439   6.979   5.354
 5658SOL    HW117873   4.413   6.890   5.390
 5658SOL    HW217874   4.533   7.000   5.381
 5659SOL     OW17875   3.778   3.710   2.743
 5659SOL    HW117876   3.817   3.795   2.707
 5659SOL    HW217877   3.825   3.632   2.702
 5660SOL     OW17878   5.925   6.495   0.768
 5660SOL    HW117879   5.883   6.486   0.859
 5660SOL    HW217880   5.903   6.585   0.731
 5661SOL     OW17881   6.439   5.903   4.496
 5661SOL    HW117882   6.372   5.967   4.532
 5661SOL    HW217883   6.420   5.887   4.399
 5662SOL     OW17884   2.580   4.578   4.329
 5662SOL    HW117885   2.637   4.600   4.409
 5662SOL    HW217886   2.502   4.523   4.358
 5663SOL     OW17887   1.378   4.082   7.015
 5663SOL    HW117888   1.279   4.069   7.018
 5663SOL    HW217889   1.406   4.137   0.076
 5664SOL     OW17890   0.555   4.413   2.943
 5664SOL    HW117891   0.522   4.466   2.865
 5664SOL    HW217892   0.502   4.438   3.024
 5665SOL     OW17893   2.291   2.607   6.123
 5665SOL    HW117894   2.389   2.599   6.142
 5665SOL    HW217895   2.240   2.544   6.181
 5666SOL     OW17896   5.933   5.190   0.709
 5666SOL    HW117897   5.927   5.221   0.803
 5666SOL    HW217898   5.974   5.262   0.652
 5667SOL     OW17899   0.310   5.167   3.532
 5667SOL    HW117900   0.361   5.142   3.615
 5667SOL    HW217901   0.213   5.176   3.554
 5668SOL     OW17902   6.145   2.056   5.751
 5668SOL    HW117903   6.193   2.082   5.835
 5668SOL    HW217904   6.052   2.026   5.772
 5669SOL     OW17905   6.852   3.721   6.008
 5669SOL    HW117906   6.819   3.640   5.959
 5669SOL    HW217907   6.866   3.795   5.943
 5670SOL     OW17908   0.756   4.094   3.938
 5670SOL    HW117909   0.715   4.003   3.932
 5670SOL    HW217910   0.854   4.086   3.954
 5671SOL     OW17911   1.873   1.346   5.887
 5671SOL    HW117912   1.879   1.337   5.986
 5671SOL    HW217913   1.946   1.293   5.844
 5672SOL     OW17914   4.911   5.249   5.935
 5672SOL    HW117915   4.827   5.230   5.986
 5672SOL    HW217916   4.888   5.302   5.853
 5673SOL     OW17917   0.523   0.637   2.389
 5673SOL    HW117918   0.596   0.613   2.325
 5673SOL    HW217919   0.490   0.728   2.368
 5674SOL     OW17920   6.768   3.445   1.795
 5674SOL    HW117921   6.859   3.404   1.808
 5674SOL    HW217922   6.731   3.416   1.707
 5675SOL     OW17923   4.259   2.400   5.626
 5675SOL    HW117924   4.306   2.402   5.714
 5675SOL    HW217925   4.326   2.408   5.552
 5676SOL     OW17926   2.301   0.499   1.737
 5676SOL    HW117927   2.255   0.455   1.814
 5676SOL    HW217928   2.393   0.526   1.763
 5677SOL     OW17929   6.726   0.634   4.095
 5677SOL    HW117930   6.658   0.601   4.160
 5677SOL    HW217931   6.761   0.556   4.042
 5678SOL     OW17932   1.746   5.836   2.920
 5678SOL    HW117933   1.668   5.898   2.917
 5678SOL    HW217934   1.817   5.868   2.857
 5679SOL     OW17935   1.812   6.143   5.289
 5679SOL    HW117936   1.783   6.231   5.326
 5679SOL    HW217937   1.889   6.108   5.343
 5680SOL     OW17938   2.403   6.552   6.505
 5680SOL    HW117939   2.478   6.567   6.569
 5680SOL    HW217940   2.414   6.463   6.460
 5681SOL     OW17941   1.578   2.721   6.880
 5681SOL    HW117942   1.601   2.729   6.977
 5681SOL    HW217943   1.557   2.811   6.843
 5682SOL     OW17944   1.260   3.698   4.657
 5682SOL    HW117945   1.163   3.676   4.662
 5682SOL    HW217946   1.297   3.670   4.568
 5683SOL     OW17947   3.781   2.331   5.648
 5683SOL    HW117948   3.740   2.385   5.574
 5683SOL    HW217949   3.728   2.343   5.731
 5684SOL     OW17950   3.189   4.054   3.800
 5684SOL    HW117951   3.158   3.977   3.744
 5684SOL    HW217952   3.255   4.108   3.748
 5685SOL     OW17953   0.362   5.237   2.095
 5685SOL    HW117954   0.348   5.236   1.996
 5685SOL    HW217955   0.273   5.239   2.141
 5686SOL     OW17956   3.338   6.859   0.266
 5686SOL    HW117957   3.383   6.886   0.181
 5686SOL    HW217958   3.318   6.761   0.262
 5687SOL     OW17959   5.356   5.225   5.659
 5687SOL    HW117960   5.443   5.190   5.692
 5687SOL    HW217961   5.319   5.292   5.724
 5688SOL     OW17962   5.731   1.985   1.216
 5688SOL    HW117963   5.765   2.041   1.293
 5688SOL    HW217964   5.806   1.969   1.152
 5689SOL     OW17965   3.543   2.929   1.006
 5689SOL    HW117966   3.619   2.897   1.063
 5689SOL    HW217967   3.544   3.029   1.003
 5690SOL     OW17968   4.707   6.602   1.142
 5690SOL    HW117969   4.744   6.619   1.233
 5690SOL    HW217970   4.736   6.675   1.080
 5691SOL     OW17971   0.944   0.171   2.019
 5691SOL    HW117972   0.966   0.126   2.106
 5691SOL    HW217973   1.021   0.228   1.991
 5692SOL     OW17974   5.995   2.639   6.583
 5692SOL    HW117975   6.021   2.734   6.561
 5692SOL    HW217976   6.058   2.602   6.650
 5693SOL     OW17977   4.962   2.433   2.917
 5693SOL    HW117978   5.023   2.428   2.838
 5693SOL    HW217979   4.867   2.441   2.886
 5694SOL     OW17980   6.932   1.798   3.686
 5694SOL    HW117981   6.961   1.857   3.762
 5694SOL    HW217982   7.005   1.793   3.619
 5695SOL     OW17983   1.648   3.571   3.332
 5695SOL    HW117984   1.703   3.588   3.250
 5695SOL    HW217985   1.686   3.621   3.409
 5696SOL     OW17986   2.647   0.311   5.135
 5696SOL    HW117987   2.648   0.411   5.145
 5696SOL    HW217988   2.736   0.281   5.100
 5697SOL     OW17989   6.293   2.979   0.310
 5697SOL    HW117990   6.334   2.950   0.396
 5697SOL    HW217991   6.278   3.078   0.312
 5698SOL     OW17992   0.272   3.535   2.010
 5698SOL    HW117993   0.230   3.556   1.922
 5698SOL    HW217994   0.372   3.531   1.999
 5699SOL     OW17995   6.179   0.630   5.055
 5699SOL    HW117996   6.248   0.627   5.127
 5699SOL    HW217997   6.090   0.603   5.092
 5700SOL     OW17998   1.747   5.683   3.649
 5700SOL    HW117999   1.665   5.738   3.663
 5700SOL    HW218000   1.824   5.743   3.625
 5701SOL     OW18001   6.336   5.495   1.397
 5701SOL    HW118002   6.240   5.466   1.400
 5701SOL    HW218003   6.391   5.425   1.351
 5702SOL     OW18004   1.871   0.795   6.735
 5702SOL    HW118005   1.964   0.825   6.759
 5702SOL    HW218006   1.806   0.830   6.803
 5703SOL     OW18007   4.480   4.513   0.937
 5703SOL    HW118008   4.428   4.554   1.012
 5703SOL    HW218009   4.423   4.446   0.890
 5704SOL     OW18010   4.018   5.201   3.383
 5704SOL    HW118011   4.039   5.289   3.425
 5704SOL    HW218012   4.061   5.196   3.293
 5705SOL     OW18013   6.187   0.914   1.735
 5705SOL    HW118014   6.226   0.950   1.650
 5705SOL    HW218015   6.151   0.989   1.790
 5706SOL     OW18016   1.173   1.172   6.964
 5706SOL    HW118017   1.095   1.136   7.014
 5706SOL    HW218018   1.161   1.270   6.948
 5707SOL     OW18019   2.692   1.983   0.430
 5707SOL    HW118020   2.759   1.935   0.374
 5707SOL    HW218021   2.607   1.930   0.432
 5708SOL     OW18022   5.292   6.521   1.754
 5708SOL    HW118023   5.204   6.555   1.722
 5708SOL    HW218024   5.345   6.488   1.676
 5709SOL     OW18025   1.130   0.387   2.887
 5709SOL    HW118026   1.224   0.360   2.867
 5709SOL    HW218027   1.107   0.359   2.980
 5710SOL     OW18028   2.905   3.622   6.038
 5710SOL    HW118029   2.806   3.607   6.036
 5710SOL    HW218030   2.946   3.561   6.105
 5711SOL     OW18031   4.369   1.150   3.783
 5711SOL    HW118032   4.419   1.207   3.848
 5711SOL    HW218033   4.271   1.169   3.792
 5712SOL     OW18034   6.975   6.040   6.111
 5712SOL    HW118035   0.022   6.044   6.187
 5712SOL    HW218036   6.899   5.979   6.135
 5713SOL     OW18037   6.961   2.668   2.399
 5713SOL    HW118038   7.001   2.623   2.319
 5713SOL    HW218039   6.880   2.617   2.428
 5714SOL     OW18040   1.627   0.999   6.277
 5714SOL    HW118041   1.562   0.925   6.263
 5714SOL    HW218042   1.676   0.984   6.363
 5715SOL     OW18043   0.820   6.730   2.809
 5715SOL    HW118044   0.849   6.646   2.855
 5715SOL    HW218045   0.799   6.711   2.713
 5716SOL     OW18046   2.342   3.810   6.132
 5716SOL    HW118047   2.388   3.895   6.106
 5716SOL    HW218048   2.293   3.774   6.054
 5717SOL     OW18049   1.413   3.844   0.297
 5717SOL    HW118050   1.402   3.935   0.338
 5717SOL    HW218051   1.382   3.774   0.361
 5718SOL     OW18052   3.106   4.324   6.111
 5718SOL    HW118053   3.203   4.308   6.131
 5718SOL    HW218054   3.086   4.295   6.018
 5719SOL     OW18055   3.455   0.834   6.505
 5719SOL    HW118056   3.392   0.811   6.579
 5719SOL    HW218057   3.471   0.753   6.449
 5720SOL     OW18058   1.189   4.744   5.056
 5720SOL    HW118059   1.203   4.838   5.087
 5720SOL    HW218060   1.269   4.714   5.003
 5721SOL     OW18061   0.544   4.024   1.529
 5721SOL    HW118062   0.541   3.934   1.572
 5721SOL    HW218063   0.552   4.014   1.430
 5722SOL     OW18064   5.385   6.620   4.216
 5722SOL    HW118065   5.366   6.572   4.301
 5722SOL    HW218066   5.320   6.695   4.204
 5723SOL     OW18067   3.008   5.402   0.719
 5723SOL    HW118068   3.001   5.498   0.747
 5723SOL    HW218069   2.916   5.363   0.714
 5724SOL     OW18070   5.034   1.540   6.554
 5724SOL    HW118071   5.116   1.543   6.612
 5724SOL    HW218072   4.955   1.572   6.606
 5725SOL     OW18073   5.040   5.408   6.094
 5725SOL    HW118074   5.012   5.344   6.022
 5725SOL    HW218075   5.131   5.382   6.128
 5726SOL     OW18076   5.400   3.590   5.841
 5726SOL    HW118077   5.386   3.491   5.843
 5726SOL    HW218078   5.338   3.630   5.773
 5727SOL     OW18079   5.950   1.943   3.314
 5727SOL    HW118080   6.000   2.029   3.323
 5727SOL    HW218081   5.901   1.924   3.399
 5728SOL     OW18082   6.086   0.475   5.531
 5728SOL    HW118083   6.000   0.424   5.521
 5728SOL    HW218084   6.111   0.476   5.628
 5729SOL     OW18085   0.750   1.946   6.580
 5729SOL    HW118086   0.685   1.963   6.505
 5729SOL    HW218087   0.719   1.866   6.633
 5730SOL     OW18088   5.104   4.927   5.904
 5730SOL    HW118089   5.090   5.026   5.900
 5730SOL    HW218090   5.201   4.908   5.911
 5731SOL     OW18091   3.275   0.699   3.939
 5731SOL    HW118092   3.361   0.727   3.895
 5731SOL    HW218093   3.223   0.641   3.876
 5732SOL     OW18094   5.843   4.868   4.884
 5732SOL    HW118095   5.864   4.963   4.907
 5732SOL    HW218096   5.909   4.834   4.818
 5733SOL     OW18097   3.499   1.112   0.237
 5733SOL    HW118098   3.580   1.168   0.219
 5733SOL    HW218099   3.431   1.166   0.285
 5734SOL     OW18100   2.382   6.361   6.052
 5734SOL    HW118101   2.345   6.405   6.134
 5734SOL    HW218102   2.426   6.275   6.078
 5735SOL     OW18103   3.904   0.611   2.152
 5735SOL    HW118104   3.967   0.676   2.194
 5735SOL    HW218105   3.946   0.520   2.150
 5736SOL     OW18106   4.766   4.270   6.774
 5736SOL    HW118107   4.717   4.216   6.705
 5736SOL    HW218108   4.749   4.367   6.759
 5737SOL     OW18109   4.486   5.264   0.919
 5737SOL    HW118110   4.487   5.347   0.862
 5737SOL    HW218111   4.522   5.286   1.009
 5738SOL     OW18112   3.322   1.239   6.472
 5738SOL    HW118113   3.229   1.204   6.460
 5738SOL    HW218114   3.319   1.322   6.528
 5739SOL     OW18115   2.079   0.405   5.785
 5739SOL    HW118116   2.149   0.335   5.802
 5739SOL    HW218117   1.993   0.360   5.763
 5740SOL     OW18118   5.458   3.831   2.214
 5740SOL    HW118119   5.415   3.823   2.124
 5740SOL    HW218120   5.388   3.848   2.283
 5741SOL     OW18121   0.240   3.625   4.244
 5741SOL    HW118122   0.323   3.569   4.248
 5741SOL    HW218123   0.197   3.628   4.334
 5742SOL     OW18124   5.004   0.573   3.780
 5742SOL    HW118125   5.053   0.593   3.695
 5742SOL    HW218126   4.949   0.653   3.805
 5743SOL     OW18127   3.748   3.577   5.477
 5743SOL    HW118128   3.746   3.676   5.464
 5743SOL    HW218129   3.767   3.532   5.390
 5744SOL     OW18130   5.491   6.441   2.527
 5744SOL    HW118131   5.566   6.471   2.467
 5744SOL    HW218132   5.492   6.342   2.535
 5745SOL     OW18133   2.245   2.449   3.179
 5745SOL    HW118134   2.150   2.461   3.209
 5745SOL    HW218135   2.253   2.365   3.127
 5746SOL     OW18136   4.699   0.284   3.379
 5746SOL    HW118137   4.766   0.259   3.448
 5746SOL    HW218138   4.682   0.383   3.383
 5747SOL     OW18139   1.051   6.396   1.349
 5747SOL    HW118140   1.037   6.357   1.258
 5747SOL    HW218141   0.997   6.346   1.417
 5748SOL     OW18142   0.742   5.731   0.366
 5748SOL    HW118143   0.695   5.807   0.411
 5748SOL    HW218144   0.791   5.764   0.286
 5749SOL     OW18145   2.004   6.027   5.479
 5749SOL    HW118146   2.023   5.964   5.403
 5749SOL    HW218147   1.980   5.974   5.560
 5750SOL     OW18148   6.753   4.341   4.215
 5750SOL    HW118149   6.846   4.331   4.249
 5750SOL    HW218150   6.749   4.310   4.120
 5751SOL     OW18151   2.045   3.414   4.008
 5751SOL    HW118152   2.030   3.338   3.946
 5751SOL    HW218153   2.090   3.381   4.091
 5752SOL     OW18154   5.258   0.558   1.046
 5752SOL    HW118155   5.278   0.625   0.975
 5752SOL    HW218156   5.163   0.567   1.075
 5753SOL     OW18157   3.087   4.025   4.570
 5753SOL    HW118158   3.095   4.011   4.669
 5753SOL    HW218159   3.001   3.985   4.537
 5754SOL     OW18160   1.025   6.022   1.488
 5754SOL    HW118161   0.976   6.006   1.402
 5754SOL    HW218162   0.995   6.109   1.528
 5755SOL     OW18163   1.885   2.366   6.894
 5755SOL    HW118164   1.961   2.363   6.958
 5755SOL    HW218165   1.868   2.461   6.866
 5756SOL     OW18166   5.795   5.984   1.364
 5756SOL    HW118167   5.756   5.991   1.456
 5756SOL    HW218168   5.831   5.892   1.351
 5757SOL     OW18169   6.512   0.325   3.897
 5757SOL    HW118170   6.483   0.312   3.991
 5757SOL    HW218171   6.527   0.236   3.854
 5758SOL     OW18172   0.749   0.390   2.916
 5758SOL    HW118173   0.729   0.297   2.883
 5758SOL    HW218174   0.801   0.439   2.846
 5759SOL     OW18175   3.325   0.012   0.923
 5759SOL    HW118176   3.374   6.945   0.906
 5759SOL    HW218177   3.391   0.083   0.950
 5760SOL     OW18178   0.254   3.118   1.560
 5760SOL    HW118179   0.194   3.039   1.576
 5760SOL    HW218180   0.349   3.087   1.555
 5761SOL     OW18181   5.396   5.695   5.228
 5761SOL    HW118182   5.450   5.616   5.197
 5761SOL    HW218183   5.401   5.701   5.328
 5762SOL     OW18184   5.374   4.793   0.049
 5762SOL    HW118185   5.436   4.757   6.997
 5762SOL    HW218186   5.324   4.718   0.091
 5763SOL     OW18187   5.326   0.302   0.209
 5763SOL    HW118188   5.300   0.392   0.175
 5763SOL    HW218189   5.361   0.247   0.133
 5764SOL     OW18190   4.145   5.872   3.862
 5764SOL    HW118191   4.148   5.966   3.895
 5764SOL    HW218192   4.090   5.867   3.778
 5765SOL     OW18193   6.476   5.290   1.745
 5765SOL    HW118194   6.432   5.379   1.746
 5765SOL    HW218195   6.442   5.234   1.820
 5766SOL     OW18196   0.654   1.655   4.065
 5766SOL    HW118197   0.706   1.707   3.998
 5766SOL    HW218198   0.574   1.707   4.093
 5767SOL     OW18199   2.397   0.408   0.890
 5767SOL    HW118200   2.461   0.338   0.921
 5767SOL    HW218201   2.416   0.430   0.794
 5768SOL     OW18202   0.147   6.317   4.479
 5768SOL    HW118203   0.206   6.391   4.445
 5768SOL    HW218204   0.180   6.286   4.568
 5769SOL     OW18205   1.358   5.076   6.322
 5769SOL    HW118206   1.285   5.008   6.315
 5769SOL    HW218207   1.335   5.143   6.393
 5770SOL     OW18208   1.846   5.056   1.400
 5770SOL    HW118209   1.944   5.036   1.410
 5770SOL    HW218210   1.811   5.096   1.484
 5771SOL     OW18211   2.415   5.468   4.258
 5771SOL    HW118212   2.469   5.419   4.190
 5771SOL    HW218213   2.437   5.435   4.349
 5772SOL     OW18214   4.190   0.309   1.901
 5772SOL    HW118215   4.117   0.310   1.969
 5772SOL    HW218216   4.180   0.388   1.840
 5773SOL     OW18217   4.166   2.216   2.264
 5773SOL    HW118218   4.106   2.145   2.300
 5773SOL    HW218219   4.145   2.232   2.167
 5774SOL     OW18220   0.436   6.207   3.379
 5774SOL    HW118221   0.426   6.301   3.348
 5774SOL    HW218222   0.361   6.184   3.442
 5775SOL     OW18223   0.427   5.584   2.548
 5775SOL    HW118224   0.464   5.675   2.529
 5775SOL    HW218225   0.502   5.520   2.560
 5776SOL     OW18226   2.249   0.525   3.291
 5776SOL    HW118227   2.264   0.426   3.290
 5776SOL    HW218228   2.252   0.560   3.198
 5777SOL     OW18229   1.804   0.189   3.109
 5777SOL    HW118230   1.780   0.140   3.025
 5777SOL    HW218231   1.726   0.188   3.171
 5778SOL     OW18232   0.695   1.346   6.826
 5778SOL    HW118233   0.597   1.362   6.834
 5778SOL    HW218234   0.739   1.426   6.785
 5779SOL     OW18235   5.403   2.336   6.240
 5779SOL    HW118236   5.388   2.317   6.143
 5779SOL    HW218237   5.320   2.314   6.291
 5780SOL     OW18238   5.159   4.791   3.691
 5780SOL    HW118239   5.252   4.827   3.687
 5780SOL    HW218240   5.157   4.697   3.657
 5781SOL     OW18241   0.496   3.591   5.547
 5781SOL    HW118242   0.580   3.555   5.505
 5781SOL    HW218243   0.510   3.600   5.646
 5782SOL     OW18244   0.367   1.467   0.423
 5782SOL    HW118245   0.399   1.412   0.346
 5782SOL    HW218246   0.426   1.451   0.502
 5783SOL     OW18247   2.347   1.823   2.436
 5783SOL    HW118248   2.441   1.797   2.461
 5783SOL    HW218249   2.326   1.786   2.345
 5784SOL     OW18250   0.610   6.015   6.616
 5784SOL    HW118251   0.512   6.024   6.594
 5784SOL    HW218252   0.624   5.933   6.671
 5785SOL     OW18253   2.035   1.650   1.141
 5785SOL    HW118254   2.044   1.624   1.237
 5785SOL    HW218255   2.005   1.571   1.088
 5786SOL     OW18256   0.271   3.730   0.697
 5786SOL    HW118257   0.309   3.757   0.786
 5786SOL    HW218258   0.265   3.630   0.692
 5787SOL     OW18259   2.446   1.601   5.496
 5787SOL    HW118260   2.467   1.506   5.472
 5787SOL    HW218261   2.451   1.612   5.595
 5788SOL     OW18262   2.620   0.787   2.792
 5788SOL    HW118263   2.578   0.857   2.849
 5788SOL    HW218264   2.613   0.698   2.838
 5789SOL     OW18265   4.141   4.927   6.346
 5789SOL    HW118266   4.067   4.861   6.339
 5789SOL    HW218267   4.228   4.881   6.329
 5790SOL     OW18268   0.659   3.035   4.019
 5790SOL    HW118269   0.693   3.121   3.981
 5790SOL    HW218270   0.604   2.987   3.951
 5791SOL     OW18271   2.498   0.281   2.886
 5791SOL    HW118272   2.427   0.277   2.815
 5791SOL    HW218273   2.580   0.233   2.854
 5792SOL     OW18274   6.938   1.957   2.783
 5792SOL    HW118275   6.905   2.045   2.746
 5792SOL    HW218276   6.983   1.973   2.871
 5793SOL     OW18277   6.296   1.182   3.922
 5793SOL    HW118278   6.377   1.216   3.970
 5793SOL    HW218279   6.257   1.257   3.867
 5794SOL     OW18280   3.658   3.692   0.082
 5794SOL    HW118281   3.718   3.716   0.159
 5794SOL    HW218282   3.704   3.623   0.026
 5795SOL     OW18283   5.921   4.612   5.972
 5795SOL    HW118284   5.974   4.573   5.896
 5795SOL    HW218285   5.900   4.707   5.953
 5796SOL     OW18286   3.650   1.707   0.119
 5796SOL    HW118287   3.612   1.713   0.211
 5796SOL    HW218288   3.608   1.775   0.060
 5797SOL     OW18289   3.316   2.119   4.627
 5797SOL    HW118290   3.311   2.080   4.719
 5797SOL    HW218291   3.412   2.138   4.604
 5798SOL     OW18292   6.670   4.755   5.148
 5798SOL    HW118293   6.624   4.827   5.096
 5798SOL    HW218294   6.757   4.789   5.181
 5799SOL     OW18295   5.360   6.907   3.059
 5799SOL    HW118296   5.387   6.842   2.988
 5799SOL    HW218297   5.344   6.997   3.018
 5800SOL     OW18298   5.731   4.837   1.166
 5800SOL    HW118299   5.797   4.905   1.197
 5800SOL    HW218300   5.777   4.748   1.160
 5801SOL     OW18301   0.839   1.097   3.341
 5801SOL    HW118302   0.744   1.078   3.365
 5801SOL    HW218303   0.843   1.152   3.258
 5802SOL     OW18304   0.099   3.800   6.195
 5802SOL    HW118305   0.049   3.718   6.223
 5802SOL    HW218306   0.052   3.844   6.118
 5803SOL     OW18307   1.241   4.523   0.795
 5803SOL    HW118308   1.270   4.605   0.844
 5803SOL    HW218309   1.179   4.548   0.721
 5804SOL     OW18310   6.169   3.890   4.581
 5804SOL    HW118311   6.149   3.943   4.498
 5804SOL    HW218312   6.083   3.866   4.627
 5805SOL     OW18313   4.361   4.086   6.412
 5805SOL    HW118314   4.316   4.005   6.373
 5805SOL    HW218315   4.439   4.056   6.468
 5806SOL     OW18316   1.224   6.403   0.059
 5806SOL    HW118317   1.200   6.345   6.998
 5806SOL    HW218318   1.141   6.422   0.112
 5807SOL     OW18319   1.581   3.535   0.894
 5807SOL    HW118320   1.660   3.474   0.897
 5807SOL    HW218321   1.502   3.490   0.936
 5808SOL     OW18322   5.587   4.237   2.432
 5808SOL    HW118323   5.604   4.200   2.340
 5808SOL    HW218324   5.533   4.173   2.485
 5809SOL     OW18325   6.815   3.184   4.543
 5809SOL    HW118326   6.811   3.149   4.637
 5809SOL    HW218327   6.723   3.192   4.507
 5810SOL     OW18328   3.365   1.443   3.764
 5810SOL    HW118329   3.396   1.516   3.703
 5810SOL    HW218330   3.340   1.482   3.853
 5811SOL     OW18331   2.642   0.189   4.765
 5811SOL    HW118332   2.726   0.186   4.712
 5811SOL    HW218333   2.638   0.273   4.819
 5812SOL     OW18334   4.623   0.451   2.948
 5812SOL    HW118335   4.606   0.356   2.973
 5812SOL    HW218336   4.556   0.479   2.879
 5813SOL     OW18337   1.314   1.064   5.651
 5813SOL    HW118338   1.257   0.997   5.699
 5813SOL    HW218339   1.401   1.021   5.626
 5814SOL     OW18340   0.250   4.756   0.961
 5814SOL    HW118341   0.256   4.748   1.061
 5814SOL    HW218342   0.269   4.850   0.934
 5815SOL     OW18343   3.998   2.174   2.868
 5815SOL    HW118344   3.977   2.136   2.958
 5815SOL    HW218345   3.928   2.146   2.803
 5816SOL     OW18346   4.640   0.258   0.050
 5816SOL    HW118347   4.660   0.355   0.041
 5816SOL    HW218348   4.695   0.206   7.002
 5817SOL     OW18349   5.309   3.339   5.860
 5817SOL    HW118350   5.361   3.272   5.912
 5817SOL    HW218351   5.214   3.340   5.892
 5818SOL     OW18352   5.830   6.650   5.767
 5818SOL    HW118353   5.913   6.600   5.742
 5818SOL    HW218354   5.752   6.588   5.768
 5819SOL     OW18355   5.343   0.334   0.942
 5819SOL    HW118356   5.441   0.344   0.926
 5819SOL    HW218357   5.310   0.411   0.997
 5820SOL     OW18358   4.910   0.093   3.444
 5820SOL    HW118359   4.938   0.071   3.538
 5820SOL    HW218360   4.949   0.181   3.417
 5821SOL     OW18361   3.036   0.502   2.018
 5821SOL    HW118362   2.977   0.578   1.989
 5821SOL    HW218363   2.979   0.421   2.034
 5822SOL     OW18364   0.581   2.242   1.708
 5822SOL    HW118365   0.654   2.300   1.743
 5822SOL    HW218366   0.620   2.164   1.660
 5823SOL     OW18367   1.617   1.062   4.848
 5823SOL    HW118368   1.614   1.058   4.948
 5823SOL    HW218369   1.558   1.136   4.816
 5824SOL     OW18370   6.680   6.673   3.265
 5824SOL    HW118371   6.595   6.698   3.312
 5824SOL    HW218372   6.709   6.747   3.205
 5825SOL     OW18373   2.368   1.384   6.696
 5825SOL    HW118374   2.275   1.366   6.664
 5825SOL    HW218375   2.423   1.418   6.620
 5826SOL     OW18376   6.128   6.256   5.172
 5826SOL    HW118377   6.171   6.342   5.199
 5826SOL    HW218378   6.166   6.225   5.085
 5827SOL     OW18379   0.536   5.494   4.731
 5827SOL    HW118380   0.464   5.478   4.799
 5827SOL    HW218381   0.568   5.407   4.695
 5828SOL     OW18382   0.332   3.977   2.258
 5828SOL    HW118383   0.242   3.934   2.269
 5828SOL    HW218384   0.378   3.982   2.347
 5829SOL     OW18385   2.964   1.378   1.892
 5829SOL    HW118386   2.949   1.475   1.913
 5829SOL    HW218387   2.908   1.351   1.814
 5830SOL     OW18388   3.741   0.821   5.424
 5830SOL    HW118389   3.703   0.902   5.380
 5830SOL    HW218390   3.763   0.842   5.519
 5831SOL     OW18391   5.910   6.513   2.897
 5831SOL    HW118392   5.929   6.541   2.803
 5831SOL    HW218393   5.848   6.434   2.896
 5832SOL     OW18394   3.985   4.185   5.317
 5832SOL    HW118395   3.960   4.120   5.246
 5832SOL    HW218396   4.085   4.195   5.320
 5833SOL     OW18397   2.908   3.304   3.822
 5833SOL    HW118398   2.932   3.387   3.872
 5833SOL    HW218399   2.916   3.321   3.724
 5834SOL     OW18400   6.143   1.615   0.226
 5834SOL    HW118401   6.158   1.650   0.134
 5834SOL    HW218402   6.099   1.686   0.282
 5835SOL     OW18403   4.943   2.245   3.284
 5835SOL    HW118404   5.035   2.270   3.313
 5835SOL    HW218405   4.889   2.328   3.268
 5836SOL     OW18406   2.999   6.128   2.289
 5836SOL    HW118407   2.947   6.142   2.373
 5836SOL    HW218408   3.086   6.177   2.294
 5837SOL     OW18409   4.889   4.491   0.230
 5837SOL    HW118410   4.963   4.465   0.291
 5837SOL    HW218411   4.868   4.416   0.168
 5838SOL     OW18412   1.207   1.550   6.043
 5838SOL    HW118413   1.217   1.644   6.076
 5838SOL    HW218414   1.285   1.527   5.984
 5839SOL     OW18415   6.860   3.536   2.811
 5839SOL    HW118416   6.838   3.590   2.892
 5839SOL    HW218417   6.872   3.596   2.733
 5840SOL     OW18418   1.451   5.882   6.632
 5840SOL    HW118419   1.434   5.814   6.561
 5840SOL    HW218420   1.453   5.973   6.592
 5841SOL     OW18421   6.182   3.219   3.415
 5841SOL    HW118422   6.274   3.243   3.384
 5841SOL    HW218423   6.122   3.208   3.336
 5842SOL     OW18424   3.963   2.892   0.572
 5842SOL    HW118425   3.968   2.849   0.481
 5842SOL    HW218426   4.055   2.911   0.605
 5843SOL     OW18427   1.852   3.423   2.580
 5843SOL    HW118428   1.784   3.494   2.564
 5843SOL    HW218429   1.809   3.345   2.626
 5844SOL     OW18430   0.165   5.759   6.107
 5844SOL    HW118431   0.069   5.751   6.131
 5844SOL    HW218432   0.210   5.822   6.172
 5845SOL     OW18433   1.115   2.417   3.496
 5845SOL    HW118434   1.124   2.415   3.596
 5845SOL    HW218435   1.045   2.352   3.467
 5846SOL     OW18436   7.003   2.505   5.256
 5846SOL    HW118437   7.000   2.427   5.318
 5846SOL    HW218438   0.074   2.551   5.264
 5847SOL     OW18439   2.117   2.513   2.578
 5847SOL    HW118440   2.068   2.426   2.589
 5847SOL    HW218441   2.154   2.519   2.486
 5848SOL     OW18442   2.110   4.772   3.209
 5848SOL    HW118443   2.044   4.742   3.278
 5848SOL    HW218444   2.188   4.815   3.254
 5849SOL     OW18445   1.206   0.673   5.853
 5849SOL    HW118446   1.274   0.658   5.925
 5849SOL    HW218447   1.240   0.636   5.766
 5850SOL     OW18448   1.473   4.230   2.232
 5850SOL    HW118449   1.401   4.222   2.301
 5850SOL    HW218450   1.492   4.326   2.214
 5851SOL     OW18451   6.171   3.875   2.526
 5851SOL    HW118452   6.088   3.885   2.580
 5851SOL    HW218453   6.200   3.965   2.494
 5852SOL     OW18454   3.835   6.051   2.768
 5852SOL    HW118455   3.927   6.034   2.732
 5852SOL    HW218456   3.768   6.001   2.713
 5853SOL     OW18457   3.161   5.053   6.234
 5853SOL    HW118458   3.117   5.031   6.321
 5853SOL    HW218459   3.103   5.023   6.159
 5854SOL     OW18460   6.891   1.973   5.509
 5854SOL    HW118461   6.828   2.049   5.524
 5854SOL    HW218462   6.940   1.986   5.423
 5855SOL     OW18463   1.162   0.738   4.550
 5855SOL    HW118464   1.231   0.717   4.619
 5855SOL    HW218465   1.185   0.824   4.504
 5856SOL     OW18466   2.583   5.021   3.561
 5856SOL    HW118467   2.606   5.113   3.528
 5856SOL    HW218468   2.593   5.018   3.660
 5857SOL     OW18469   6.410   2.461   5.086
 5857SOL    HW118470   6.491   2.404   5.071
 5857SOL    HW218471   6.378   2.450   5.180
 5858SOL     OW18472   3.095   0.901   2.431
 5858SOL    HW118473   3.163   0.971   2.410
 5858SOL    HW218474   3.019   0.943   2.480
 5859SOL     OW18475   6.792   6.401   0.643
 5859SOL    HW118476   6.813   6.457   0.723
 5859SOL    HW218477   6.860   6.328   0.634
 5860SOL     OW18478   1.404   4.250   1.731
 5860SOL    HW118479   1.469   4.178   1.756
 5860SOL    HW218480   1.455   4.333   1.708
 5861SOL     OW18481   5.390   2.448   3.998
 5861SOL    HW118482   5.440   2.534   3.990
 5861SOL    HW218483   5.295   2.461   3.970
 5862SOL     OW18484   4.001   5.114   3.080
 5862SOL    HW118485   3.986   5.030   3.028
 5862SOL    HW218486   3.920   5.172   3.072
 5863SOL     OW18487   2.048   0.847   6.251
 5863SOL    HW118488   2.095   0.906   6.317
 5863SOL    HW218489   1.972   0.800   6.297
 5864SOL     OW18490   4.179   4.134   1.364
 5864SOL    HW118491   4.235   4.106   1.286
 5864SOL    HW218492   4.238   4.164   1.438
 5865SOL     OW18493   5.070   0.794   3.156
 5865SOL    HW118494   5.024   0.862   3.099
 5865SOL    HW218495   5.101   0.838   3.241
 5866SOL     OW18496   4.113   6.897   5.469
 5866SOL    HW118497   4.134   6.942   5.383
 5866SOL    HW218498   4.196   6.890   5.524
 5867SOL     OW18499   0.299   2.692   1.090
 5867SOL    HW118500   0.268   2.768   1.147
 5867SOL    HW218501   0.239   2.613   1.104
 5868SOL     OW18502   0.916   0.313   5.755
 5868SOL    HW118503   0.838   0.318   5.693
 5868SOL    HW218504   0.996   0.280   5.704
 5869SOL     OW18505   2.687   4.674   4.549
 5869SOL    HW118506   2.686   4.692   4.647
 5869SOL    HW218507   2.764   4.722   4.507
 5870SOL     OW18508   5.483   5.385   4.518
 5870SOL    HW118509   5.521   5.477   4.513
 5870SOL    HW218510   5.514   5.333   4.438
 5871SOL     OW18511   3.851   3.294   0.036
 5871SOL    HW118512   3.836   3.387   0.001
 5871SOL    HW218513   3.864   3.297   0.135
 5872SOL     OW18514   4.495   5.720   6.363
 5872SOL    HW118515   4.507   5.622   6.375
 5872SOL    HW218516   4.408   5.748   6.405
 5873SOL     OW18517   2.755   3.065   0.411
 5873SOL    HW118518   2.670   3.052   0.461
 5873SOL    HW218519   2.748   3.021   0.321
 5874SOL     OW18520   2.444   3.282   1.674
 5874SOL    HW118521   2.410   3.335   1.752
 5874SOL    HW218522   2.377   3.212   1.649
 5875SOL     OW18523   3.589   2.230   6.904
 5875SOL    HW118524   3.562   2.277   6.988
 5875SOL    HW218525   3.539   2.269   6.827
 5876SOL     OW18526   3.254   3.230   6.476
 5876SOL    HW118527   3.251   3.239   6.376
 5876SOL    HW218528   3.284   3.317   6.515
 5877SOL     OW18529   6.255   0.591   1.455
 5877SOL    HW118530   6.204   0.592   1.541
 5877SOL    HW218531   6.348   0.558   1.472
 5878SOL     OW18532   4.566   5.647   1.777
 5878SOL    HW118533   4.646   5.643   1.836
 5878SOL    HW218534   4.488   5.682   1.828
 5879SOL     OW18535   3.638   3.138   6.366
 5879SOL    HW118536   3.617   3.070   6.295
 5879SOL    HW218537   3.586   3.117   6.448
 5880SOL     OW18538   5.061   3.532   5.559
 5880SOL    HW118539   5.025   3.625   5.571
 5880SOL    HW218540   4.988   3.466   5.574
 5881SOL     OW18541   0.802   6.441   2.511
 5881SOL    HW118542   0.831   6.350   2.540
 5881SOL    HW218543   0.704   6.440   2.492
 5882SOL     OW18544   1.273   6.399   5.572
 5882SOL    HW118545   1.353   6.351   5.536
 5882SOL    HW218546   1.200   6.398   5.504
 5883SOL     OW18547   0.367   3.865   0.914
 5883SOL    HW118548   0.465   3.883   0.917
 5883SOL    HW218549   0.325   3.920   0.842
 5884SOL     OW18550   5.504   1.614   3.748
 5884SOL    HW118551   5.555   1.678   3.807
 5884SOL    HW218552   5.569   1.553   3.702
 5885SOL     OW18553   0.288   5.890   0.257
 5885SOL    HW118554   0.241   5.974   0.283
 5885SOL    HW218555   0.275   5.820   0.328
 5886SOL     OW18556   1.431   3.966   3.329
 5886SOL    HW118557   1.421   3.883   3.385
 5886SOL    HW218558   1.424   3.942   3.233
 5887SOL     OW18559   2.166   2.589   1.213
 5887SOL    HW118560   2.142   2.651   1.138
 5887SOL    HW218561   2.213   2.640   1.285
 5888SOL     OW18562   2.648   6.291   1.796
 5888SOL    HW118563   2.725   6.230   1.816
 5888SOL    HW218564   2.651   6.318   1.700
 5889SOL     OW18565   6.942   0.362   0.944
 5889SOL    HW118566   6.966   0.388   1.037
 5889SOL    HW218567   6.890   0.436   0.901
 5890SOL     OW18568   2.551   6.681   2.323
 5890SOL    HW118569   2.633   6.737   2.312
 5890SOL    HW218570   2.574   6.598   2.373
 5891SOL     OW18571   2.549   3.183   0.967
 5891SOL    HW118572   2.552   3.154   1.063
 5891SOL    HW218573   2.484   3.258   0.956
 5892SOL     OW18574   0.727   3.060   0.753
 5892SOL    HW118575   0.688   3.151   0.768
 5892SOL    HW218576   0.664   3.005   0.699
 5893SOL     OW18577   0.718   5.791   1.941
 5893SOL    HW118578   0.711   5.727   1.865
 5893SOL    HW218579   0.689   5.746   2.026
 5894SOL     OW18580   1.278   5.855   5.616
 5894SOL    HW118581   1.345   5.856   5.542
 5894SOL    HW218582   1.285   5.769   5.667
 5895SOL     OW18583   5.575   3.027   4.410
 5895SOL    HW118584   5.674   3.017   4.405
 5895SOL    HW218585   5.546   3.025   4.505
 5896SOL     OW18586   5.859   2.214   1.347
 5896SOL    HW118587   5.779   2.237   1.403
 5896SOL    HW218588   5.886   2.293   1.292
 5897SOL     OW18589   4.541   1.586   0.714
 5897SOL    HW118590   4.564   1.617   0.806
 5897SOL    HW218591   4.495   1.498   0.719
 5898SOL     OW18592   1.695   1.781   5.825
 5898SOL    HW118593   1.776   1.771   5.767
 5898SOL    HW218594   1.631   1.845   5.783
 5899SOL     OW18595   6.862   5.456   5.870
 5899SOL    HW118596   6.815   5.386   5.816
 5899SOL    HW218597   6.927   5.412   5.933
 5900SOL     OW18598   6.612   6.090   3.378
 5900SOL    HW118599   6.602   6.110   3.281
 5900SOL    HW218600   6.683   6.021   3.391
 5901SOL     OW18601   2.052   6.856   6.353
 5901SOL    HW118602   2.003   6.837   6.267
 5901SOL    HW218603   2.141   6.811   6.351
 5902SOL     OW18604   5.856   4.486   5.052
 5902SOL    HW118605   5.834   4.469   5.148
 5902SOL    HW218606   5.954   4.504   5.043
 5903SOL     OW18607   6.310   2.173   6.278
 5903SOL    HW118608   6.406   2.163   6.252
 5903SOL    HW218609   6.293   2.267   6.309
 5904SOL     OW18610   2.094   4.486   3.007
 5904SOL    HW118611   2.128   4.392   3.004
 5904SOL    HW218612   2.008   4.488   3.058
 5905SOL     OW18613   5.485   1.013   4.475
 5905SOL    HW118614   5.564   1.066   4.507
 5905SOL    HW218615   5.461   1.042   4.383
 5906SOL     OW18616   4.937   0.731   5.068
 5906SOL    HW118617   4.877   0.679   5.129
 5906SOL    HW218618   4.905   0.826   5.065
 5907SOL     OW18619   1.715   1.990   7.008
 5907SOL    HW118620   1.741   2.017   6.916
 5907SOL    HW218621   1.685   1.894   7.008
 5908SOL     OW18622   4.510   3.663   6.047
 5908SOL    HW118623   4.497   3.673   6.146
 5908SOL    HW218624   4.608   3.667   6.027
 5909SOL     OW18625   0.046   4.330   5.192
 5909SOL    HW118626   0.037   4.427   5.169
 5909SOL    HW218627   0.047   4.277   5.108
 5910SOL     OW18628   1.738   3.914   1.528
 5910SOL    HW118629   1.811   3.895   1.462
 5910SOL    HW218630   1.650   3.897   1.485
 5911SOL     OW18631   6.343   5.208   6.309
 5911SOL    HW118632   6.252   5.166   6.314
 5911SOL    HW218633   6.340   5.297   6.354
 5912SOL     OW18634   6.236   3.837   7.003
 5912SOL    HW118635   6.262   3.923   6.959
 5912SOL    HW218636   6.300   3.765   6.975
 5913SOL     OW18637   1.903   1.734   5.672
 5913SOL    HW118638   1.913   1.824   5.631
 5913SOL    HW218639   1.979   1.676   5.644
 5914SOL     OW18640   2.243   5.395   0.685
 5914SOL    HW118641   2.159   5.448   0.680
 5914SOL    HW218642   2.296   5.423   0.765
 5915SOL     OW18643   4.838   2.867   2.488
 5915SOL    HW118644   4.790   2.819   2.561
 5915SOL    HW218645   4.788   2.858   2.402
 5916SOL     OW18646   3.825   0.051   5.665
 5916SOL    HW118647   3.789   6.991   5.716
 5916SOL    HW218648   3.790   0.136   5.704
 5917SOL     OW18649   3.551   3.345   2.878
 5917SOL    HW118650   3.539   3.411   2.804
 5917SOL    HW218651   3.538   3.252   2.843
 5918SOL     OW18652   1.822   3.475   3.776
 5918SOL    HW118653   1.817   3.461   3.875
 5918SOL    HW218654   1.905   3.526   3.754
 5919SOL     OW18655   2.357   2.829   6.588
 5919SOL    HW118656   2.365   2.729   6.591
 5919SOL    HW218657   2.387   2.862   6.498
 5920SOL     OW18658   3.735   0.575   6.697
 5920SOL    HW118659   3.802   0.631   6.747
 5920SOL    HW218660   3.775   0.485   6.679
 5921SOL     OW18661   3.849   4.833   5.460
 5921SOL    HW118662   3.841   4.902   5.388
 5921SOL    HW218663   3.804   4.749   5.431
 5922SOL     OW18664   6.234   4.761   2.908
 5922SOL    HW118665   6.196   4.851   2.889
 5922SOL    HW218666   6.160   4.696   2.925
 5923SOL     OW18667   6.774   0.103   3.606
 5923SOL    HW118668   6.747   0.064   3.518
 5923SOL    HW218669   6.873   0.118   3.607
 5924SOL     OW18670   5.149   2.306   4.673
 5924SOL    HW118671   5.073   2.343   4.728
 5924SOL    HW218672   5.155   2.357   4.587
 5925SOL     OW18673   5.223   5.838   1.031
 5925SOL    HW118674   5.178   5.836   1.121
 5925SOL    HW218675   5.312   5.884   1.040
 5926SOL     OW18676   3.826   4.884   1.568
 5926SOL    HW118677   3.902   4.927   1.520
 5926SOL    HW218678   3.747   4.879   1.507
 5927SOL     OW18679   2.751   5.896   1.965
 5927SOL    HW118680   2.842   5.883   1.927
 5927SOL    HW218681   2.741   5.990   1.997
 5928SOL     OW18682   1.001   6.848   2.598
 5928SOL    HW118683   0.974   6.937   2.561
 5928SOL    HW218684   0.977   6.844   2.695
 5929SOL     OW18685   1.386   6.610   6.234
 5929SOL    HW118686   1.378   6.708   6.217
 5929SOL    HW218687   1.480   6.587   6.257
 5930SOL     OW18688   6.358   1.152   4.834
 5930SOL    HW118689   6.284   1.087   4.822
 5930SOL    HW218690   6.355   1.220   4.761
 5931SOL     OW18691   6.328   5.867   1.401
 5931SOL    HW118692   6.378   5.940   1.449
 5931SOL    HW218693   6.391   5.792   1.382
 5932SOL     OW18694   2.219   6.736   0.762
 5932SOL    HW118695   2.193   6.830   0.787
 5932SOL    HW218696   2.305   6.712   0.808
 5933SOL     OW18697   6.883   4.036   3.310
 5933SOL    HW118698   6.900   4.011   3.405
 5933SOL    HW218699   6.969   4.065   3.267
 5934SOL     OW18700   3.524   3.698   2.903
 5934SOL    HW118701   3.541   3.688   3.001
 5934SOL    HW218702   3.604   3.740   2.859
 5935SOL     OW18703   4.002   3.867   4.534
 5935SOL    HW118704   3.917   3.831   4.495
 5935SOL    HW218705   4.077   3.852   4.470
 5936SOL     OW18706   4.979   5.225   6.836
 5936SOL    HW118707   5.078   5.206   6.837
 5936SOL    HW218708   4.950   5.254   6.927
 5937SOL     OW18709   2.033   3.214   1.088
 5937SOL    HW118710   1.962   3.158   1.044
 5937SOL    HW218711   2.122   3.171   1.075
 5938SOL     OW18712   1.960   4.077   3.013
 5938SOL    HW118713   2.039   4.137   3.025
 5938SOL    HW218714   1.909   4.105   2.932
 5939SOL     OW18715   2.748   0.177   2.855
 5939SOL    HW118716   2.756   0.083   2.822
 5939SOL    HW218717   2.825   0.231   2.821
 5940SOL     OW18718   4.175   6.874   3.002
 5940SOL    HW118719   4.215   6.932   3.074
 5940SOL    HW218720   4.146   6.787   3.042
 5941SOL     OW18721   6.354   5.230   2.794
 5941SOL    HW118722   6.386   5.323   2.813
 5941SOL    HW218723   6.379   5.206   2.700
 5942SOL     OW18724   4.117   3.580   6.000
 5942SOL    HW118725   4.107   3.543   6.092
 5942SOL    HW218726   4.162   3.669   6.004
 5943SOL     OW18727   1.922   5.948   0.680
 5943SOL    HW118728   1.921   5.890   0.762
 5943SOL    HW218729   2.016   5.957   0.647
 5944SOL     OW18730   5.004   1.530   2.282
 5944SOL    HW118731   5.012   1.466   2.206
 5944SOL    HW218732   4.908   1.540   2.308
 5945SOL     OW18733   6.559   4.824   5.801
 5945SOL    HW118734   6.653   4.858   5.796
 5945SOL    HW218735   6.503   4.889   5.852
 5946SOL     OW18736   4.943   3.110   6.097
 5946SOL    HW118737   4.902   3.032   6.049
 5946SOL    HW218738   4.872   3.159   6.148
 5947SOL     OW18739   4.374   3.645   1.529
 5947SOL    HW118740   4.341   3.564   1.577
 5947SOL    HW218741   4.332   3.727   1.570
 5948SOL     OW18742   3.750   4.853   2.788
 5948SOL    HW118743   3.730   4.817   2.697
 5948SOL    HW218744   3.694   4.806   2.855
 5949SOL     OW18745   4.225   4.955   1.403
 5949SOL    HW118746   4.304   5.010   1.430
 5949SOL    HW218747   4.240   4.916   1.313
 5950SOL     OW18748   6.170   1.848   4.625
 5950SOL    HW118749   6.198   1.822   4.533
 5950SOL    HW218750   6.080   1.807   4.645
 5951SOL     OW18751   1.842   5.861   3.979
 5951SOL    HW118752   1.783   5.940   3.995
 5951SOL    HW218753   1.817   5.787   4.042
 5952SOL     OW18754   6.712   6.550   3.723
 5952SOL    HW118755   6.621   6.592   3.715
 5952SOL    HW218756   6.703   6.450   3.717
 5953SOL     OW18757   6.527   2.957   6.015
 5953SOL    HW118758   6.556   3.042   6.059
 5953SOL    HW218759   6.605   2.918   5.965
 5954SOL     OW18760   0.130   4.983   6.633
 5954SOL    HW118761   0.226   4.976   6.660
 5954SOL    HW218762   0.111   4.917   6.560
 5955SOL     OW18763   4.943   5.462   1.967
 5955SOL    HW118764   5.023   5.518   1.945
 5955SOL    HW218765   4.943   5.441   2.065
 5956SOL     OW18766   5.012   2.466   6.786
 5956SOL    HW118767   5.017   2.517   6.873
 5956SOL    HW218768   4.947   2.391   6.795
 5957SOL     OW18769   5.934   6.151   6.183
 5957SOL    HW118770   5.992   6.169   6.262
 5957SOL    HW218771   5.901   6.056   6.186
 5958SOL     OW18772   6.654   5.692   2.008
 5958SOL    HW118773   6.655   5.784   1.968
 5958SOL    HW218774   6.601   5.694   2.093
 5959SOL     OW18775   2.664   1.712   6.074
 5959SOL    HW118776   2.748   1.752   6.109
 5959SOL    HW218777   2.680   1.616   6.049
 5960SOL     OW18778   2.878   0.069   3.381
 5960SOL    HW118779   2.920   0.155   3.411
 5960SOL    HW218780   2.849   0.016   3.461
 5961SOL     OW18781   3.299   0.585   4.886
 5961SOL    HW118782   3.264   0.541   4.804
 5961SOL    HW218783   3.262   0.678   4.892
 5962SOL     OW18784   5.008   5.441   2.259
 5962SOL    HW118785   4.933   5.382   2.288
 5962SOL    HW218786   4.999   5.531   2.302
 5963SOL     OW18787   3.757   3.608   2.430
 5963SOL    HW118788   3.840   3.636   2.382
 5963SOL    HW218789   3.781   3.547   2.505
 5964SOL     OW18790   0.052   5.311   6.161
 5964SOL    HW118791   0.049   5.212   6.171
 5964SOL    HW218792   0.128   5.348   6.215
 5965SOL     OW18793   2.318   3.031   6.165
 5965SOL    HW118794   2.262   2.954   6.196
 5965SOL    HW218795   2.369   3.004   6.084
 5966SOL     OW18796   2.884   5.975   4.754
 5966SOL    HW118797   2.933   5.967   4.667
 5966SOL    HW218798   2.791   5.938   4.744
 5967SOL     OW18799   4.771   6.794   2.948
 5967SOL    HW118800   4.691   6.823   3.001
 5967SOL    HW218801   4.842   6.761   3.011
 5968SOL     OW18802   6.806   2.509   3.433
 5968SOL    HW118803   6.719   2.550   3.407
 5968SOL    HW218804   6.870   2.581   3.461
 5969SOL     OW18805   5.694   3.851   3.733
 5969SOL    HW118806   5.680   3.777   3.798
 5969SOL    HW218807   5.640   3.931   3.760
 5970SOL     OW18808   1.456   3.546   2.463
 5970SOL    HW118809   1.374   3.604   2.459
 5970SOL    HW218810   1.463   3.491   2.380
 5971SOL     OW18811   1.834   6.351   3.121
 5971SOL    HW118812   1.887   6.278   3.079
 5971SOL    HW218813   1.842   6.434   3.066
 5972SOL     OW18814   4.824   7.008   0.111
 5972SOL    HW118815   4.808   7.015   0.209
 5972SOL    HW218816   4.780   6.925   0.076
 5973SOL     OW18817   1.782   4.197   2.795
 5973SOL    HW118818   1.793   4.291   2.762
 5973SOL    HW218819   1.769   4.136   2.717
 5974SOL     OW18820   7.014   3.820   0.266
 5974SOL    HW118821   7.012   3.917   0.240
 5974SOL    HW218822   6.926   3.794   0.305
 5975SOL     OW18823   3.335   2.739   1.173
 5975SOL    HW118824   3.323   2.789   1.087
 5975SOL    HW218825   3.358   2.804   1.246
 5976SOL     OW18826   2.920   3.491   4.906
 5976SOL    HW118827   2.953   3.419   4.967
 5976SOL    HW218828   2.833   3.462   4.866
 5977SOL     OW18829   1.245   4.316   1.954
 5977SOL    HW118830   1.314   4.268   1.899
 5977SOL    HW218831   1.194   4.249   2.008
 5978SOL     OW18832   5.349   4.949   2.336
 5978SOL    HW118833   5.304   5.034   2.307
 5978SOL    HW218834   5.290   4.872   2.313
 5979SOL     OW18835   6.309   0.875   3.705
 5979SOL    HW118836   6.307   0.967   3.666
 5979SOL    HW218837   6.322   0.881   3.804
 5980SOL     OW18838   5.298   4.111   0.891
 5980SOL    HW118839   5.247   4.101   0.806
 5980SOL    HW218840   5.396   4.097   0.874
 5981SOL     OW18841   5.563   1.233   2.245
 5981SOL    HW118842   5.569   1.161   2.313
 5981SOL    HW218843   5.467   1.255   2.227
 5982SOL     OW18844   0.077   2.502   6.869
 5982SOL    HW118845   0.022   2.585   6.878
 5982SOL    HW218846   0.017   2.423   6.861
 5983SOL     OW18847   1.622   1.678   4.069
 5983SOL    HW118848   1.570   1.691   4.154
 5983SOL    HW218849   1.628   1.580   4.048
 5984SOL     OW18850   6.991   6.255   4.815
 5984SOL    HW118851   6.952   6.252   4.724
 5984SOL    HW218852   0.073   6.262   4.809
 5985SOL     OW18853   4.977   1.915   3.974
 5985SOL    HW118854   4.945   1.845   3.910
 5985SOL    HW218855   4.898   1.954   4.022
 5986SOL     OW18856   3.545   3.330   2.577
 5986SOL    HW118857   3.602   3.348   2.497
 5986SOL    HW218858   3.502   3.415   2.607
 5987SOL     OW18859   4.346   6.678   4.909
 5987SOL    HW118860   4.416   6.703   4.977
 5987SOL    HW218861   4.360   6.732   4.826
 5988SOL     OW18862   4.358   0.049   4.161
 5988SOL    HW118863   4.286   0.086   4.102
 5988SOL    HW218864   4.332   0.062   4.257
 5989SOL     OW18865   3.014   0.340   6.143
 5989SOL    HW118866   3.093   0.377   6.095
 5989SOL    HW218867   3.028   0.242   6.159
 5990SOL     OW18868   3.366   5.189   0.451
 5990SOL    HW118869   3.455   5.201   0.405
 5990SOL    HW218870   3.318   5.276   0.452
 5991SOL     OW18871   3.147   5.541   4.381
 5991SOL    HW118872   3.156   5.543   4.480
 5991SOL    HW218873   3.207   5.609   4.340
 5992SOL     OW18874   3.644   0.504   3.582
 5992SOL    HW118875   3.654   0.501   3.482
 5992SOL    HW218876   3.735   0.504   3.624
 5993SOL     OW18877   2.450   6.109   6.092
 5993SOL    HW118878   2.404   6.089   6.178
 5993SOL    HW218879   2.447   6.028   6.033
 5994SOL     OW18880   5.860   2.767   2.398
 5994SOL    HW118881   5.927   2.808   2.461
 5994SOL    HW218882   5.816   2.839   2.345
 5995SOL     OW18883   6.943   5.054   0.754
 5995SOL    HW118884   6.898   5.050   0.665
 5995SOL    HW218885   6.949   4.962   0.793
 5996SOL     OW18886   6.963   5.608   6.267
 5996SOL    HW118887   6.988   5.518   6.304
 5996SOL    HW218888   6.907   5.595   6.185
 5997SOL     OW18889   0.301   6.732   1.793
 5997SOL    HW118890   0.282   6.649   1.845
 5997SOL    HW218891   0.258   6.810   1.838
 5998SOL     OW18892   5.622   1.985   2.337
 5998SOL    HW118893   5.572   1.904   2.306
 5998SOL    HW218894   5.676   2.022   2.261
 5999SOL     OW18895   1.639   1.840   2.679
 5999SOL    HW118896   1.639   1.884   2.769
 5999SOL    HW218897   1.582   1.893   2.616
 6000SOL     OW18898   4.268   5.360   2.168
 6000SOL    HW118899   4.276   5.260   2.171
 6000SOL    HW218900   4.358   5.401   2.179
 6001SOL     OW18901   6.358   2.857   6.713
 6001SOL    HW118902   6.425   2.791   6.680
 6001SOL    HW218903   6.273   2.811   6.736
 6002SOL     OW18904   1.867   0.360   1.850
 6002SOL    HW118905   1.922   0.438   1.882
 6002SOL    HW218906   1.878   0.350   1.751
 6003SOL     OW18907   5.116   4.137   5.057
 6003SOL    HW118908   5.158   4.050   5.028
 6003SOL    HW218909   5.164   4.213   5.013
 6004SOL     OW18910   0.419   3.360   2.661
 6004SOL    HW118911   0.506   3.331   2.701
 6004SOL    HW218912   0.343   3.328   2.718
 6005SOL     OW18913   3.296   5.566   3.478
 6005SOL    HW118914   3.252   5.558   3.568
 6005SOL    HW218915   3.371   5.500   3.472
 6006SOL     OW18916   2.763   6.655   6.457
 6006SOL    HW118917   2.821   6.729   6.421
 6006SOL    HW218918   2.734   6.596   6.381
 6007SOL     OW18919   5.846   2.341   4.081
 6007SOL    HW118920   5.891   2.285   4.151
 6007SOL    HW218921   5.867   2.437   4.097
 6008SOL     OW18922   2.977   4.737   5.971
 6008SOL    HW118923   3.067   4.730   6.015
 6008SOL    HW218924   2.919   4.662   6.001
 6009SOL     OW18925   2.377   1.748   4.423
 6009SOL    HW118926   2.473   1.776   4.426
 6009SOL    HW218927   2.332   1.789   4.343
 6010SOL     OW18928   1.996   4.399   2.635
 6010SOL    HW118929   2.093   4.398   2.657
 6010SOL    HW218930   1.977   4.475   2.573
 6011SOL     OW18931   5.404   2.730   2.497
 6011SOL    HW118932   5.449   2.752   2.410
 6011SOL    HW218933   5.322   2.787   2.507
 6012SOL     OW18934   6.342   2.944   0.609
 6012SOL    HW118935   6.334   2.899   0.698
 6012SOL    HW218936   6.435   2.935   0.575
 6013SOL     OW18937   5.988   1.116   2.265
 6013SOL    HW118938   6.084   1.111   2.237
 6013SOL    HW218939   5.980   1.088   2.360
 6014SOL     OW18940   5.548   0.477   0.304
 6014SOL    HW118941   5.510   0.384   0.306
 6014SOL    HW218942   5.599   0.493   0.389
 6015SOL     OW18943   5.179   1.958   4.371
 6015SOL    HW118944   5.082   1.954   4.396
 6015SOL    HW218945   5.200   2.047   4.331
 6016SOL     OW18946   1.960   0.656   5.182
 6016SOL    HW118947   1.953   0.751   5.211
 6016SOL    HW218948   2.028   0.608   5.238
 6017SOL     OW18949   6.588   5.089   2.887
 6017SOL    HW118950   6.505   5.124   2.843
 6017SOL    HW218951   6.617   5.153   2.959
 6018SOL     OW18952   2.803   3.181   1.215
 6018SOL    HW118953   2.784   3.242   1.292
 6018SOL    HW218954   2.846   3.232   1.141
 6019SOL     OW18955   3.824   1.065   4.119
 6019SOL    HW118956   3.895   0.996   4.105
 6019SOL    HW218957   3.742   1.021   4.157
 6020SOL     OW18958   3.956   0.578   2.537
 6020SOL    HW118959   3.900   0.507   2.494
 6020SOL    HW218960   4.039   0.593   2.484
 6021SOL     OW18961   4.109   1.371   2.316
 6021SOL    HW118962   4.172   1.448   2.309
 6021SOL    HW218963   4.125   1.321   2.402
 6022SOL     OW18964   4.181   1.540   3.403
 6022SOL    HW118965   4.117   1.556   3.328
 6022SOL    HW218966   4.145   1.467   3.462
 6023SOL     OW18967   0.525   1.648   3.222
 6023SOL    HW118968   0.531   1.606   3.312
 6023SOL    HW218969   0.511   1.577   3.153
 6024SOL     OW18970   1.024   5.169   1.610
 6024SOL    HW118971   1.063   5.085   1.648
 6024SOL    HW218972   0.993   5.229   1.684
 6025SOL     OW18973   4.543   1.194   1.555
 6025SOL    HW118974   4.530   1.185   1.653
 6025SOL    HW218975   4.563   1.105   1.515
 6026SOL     OW18976   6.801   4.525   5.337
 6026SOL    HW118977   6.758   4.482   5.258
 6026SOL    HW218978   6.879   4.579   5.307
 6027SOL     OW18979   2.831   2.845   6.493
 6027SOL    HW118980   2.851   2.900   6.412
 6027SOL    HW218981   2.745   2.877   6.534
 6028SOL     OW18982   1.649   3.826   0.117
 6028SOL    HW118983   1.728   3.886   0.125
 6028SOL    HW218984   1.573   3.863   0.171
 6029SOL     OW18985   2.250   6.252   1.217
 6029SOL    HW118986   2.153   6.275   1.208
 6029SOL    HW218987   2.268   6.223   1.311
 6030SOL     OW18988   2.297   0.962   1.668
 6030SOL    HW118989   2.330   0.958   1.573
 6030SOL    HW218990   2.206   1.002   1.670
 6031SOL     OW18991   5.204   6.557   5.493
 6031SOL    HW118992   5.239   6.530   5.403
 6031SOL    HW218993   5.116   6.514   5.508
 6032SOL     OW18994   1.230   3.055   2.154
 6032SOL    HW118995   1.276   3.068   2.242
 6032SOL    HW218996   1.131   3.062   2.167
 6033SOL     OW18997   1.386   2.141   3.489
 6033SOL    HW118998   1.365   2.044   3.492
 6033SOL    HW218999   1.465   2.160   3.546
 6034SOL     OW19000   1.892   4.578   5.098
 6034SOL    HW119001   1.842   4.556   5.015
 6034SOL    HW219002   1.916   4.675   5.099
 6035SOL     OW19003   5.970   0.214   3.989
 6035SOL    HW119004   5.884   0.236   4.036
 6035SOL    HW219005   6.041   0.278   4.020
 6036SOL     OW19006   0.627   6.983   5.344
 6036SOL    HW119007   0.675   6.949   5.425
 6036SOL    HW219008   0.529   6.979   5.359
 6037SOL     OW19009   5.654   5.923   5.258
 6037SOL    HW119010   5.591   5.886   5.190
 6037SOL    HW219011   5.746   5.887   5.241
 6038SOL     OW19012   6.551   4.573   5.931
 6038SOL    HW119013   6.556   4.649   5.867
 6038SOL    HW219014   6.633   4.517   5.923
 6039SOL     OW19015   3.461   3.575   2.684
 6039SOL    HW119016   3.473   3.651   2.619
 6039SOL    HW219017   3.474   3.609   2.777
 6040SOL     OW19018   0.705   2.356   6.816
 6040SOL    HW119019   0.701   2.456   6.810
 6040SOL    HW219020   0.704   2.328   6.912
 6041SOL     OW19021   1.002   1.368   0.144
 6041SOL    HW119022   0.947   1.297   0.188
 6041SOL    HW219023   0.965   1.458   0.168
 6042SOL     OW19024   5.544   4.896   2.801
 6042SOL    HW119025   5.622   4.853   2.846
 6042SOL    HW219026   5.562   4.993   2.788
 6043SOL     OW19027   1.162   4.587   4.748
 6043SOL    HW119028   1.239   4.567   4.807
 6043SOL    HW219029   1.168   4.681   4.715
 6044SOL     OW19030   0.428   0.535   1.088
 6044SOL    HW119031   0.417   0.630   1.118
 6044SOL    HW219032   0.348   0.508   1.034
 6045SOL     OW19033   6.291   4.962   0.972
 6045SOL    HW119034   6.272   5.010   1.058
 6045SOL    HW219035   6.382   4.987   0.940
 6046SOL     OW19036   3.068   2.929   0.330
 6046SOL    HW119037   3.088   2.856   0.396
 6046SOL    HW219038   3.063   3.017   0.378
 6047SOL     OW19039   6.311   0.128   4.334
 6047SOL    HW119040   6.289   0.199   4.401
 6047SOL    HW219041   6.393   0.155   4.283
 6048SOL     OW19042   4.173   0.534   4.234
 6048SOL    HW119043   4.266   0.567   4.252
 6048SOL    HW219044   4.156   0.452   4.287
 6049SOL     OW19045   4.967   4.119   6.675
 6049SOL    HW119046   4.983   4.032   6.722
 6049SOL    HW219047   4.890   4.167   6.717
 6050SOL     OW19048   4.361   4.751   5.318
 6050SOL    HW119049   4.263   4.751   5.294
 6050SOL    HW219050   4.372   4.773   5.415
 6051SOL     OW19051   1.871   2.007   2.759
 6051SOL    HW119052   1.792   2.003   2.820
 6051SOL    HW219053   1.949   2.046   2.808
 6052SOL     OW19054   0.448   1.707   0.939
 6052SOL    HW119055   0.364   1.729   0.889
 6052SOL    HW219056   0.489   1.624   0.900
 6053SOL     OW19057   1.765   6.974   0.014
 6053SOL    HW119058   1.801   0.031   0.070
 6053SOL    HW219059   1.667   6.985   0.003
 6054SOL     OW19060   1.441   4.836   0.495
 6054SOL    HW119061   1.390   4.762   0.450
 6054SOL    HW219062   1.467   4.904   0.427
 6055SOL     OW19063   4.504   1.220   4.622
 6055SOL    HW119064   4.573   1.148   4.616
 6055SOL    HW219065   4.467   1.239   4.531
 6056SOL     OW19066   3.753   2.059   6.456
 6056SOL    HW119067   3.782   2.093   6.545
 6056SOL    HW219068   3.809   2.101   6.384
 6057SOL     OW19069   3.259   0.843   4.793
 6057SOL    HW119070   3.277   0.885   4.703
 6057SOL    HW219071   3.317   0.888   4.862
 6058SOL     OW19072   5.982   2.112   4.514
 6058SOL    HW119073   5.998   2.147   4.606
 6058SOL    HW219074   5.938   2.022   4.519
 6059SOL     OW19075   5.125   4.275   6.867
 6059SOL    HW119076   5.095   4.351   6.809
 6059SOL    HW219077   5.105   4.188   6.821
 6060SOL     OW19078   4.502   5.440   5.303
 6060SOL    HW119079   4.485   5.343   5.319
 6060SOL    HW219080   4.559   5.451   5.222
 6061SOL     OW19081   3.405   2.069   6.640
 6061SOL    HW119082   3.399   2.026   6.730
 6061SOL    HW219083   3.423   2.167   6.651
 6062SOL     OW19084   1.637   0.800   4.745
 6062SOL    HW119085   1.596   0.882   4.784
 6062SOL    HW219086   1.711   0.768   4.805
 6063SOL     OW19087   4.338   0.832   6.954
 6063SOL    HW119088   4.352   0.929   6.934
 6063SOL    HW219089   4.385   0.809   0.022
 6064SOL     OW19090   1.152   5.658   3.028
 6064SOL    HW119091   1.189   5.611   2.948
 6064SOL    HW219092   1.134   5.592   3.100
 6065SOL     OW19093   6.701   6.878   0.683
 6065SOL    HW119094   6.642   6.803   0.657
 6065SOL    HW219095   6.753   6.853   0.764
 6066SOL     OW19096   4.215   2.349   0.783
 6066SOL    HW119097   4.165   2.355   0.870
 6066SOL    HW219098   4.207   2.436   0.734
 6067SOL     OW19099   6.188   1.338   6.302
 6067SOL    HW119100   6.144   1.261   6.350
 6067SOL    HW219101   6.118   1.404   6.275
 6068SOL     OW19102   4.734   2.733   4.719
 6068SOL    HW119103   4.772   2.764   4.806
 6068SOL    HW219104   4.766   2.792   4.646
 6069SOL     OW19105   6.701   3.910   5.244
 6069SOL    HW119106   6.652   3.912   5.157
 6069SOL    HW219107   6.682   3.995   5.294
 6070SOL     OW19108   4.458   2.507   6.554
 6070SOL    HW119109   4.484   2.557   6.471
 6070SOL    HW219110   4.490   2.557   6.634
 6071SOL     OW19111   4.181   6.603   5.275
 6071SOL    HW119112   4.133   6.610   5.188
 6071SOL    HW219113   4.151   6.676   5.336
 6072SOL     OW19114   0.909   1.325   1.881
 6072SOL    HW119115   0.914   1.271   1.965
 6072SOL    HW219116   0.989   1.307   1.825
 6073SOL     OW19117   6.725   2.676   0.976
 6073SOL    HW119118   6.678   2.616   1.041
 6073SOL    HW219119   6.658   2.729   0.925
 6074SOL     OW19120   0.518   0.051   4.897
 6074SOL    HW119121   0.479   0.143   4.904
 6074SOL    HW219122   0.444   7.001   4.903
 6075SOL     OW19123   6.276   3.433   0.255
 6075SOL    HW119124   6.237   3.476   0.173
 6075SOL    HW219125   6.206   3.379   0.301
 6076SOL     OW19126   1.891   6.555   3.416
 6076SOL    HW119127   1.804   6.522   3.380
 6076SOL    HW219128   1.951   6.582   3.341
 6077SOL     OW19129   5.772   5.935   2.194
 6077SOL    HW119130   5.812   6.024   2.213
 6077SOL    HW219131   5.674   5.938   2.213
 6078SOL     OW19132   3.181   4.970   3.980
 6078SOL    HW119133   3.118   5.047   3.972
 6078SOL    HW219134   3.137   4.897   4.032
 6079SOL     OW19135   2.614   2.668   0.027
 6079SOL    HW119136   2.528   2.620   0.010
 6079SOL    HW219137   2.655   2.696   6.958
 6080SOL     OW19138   6.099   2.242   1.090
 6080SOL    HW119139   6.144   2.277   1.008
 6080SOL    HW219140   6.074   2.319   1.149
 6081SOL     OW19141   6.600   3.220   3.809
 6081SOL    HW119142   6.547   3.135   3.810
 6081SOL    HW219143   6.579   3.272   3.892
 6082SOL     OW19144   4.599   1.134   2.781
 6082SOL    HW119145   4.511   1.088   2.786
 6082SOL    HW219146   4.605   1.202   2.854
 6083SOL     OW19147   1.714   5.981   6.748
 6083SOL    HW119148   1.614   5.989   6.740
 6083SOL    HW219149   1.739   5.885   6.757
 6084SOL     OW19150   6.590   5.395   5.036
 6084SOL    HW119151   6.690   5.397   5.036
 6084SOL    HW219152   6.555   5.489   5.041
 6085SOL     OW19153   6.228   3.539   0.026
 6085SOL    HW119154   6.299   3.566   6.978
 6085SOL    HW219155   6.141   3.582   7.017
 6086SOL     OW19156   3.539   1.685   4.084
 6086SOL    HW119157   3.622   1.694   4.140
 6086SOL    HW219158   3.515   1.774   4.046
 6087SOL     OW19159   5.605   6.614   6.819
 6087SOL    HW119160   5.593   6.710   6.844
 6087SOL    HW219161   5.678   6.606   6.750
 6088SOL     OW19162   0.785   0.133   4.728
 6088SOL    HW119163   0.692   0.165   4.707
 6088SOL    HW219164   0.851   0.199   4.692
 6089SOL     OW19165   0.461   3.115   1.336
 6089SOL    HW119166   0.513   3.139   1.255
 6089SOL    HW219167   0.396   3.188   1.357
 6090SOL     OW19168   0.667   5.530   5.105
 6090SOL    HW119169   0.752   5.582   5.106
 6090SOL    HW219170   0.594   5.585   5.065
 6091SOL     OW19171   6.244   1.658   1.825
 6091SOL    HW119172   6.323   1.720   1.824
 6091SOL    HW219173   6.259   1.586   1.893
 6092SOL     OW19174   2.113   1.140   2.643
 6092SOL    HW119175   2.090   1.216   2.704
 6092SOL    HW219176   2.118   1.173   2.549
 6093SOL     OW19177   1.499   2.835   1.397
 6093SOL    HW119178   1.535   2.743   1.410
 6093SOL    HW219179   1.548   2.899   1.457
 6094SOL     OW19180   0.642   1.045   1.554
 6094SOL    HW119181   0.665   1.087   1.642
 6094SOL    HW219182   0.568   0.978   1.567
 6095SOL     OW19183   6.217   3.422   6.516
 6095SOL    HW119184   6.153   3.496   6.498
 6095SOL    HW219185   6.311   3.456   6.510
 6096SOL     OW19186   3.977   1.837   3.599
 6096SOL    HW119187   3.918   1.917   3.612
 6096SOL    HW219188   4.050   1.838   3.667
 6097SOL     OW19189   2.647   0.819   2.212
 6097SOL    HW119190   2.693   0.783   2.294
 6097SOL    HW219191   2.635   0.918   2.223
 6098SOL     OW19192   2.506   2.266   5.764
 6098SOL    HW119193   2.483   2.246   5.669
 6098SOL    HW219194   2.537   2.360   5.772
 6099SOL     OW19195   5.806   6.036   4.920
 6099SOL    HW119196   5.721   5.985   4.935
 6099SOL    HW219197   5.784   6.131   4.900
 6100SOL     OW19198   6.384   2.727   0.163
 6100SOL    HW119199   6.347   2.810   0.205
 6100SOL    HW219200   6.475   2.745   0.127
 6101SOL     OW19201   6.460   1.260   6.246
 6101SOL    HW119202   6.478   1.177   6.193
 6101SOL    HW219203   6.362   1.281   6.242
 6102SOL     OW19204   3.078   0.745   5.003
 6102SOL    HW119205   3.070   0.808   4.926
 6102SOL    HW219206   3.020   0.777   5.078
 6103SOL     OW19207   6.512   6.716   5.079
 6103SOL    HW119208   6.523   6.811   5.050
 6103SOL    HW219209   6.571   6.699   5.158
 6104SOL     OW19210   6.166   1.605   6.637
 6104SOL    HW119211   6.127   1.520   6.600
 6104SOL    HW219212   6.142   1.681   6.577
 6105SOL     OW19213   3.477   5.641   5.757
 6105SOL    HW119214   3.402   5.631   5.691
 6105SOL    HW219215   3.547   5.572   5.740
 6106SOL     OW19216   3.222   4.685   6.185
 6106SOL    HW119217   3.296   4.739   6.145
 6106SOL    HW219218   3.257   4.635   6.264
 6107SOL     OW19219   2.171   4.595   4.996
 6107SOL    HW119220   2.092   4.574   5.054
 6107SOL    HW219221   2.144   4.590   4.900
 6108SOL     OW19222   0.982   2.058   4.350
 6108SOL    HW119223   0.983   2.139   4.291
 6108SOL    HW219224   1.050   1.992   4.317
 6109SOL     OW19225   5.573   3.491   0.936
 6109SOL    HW119226   5.670   3.487   0.912
 6109SOL    HW219227   5.543   3.586   0.938
 6110SOL     OW19228   3.030   1.371   4.992
 6110SOL    HW119229   2.991   1.371   4.900
 6110SOL    HW219230   3.009   1.457   5.038
 6111SOL     OW19231   1.403   4.611   3.189
 6111SOL    HW119232   1.477   4.580   3.249
 6111SOL    HW219233   1.344   4.534   3.167
 6112SOL     OW19234   1.296   1.879   2.668
 6112SOL    HW119235   1.229   1.918   2.732
 6112SOL    HW219236   1.348   1.953   2.625
 6113SOL     OW19237   1.709   6.910   5.562
 6113SOL    HW119238   1.736   6.877   5.472
 6113SOL    HW219239   1.781   6.968   5.600
 6114SOL     OW19240   4.708   6.208   0.713
 6114SOL    HW119241   4.806   6.193   0.702
 6114SOL    HW219242   4.682   6.296   0.673
 6115SOL     OW19243   5.102   5.062   2.693
 6115SOL    HW119244   5.046   5.101   2.619
 6115SOL    HW219245   5.138   4.973   2.663
 6116SOL     OW19246   3.894   1.159   1.900
 6116SOL    HW119247   3.934   1.201   1.819
 6116SOL    HW219248   3.878   1.229   1.970
 6117SOL     OW19249   5.624   6.602   4.808
 6117SOL    HW119250   5.646   6.602   4.710
 6117SOL    HW219251   5.580   6.689   4.832
 6118SOL     OW19252   6.456   1.084   3.338
 6118SOL    HW119253   6.389   1.010   3.351
 6118SOL    HW219254   6.448   1.120   3.245
 6119SOL     OW19255   6.974   5.452   4.405
 6119SOL    HW119256   6.912   5.382   4.370
 6119SOL    HW219257   0.038   5.455   4.348
 6120SOL     OW19258   2.422   6.725   2.566
 6120SOL    HW119259   2.323   6.732   2.563
 6120SOL    HW219260   2.459   6.722   2.473
 6121SOL     OW19261   0.597   2.461   3.827
 6121SOL    HW119262   0.664   2.389   3.811
 6121SOL    HW219263   0.537   2.469   3.748
 6122SOL     OW19264   3.890   6.022   3.170
 6122SOL    HW119265   3.919   5.930   3.146
 6122SOL    HW219266   3.899   6.082   3.091
 6123SOL     OW19267   6.261   1.263   2.346
 6123SOL    HW119268   6.190   1.332   2.357
 6123SOL    HW219269   6.240   1.206   2.267
 6124SOL     OW19270   3.365   0.358   5.744
 6124SOL    HW119271   3.463   0.372   5.759
 6124SOL    HW219272   3.352   0.279   5.683
 6125SOL     OW19273   2.003   6.413   1.628
 6125SOL    HW119274   2.061   6.430   1.549
 6125SOL    HW219275   1.917   6.463   1.617
 6126SOL     OW19276   5.475   4.769   2.528
 6126SOL    HW119277   5.452   4.787   2.433
 6126SOL    HW219278   5.543   4.836   2.559
 6127SOL     OW19279   2.025   5.930   1.625
 6127SOL    HW119280   2.042   6.016   1.674
 6127SOL    HW219281   2.061   5.938   1.532
 6128SOL     OW19282   6.340   2.133   0.141
 6128SOL    HW119283   6.399   2.210   0.166
 6128SOL    HW219284   6.274   2.116   0.214
 6129SOL     OW19285   6.234   4.359   2.547
 6129SOL    HW119286   6.184   4.306   2.615
 6129SOL    HW219287   6.170   4.412   2.492
 6130SOL     OW19288   4.975   3.066   3.346
 6130SOL    HW119289   4.928   3.140   3.394
 6130SOL    HW219290   4.908   3.010   3.297
 6131SOL     OW19291   6.301   0.857   5.454
 6131SOL    HW119292   6.327   0.903   5.538
 6131SOL    HW219293   6.208   0.883   5.429
 6132SOL     OW19294   4.108   2.838   0.913
 6132SOL    HW119295   4.033   2.901   0.892
 6132SOL    HW219296   4.195   2.884   0.896
 6133SOL     OW19297   1.028   3.886   1.367
 6133SOL    HW119298   1.095   3.913   1.298
 6133SOL    HW219299   0.941   3.866   1.322
 6134SOL     OW19300   4.275   3.705   6.532
 6134SOL    HW119301   4.285   3.768   6.609
 6134SOL    HW219302   4.349   3.720   6.467
 6135SOL     OW19303   6.279   6.855   1.234
 6135SOL    HW119304   6.298   6.840   1.137
 6135SOL    HW219305   6.366   6.861   1.284
 6136SOL     OW19306   1.093   1.714   1.866
 6136SOL    HW119307   1.097   1.812   1.845
 6136SOL    HW219308   1.148   1.695   1.947
 6137SOL     OW19309   2.725   6.258   5.937
 6137SOL    HW119310   2.764   6.247   6.028
 6137SOL    HW219311   2.634   6.217   5.934
 6138SOL     OW19312   3.667   6.075   3.301
 6138SOL    HW119313   3.758   6.072   3.261
 6138SOL    HW219314   3.619   5.989   3.280
 6139SOL     OW19315   1.463   4.267   4.613
 6139SOL    HW119316   1.366   4.258   4.587
 6139SOL    HW219317   1.505   4.176   4.614
 6140SOL     OW19318   1.332   6.818   1.876
 6140SOL    HW119319   1.267   6.825   1.800
 6140SOL    HW219320   1.423   6.797   1.840
 6141SOL     OW19321   6.378   5.602   5.898
 6141SOL    HW119322   6.475   5.608   5.873
 6141SOL    HW219323   6.365   5.526   5.961
 6142SOL     OW19324   6.796   4.115   1.263
 6142SOL    HW119325   6.894   4.134   1.270
 6142SOL    HW219326   6.760   4.159   1.181
 6143SOL     OW19327   5.944   5.200   6.522
 6143SOL    HW119328   5.861   5.205   6.467
 6143SOL    HW219329   5.935   5.125   6.588
 6144SOL     OW19330   6.758   3.996   3.986
 6144SOL    HW119331   6.769   4.090   3.953
 6144SOL    HW219332   6.839   3.970   4.038
 6145SOL     OW19333   4.867   5.389   3.214
 6145SOL    HW119334   4.798   5.459   3.235
 6145SOL    HW219335   4.825   5.319   3.156
 6146SOL     OW19336   5.756   1.700   3.151
 6146SOL    HW119337   5.838   1.684   3.097
 6146SOL    HW219338   5.755   1.636   3.228
 6147SOL     OW19339   2.169   3.781   2.516
 6147SOL    HW119340   2.251   3.820   2.475
 6147SOL    HW219341   2.184   3.683   2.532
 6148SOL     OW19342   6.347   6.188   4.121
 6148SOL    HW119343   6.275   6.119   4.108
 6148SOL    HW219344   6.318   6.253   4.191
 6149SOL     OW19345   3.497   5.445   2.928
 6149SOL    HW119346   3.551   5.527   2.912
 6149SOL    HW219347   3.402   5.462   2.902
 6150SOL     OW19348   4.739   6.369   5.961
 6150SOL    HW119349   4.809   6.437   5.986
 6150SOL    HW219350   4.755   6.338   5.867
 6151SOL     OW19351   5.349   2.524   5.370
 6151SOL    HW119352   5.351   2.424   5.362
 6151SOL    HW219353   5.254   2.555   5.381
 6152SOL     OW19354   6.062   4.362   6.537
 6152SOL    HW119355   6.038   4.361   6.440
 6152SOL    HW219356   6.023   4.282   6.582
 6153SOL     OW19357   4.273   3.902   1.576
 6153SOL    HW119358   4.297   3.996   1.598
 6153SOL    HW219359   4.226   3.899   1.488
 6154SOL     OW19360   5.323   2.701   3.375
 6154SOL    HW119361   5.382   2.628   3.409
 6154SOL    HW219362   5.380   2.781   3.352
 6155SOL     OW19363   0.416   3.423   5.204
 6155SOL    HW119364   0.332   3.372   5.218
 6155SOL    HW219365   0.399   3.520   5.218
 6156SOL     OW19366   6.107   6.442   3.084
 6156SOL    HW119367   6.154   6.368   3.036
 6156SOL    HW219368   6.040   6.485   3.023
 6157SOL     OW19369   2.200   1.272   4.370
 6157SOL    HW119370   2.128   1.204   4.355
 6157SOL    HW219371   2.161   1.364   4.361
 6158SOL     OW19372   5.017   1.053   6.380
 6158SOL    HW119373   5.109   1.018   6.362
 6158SOL    HW219374   4.951   1.002   6.325
 6159SOL     OW19375   5.242   3.020   0.511
 6159SOL    HW119376   5.163   3.081   0.511
 6159SOL    HW219377   5.218   2.935   0.465
 6160SOL     OW19378   5.696   5.991   1.621
 6160SOL    HW119379   5.728   6.046   1.697
 6160SOL    HW219380   5.600   6.014   1.601
 6161SOL     OW19381   5.141   0.089   6.021
 6161SOL    HW119382   5.132   0.188   6.032
 6161SOL    HW219383   5.237   0.063   6.021
 6162SOL     OW19384   6.956   5.199   4.609
 6162SOL    HW119385   6.872   5.147   4.626
 6162SOL    HW219386   6.934   5.277   4.550
 6163SOL     OW19387   6.338   4.624   1.180
 6163SOL    HW119388   6.383   4.623   1.090
 6163SOL    HW219389   6.293   4.536   1.195
 6164SOL     OW19390   3.361   1.482   0.777
 6164SOL    HW119391   3.291   1.540   0.735
 6164SOL    HW219392   3.387   1.520   0.866
 6165SOL     OW19393   3.739   6.405   6.779
 6165SOL    HW119394   3.826   6.408   6.827
 6165SOL    HW219395   3.694   6.494   6.784
 6166SOL     OW19396   2.721   1.168   6.184
 6166SOL    HW119397   2.709   1.099   6.256
 6166SOL    HW219398   2.634   1.216   6.169
 6167SOL     OW19399   0.658   3.843   3.244
 6167SOL    HW119400   0.620   3.811   3.331
 6167SOL    HW219401   0.748   3.883   3.260
 6168SOL     OW19402   0.257   4.058   2.803
 6168SOL    HW119403   0.205   4.004   2.736
 6168SOL    HW219404   0.256   4.154   2.775
 6169SOL     OW19405   2.286   4.131   2.506
 6169SOL    HW119406   2.275   4.065   2.431
 6169SOL    HW219407   2.220   4.110   2.578
 6170SOL     OW19408   0.400   2.805   5.365
 6170SOL    HW119409   0.445   2.888   5.332
 6170SOL    HW219410   0.466   2.750   5.417
 6171SOL     OW19411   0.244   0.353   6.675
 6171SOL    HW119412   0.283   0.293   6.606
 6171SOL    HW219413   0.235   0.445   6.638
 6172SOL     OW19414   0.510   3.213   2.942
 6172SOL    HW119415   0.440   3.143   2.928
 6172SOL    HW219416   0.467   3.303   2.951
 6173SOL     OW19417   6.546   6.690   2.991
 6173SOL    HW119418   6.576   6.784   3.005
 6173SOL    HW219419   6.447   6.687   2.980
 6174SOL     OW19420   5.811   3.986   3.157
 6174SOL    HW119421   5.910   3.998   3.167
 6174SOL    HW219422   5.793   3.897   3.115
 6175SOL     OW19423   2.185   1.624   5.302
 6175SOL    HW119424   2.090   1.613   5.274
 6175SOL    HW219425   2.215   1.717   5.282
 6176SOL     OW19426   4.044   4.510   5.299
 6176SOL    HW119427   4.098   4.447   5.242
 6176SOL    HW219428   3.955   4.470   5.318
 6177SOL     OW19429   5.880   1.407   1.761
 6177SOL    HW119430   5.789   1.422   1.722
 6177SOL    HW219431   5.935   1.355   1.695
 6178SOL     OW19432   5.053   4.827   1.796
 6178SOL    HW119433   5.011   4.741   1.766
 6178SOL    HW219434   5.124   4.809   1.863
 6179SOL     OW19435   6.262   4.925   3.235
 6179SOL    HW119436   6.311   4.939   3.149
 6179SOL    HW219437   6.306   4.979   3.307
 6180SOL     OW19438   2.786   4.123   0.112
 6180SOL    HW119439   2.794   4.121   0.013
 6180SOL    HW219440   2.876   4.108   0.153
 6181SOL     OW19441   4.586   4.956   6.204
 6181SOL    HW119442   4.662   4.901   6.170
 6181SOL    HW219443   4.614   5.051   6.212
 6182SOL     OW19444   3.355   3.275   0.186
 6182SOL    HW119445   3.388   3.343   0.251
 6182SOL    HW219446   3.430   3.247   0.126
 6183SOL     OW19447   0.794   1.652   1.524
 6183SOL    HW119448   0.838   1.607   1.602
 6183SOL    HW219449   0.858   1.716   1.482
 6184SOL     OW19450   2.872   0.620   6.019
 6184SOL    HW119451   2.861   0.685   5.944
 6184SOL    HW219452   2.953   0.643   6.072
 6185SOL     OW19453   2.966   2.616   5.753
 6185SOL    HW119454   2.959   2.604   5.654
 6185SOL    HW219455   2.912   2.545   5.799
 6186SOL     OW19456   6.278   1.443   1.986
 6186SOL    HW119457   6.332   1.403   2.060
 6186SOL    HW219458   6.192   1.479   2.022
 6187SOL     OW19459   5.101   1.710   5.318
 6187SOL    HW119460   5.047   1.793   5.303
 6187SOL    HW219461   5.113   1.662   5.231
 6188SOL     OW19462   1.596   2.147   5.272
 6188SOL    HW119463   1.632   2.198   5.194
 6188SOL    HW219464   1.586   2.050   5.247
 6189SOL     OW19465   5.783   6.168   2.497
 6189SOL    HW119466   5.825   6.096   2.552
 6189SOL    HW219467   5.834   6.180   2.412
 6190SOL     OW19468   0.137   2.282   5.675
 6190SOL    HW119469   0.155   2.344   5.752
 6190SOL    HW219470   0.160   2.188   5.703
 6191SOL     OW19471   3.687   3.745   6.454
 6191SOL    HW119472   3.671   3.836   6.493
 6191SOL    HW219473   3.618   3.727   6.383
 6192SOL     OW19474   2.754   1.498   0.081
 6192SOL    HW119475   2.814   1.463   0.153
 6192SOL    HW219476   2.674   1.542   0.122
 6193SOL     OW19477   4.932   5.574   6.733
 6193SOL    HW119478   5.018   5.582   6.783
 6193SOL    HW219479   4.931   5.488   6.681
 6194SOL     OW19480   6.400   6.983   6.042
 6194SOL    HW119481   6.310   0.003   6.021
 6194SOL    HW219482   6.471   0.031   6.018
 6195SOL     OW19483   6.638   6.605   5.632
 6195SOL    HW119484   6.683   6.584   5.545
 6195SOL    HW219485   6.706   6.604   5.706
 6196SOL     OW19486   5.800   3.731   3.436
 6196SOL    HW119487   5.861   3.653   3.422
 6196SOL    HW219488   5.721   3.723   3.375
 6197SOL     OW19489   3.351   5.589   2.078
 6197SOL    HW119490   3.350   5.633   2.168
 6197SOL    HW219491   3.262   5.548   2.060
 6198SOL     OW19492   6.287   6.344   6.207
 6198SOL    HW119493   6.288   6.422   6.269
 6198SOL    HW219494   6.260   6.375   6.115
 6199SOL     OW19495   1.015   0.674   0.882
 6199SOL    HW119496   1.105   0.717   0.874
 6199SOL    HW219497   1.022   0.578   0.856
 6200SOL     OW19498   1.892   2.285   2.872
 6200SOL    HW119499   1.986   2.253   2.874
 6200SOL    HW219500   1.854   2.273   2.780
 6201SOL     OW19501   6.942   3.480   4.035
 6201SOL    HW119502   6.917   3.422   3.957
 6201SOL    HW219503   0.023   3.481   4.046
 6202SOL     OW19504   6.114   1.644   2.505
 6202SOL    HW119505   6.095   1.740   2.527
 6202SOL    HW219506   6.177   1.607   2.573
 6203SOL     OW19507   6.182   6.083   2.245
 6203SOL    HW119508   6.264   6.130   2.277
 6203SOL    HW219509   6.205   6.027   2.165
 6204SOL     OW19510   2.233   0.076   5.313
 6204SOL    HW119511   2.280   0.155   5.273
 6204SOL    HW219512   2.296   0.026   5.373
 6205SOL     OW19513   5.315   3.886   3.231
 6205SOL    HW119514   5.383   3.949   3.195
 6205SOL    HW219515   5.225   3.908   3.194
 6206SOL     OW19516   5.118   2.362   3.579
 6206SOL    HW119517   5.193   2.411   3.625
 6206SOL    HW219518   5.055   2.326   3.648
 6207SOL     OW19519   2.186   5.559   4.384
 6207SOL    HW119520   2.281   5.565   4.355
 6207SOL    HW219521   2.146   5.474   4.351
 6208SOL     OW19522   3.800   3.003   5.812
 6208SOL    HW119523   3.845   2.915   5.803
 6208SOL    HW219524   3.818   3.059   5.732
 6209SOL     OW19525   3.218   3.103   1.141
 6209SOL    HW119526   3.309   3.090   1.181
 6209SOL    HW219527   3.148   3.081   1.210
 6210SOL     OW19528   4.680   1.970   3.700
 6210SOL    HW119529   4.672   2.007   3.608
 6210SOL    HW219530   4.676   2.045   3.766
 6211SOL     OW19531   5.593   5.038   4.707
 6211SOL    HW119532   5.519   5.028   4.641
 6211SOL    HW219533   5.631   4.948   4.729
 6212SOL     OW19534   4.497   4.382   6.068
 6212SOL    HW119535   4.548   4.356   5.987
 6212SOL    HW219536   4.431   4.311   6.090
 6213SOL     OW19537   4.416   5.692   0.118
 6213SOL    HW119538   4.384   5.741   0.037
 6213SOL    HW219539   4.509   5.659   0.102
 6214SOL     OW19540   5.772   5.760   6.409
 6214SOL    HW119541   5.723   5.676   6.389
 6214SOL    HW219542   5.842   5.742   6.479
 6215SOL     OW19543   5.949   2.645   5.718
 6215SOL    HW119544   5.910   2.692   5.638
 6215SOL    HW219545   6.001   2.565   5.687
 6216SOL     OW19546   4.688   2.319   2.918
 6216SOL    HW119547   4.667   2.285   2.826
 6216SOL    HW219548   4.614   2.379   2.949
 6217SOL     OW19549   0.765   4.465   2.448
 6217SOL    HW119550   0.680   4.459   2.397
 6217SOL    HW219551   0.837   4.416   2.399
 6218SOL     OW19552   4.687   6.747   6.568
 6218SOL    HW119553   4.704   6.648   6.566
 6218SOL    HW219554   4.667   6.775   6.662
 6219SOL     OW19555   0.979   0.798   6.127
 6219SOL    HW119556   1.012   0.755   6.044
 6219SOL    HW219557   0.882   0.823   6.116
 6220SOL     OW19558   4.238   0.996   1.077
 6220SOL    HW119559   4.259   0.969   0.983
 6220SOL    HW219560   4.279   1.085   1.097
 6221SOL     OW19561   6.321   5.816   6.639
 6221SOL    HW119562   6.332   5.783   6.732
 6221SOL    HW219563   6.305   5.738   6.578
 6222SOL     OW19564   6.552   1.372   2.662
 6222SOL    HW119565   6.516   1.461   2.687
 6222SOL    HW219566   6.555   1.363   2.562
 6223SOL     OW19567   0.362   4.780   3.607
 6223SOL    HW119568   0.374   4.835   3.525
 6223SOL    HW219569   0.431   4.805   3.674
 6224SOL     OW19570   4.052   1.418   6.466
 6224SOL    HW119571   4.044   1.361   6.385
 6224SOL    HW219572   4.009   1.372   6.544
 6225SOL     OW19573   4.419   6.851   6.466
 6225SOL    HW119574   4.441   6.917   6.538
 6225SOL    HW219575   4.494   6.785   6.458
 6226SOL     OW19576   1.251   1.023   4.570
 6226SOL    HW119577   1.176   1.089   4.557
 6226SOL    HW219578   1.258   1.000   4.667
 6227SOL     OW19579   2.883   3.893   4.930
 6227SOL    HW119580   2.941   3.972   4.912
 6227SOL    HW219581   2.791   3.924   4.955
 6228SOL     OW19582   2.066   2.877   3.467
 6228SOL    HW119583   2.136   2.847   3.530
 6228SOL    HW219584   1.981   2.897   3.517
 6229SOL     OW19585   0.416   3.861   3.897
 6229SOL    HW119586   0.387   3.882   3.991
 6229SOL    HW219587   0.448   3.945   3.853
 6230SOL     OW19588   0.034   0.992   2.133
 6230SOL    HW119589   7.007   1.067   2.183
 6230SOL    HW219590   6.983   0.926   2.103
 6231SOL     OW19591   1.111   5.448   0.084
 6231SOL    HW119592   1.156   5.405   0.162
 6231SOL    HW219593   1.040   5.388   0.049
 6232SOL     OW19594   4.314   1.455   6.517
 6232SOL    HW119595   4.373   1.464   6.437
 6232SOL    HW219596   4.220   1.480   6.492
 6233SOL     OW19597   0.109   3.599   1.809
 6233SOL    HW119598   0.141   3.564   1.721
 6233SOL    HW219599   0.072   3.691   1.797
 6234SOL     OW19600   5.032   6.771   4.487
 6234SOL    HW119601   5.079   6.759   4.575
 6234SOL    HW219602   5.045   6.865   4.455
 6235SOL     OW19603   6.713   0.784   3.109
 6235SOL    HW119604   6.707   0.827   3.200
 6235SOL    HW219605   6.623   0.783   3.067
 6236SOL     OW19606   1.081   4.678   1.086
 6236SOL    HW119607   1.103   4.661   1.182
 6236SOL    HW219608   1.094   4.775   1.066
 6237SOL     OW19609   3.898   1.120   1.118
 6237SOL    HW119610   3.928   1.214   1.104
 6237SOL    HW219611   3.959   1.074   1.182
 6238SOL     OW19612   2.154   6.894   4.598
 6238SOL    HW119613   2.191   6.872   4.689
 6238SOL    HW219614   2.160   6.813   4.540
 6239SOL     OW19615   5.018   1.455   3.106
 6239SOL    HW119616   5.084   1.530   3.107
 6239SOL    HW219617   5.053   1.381   3.048
 6240SOL     OW19618   4.095   3.492   3.988
 6240SOL    HW119619   4.153   3.565   4.024
 6240SOL    HW219620   4.042   3.527   3.911
 6241SOL     OW19621   3.140   6.839   2.856
 6241SOL    HW119622   3.211   6.906   2.831
 6241SOL    HW219623   3.077   6.880   2.922
 6242SOL     OW19624   2.721   1.840   4.101
 6242SOL    HW119625   2.821   1.846   4.094
 6242SOL    HW219626   2.684   1.929   4.127
 6243SOL     OW19627   5.092   0.878   5.566
 6243SOL    HW119628   5.035   0.824   5.504
 6243SOL    HW219629   5.034   0.917   5.638
 6244SOL     OW19630   4.260   4.691   3.016
 6244SOL    HW119631   4.233   4.787   3.013
 6244SOL    HW219632   4.185   4.634   2.984
 6245SOL     OW19633   0.976   4.309   2.378
 6245SOL    HW119634   0.993   4.298   2.475
 6245SOL    HW219635   0.945   4.221   2.339
 6246SOL     OW19636   6.615   6.377   4.231
 6246SOL    HW119637   6.638   6.281   4.216
 6246SOL    HW219638   6.516   6.388   4.233
 6247SOL     OW19639   6.754   6.308   2.333
 6247SOL    HW119640   6.793   6.221   2.362
 6247SOL    HW219641   6.705   6.350   2.409
 6248SOL     OW19642   3.482   3.546   6.219
 6248SOL    HW119643   3.418   3.512   6.150
 6248SOL    HW219644   3.457   3.639   6.246
 6249SOL     OW19645   6.091   3.354   1.674
 6249SOL    HW119646   6.068   3.282   1.740
 6249SOL    HW219647   6.159   3.415   1.715
 6250SOL     OW19648   6.981   0.123   0.355
 6250SOL    HW119649   6.967   0.072   0.440
 6250SOL    HW219650   0.060   0.147   0.346
 6251SOL     OW19651   2.919   6.682   3.892
 6251SOL    HW119652   2.847   6.612   3.898
 6251SOL    HW219653   2.882   6.764   3.848
 6252SOL     OW19654   2.755   5.242   6.995
 6252SOL    HW119655   2.760   5.332   6.951
 6252SOL    HW219656   2.779   5.171   6.929
 6253SOL     OW19657   3.685   4.974   4.991
 6253SOL    HW119658   3.653   4.894   4.942
 6253SOL    HW219659   3.773   5.004   4.953
 6254SOL     OW19660   0.362   6.405   1.138
 6254SOL    HW119661   0.346   6.497   1.102
 6254SOL    HW219662   0.274   6.361   1.155
 6255SOL     OW19663   0.081   1.254   1.937
 6255SOL    HW119664   7.001   1.263   1.924
 6255SOL    HW219665   0.101   1.164   1.978
 6256SOL     OW19666   5.015   5.893   2.267
 6256SOL    HW119667   4.981   5.973   2.216
 6256SOL    HW219668   5.110   5.876   2.242
 6257SOL     OW19669   3.778   4.205   1.449
 6257SOL    HW119670   3.753   4.139   1.519
 6257SOL    HW219671   3.695   4.252   1.418
 6258SOL     OW19672   4.218   6.031   5.384
 6258SOL    HW119673   4.158   6.111   5.390
 6258SOL    HW219674   4.241   6.000   5.476
 6259SOL     OW19675   2.640   0.897   4.944
 6259SOL    HW119676   2.566   0.831   4.956
 6259SOL    HW219677   2.644   0.925   4.848
 6260SOL     OW19678   1.836   1.745   0.548
 6260SOL    HW119679   1.900   1.728   0.623
 6260SOL    HW219680   1.876   1.812   0.484
 6261SOL     OW19681   3.498   6.813   0.877
 6261SOL    HW119682   3.554   6.820   0.794
 6261SOL    HW219683   3.543   6.754   0.943
 6262SOL     OW19684   6.445   0.456   2.047
 6262SOL    HW119685   6.475   0.361   2.052
 6262SOL    HW219686   6.353   0.465   2.084
 6263SOL     OW19687   6.355   6.100   6.109
 6263SOL    HW119688   6.356   6.195   6.139
 6263SOL    HW219689   6.282   6.051   6.156
 6264SOL     OW19690   1.576   6.987   0.690
 6264SOL    HW119691   1.574   6.897   0.647
 6264SOL    HW219692   1.483   0.006   0.696
 6265SOL     OW19693   5.003   1.582   0.206
 6265SOL    HW119694   4.978   1.520   0.281
 6265SOL    HW219695   4.923   1.636   0.179
 6266SOL     OW19696   2.550   5.181   2.947
 6266SOL    HW119697   2.516   5.235   3.024
 6266SOL    HW219698   2.480   5.175   2.876
 6267SOL     OW19699   1.558   6.522   4.831
 6267SOL    HW119700   1.530   6.457   4.901
 6267SOL    HW219701   1.599   6.602   4.875
 6268SOL     OW19702   3.668   0.908   1.119
 6268SOL    HW119703   3.747   0.970   1.116
 6268SOL    HW219704   3.606   0.931   1.044
 6269SOL     OW19705   6.112   5.385   0.361
 6269SOL    HW119706   6.019   5.362   0.389
 6269SOL    HW219707   6.151   5.310   0.308
 6270SOL     OW19708   2.065   6.546   0.019
 6270SOL    HW119709   2.124   6.466   0.018
 6270SOL    HW219710   1.983   6.528   6.984
 6271SOL     OW19711   5.709   2.922   6.183
 6271SOL    HW119712   5.799   2.967   6.179
 6271SOL    HW219713   5.678   2.920   6.277
 6272SOL     OW19714   0.321   6.899   0.736
 6272SOL    HW119715   0.284   6.974   0.791
 6272SOL    HW219716   0.245   6.845   0.699
 6273SOL     OW19717   0.020   6.689   1.389
 6273SOL    HW119718   6.995   6.776   1.414
 6273SOL    HW219719   0.111   6.706   1.352
 6274SOL     OW19720   3.412   5.680   4.299
 6274SOL    HW119721   3.415   5.737   4.381
 6274SOL    HW219722   3.499   5.632   4.289
 6275SOL     OW19723   1.905   5.019   6.626
 6275SOL    HW119724   1.829   4.954   6.626
 6275SOL    HW219725   1.901   5.075   6.709
 6276SOL     OW19726   1.404   5.731   2.812
 6276SOL    HW119727   1.327   5.765   2.757
 6276SOL    HW219728   1.471   5.687   2.752
 6277SOL     OW19729   5.070   3.969   1.530
 6277SOL    HW119730   5.040   4.059   1.563
 6277SOL    HW219731   5.019   3.898   1.578
 6278SOL     OW19732   2.665   0.990   6.372
 6278SOL    HW119733   2.657   0.902   6.325
 6278SOL    HW219734   2.665   0.974   6.471
 6279SOL     OW19735   2.577   0.059   1.285
 6279SOL    HW119736   2.512   0.106   1.226
 6279SOL    HW219737   2.601   6.989   1.245
 6280SOL     OW19738   6.416   1.886   0.040
 6280SOL    HW119739   6.511   1.880   0.072
 6280SOL    HW219740   6.375   1.971   0.074
 6281SOL     OW19741   5.496   4.054   5.800
 6281SOL    HW119742   5.549   4.031   5.718
 6281SOL    HW219743   5.502   3.979   5.865
 6282SOL     OW19744   0.030   3.326   5.492
 6282SOL    HW119745   0.003   3.401   5.433
 6282SOL    HW219746   0.117   3.348   5.536
 6283SOL     OW19747   1.423   5.910   4.550
 6283SOL    HW119748   1.482   5.923   4.470
 6283SOL    HW219749   1.467   5.846   4.614
 6284SOL     OW19750   2.114   4.403   6.500
 6284SOL    HW119751   2.132   4.471   6.428
 6284SOL    HW219752   2.187   4.407   6.568
 6285SOL     OW19753   0.930   3.890   3.257
 6285SOL    HW119754   0.960   3.894   3.162
 6285SOL    HW219755   0.985   3.823   3.307
 6286SOL     OW19756   1.168   2.703   6.175
 6286SOL    HW119757   1.092   2.703   6.109
 6286SOL    HW219758   1.235   2.635   6.148
 6287SOL     OW19759   4.775   4.707   4.844
 6287SOL    HW119760   4.836   4.631   4.825
 6287SOL    HW219761   4.689   4.695   4.795
 6288SOL     OW19762   3.706   3.344   6.726
 6288SOL    HW119763   3.613   3.306   6.730
 6288SOL    HW219764   3.771   3.269   6.712
 6289SOL     OW19765   2.552   4.321   5.875
 6289SOL    HW119766   2.503   4.308   5.789
 6289SOL    HW219767   2.487   4.325   5.950
 6290SOL     OW19768   5.211   5.914   4.406
 6290SOL    HW119769   5.114   5.932   4.388
 6290SOL    HW219770   5.264   5.933   4.323
 6291SOL     OW19771   3.730   3.721   3.113
 6291SOL    HW119772   3.751   3.781   3.036
 6291SOL    HW219773   3.731   3.774   3.198
 6292SOL     OW19774   1.853   3.267   4.234
 6292SOL    HW119775   1.952   3.275   4.218
 6292SOL    HW219776   1.816   3.194   4.176
 6293SOL     OW19777   4.265   1.142   6.430
 6293SOL    HW119778   4.307   1.219   6.477
 6293SOL    HW219779   4.204   1.176   6.358
 6294SOL     OW19780   1.815   1.404   3.205
 6294SOL    HW119781   1.898   1.460   3.201
 6294SOL    HW219782   1.791   1.374   3.113
 6295SOL     OW19783   5.086   3.792   5.662
 6295SOL    HW119784   5.049   3.840   5.583
 6295SOL    HW219785   5.144   3.854   5.715
 6296SOL     OW19786   0.647   2.736   6.683
 6296SOL    HW119787   0.724   2.672   6.681
 6296SOL    HW219788   0.669   2.812   6.743
 6297SOL     OW19789   5.615   1.087   3.919
 6297SOL    HW119790   5.624   1.013   3.852
 6297SOL    HW219791   5.568   1.165   3.876
 6298SOL     OW19792   6.394   5.358   0.977
 6298SOL    HW119793   6.301   5.361   1.015
 6298SOL    HW219794   6.395   5.399   0.886
 6299SOL     OW19795   4.438   1.722   2.444
 6299SOL    HW119796   4.418   1.785   2.520
 6299SOL    HW219797   4.457   1.775   2.361
 6300SOL     OW19798   2.734   0.734   6.277
 6300SOL    HW119799   2.769   0.741   6.370
 6300SOL    HW219800   2.790   0.667   6.226
 6301SOL     OW19801   3.975   6.415   6.925
 6301SOL    HW119802   4.074   6.400   6.931
 6301SOL    HW219803   3.944   6.467   7.004
 6302SOL     OW19804   3.042   1.648   6.486
 6302SOL    HW119805   3.070   1.728   6.539
 6302SOL    HW219806   2.946   1.658   6.460
 6303SOL     OW19807   0.908   5.693   5.167
 6303SOL    HW119808   0.963   5.675   5.248
 6303SOL    HW219809   0.893   5.792   5.158
 6304SOL     OW19810   4.410   0.956   3.025
 6304SOL    HW119811   4.447   0.949   3.118
 6304SOL    HW219812   4.343   1.029   3.021
 6305SOL     OW19813   0.938   6.065   6.105
 6305SOL    HW119814   0.961   6.152   6.061
 6305SOL    HW219815   0.858   6.077   6.163
 6306SOL     OW19816   0.390   4.245   4.216
 6306SOL    HW119817   0.449   4.250   4.136
 6306SOL    HW219818   0.417   4.168   4.273
 6307SOL     OW19819   3.742   3.438   3.055
 6307SOL    HW119820   3.741   3.518   3.115
 6307SOL    HW219821   3.657   3.432   3.004
 6308SOL     OW19822   0.153   2.328   0.452
 6308SOL    HW119823   0.111   2.333   0.542
 6308SOL    HW219824   0.110   2.395   0.391
 6309SOL     OW19825   2.108   6.420   4.458
 6309SOL    HW119826   2.132   6.364   4.538
 6309SOL    HW219827   2.102   6.361   4.378
 6310SOL     OW19828   0.923   6.348   3.313
 6310SOL    HW119829   0.841   6.338   3.370
 6310SOL    HW219830   0.899   6.398   3.230
 6311SOL     OW19831   4.868   0.808   5.350
 6311SOL    HW119832   4.867   0.868   5.270
 6311SOL    HW219833   4.808   0.846   5.420
 6312SOL     OW19834   3.993   6.182   6.298
 6312SOL    HW119835   3.992   6.256   6.365
 6312SOL    HW219836   3.932   6.205   6.222
 6313SOL     OW19837   5.854   5.996   4.372
 6313SOL    HW119838   5.813   5.960   4.456
 6313SOL    HW219839   5.947   5.960   4.363
 6314SOL     OW19840   1.662   6.805   2.654
 6314SOL    HW119841   1.628   6.745   2.726
 6314SOL    HW219842   1.603   6.796   2.573
 6315SOL     OW19843   1.946   2.608   4.526
 6315SOL    HW119844   2.036   2.606   4.481
 6315SOL    HW219845   1.926   2.702   4.555
 6316SOL     OW19846   5.222   0.905   4.460
 6316SOL    HW119847   5.218   0.844   4.539
 6316SOL    HW219848   5.277   0.985   4.483
 6317SOL     OW19849   4.833   5.316   1.752
 6317SOL    HW119850   4.865   5.396   1.804
 6317SOL    HW219851   4.869   5.233   1.793
 6318SOL     OW19852   6.337   6.612   6.264
 6318SOL    HW119853   6.417   6.651   6.220
 6318SOL    HW219854   6.289   6.683   6.317
 6319SOL     OW19855   5.780   1.203   4.777
 6319SOL    HW119856   5.737   1.265   4.712
 6319SOL    HW219857   5.735   1.212   4.866
 6320SOL     OW19858   6.215   0.212   5.744
 6320SOL    HW119859   6.149   0.138   5.731
 6320SOL    HW219860   6.273   0.219   5.663
 6321SOL     OW19861   5.738   1.908   6.769
 6321SOL    HW119862   5.820   1.860   6.798
 6321SOL    HW219863   5.741   2.003   6.802
 6322SOL     OW19864   1.248   1.036   1.894
 6322SOL    HW119865   1.315   1.091   1.843
 6322SOL    HW219866   1.266   0.939   1.879
 6323SOL     OW19867   2.698   3.886   1.211
 6323SOL    HW119868   2.708   3.788   1.225
 6323SOL    HW219869   2.605   3.914   1.232
 6324SOL     OW19870   4.790   1.517   0.610
 6324SOL    HW119871   4.704   1.533   0.659
 6324SOL    HW219872   4.850   1.596   0.623
 6325SOL     OW19873   1.676   2.641   3.897
 6325SOL    HW119874   1.679   2.631   3.798
 6325SOL    HW219875   1.760   2.604   3.937
 6326SOL     OW19876   5.589   5.034   5.732
 6326SOL    HW119877   5.682   5.013   5.703
 6326SOL    HW219878   5.583   5.024   5.832
 6327SOL     OW19879   0.196   0.616   3.567
 6327SOL    HW119880   0.118   0.671   3.540
 6327SOL    HW219881   0.191   0.594   3.664
 6328SOL     OW19882   4.376   3.506   5.249
 6328SOL    HW119883   4.464   3.505   5.203
 6328SOL    HW219884   4.324   3.587   5.219
 6329SOL     OW19885   1.423   2.271   5.804
 6329SOL    HW119886   1.430   2.243   5.708
 6329SOL    HW219887   1.403   2.368   5.809
 6330SOL     OW19888   5.231   1.540   3.397
 6330SOL    HW119889   5.315   1.592   3.410
 6330SOL    HW219890   5.185   1.571   3.313
 6331SOL     OW19891   0.362   3.162   3.493
 6331SOL    HW119892   0.366   3.141   3.395
 6331SOL    HW219893   0.267   3.179   3.519
 6332SOL     OW19894   2.841   1.602   0.485
 6332SOL    HW119895   2.852   1.679   0.422
 6332SOL    HW219896   2.923   1.595   0.543
 6333SOL     OW19897   5.135   1.656   0.768
 6333SOL    HW119898   5.053   1.692   0.725
 6333SOL    HW219899   5.170   1.579   0.714
 6334SOL     OW19900   1.528   1.448   2.215
 6334SOL    HW119901   1.532   1.382   2.290
 6334SOL    HW219902   1.545   1.540   2.250
 6335SOL     OW19903   6.697   1.804   0.626
 6335SOL    HW119904   6.712   1.708   0.651
 6335SOL    HW219905   6.623   1.842   0.682
 6336SOL     OW19906   0.556   2.698   5.548
 6336SOL    HW119907   0.574   2.600   5.561
 6336SOL    HW219908   0.564   2.745   5.636
 6337SOL     OW19909   4.681   5.277   4.706
 6337SOL    HW119910   4.703   5.332   4.786
 6337SOL    HW219911   4.759   5.219   4.683
 6338SOL     OW19912   2.983   1.696   3.433
 6338SOL    HW119913   2.929   1.774   3.464
 6338SOL    HW219914   2.922   1.619   3.415
 6339SOL     OW19915   0.716   4.621   3.219
 6339SOL    HW119916   0.753   4.694   3.162
 6339SOL    HW219917   0.772   4.612   3.301
 6340SOL     OW19918   2.183   4.223   1.162
 6340SOL    HW119919   2.275   4.262   1.153
 6340SOL    HW219920   2.166   4.202   1.259
 6341SOL     OW19921   0.786   5.066   3.437
 6341SOL    HW119922   0.743   5.002   3.501
 6341SOL    HW219923   0.760   5.042   3.343
 6342SOL     OW19924   2.027   1.620   1.425
 6342SOL    HW119925   1.943   1.601   1.476
 6342SOL    HW219926   2.090   1.672   1.483
 6343SOL     OW19927   1.397   5.722   1.067
 6343SOL    HW119928   1.474   5.709   1.129
 6343SOL    HW219929   1.413   5.668   0.984
 6344SOL     OW19930   6.680   1.087   4.169
 6344SOL    HW119931   6.629   1.129   4.095
 6344SOL    HW219932   6.629   1.010   4.206
 6345SOL     OW19933   5.602   3.904   1.918
 6345SOL    HW119934   5.510   3.880   1.951
 6345SOL    HW219935   5.666   3.901   1.995
 6346SOL     OW19936   6.436   3.903   5.480
 6346SOL    HW119937   6.471   3.850   5.557
 6346SOL    HW219938   6.508   3.961   5.443
 6347SOL     OW19939   1.667   1.936   2.949
 6347SOL    HW119940   1.656   2.006   3.020
 6347SOL    HW219941   1.590   1.872   2.954
 6348SOL     OW19942   0.063   1.989   5.852
 6348SOL    HW119943   0.143   1.961   5.906
 6348SOL    HW219944   0.025   2.073   5.892
 6349SOL     OW19945   6.900   1.413   6.838
 6349SOL    HW119946   6.829   1.371   6.894
 6349SOL    HW219947   6.926   1.502   6.878
 6350SOL     OW19948   1.193   4.734   1.852
 6350SOL    HW119949   1.156   4.743   1.944
 6350SOL    HW219950   1.179   4.641   1.818
 6351SOL     OW19951   5.786   2.957   2.193
 6351SOL    HW119952   5.732   2.919   2.118
 6351SOL    HW219953   5.759   3.053   2.207
 6352SOL     OW19954   2.805   0.675   4.564
 6352SOL    HW119955   2.756   0.757   4.595
 6352SOL    HW219956   2.889   0.664   4.618
 6353SOL     OW19957   3.933   6.113   5.781
 6353SOL    HW119958   3.848   6.105   5.833
 6353SOL    HW219959   3.981   6.025   5.782
 6354SOL     OW19960   4.503   5.517   1.549
 6354SOL    HW119961   4.546   5.430   1.572
 6354SOL    HW219962   4.515   5.581   1.625
 6355SOL     OW19963   2.312   4.748   0.867
 6355SOL    HW119964   2.380   4.742   0.794
 6355SOL    HW219965   2.278   4.656   0.889
 6356SOL     OW19966   6.233   4.167   6.674
 6356SOL    HW119967   6.319   4.181   6.723
 6356SOL    HW219968   6.199   4.255   6.640
 6357SOL     OW19969   5.856   1.289   1.494
 6357SOL    HW119970   5.860   1.204   1.440
 6357SOL    HW219971   5.948   1.328   1.501
 6358SOL     OW19972   1.455   2.201   6.599
 6358SOL    HW119973   1.531   2.261   6.622
 6358SOL    HW219974   1.475   2.109   6.633
 6359SOL     OW19975   5.316   6.119   0.689
 6359SOL    HW119976   5.340   6.037   0.638
 6359SOL    HW219977   5.400   6.162   0.724
 6360SOL     OW19978   1.266   2.348   2.143
 6360SOL    HW119979   1.248   2.253   2.118
 6360SOL    HW219980   1.357   2.355   2.185
 6361SOL     OW19981   0.735   0.314   0.077
 6361SOL    HW119982   0.723   0.367   7.011
 6361SOL    HW219983   0.647   0.307   0.125
 6362SOL     OW19984   1.357   5.670   0.155
 6362SOL    HW119985   1.442   5.708   0.191
 6362SOL    HW219986   1.280   5.703   0.210
 6363SOL     OW19987   2.341   4.609   3.436
 6363SOL    HW119988   2.331   4.596   3.338
 6363SOL    HW219989   2.378   4.700   3.454
 6364SOL     OW19990   2.188   3.003   4.607
 6364SOL    HW119991   2.243   2.984   4.688
 6364SOL    HW219992   2.118   3.071   4.629
 6365SOL     OW19993   5.334   5.219   3.329
 6365SOL    HW119994   5.238   5.239   3.310
 6365SOL    HW219995   5.351   5.121   3.317
 6366SOL     OW19996   5.625   6.844   4.608
 6366SOL    HW119997   5.610   6.868   4.704
 6366SOL    HW219998   5.538   6.852   4.558
 6367SOL     OW19999   2.374   2.115   2.430
 6367SOL    HW120000   2.392   2.018   2.420
 6367SOL    HW220001   2.321   2.131   2.513
 6368SOL     OW20002   4.815   2.962   4.597
 6368SOL    HW120003   4.817   2.992   4.502
 6368SOL    HW220004   4.842   3.038   4.656
 6369SOL     OW20005   3.937   5.738   6.641
 6369SOL    HW120006   3.859   5.700   6.692
 6369SOL    HW220007   3.984   5.805   6.698
 6370SOL     OW20008   5.276   3.545   4.526
 6370SOL    HW120009   5.256   3.489   4.446
 6370SOL    HW220010   5.279   3.641   4.500
 6371SOL     OW20011   4.835   4.634   1.894
 6371SOL    HW120012   4.883   4.612   1.809
 6371SOL    HW220013   4.870   4.576   1.968
 6372SOL     OW20014   6.405   1.778   2.521
 6372SOL    HW120015   6.346   1.855   2.494
 6372SOL    HW220016   6.459   1.748   2.443
 6373SOL     OW20017   4.733   4.312   1.135
 6373SOL    HW120018   4.639   4.277   1.131
 6373SOL    HW220019   4.732   4.411   1.133
 6374SOL     OW20020   4.578   3.681   6.965
 6374SOL    HW120021   4.509   3.748   6.992
 6374SOL    HW220022   4.551   3.637   6.879
 6375SOL     OW20023   5.856   2.444   1.942
 6375SOL    HW120024   5.920   2.368   1.947
 6375SOL    HW220025   5.843   2.484   2.033
 6376SOL     OW20026   3.553   1.165   6.633
 6376SOL    HW120027   3.518   1.232   6.699
 6376SOL    HW220028   3.581   1.083   6.682
 6377SOL     OW20029   6.981   0.464   0.397
 6377SOL    HW120030   6.983   0.564   0.394
 6377SOL    HW220031   0.018   0.432   0.474
 6378SOL     OW20032   5.706   5.556   2.361
 6378SOL    HW120033   5.720   5.457   2.364
 6378SOL    HW220034   5.776   5.597   2.303
 6379SOL     OW20035   2.346   5.978   7.011
 6379SOL    HW120036   2.430   5.925   7.003
 6379SOL    HW220037   2.329   6.000   0.089
 6380SOL     OW20038   1.402   3.435   5.392
 6380SOL    HW120039   1.470   3.362   5.399
 6380SOL    HW220040   1.429   3.510   5.452
 6381SOL     OW20041   4.625   2.424   0.345
 6381SOL    HW120042   4.617   2.358   0.270
 6381SOL    HW220043   4.687   2.389   0.415
 6382SOL     OW20044   1.481   1.753   1.259
 6382SOL    HW120045   1.501   1.850   1.244
 6382SOL    HW220046   1.402   1.726   1.205
 6383SOL     OW20047   2.183   2.721   2.161
 6383SOL    HW120048   2.139   2.807   2.135
 6383SOL    HW220049   2.188   2.661   2.081
 6384SOL     OW20050   6.017   2.560   2.754
 6384SOL    HW120051   6.021   2.657   2.779
 6384SOL    HW220052   6.013   2.504   2.837
 6385SOL     OW20053   6.697   3.115   1.499
 6385SOL    HW120054   6.613   3.065   1.522
 6385SOL    HW220055   6.772   3.050   1.486
 6386SOL     OW20056   2.492   3.800   0.745
 6386SOL    HW120057   2.494   3.898   0.762
 6386SOL    HW220058   2.497   3.751   0.831
 6387SOL     OW20059   6.999   0.289   6.656
 6387SOL    HW120060   6.944   0.344   6.719
 6387SOL    HW220061   0.078   0.309   6.670
 6388SOL     OW20062   6.571   5.442   2.395
 6388SOL    HW120063   6.634   5.519   2.385
 6388SOL    HW220064   6.606   5.363   2.344
 6389SOL     OW20065   0.773   0.764   6.975
 6389SOL    HW120066   0.852   0.763   6.914
 6389SOL    HW220067   0.732   0.673   6.977
 6390SOL     OW20068   6.486   1.058   6.512
 6390SOL    HW120069   6.476   0.966   6.476
 6390SOL    HW220070   6.470   1.125   6.440
 6391SOL     OW20071   0.699   1.445   5.012
 6391SOL    HW120072   0.648   1.508   4.955
 6391SOL    HW220073   0.797   1.453   4.993
 6392SOL     OW20074   3.889   6.856   3.807
 6392SOL    HW120075   3.934   6.797   3.740
 6392SOL    HW220076   3.811   6.808   3.847
 6393SOL     OW20077   0.076   5.626   0.036
 6393SOL    HW120078   0.003   5.579   0.087
 6393SOL    HW220079   0.156   5.567   0.032
 6394SOL     OW20080   1.495   5.563   1.446
 6394SOL    HW120081   1.551   5.603   1.374
 6394SOL    HW220082   1.551   5.504   1.504
 6395SOL     OW20083   2.186   4.227   3.272
 6395SOL    HW120084   2.158   4.131   3.280
 6395SOL    HW220085   2.126   4.284   3.327
 6396SOL     OW20086   0.846   3.493   6.619
 6396SOL    HW120087   0.846   3.557   6.696
 6396SOL    HW220088   0.853   3.400   6.653
 6397SOL     OW20089   5.653   3.307   4.014
 6397SOL    HW120090   5.565   3.291   4.057
 6397SOL    HW220091   5.709   3.223   4.019
 6398SOL     OW20092   1.613   0.305   0.957
 6398SOL    HW120093   1.661   0.385   0.922
 6398SOL    HW220094   1.516   0.311   0.934
 6399SOL     OW20095   3.373   0.967   6.050
 6399SOL    HW120096   3.369   1.016   6.137
 6399SOL    HW220097   3.437   1.013   5.989
 6400SOL     OW20098   1.007   6.673   3.050
 6400SOL    HW120099   1.074   6.715   3.110
 6400SOL    HW220100   0.954   6.606   3.101
 6401SOL     OW20101   3.833   6.089   3.810
 6401SOL    HW120102   3.801   6.141   3.730
 6401SOL    HW220103   3.773   6.011   3.824
 6402SOL     OW20104   1.818   4.587   4.815
 6402SOL    HW120105   1.904   4.562   4.772
 6402SOL    HW220106   1.744   4.535   4.773
 6403SOL     OW20107   4.631   5.759   4.752
 6403SOL    HW120108   4.697   5.814   4.803
 6403SOL    HW220109   4.663   5.748   4.658
 6404SOL     OW20110   4.314   6.983   2.230
 6404SOL    HW120111   4.243   6.927   2.273
 6404SOL    HW220112   4.275   0.013   2.151
 6405SOL     OW20113   5.238   1.606   2.403
 6405SOL    HW120114   5.284   1.676   2.349
 6405SOL    HW220115   5.150   1.584   2.360
 6406SOL     OW20116   0.669   2.957   3.377
 6406SOL    HW120117   0.643   3.015   3.455
 6406SOL    HW220118   0.704   3.015   3.303
 6407SOL     OW20119   1.467   6.027   2.591
 6407SOL    HW120120   1.566   6.034   2.580
 6407SOL    HW220121   1.433   5.947   2.541
 6408SOL     OW20122   6.229   0.419   1.252
 6408SOL    HW120123   6.221   0.507   1.299
 6408SOL    HW220124   6.318   0.413   1.206
 6409SOL     OW20125   5.535   5.025   3.305
 6409SOL    HW120126   5.597   5.100   3.278
 6409SOL    HW220127   5.585   4.961   3.364
 6410SOL     OW20128   2.340   1.449   5.778
 6410SOL    HW120129   2.316   1.441   5.875
 6410SOL    HW220130   2.367   1.360   5.743
 6411SOL     OW20131   0.306   2.428   2.102
 6411SOL    HW120132   0.378   2.441   2.170
 6411SOL    HW220133   0.335   2.360   2.034
 6412SOL     OW20134   3.495   0.421   0.191
 6412SOL    HW120135   3.565   0.378   0.133
 6412SOL    HW220136   3.481   0.515   0.162
 6413SOL     OW20137   5.496   6.389   3.685
 6413SOL    HW120138   5.570   6.389   3.617
 6413SOL    HW220139   5.472   6.483   3.708
 6414SOL     OW20140   1.863   0.121   0.224
 6414SOL    HW120141   1.960   0.112   0.204
 6414SOL    HW220142   1.834   0.216   0.210
 6415SOL     OW20143   0.520   2.475   3.531
 6415SOL    HW120144   0.425   2.490   3.505
 6415SOL    HW220145   0.558   2.399   3.479
 6416SOL     OW20146   3.049   6.699   0.133
 6416SOL    HW120147   2.975   6.675   0.071
 6416SOL    HW220148   3.137   6.687   0.086
 6417SOL     OW20149   3.785   1.881   0.400
 6417SOL    HW120150   3.874   1.916   0.428
 6417SOL    HW220151   3.757   1.926   0.315
 6418SOL     OW20152   4.427   5.070   0.731
 6418SOL    HW120153   4.434   5.148   0.792
 6418SOL    HW220154   4.514   5.020   0.730
 6419SOL     OW20155   1.141   6.338   6.339
 6419SOL    HW120156   1.127   6.412   6.273
 6419SOL    HW220157   1.229   6.294   6.321
 6420SOL     OW20158   2.260   4.201   4.542
 6420SOL    HW120159   2.256   4.291   4.499
 6420SOL    HW220160   2.259   4.131   4.470
 6421SOL     OW20161   4.445   0.281   2.048
 6421SOL    HW120162   4.521   0.216   2.044
 6421SOL    HW220163   4.414   0.301   1.955
 6422SOL     OW20164   5.932   1.706   4.670
 6422SOL    HW120165   5.998   1.632   4.666
 6422SOL    HW220166   5.844   1.671   4.704
 6423SOL     OW20167   2.585   4.627   4.079
 6423SOL    HW120168   2.631   4.598   4.163
 6423SOL    HW220169   2.574   4.727   4.080
 6424SOL     OW20170   6.240   4.842   4.872
 6424SOL    HW120171   6.289   4.755   4.880
 6424SOL    HW220172   6.151   4.826   4.829
 6425SOL     OW20173   0.042   5.384   3.729
 6425SOL    HW120174   0.067   5.333   3.646
 6425SOL    HW220175   6.962   5.406   3.725
 6426SOL     OW20176   4.724   4.254   5.349
 6426SOL    HW120177   4.690   4.347   5.335
 6426SOL    HW220178   4.822   4.258   5.370
 6427SOL     OW20179   3.997   3.142   3.192
 6427SOL    HW120180   3.950   3.152   3.104
 6427SOL    HW220181   3.962   3.061   3.239
 6428SOL     OW20182   5.334   3.286   0.910
 6428SOL    HW120183   5.258   3.343   0.879
 6428SOL    HW220184   5.419   3.320   0.871
 6429SOL     OW20185   2.199   1.095   5.506
 6429SOL    HW120186   2.126   1.094   5.575
 6429SOL    HW220187   2.158   1.109   5.415
 6430SOL     OW20188   6.909   0.045   5.440
 6430SOL    HW120189   6.907   0.065   5.342
 6430SOL    HW220190   7.002   0.060   5.475
 6431SOL     OW20191   3.831   4.624   1.732
 6431SOL    HW120192   3.830   4.710   1.681
 6431SOL    HW220193   3.743   4.609   1.775
 6432SOL     OW20194   4.765   4.827   6.008
 6432SOL    HW120195   4.794   4.892   5.938
 6432SOL    HW220196   4.711   4.755   5.966
 6433SOL     OW20197   2.681   5.436   6.773
 6433SOL    HW120198   2.655   5.498   6.700
 6433SOL    HW220199   2.644   5.345   6.754
 6434SOL     OW20200   4.123   5.026   5.947
 6434SOL    HW120201   4.211   4.995   5.985
 6434SOL    HW220202   4.049   4.976   5.991
 6435SOL     OW20203   4.794   1.415   0.941
 6435SOL    HW120204   4.888   1.421   0.907
 6435SOL    HW220205   4.736   1.480   0.893
 6436SOL     OW20206   6.661   3.852   4.387
 6436SOL    HW120207   6.756   3.854   4.355
 6436SOL    HW220208   6.656   3.802   4.473
 6437SOL     OW20209   0.986   2.147   5.354
 6437SOL    HW120210   0.920   2.091   5.304
 6437SOL    HW220211   1.075   2.101   5.355
 6438SOL     OW20212   0.683   5.263   0.093
 6438SOL    HW120213   0.644   5.308   0.174
 6438SOL    HW220214   0.645   5.171   0.084
 6439SOL     OW20215   5.973   6.889   2.932
 6439SOL    HW120216   6.060   6.897   2.979
 6439SOL    HW220217   5.907   6.842   2.990
 6440SOL     OW20218   2.840   2.048   6.853
 6440SOL    HW120219   2.822   2.144   6.834
 6440SOL    HW220220   2.835   1.995   6.768
 6441SOL     OW20221   0.795   1.793   2.818
 6441SOL    HW120222   0.715   1.806   2.877
 6441SOL    HW220223   0.765   1.769   2.726
 6442SOL     OW20224   2.974   2.599   5.442
 6442SOL    HW120225   2.899   2.655   5.407
 6442SOL    HW220226   2.961   2.504   5.413
 6443SOL     OW20227   4.934   2.642   0.401
 6443SOL    HW120228   4.989   2.584   0.340
 6443SOL    HW220229   4.900   2.721   0.349
 6444SOL     OW20230   6.584   3.063   5.125
 6444SOL    HW120231   6.639   3.004   5.184
 6444SOL    HW220232   6.603   3.159   5.148
 6445SOL     OW20233   3.571   2.917   3.045
 6445SOL    HW120234   3.596   2.978   2.969
 6445SOL    HW220235   3.505   2.850   3.014
 6446SOL     OW20236   2.435   1.147   6.467
 6446SOL    HW120237   2.515   1.091   6.449
 6446SOL    HW220238   2.459   1.244   6.458
 6447SOL     OW20239   6.228   3.562   1.831
 6447SOL    HW120240   6.218   3.628   1.757
 6447SOL    HW220241   6.325   3.543   1.846
 6448SOL     OW20242   3.545   5.505   1.231
 6448SOL    HW120243   3.447   5.485   1.223
 6448SOL    HW220244   3.577   5.476   1.321
 6449SOL     OW20245   2.292   5.193   1.181
 6449SOL    HW120246   2.359   5.267   1.173
 6449SOL    HW220247   2.252   5.195   1.273
 6450SOL     OW20248   0.360   4.412   1.186
 6450SOL    HW120249   0.391   4.463   1.267
 6450SOL    HW220250   0.336   4.319   1.213
 6451SOL     OW20251   3.967   2.043   0.904
 6451SOL    HW120252   4.040   2.094   0.859
 6451SOL    HW220253   3.934   1.971   0.843
 6452SOL     OW20254   4.732   2.406   3.542
 6452SOL    HW120255   4.732   2.447   3.450
 6452SOL    HW220256   4.767   2.312   3.536
 6453SOL     OW20257   2.987   1.175   1.252
 6453SOL    HW120258   3.069   1.218   1.288
 6453SOL    HW220259   2.930   1.143   1.327
 6454SOL     OW20260   5.690   2.393   3.609
 6454SOL    HW120261   5.636   2.363   3.530
 6454SOL    HW220262   5.661   2.485   3.636
 6455SOL     OW20263   6.702   3.764   3.384
 6455SOL    HW120264   6.731   3.850   3.424
 6455SOL    HW220265   6.626   3.726   3.437
 6456SOL     OW20266   6.202   1.503   2.740
 6456SOL    HW120267   6.125   1.477   2.798
 6456SOL    HW220268   6.240   1.421   2.697
 6457SOL     OW20269   3.611   0.083   2.329
 6457SOL    HW120270   3.693   0.097   2.273
 6457SOL    HW220271   3.580   0.170   2.364
 6458SOL     OW20272   0.420   4.939   3.399
 6458SOL    HW120273   0.441   4.920   3.303
 6458SOL    HW220274   0.388   5.033   3.408
 6459SOL     OW20275   6.326   3.514   2.267
 6459SOL    HW120276   6.361   3.604   2.241
 6459SOL    HW220277   6.231   3.523   2.299
 6460SOL     OW20278   0.666   5.960   5.793
 6460SOL    HW120279   0.716   5.941   5.878
 6460SOL    HW220280   0.697   5.896   5.722
 6461SOL     OW20281   2.328   5.544   1.461
 6461SOL    HW120282   2.362   5.463   1.509
 6461SOL    HW220283   2.267   5.595   1.521
 6462SOL     OW20284   1.628   3.899   5.232
 6462SOL    HW120285   1.695   3.897   5.158
 6462SOL    HW220286   1.537   3.915   5.194
 6463SOL     OW20287   4.775   1.793   1.694
 6463SOL    HW120288   4.851   1.734   1.721
 6463SOL    HW220289   4.702   1.787   1.763
 6464SOL     OW20290   1.045   4.585   4.134
 6464SOL    HW120291   1.131   4.545   4.103
 6464SOL    HW220292   1.057   4.620   4.227
 6465SOL     OW20293   3.967   0.936   3.066
 6465SOL    HW120294   3.926   0.984   2.988
 6465SOL    HW220295   4.021   0.859   3.033
 6466SOL     OW20296   0.394   3.021   0.234
 6466SOL    HW120297   0.338   3.044   0.313
 6466SOL    HW220298   0.482   3.069   0.240
 6467SOL     OW20299   2.996   2.180   0.846
 6467SOL    HW120300   2.961   2.121   0.773
 6467SOL    HW220301   2.968   2.274   0.829
 6468SOL     OW20302   2.640   1.118   0.990
 6468SOL    HW120303   2.540   1.122   1.003
 6468SOL    HW220304   2.683   1.189   1.046
 6469SOL     OW20305   3.378   1.541   2.770
 6469SOL    HW120306   3.294   1.535   2.823
 6469SOL    HW220307   3.457   1.531   2.831
 6470SOL     OW20308   6.900   1.949   6.885
 6470SOL    HW120309   6.913   1.933   6.787
 6470SOL    HW220310   6.957   2.026   6.914
 6471SOL     OW20311   0.642   6.273   5.839
 6471SOL    HW120312   0.659   6.282   5.937
 6471SOL    HW220313   0.575   6.201   5.823
 6472SOL     OW20314   6.617   6.124   3.089
 6472SOL    HW120315   6.581   6.218   3.088
 6472SOL    HW220316   6.580   6.073   3.011
 6473SOL     OW20317   2.463   1.476   4.182
 6473SOL    HW120318   2.393   1.460   4.112
 6473SOL    HW220319   2.456   1.407   4.253
 6474SOL     OW20320   3.851   5.358   5.154
 6474SOL    HW120321   3.858   5.422   5.077
 6474SOL    HW220322   3.891   5.270   5.128
 6475SOL     OW20323   5.734   5.052   2.449
 6475SOL    HW120324   5.672   5.129   2.461
 6475SOL    HW220325   5.823   5.073   2.489
 6476SOL     OW20326   3.738   1.761   6.455
 6476SOL    HW120327   3.802   1.726   6.524
 6476SOL    HW220328   3.716   1.856   6.475
 6477SOL     OW20329   6.352   6.268   1.690
 6477SOL    HW120330   6.306   6.249   1.777
 6477SOL    HW220331   6.436   6.320   1.707
 6478SOL     OW20332   3.310   5.460   1.479
 6478SOL    HW120333   3.283   5.422   1.390
 6478SOL    HW220334   3.239   5.522   1.511
 6479SOL     OW20335   3.184   6.041   4.032
 6479SOL    HW120336   3.135   6.031   3.946
 6479SOL    HW220337   3.196   6.138   4.053
 6480SOL     OW20338   3.587   1.977   6.994
 6480SOL    HW120339   3.496   1.944   6.972
 6480SOL    HW220340   3.611   2.053   6.933
 6481SOL     OW20341   3.554   2.710   1.869
 6481SOL    HW120342   3.462   2.748   1.875
 6481SOL    HW220343   3.550   2.616   1.834
 6482SOL     OW20344   5.541   3.964   5.545
 6482SOL    HW120345   5.469   4.028   5.520
 6482SOL    HW220346   5.624   3.985   5.493
 6483SOL     OW20347   1.043   6.112   4.850
 6483SOL    HW120348   0.963   6.063   4.884
 6483SOL    HW220349   1.084   6.060   4.775
 6484SOL     OW20350   2.237   0.901   4.153
 6484SOL    HW120351   2.152   0.854   4.130
 6484SOL    HW220352   2.253   0.893   4.251
 6485SOL     OW20353   2.016   6.726   4.153
 6485SOL    HW120354   1.967   6.640   4.138
 6485SOL    HW220355   2.041   6.765   4.064
 6486SOL     OW20356   1.552   4.573   3.416
 6486SOL    HW120357   1.597   4.490   3.385
 6486SOL    HW220358   1.507   4.556   3.503
 6487SOL     OW20359   5.964   4.728   3.730
 6487SOL    HW120360   5.957   4.759   3.825
 6487SOL    HW220361   6.060   4.724   3.703
 6488SOL     OW20362   4.360   5.498   4.482
 6488SOL    HW120363   4.385   5.436   4.407
 6488SOL    HW220364   4.378   5.453   4.570
 6489SOL     OW20365   4.511   3.098   5.627
 6489SOL    HW120366   4.524   3.055   5.716
 6489SOL    HW220367   4.424   3.148   5.626
 6490SOL     OW20368   1.763   2.419   0.145
 6490SOL    HW120369   1.796   2.388   0.056
 6490SOL    HW220370   1.670   2.385   0.159
 6491SOL     OW20371   2.959   0.285   1.101
 6491SOL    HW120372   2.890   0.237   1.047
 6491SOL    HW220373   2.926   0.376   1.125
 6492SOL     OW20374   3.435   3.545   4.644
 6492SOL    HW120375   3.470   3.618   4.584
 6492SOL    HW220376   3.461   3.564   4.739
 6493SOL     OW20377   0.590   3.812   5.684
 6493SOL    HW120378   0.545   3.899   5.665
 6493SOL    HW220379   0.585   3.792   5.781
 6494SOL     OW20380   5.905   0.248   1.676
 6494SOL    HW120381   5.971   0.243   1.751
 6494SOL    HW220382   5.954   0.254   1.589
 6495SOL     OW20383   6.163   0.048   3.362
 6495SOL    HW120384   6.104   0.006   3.293
 6495SOL    HW220385   6.151   0.147   3.361
 6496SOL     OW20386   3.753   1.428   1.630
 6496SOL    HW120387   3.748   1.527   1.628
 6496SOL    HW220388   3.661   1.389   1.620
 6497SOL     OW20389   0.212   1.112   1.083
 6497SOL    HW120390   0.278   1.047   1.046
 6497SOL    HW220391   0.132   1.116   1.024
 6498SOL     OW20392   0.942   4.503   4.550
 6498SOL    HW120393   1.008   4.546   4.612
 6498SOL    HW220394   0.889   4.435   4.600
 6499SOL     OW20395   4.997   3.799   3.269
 6499SOL    HW120396   4.981   3.724   3.334
 6499SOL    HW220397   5.054   3.766   3.194
 6500SOL     OW20398   1.585   4.245   3.013
 6500SOL    HW120399   1.626   4.210   2.929
 6500SOL    HW220400   1.632   4.206   3.092
 6501SOL     OW20401   6.163   2.027   0.861
 6501SOL    HW120402   6.251   2.075   0.854
 6501SOL    HW220403   6.157   1.956   0.791
 6502SOL     OW20404   6.647   3.794   2.017
 6502SOL    HW120405   6.667   3.891   2.030
 6502SOL    HW220406   6.604   3.780   1.928
 6503SOL     OW20407   6.545   3.077   5.527
 6503SOL    HW120408   6.540   2.980   5.504
 6503SOL    HW220409   6.455   3.108   5.559
 6504SOL     OW20410   4.677   5.942   6.406
 6504SOL    HW120411   4.624   5.866   6.369
 6504SOL    HW220412   4.768   5.941   6.364
 6505SOL     OW20413   0.210   5.752   0.784
 6505SOL    HW120414   0.302   5.714   0.778
 6505SOL    HW220415   0.215   5.852   0.777
 6506SOL     OW20416   0.161   4.215   2.218
 6506SOL    HW120417   0.229   4.289   2.224
 6506SOL    HW220418   0.208   4.127   2.225
 6507SOL     OW20419   3.470   4.459   6.759
 6507SOL    HW120420   3.475   4.545   6.709
 6507SOL    HW220421   3.560   4.437   6.797
 6508SOL     OW20422   0.656   6.937   2.401
 6508SOL    HW120423   0.657   7.007   2.472
 6508SOL    HW220424   0.694   6.851   2.437
 6509SOL     OW20425   3.264   1.599   6.338
 6509SOL    HW120426   3.241   1.513   6.292
 6509SOL    HW220427   3.183   1.635   6.383
 6510SOL     OW20428   4.062   5.876   5.829
 6510SOL    HW120429   4.113   5.814   5.889
 6510SOL    HW220430   3.977   5.832   5.800
 6511SOL     OW20431   3.306   0.919   0.178
 6511SOL    HW120432   3.237   0.873   0.234
 6511SOL    HW220433   3.363   0.977   0.236
 6512SOL     OW20434   4.161   1.746   0.503
 6512SOL    HW120435   4.125   1.655   0.522
 6512SOL    HW220436   4.124   1.779   0.416
 6513SOL     OW20437   2.193   5.065   3.404
 6513SOL    HW120438   2.126   5.087   3.333
 6513SOL    HW220439   2.147   5.058   3.492
 6514SOL     OW20440   5.754   6.911   5.778
 6514SOL    HW120441   5.782   6.818   5.754
 6514SOL    HW220442   5.713   6.910   5.869
 6515SOL     OW20443   2.111   5.326   2.173
 6515SOL    HW120444   2.207   5.299   2.161
 6515SOL    HW220445   2.107   5.422   2.201
 6516SOL     OW20446   6.712   4.145   1.528
 6516SOL    HW120447   6.735   4.070   1.589
 6516SOL    HW220448   6.737   4.121   1.434
 6517SOL     OW20449   6.608   2.962   0.572
 6517SOL    HW120450   6.639   2.985   0.480
 6517SOL    HW220451   6.671   2.895   0.612
 6518SOL     OW20452   0.998   1.905   3.188
 6518SOL    HW120453   1.080   1.922   3.133
 6518SOL    HW220454   1.019   1.922   3.284
 6519SOL     OW20455   1.489   1.310   2.957
 6519SOL    HW120456   1.503   1.387   3.019
 6519SOL    HW220457   1.402   1.322   2.909
 6520SOL     OW20458   0.629   5.512   6.999
 6520SOL    HW120459   0.601   5.501   6.904
 6520SOL    HW220460   0.626   5.424   0.028
 6521SOL     OW20461   1.194   4.009   4.360
 6521SOL    HW120462   1.215   4.087   4.301
 6521SOL    HW220463   1.166   3.931   4.304
 6522SOL     OW20464   2.821   3.218   5.194
 6522SOL    HW120465   2.798   3.127   5.228
 6522SOL    HW220466   2.855   3.210   5.100
 6523SOL     OW20467   5.746   6.969   0.188
 6523SOL    HW120468   5.730   6.870   0.199
 6523SOL    HW220469   5.719   6.996   0.096
 6524SOL     OW20470   2.444   2.352   1.481
 6524SOL    HW120471   2.363   2.294   1.486
 6524SOL    HW220472   2.470   2.367   1.386
 6525SOL     OW20473   1.036   4.824   3.464
 6525SOL    HW120474   0.984   4.739   3.475
 6525SOL    HW220475   1.016   4.886   3.540
 6526SOL     OW20476   0.931   6.864   0.054
 6526SOL    HW120477   0.880   6.945   0.023
 6526SOL    HW220478   1.008   6.848   7.010
 6527SOL     OW20479   0.406   2.361   0.375
 6527SOL    HW120480   0.404   2.456   0.344
 6527SOL    HW220481   0.313   2.326   0.380
 6528SOL     OW20482   5.200   0.600   6.633
 6528SOL    HW120483   5.113   0.648   6.640
 6528SOL    HW220484   5.194   0.532   6.559
 6529SOL     OW20485   6.685   1.039   2.489
 6529SOL    HW120486   6.637   0.989   2.561
 6529SOL    HW220487   6.772   1.073   2.525
 6530SOL     OW20488   1.207   2.905   2.462
 6530SOL    HW120489   1.290   2.918   2.408
 6530SOL    HW220490   1.127   2.912   2.402
 6531SOL     OW20491   3.933   3.967   5.137
 6531SOL    HW120492   3.972   3.879   5.112
 6531SOL    HW220493   3.892   4.009   5.056
 6532SOL     OW20494   1.279   0.748   0.848
 6532SOL    HW120495   1.264   0.815   0.775
 6532SOL    HW220496   1.357   0.690   0.824
 6533SOL     OW20497   4.843   3.667   0.726
 6533SOL    HW120498   4.780   3.589   0.732
 6533SOL    HW220499   4.838   3.719   0.812
 6534SOL     OW20500   6.923   4.461   3.083
 6534SOL    HW120501   6.853   4.467   3.011
 6534SOL    HW220502   6.931   4.366   3.112
 6535SOL     OW20503   6.090   3.080   5.096
 6535SOL    HW120504   6.019   3.036   5.151
 6535SOL    HW220505   6.169   3.103   5.153
 6536SOL     OW20506   0.710   3.468   5.143
 6536SOL    HW120507   0.628   3.429   5.185
 6536SOL    HW220508   0.790   3.415   5.171
 6537SOL     OW20509   6.064   5.365   4.056
 6537SOL    HW120510   5.985   5.347   4.115
 6537SOL    HW220511   6.046   5.447   4.002
 6538SOL     OW20512   2.663   3.033   5.670
 6538SOL    HW120513   2.613   3.109   5.709
 6538SOL    HW220514   2.748   3.067   5.628
 6539SOL     OW20515   5.765   1.050   5.416
 6539SOL    HW120516   5.816   1.116   5.362
 6539SOL    HW220517   5.829   0.982   5.455
 6540SOL     OW20518   6.305   2.681   5.635
 6540SOL    HW120519   6.215   2.638   5.643
 6540SOL    HW220520   6.329   2.724   5.722
 6541SOL     OW20521   5.491   0.731   4.493
 6541SOL    HW120522   5.581   0.735   4.538
 6541SOL    HW220523   5.465   0.822   4.463
 6542SOL     OW20524   1.371   4.516   3.599
 6542SOL    HW120525   1.307   4.445   3.567
 6542SOL    HW220526   1.349   4.540   3.693
 6543SOL     OW20527   3.882   2.048   5.023
 6543SOL    HW120528   3.967   2.082   4.983
 6543SOL    HW220529   3.902   1.973   5.086
 6544SOL     OW20530   1.316   6.590   1.644
 6544SOL    HW120531   1.271   6.545   1.721
 6544SOL    HW220532   1.392   6.646   1.677
 6545SOL     OW20533   4.362   6.953   0.332
 6545SOL    HW120534   4.423   6.874   0.340
 6545SOL    HW220535   4.415   0.019   0.336
 6546SOL     OW20536   4.725   3.572   6.561
 6546SOL    HW120537   4.800   3.564   6.626
 6546SOL    HW220538   4.762   3.575   6.468
 6547SOL     OW20539   6.629   5.464   6.896
 6547SOL    HW120540   6.607   5.433   6.988
 6547SOL    HW220541   6.724   5.441   6.874
 6548SOL     OW20542   0.151   1.677   5.365
 6548SOL    HW120543   0.153   1.609   5.292
 6548SOL    HW220544   0.106   1.760   5.331
 6549SOL     OW20545   4.820   0.250   1.731
 6549SOL    HW120546   4.777   0.160   1.739
 6549SOL    HW220547   4.780   0.312   1.798
 6550SOL     OW20548   6.466   0.116   3.185
 6550SOL    HW120549   6.381   0.064   3.177
 6550SOL    HW220550   6.457   0.202   3.135
 6551SOL     OW20551   2.775   3.878   0.638
 6551SOL    HW120552   2.825   3.911   0.718
 6551SOL    HW220553   2.716   3.802   0.665
 6552SOL     OW20554   2.246   6.326   0.601
 6552SOL    HW120555   2.214   6.412   0.562
 6552SOL    HW220556   2.200   6.310   0.689
 6553SOL     OW20557   0.265   1.535   3.750
 6553SOL    HW120558   0.209   1.518   3.669
 6553SOL    HW220559   0.345   1.475   3.750
 6554SOL     OW20560   2.594   1.077   4.486
 6554SOL    HW120561   2.606   1.171   4.517
 6554SOL    HW220562   2.500   1.064   4.453
 6555SOL     OW20563   6.952   3.725   3.895
 6555SOL    HW120564   7.010   3.797   3.933
 6555SOL    HW220565   6.950   3.647   3.958
 6556SOL     OW20566   4.780   2.904   3.206
 6556SOL    HW120567   4.798   2.865   3.116
 6556SOL    HW220568   4.759   2.831   3.271
 6557SOL     OW20569   2.256   0.366   1.981
 6557SOL    HW120570   2.234   0.268   1.981
 6557SOL    HW220571   2.208   0.411   2.057
 6558SOL     OW20572   5.246   5.121   0.479
 6558SOL    HW120573   5.341   5.132   0.509
 6558SOL    HW220574   5.185   5.162   0.547
 6559SOL     OW20575   0.199   2.422   6.350
 6559SOL    HW120576   0.235   2.505   6.308
 6559SOL    HW220577   0.270   2.351   6.353
 6560SOL     OW20578   5.716   5.021   0.587
 6560SOL    HW120579   5.746   5.004   0.493
 6560SOL    HW220580   5.786   5.074   0.636
 6561SOL     OW20581   3.831   4.296   0.299
 6561SOL    HW120582   3.873   4.385   0.320
 6561SOL    HW220583   3.892   4.242   0.242
 6562SOL     OW20584   5.701   3.290   1.303
 6562SOL    HW120585   5.641   3.261   1.229
 6562SOL    HW220586   5.774   3.222   1.316
 6563SOL     OW20587   5.137   6.100   5.203
 6563SOL    HW120588   5.195   6.080   5.283
 6563SOL    HW220589   5.098   6.016   5.169
 6564SOL     OW20590   6.790   3.752   3.058
 6564SOL    HW120591   6.756   3.846   3.059
 6564SOL    HW220592   6.847   3.736   3.138
 6565SOL     OW20593   5.696   0.372   3.368
 6565SOL    HW120594   5.700   0.463   3.411
 6565SOL    HW220595   5.695   0.302   3.439
 6566SOL     OW20596   4.619   6.038   2.565
 6566SOL    HW120597   4.556   6.111   2.592
 6566SOL    HW220598   4.703   6.044   2.620
 6567SOL     OW20599   4.324   0.939   0.817
 6567SOL    HW120600   4.399   0.874   0.828
 6567SOL    HW220601   4.252   0.899   0.761
 6568SOL     OW20602   4.403   1.202   1.138
 6568SOL    HW120603   4.480   1.153   1.097
 6568SOL    HW220604   4.406   1.298   1.111
 6569SOL     OW20605   0.014   4.262   5.971
 6569SOL    HW120606   6.989   4.329   6.032
 6569SOL    HW220607   6.963   4.226   5.907
 6570SOL     OW20608   4.064   6.809   1.650
 6570SOL    HW120609   3.989   6.823   1.585
 6570SOL    HW220610   4.028   6.780   1.738
 6571SOL     OW20611   3.268   6.099   2.576
 6571SOL    HW120612   3.339   6.035   2.607
 6571SOL    HW220613   3.196   6.048   2.529
 6572SOL     OW20614   1.295   5.439   3.715
 6572SOL    HW120615   1.328   5.533   3.725
 6572SOL    HW220616   1.334   5.382   3.787
 6573SOL     OW20617   1.605   1.585   3.601
 6573SOL    HW120618   1.690   1.580   3.653
 6573SOL    HW220619   1.538   1.521   3.640
 6574SOL     OW20620   1.505   6.087   2.150
 6574SOL    HW120621   1.464   6.013   2.202
 6574SOL    HW220622   1.558   6.147   2.211
 6575SOL     OW20623   6.934   0.797   2.961
 6575SOL    HW120624   0.002   0.752   2.985
 6575SOL    HW220625   6.860   0.763   3.018
 6576SOL     OW20626   4.091   6.341   1.057
 6576SOL    HW120627   4.118   6.434   1.083
 6576SOL    HW220628   4.161   6.276   1.087
 6577SOL     OW20629   2.507   1.318   3.767
 6577SOL    HW120630   2.465   1.228   3.779
 6577SOL    HW220631   2.601   1.315   3.802
 6578SOL     OW20632   1.532   4.792   1.920
 6578SOL    HW120633   1.468   4.726   1.883
 6578SOL    HW220634   1.526   4.793   2.020
 6579SOL     OW20635   6.483   0.846   4.185
 6579SOL    HW120636   6.542   0.766   4.173
 6579SOL    HW220637   6.496   0.884   4.276
 6580SOL     OW20638   1.434   0.822   0.042
 6580SOL    HW120639   1.444   0.726   0.014
 6580SOL    HW220640   1.360   0.864   7.007
 6581SOL     OW20641   1.375   2.494   6.959
 6581SOL    HW120642   1.305   2.555   6.997
 6581SOL    HW220643   1.331   2.418   6.911
 6582SOL     OW20644   6.712   1.539   3.369
 6582SOL    HW120645   6.688   1.509   3.461
 6582SOL    HW220646   6.779   1.476   3.329
 6583SOL     OW20647   4.141   5.965   6.274
 6583SOL    HW120648   4.089   6.048   6.293
 6583SOL    HW220649   4.166   5.962   6.178
 6584SOL     OW20650   3.723   2.625   0.572
 6584SOL    HW120651   3.727   2.567   0.653
 6584SOL    HW220652   3.815   2.640   0.536
 6585SOL     OW20653   6.086   6.739   0.908
 6585SOL    HW120654   6.122   6.832   0.904
 6585SOL    HW220655   5.986   6.742   0.905
 6586SOL     OW20656   6.198   2.328   6.591
 6586SOL    HW120657   6.291   2.314   6.624
 6586SOL    HW220658   6.202   2.368   6.499
 6587SOL     OW20659   1.424   4.532   5.653
 6587SOL    HW120660   1.332   4.508   5.621
 6587SOL    HW220661   1.434   4.501   5.748
 6588SOL     OW20662   6.515   3.329   0.501
 6588SOL    HW120663   6.476   3.419   0.483
 6588SOL    HW220664   6.477   3.292   0.585
 6589SOL     OW20665   6.894   0.805   1.988
 6589SOL    HW120666   6.814   0.860   1.965
 6589SOL    HW220667   6.894   0.721   1.934
 6590SOL     OW20668   1.312   0.104   3.916
 6590SOL    HW120669   1.374   0.167   3.962
 6590SOL    HW220670   1.283   0.032   3.979
 6591SOL     OW20671   5.712   4.212   4.398
 6591SOL    HW120672   5.695   4.201   4.496
 6591SOL    HW220673   5.804   4.250   4.385
 6592SOL     OW20674   6.164   6.542   2.453
 6592SOL    HW120675   6.126   6.451   2.466
 6592SOL    HW220676   6.208   6.547   2.363
 6593SOL     OW20677   2.829   1.984   2.136
 6593SOL    HW120678   2.885   2.024   2.209
 6593SOL    HW220679   2.742   1.954   2.174
 6594SOL     OW20680   4.502   1.366   6.283
 6594SOL    HW120681   4.415   1.338   6.244
 6594SOL    HW220682   4.572   1.368   6.212
 6595SOL     OW20683   1.515   2.555   5.505
 6595SOL    HW120684   1.536   2.637   5.558
 6595SOL    HW220685   1.419   2.531   5.517
 6596SOL     OW20686   5.549   6.168   2.648
 6596SOL    HW120687   5.528   6.082   2.696
 6596SOL    HW220688   5.631   6.156   2.592
 6597SOL     OW20689   1.580   4.477   1.972
 6597SOL    HW120690   1.550   4.382   1.964
 6597SOL    HW220691   1.586   4.518   1.881
 6598SOL     OW20692   2.363   4.746   4.302
 6598SOL    HW120693   2.349   4.828   4.247
 6598SOL    HW220694   2.444   4.697   4.269
 6599SOL     OW20695   6.201   5.626   6.440
 6599SOL    HW120696   6.263   5.547   6.445
 6599SOL    HW220697   6.180   5.646   6.344
 6600SOL     OW20698   4.437   6.994   4.980
 6600SOL    HW120699   4.468   6.916   5.034
 6600SOL    HW220700   4.491   7.001   4.897
 6601SOL     OW20701   1.588   1.880   1.522
 6601SOL    HW120702   1.566   1.929   1.437
 6601SOL    HW220703   1.508   1.828   1.552
 6602SOL     OW20704   2.180   6.540   1.452
 6602SOL    HW120705   2.271   6.576   1.434
 6602SOL    HW220706   2.141   6.503   1.368
 6603SOL     OW20707   0.038   3.644   3.099
 6603SOL    HW120708   0.088   3.561   3.074
 6603SOL    HW220709   7.009   3.629   3.187
 6604SOL     OW20710   2.100   6.207   2.381
 6604SOL    HW120711   2.157   6.286   2.403
 6604SOL    HW220712   2.067   6.214   2.287
 6605SOL     OW20713   0.159   5.734   1.284
 6605SOL    HW120714   0.077   5.696   1.327
 6605SOL    HW220715   0.158   5.712   1.186
 6606SOL     OW20716   1.707   3.961   3.441
 6606SOL    HW120717   1.630   3.980   3.380
 6606SOL    HW220718   1.703   3.867   3.473
 6607SOL     OW20719   6.003   3.933   3.765
 6607SOL    HW120720   6.078   3.999   3.766
 6607SOL    HW220721   6.024   3.857   3.826
 6608SOL     OW20722   0.935   6.055   5.678
 6608SOL    HW120723   0.972   5.991   5.610
 6608SOL    HW220724   0.839   6.075   5.657
 6609SOL     OW20725   4.646   1.822   6.190
 6609SOL    HW120726   4.551   1.798   6.213
 6609SOL    HW220727   4.706   1.747   6.215
 6610SOL     OW20728   3.100   5.148   1.271
 6610SOL    HW120729   3.103   5.089   1.352
 6610SOL    HW220730   3.193   5.162   1.237
 6611SOL     OW20731   4.486   1.861   4.160
 6611SOL    HW120732   4.441   1.878   4.248
 6611SOL    HW220733   4.527   1.769   4.161
 6612SOL     OW20734   6.403   1.457   5.746
 6612SOL    HW120735   6.374   1.520   5.675
 6612SOL    HW220736   6.329   1.392   5.765
 6613SOL     OW20737   4.808   6.425   6.781
 6613SOL    HW120738   4.906   6.448   6.784
 6613SOL    HW220739   4.774   6.436   6.688
 6614SOL     OW20740   4.440   5.573   1.165
 6614SOL    HW120741   4.488   5.659   1.152
 6614SOL    HW220742   4.343   5.586   1.146
 6615SOL     OW20743   3.145   4.746   6.724
 6615SOL    HW120744   3.134   4.684   6.803
 6615SOL    HW220745   3.145   4.692   6.640
 6616SOL     OW20746   4.025   1.192   5.548
 6616SOL    HW120747   3.942   1.202   5.494
 6616SOL    HW220748   4.085   1.271   5.533
 6617SOL     OW20749   3.692   0.238   3.940
 6617SOL    HW120750   3.659   0.206   3.851
 6617SOL    HW220751   3.753   0.169   3.980
 6618SOL     OW20752   6.728   2.521   2.464
 6618SOL    HW120753   6.766   2.456   2.399
 6618SOL    HW220754   6.641   2.557   2.429
 6619SOL     OW20755   4.915   6.420   3.776
 6619SOL    HW120756   4.912   6.487   3.701
 6619SOL    HW220757   4.824   6.384   3.792
 6620SOL     OW20758   0.608   3.428   3.241
 6620SOL    HW120759   0.563   3.436   3.330
 6620SOL    HW220760   0.579   3.344   3.196
 6621SOL     OW20761   3.761   3.390   4.872
 6621SOL    HW120762   3.760   3.325   4.796
 6621SOL    HW220763   3.753   3.483   4.836
 6622SOL     OW20764   0.769   5.413   0.763
 6622SOL    HW120765   0.778   5.493   0.704
 6622SOL    HW220766   0.673   5.390   0.775
 6623SOL     OW20767   3.586   3.940   5.902
 6623SOL    HW120768   3.538   3.877   5.841
 6623SOL    HW220769   3.664   3.980   5.853
 6624SOL     OW20770   1.519   2.264   3.865
 6624SOL    HW120771   1.477   2.250   3.955
 6624SOL    HW220772   1.481   2.346   3.823
 6625SOL     OW20773   5.746   3.295   5.692
 6625SOL    HW120774   5.674   3.228   5.705
 6625SOL    HW220775   5.786   3.283   5.601
 6626SOL     OW20776   2.304   6.218   4.889
 6626SOL    HW120777   2.403   6.233   4.886
 6626SOL    HW220778   2.280   6.169   4.973
 6627SOL     OW20779   1.894   6.070   4.405
 6627SOL    HW120780   1.958   6.080   4.328
 6627SOL    HW220781   1.835   5.991   4.389
 6628SOL     OW20782   4.414   6.316   4.054
 6628SOL    HW120783   4.440   6.395   4.000
 6628SOL    HW220784   4.406   6.343   4.150
 6629SOL     OW20785   5.402   5.852   6.796
 6629SOL    HW120786   5.459   5.832   6.716
 6629SOL    HW220787   5.318   5.897   6.766
 6630SOL     OW20788   2.275   1.526   1.664
 6630SOL    HW120789   2.372   1.527   1.638
 6630SOL    HW220790   2.249   1.433   1.689
 6631SOL     OW20791   2.350   4.672   6.581
 6631SOL    HW120792   2.319   4.710   6.494
 6631SOL    HW220793   2.274   4.626   6.627
 6632SOL     OW20794   1.518   0.940   1.188
 6632SOL    HW120795   1.496   1.038   1.190
 6632SOL    HW220796   1.546   0.910   1.278
 6633SOL     OW20797   3.749   5.439   5.998
 6633SOL    HW120798   3.678   5.413   6.064
 6633SOL    HW220799   3.781   5.357   5.950
 6634SOL     OW20800   4.253   2.344   4.382
 6634SOL    HW120801   4.303   2.424   4.416
 6634SOL    HW220802   4.212   2.296   4.460
 6635SOL     OW20803   5.085   4.923   2.976
 6635SOL    HW120804   4.994   4.912   2.936
 6635SOL    HW220805   5.154   4.921   2.903
 6636SOL     OW20806   3.657   0.416   0.567
 6636SOL    HW120807   3.700   0.383   0.483
 6636SOL    HW220808   3.587   0.351   0.597
 6637SOL     OW20809   1.383   1.175   1.217
 6637SOL    HW120810   1.355   1.269   1.197
 6637SOL    HW220811   1.326   1.139   1.292
 6638SOL     OW20812   2.951   3.282   3.533
 6638SOL    HW120813   3.014   3.208   3.508
 6638SOL    HW220814   2.940   3.343   3.455
 6639SOL     OW20815   4.891   2.859   1.323
 6639SOL    HW120816   4.806   2.817   1.289
 6639SOL    HW220817   4.902   2.838   1.420
 6640SOL     OW20818   0.869   2.794   4.926
 6640SOL    HW120819   0.935   2.801   5.001
 6640SOL    HW220820   0.792   2.738   4.955
 6641SOL     OW20821   4.344   1.934   0.918
 6641SOL    HW120822   4.283   1.960   0.993
 6641SOL    HW220823   4.373   2.017   0.869
 6642SOL     OW20824   1.091   5.898   0.743
 6642SOL    HW120825   1.146   5.981   0.755
 6642SOL    HW220826   1.054   5.896   0.650
 6643SOL     OW20827   4.531   6.459   6.877
 6643SOL    HW120828   4.498   6.509   6.797
 6643SOL    HW220829   4.628   6.438   6.865
 6644SOL     OW20830   1.679   6.460   3.307
 6644SOL    HW120831   1.736   6.398   3.253
 6644SOL    HW220832   1.586   6.423   3.314
 6645SOL     OW20833   6.044   3.356   0.400
 6645SOL    HW120834   6.065   3.299   0.480
 6645SOL    HW220835   5.948   3.345   0.375
 6646SOL     OW20836   4.753   6.983   6.446
 6646SOL    HW120837   4.737   6.992   6.347
 6646SOL    HW220838   4.724   6.892   6.475
 6647SOL     OW20839   4.557   4.840   1.211
 6647SOL    HW120840   4.617   4.901   1.158
 6647SOL    HW220841   4.553   4.871   1.306
 6648SOL     OW20842   2.560   6.264   5.612
 6648SOL    HW120843   2.581   6.261   5.514
 6648SOL    HW220844   2.496   6.190   5.634
 6649SOL     OW20845   5.689   2.865   0.115
 6649SOL    HW120846   5.750   2.795   0.153
 6649SOL    HW220847   5.742   2.948   0.096
 6650SOL     OW20848   2.524   1.334   5.403
 6650SOL    HW120849   2.463   1.331   5.324
 6650SOL    HW220850   2.619   1.329   5.373
 6651SOL     OW20851   6.722   2.047   6.534
 6651SOL    HW120852   6.685   2.114   6.598
 6651SOL    HW220853   6.664   1.965   6.534
 6652SOL     OW20854   0.544   4.250   0.553
 6652SOL    HW120855   0.467   4.314   0.554
 6652SOL    HW220856   0.527   4.176   0.619
 6653SOL     OW20857   5.201   4.089   0.661
 6653SOL    HW120858   5.207   4.138   0.573
 6653SOL    HW220859   5.186   3.992   0.644
 6654SOL     OW20860   0.212   4.445   3.115
 6654SOL    HW120861   0.185   4.535   3.079
 6654SOL    HW220862   0.310   4.445   3.133
 6655SOL     OW20863   6.863   5.506   2.013
 6655SOL    HW120864   6.785   5.565   1.994
 6655SOL    HW220865   6.846   5.415   1.975
 6656SOL     OW20866   4.005   1.406   2.940
 6656SOL    HW120867   3.905   1.398   2.938
 6656SOL    HW220868   4.040   1.357   3.020
 6657SOL     OW20869   5.523   1.838   3.908
 6657SOL    HW120870   5.594   1.902   3.938
 6657SOL    HW220871   5.434   1.884   3.910
 6658SOL     OW20872   6.035   5.949   5.056
 6658SOL    HW120873   5.997   5.951   5.148
 6658SOL    HW220874   5.969   5.987   4.991
 6659SOL     OW20875   0.994   5.190   2.245
 6659SOL    HW120876   1.013   5.281   2.208
 6659SOL    HW220877   0.936   5.199   2.326
 6660SOL     OW20878   0.034   6.108   3.471
 6660SOL    HW120879   7.009   6.183   3.421
 6660SOL    HW220880   7.011   6.100   3.561
 6661SOL     OW20881   3.861   6.926   4.288
 6661SOL    HW120882   3.786   6.989   4.307
 6661SOL    HW220883   3.823   6.836   4.266
 6662SOL     OW20884   3.072   6.604   2.599
 6662SOL    HW120885   3.085   6.652   2.686
 6662SOL    HW220886   3.079   6.668   2.523
 6663SOL     OW20887   0.893   4.184   5.761
 6663SOL    HW120888   0.924   4.170   5.855
 6663SOL    HW220889   0.909   4.101   5.707
 6664SOL     OW20890   2.904   0.750   1.525
 6664SOL    HW120891   2.896   0.652   1.506
 6664SOL    HW220892   2.985   0.767   1.580
 6665SOL     OW20893   2.219   0.398   5.529
 6665SOL    HW120894   2.305   0.348   5.523
 6665SOL    HW220895   2.160   0.354   5.597
 6666SOL     OW20896   4.567   6.673   5.353
 6666SOL    HW120897   4.497   6.680   5.424
 6666SOL    HW220898   4.625   6.593   5.371
 6667SOL     OW20899   0.373   6.200   6.179
 6667SOL    HW120900   0.314   6.134   6.227
 6667SOL    HW220901   0.390   6.168   6.086
 6668SOL     OW20902   0.296   5.994   0.573
 6668SOL    HW120903   0.335   6.071   0.522
 6668SOL    HW220904   0.197   6.006   0.580
 6669SOL     OW20905   1.516   1.057   3.089
 6669SOL    HW120906   1.518   1.137   3.028
 6669SOL    HW220907   1.461   0.984   3.046
 6670SOL     OW20908   4.114   2.620   0.750
 6670SOL    HW120909   4.071   2.696   0.798
 6670SOL    HW220910   4.065   2.603   0.664
 6671SOL     OW20911   4.689   5.947   0.174
 6671SOL    HW120912   4.726   5.859   0.202
 6671SOL    HW220913   4.595   5.956   0.206
 6672SOL     OW20914   1.517   2.533   1.082
 6672SOL    HW120915   1.508   2.621   1.035
 6672SOL    HW220916   1.432   2.510   1.128
 6673SOL     OW20917   5.530   3.801   4.410
 6673SOL    HW120918   5.443   3.851   4.403
 6673SOL    HW220919   5.605   3.860   4.379
 6674SOL     OW20920   0.024   2.794   6.924
 6674SOL    HW120921   0.078   2.870   6.888
 6674SOL    HW220922   7.013   2.815   7.018
 6675SOL     OW20923   5.234   2.241   6.840
 6675SOL    HW120924   5.298   2.240   6.763
 6675SOL    HW220925   5.141   2.254   6.805
 6676SOL     OW20926   1.394   3.770   3.788
 6676SOL    HW120927   1.412   3.708   3.711
 6676SOL    HW220928   1.478   3.821   3.810
 6677SOL     OW20929   0.494   2.249   0.622
 6677SOL    HW120930   0.443   2.309   0.560
 6677SOL    HW220931   0.431   2.182   0.661
 6678SOL     OW20932   1.916   4.691   0.250
 6678SOL    HW120933   1.984   4.643   0.305
 6678SOL    HW220934   1.842   4.628   0.224
 6679SOL     OW20935   2.063   1.221   3.891
 6679SOL    HW120936   2.069   1.238   3.793
 6679SOL    HW220937   2.064   1.122   3.907
 6680SOL     OW20938   5.883   6.525   1.092
 6680SOL    HW120939   5.923   6.478   1.171
 6680SOL    HW220940   5.954   6.575   1.043
 6681SOL     OW20941   3.452   5.766   1.342
 6681SOL    HW120942   3.491   5.758   1.433
 6681SOL    HW220943   3.448   5.675   1.299
 6682SOL     OW20944   3.206   5.299   6.738
 6682SOL    HW120945   3.125   5.354   6.720
 6682SOL    HW220946   3.179   5.209   6.772
 6683SOL     OW20947   6.301   3.683   6.290
 6683SOL    HW120948   6.354   3.611   6.333
 6683SOL    HW220949   6.209   3.685   6.330
 6684SOL     OW20950   2.994   6.390   1.297
 6684SOL    HW120951   3.018   6.434   1.383
 6684SOL    HW220952   3.052   6.425   1.224
 6685SOL     OW20953   4.505   3.564   6.731
 6685SOL    HW120954   4.575   3.573   6.660
 6685SOL    HW220955   4.463   3.473   6.725
 6686SOL     OW20956   5.082   5.534   3.894
 6686SOL    HW120957   4.996   5.569   3.931
 6686SOL    HW220958   5.158   5.567   3.950
 6687SOL     OW20959   6.603   2.377   1.539
 6687SOL    HW120960   6.608   2.302   1.473
 6687SOL    HW220961   6.545   2.351   1.616
 6688SOL     OW20962   4.029   5.677   0.286
 6688SOL    HW120963   4.042   5.748   0.217
 6688SOL    HW220964   4.117   5.635   0.307
 6689SOL     OW20965   2.205   4.741   6.010
 6689SOL    HW120966   2.185   4.702   5.920
 6689SOL    HW220967   2.120   4.760   6.059
 6690SOL     OW20968   0.942   0.008   6.198
 6690SOL    HW120969   0.892   6.941   6.184
 6690SOL    HW220970   0.976   0.042   6.111
 6691SOL     OW20971   2.530   2.441   2.835
 6691SOL    HW120972   2.580   2.427   2.750
 6691SOL    HW220973   2.458   2.508   2.822
 6692SOL     OW20974   5.011   5.326   1.472
 6692SOL    HW120975   5.111   5.330   1.468
 6692SOL    HW220976   4.981   5.333   1.567
 6693SOL     OW20977   4.280   1.735   4.628
 6693SOL    HW120978   4.235   1.690   4.551
 6693SOL    HW220979   4.309   1.666   4.695
 6694SOL     OW20980   3.700   5.030   0.579
 6694SOL    HW120981   3.634   5.056   0.650
 6694SOL    HW220982   3.790   5.066   0.603
 6695SOL     OW20983   2.687   2.415   6.503
 6695SOL    HW120984   2.775   2.439   6.543
 6695SOL    HW220985   2.626   2.494   6.506
 6696SOL     OW20986   4.057   3.799   4.076
 6696SOL    HW120987   3.967   3.772   4.043
 6696SOL    HW220988   4.102   3.856   4.007
 6697SOL     OW20989   4.505   2.561   2.393
 6697SOL    HW120990   4.451   2.511   2.325
 6697SOL    HW220991   4.547   2.641   2.351
 6698SOL     OW20992   3.608   3.991   1.653
 6698SOL    HW120993   3.651   3.943   1.730
 6698SOL    HW220994   3.570   4.078   1.684
 6699SOL     OW20995   1.469   4.667   5.406
 6699SOL    HW120996   1.465   4.638   5.502
 6699SOL    HW220997   1.459   4.766   5.401
 6700SOL     OW20998   5.905   0.355   0.243
 6700SOL    HW120999   5.848   0.308   0.310
 6700SOL    HW221000   5.889   0.316   0.152
 6701SOL     OW21001   5.790   0.224   1.343
 6701SOL    HW121002   5.759   0.295   1.279
 6701SOL    HW221003   5.888   0.234   1.359
 6702SOL     OW21004   3.102   2.633   0.872
 6702SOL    HW121005   3.106   2.732   0.879
 6702SOL    HW221006   3.182   2.593   0.916
 6703SOL     OW21007   0.807   1.569   6.775
 6703SOL    HW121008   0.887   1.515   6.802
 6703SOL    HW221009   0.824   1.666   6.791
 6704SOL     OW21010   3.346   1.024   4.973
 6704SOL    HW121011   3.386   1.017   5.064
 6704SOL    HW221012   3.248   1.044   4.980
 6705SOL     OW21013   6.428   3.776   2.225
 6705SOL    HW121014   6.513   3.766   2.174
 6705SOL    HW221015   6.438   3.846   2.295
 6706SOL     OW21016   0.171   6.964   1.878
 6706SOL    HW121017   0.088   6.954   1.824
 6706SOL    HW221018   0.147   6.985   1.973
 6707SOL     OW21019   5.868   0.622   2.224
 6707SOL    HW121020   5.826   0.546   2.275
 6707SOL    HW221021   5.800   0.694   2.212
 6708SOL     OW21022   0.372   3.879   1.849
 6708SOL    HW121023   0.386   3.839   1.759
 6708SOL    HW221024   0.293   3.836   1.893
 6709SOL     OW21025   1.405   4.821   2.444
 6709SOL    HW121026   1.379   4.908   2.487
 6709SOL    HW221027   1.342   4.749   2.472
 6710SOL     OW21028   4.832   1.528   1.794
 6710SOL    HW121029   4.830   1.430   1.774
 6710SOL    HW221030   4.817   1.541   1.892
 6711SOL     OW21031   4.197   6.068   6.029
 6711SOL    HW121032   4.132   6.025   5.966
 6711SOL    HW221033   4.174   6.164   6.041
 6712SOL     OW21034   5.982   3.663   1.274
 6712SOL    HW121035   6.037   3.583   1.299
 6712SOL    HW221036   5.886   3.646   1.298
 6713SOL     OW21037   1.592   6.585   4.552
 6713SOL    HW121038   1.560   6.591   4.646
 6713SOL    HW221039   1.545   6.655   4.497
 6714SOL     OW21040   5.484   0.891   0.354
 6714SOL    HW121041   5.510   0.827   0.281
 6714SOL    HW221042   5.480   0.983   0.317
 6715SOL     OW21043   1.201   0.645   0.100
 6715SOL    HW121044   1.293   0.684   0.108
 6715SOL    HW221045   1.134   0.707   0.141
 6716SOL     OW21046   6.847   5.405   2.728
 6716SOL    HW121047   6.904   5.475   2.685
 6716SOL    HW221048   6.904   5.343   2.780
 6717SOL     OW21049   3.897   2.904   6.396
 6717SOL    HW121050   3.947   2.822   6.424
 6717SOL    HW221051   3.956   2.984   6.404
 6718SOL     OW21052   3.529   6.986   1.911
 6718SOL    HW121053   3.538   6.910   1.846
 6718SOL    HW221054   3.433   7.011   1.921
 6719SOL     OW21055   2.157   0.874   6.980
 6719SOL    HW121056   2.133   0.808   0.032
 6719SOL    HW221057   2.141   0.967   7.014
 6720SOL     OW21058   2.003   0.348   6.230
 6720SOL    HW121059   2.039   0.440   6.247
 6720SOL    HW221060   1.977   0.340   6.133
 6721SOL     OW21061   0.356   1.804   0.619
 6721SOL    HW121062   0.301   1.755   0.686
 6721SOL    HW221063   0.325   1.779   0.527
 6722SOL     OW21064   6.426   3.172   0.739
 6722SOL    HW121065   6.401   3.104   0.671
 6722SOL    HW221066   6.353   3.180   0.807
 6723SOL     OW21067   2.081   2.101   6.773
 6723SOL    HW121068   2.063   2.139   6.682
 6723SOL    HW221069   1.994   2.083   6.819
 6724SOL     OW21070   2.241   3.698   5.874
 6724SOL    HW121071   2.165   3.659   5.823
 6724SOL    HW221072   2.327   3.671   5.832
 6725SOL     OW21073   5.761   2.789   3.430
 6725SOL    HW121074   5.854   2.819   3.451
 6725SOL    HW221075   5.724   2.738   3.507
 6726SOL     OW21076   6.879   1.019   5.440
 6726SOL    HW121077   6.862   1.040   5.343
 6726SOL    HW221078   6.898   0.921   5.450
 6727SOL     OW21079   1.065   4.709   5.839
 6727SOL    HW121080   1.050   4.654   5.920
 6727SOL    HW221081   1.116   4.656   5.771
 6728SOL     OW21082   3.763   1.880   3.949
 6728SOL    HW121083   3.675   1.915   3.915
 6728SOL    HW221084   3.819   1.957   3.980
 6729SOL     OW21085   4.978   1.487   1.223
 6729SOL    HW121086   4.945   1.413   1.165
 6729SOL    HW221087   5.040   1.546   1.170
 6730SOL     OW21088   0.975   1.076   1.555
 6730SOL    HW121089   0.875   1.072   1.563
 6730SOL    HW221090   1.013   1.126   1.633
 6731SOL     OW21091   3.405   6.397   0.000
 6731SOL    HW121092   3.443   6.370   0.089
 6731SOL    HW221093   3.394   6.316   6.960
 6732SOL     OW21094   5.847   5.196   4.513
 6732SOL    HW121095   5.805   5.117   4.469
 6732SOL    HW221096   5.828   5.194   4.611
 6733SOL     OW21097   4.221   5.198   6.360
 6733SOL    HW121098   4.189   5.104   6.362
 6733SOL    HW221099   4.277   5.216   6.441
 6734SOL     OW21100   5.151   1.308   5.058
 6734SOL    HW121101   5.069   1.295   5.001
 6734SOL    HW221102   5.128   1.290   5.154
 6735SOL     OW21103   6.064   2.803   3.312
 6735SOL    HW121104   6.021   2.889   3.284
 6735SOL    HW221105   6.034   2.729   3.251
 6736SOL     OW21106   3.044   4.080   0.665
 6736SOL    HW121107   2.983   4.017   0.712
 6736SOL    HW221108   3.139   4.049   0.674
 6737SOL     OW21109   0.791   3.011   1.249
 6737SOL    HW121110   0.751   3.030   1.338
 6737SOL    HW221111   0.867   2.946   1.259
 6738SOL     OW21112   2.242   5.676   3.065
 6738SOL    HW121113   2.273   5.769   3.081
 6738SOL    HW221114   2.218   5.665   2.968
 6739SOL     OW21115   6.747   0.253   4.596
 6739SOL    HW121116   6.721   0.288   4.686
 6739SOL    HW221117   6.832   0.201   4.604
 6740SOL     OW21118   6.808   6.709   4.505
 6740SOL    HW121119   6.749   6.772   4.454
 6740SOL    HW221120   6.824   6.627   4.450
 6741SOL     OW21121   4.907   2.142   5.759
 6741SOL    HW121122   4.823   2.096   5.728
 6741SOL    HW221123   4.883   2.227   5.805
 6742SOL     OW21124   5.437   4.673   3.892
 6742SOL    HW121125   5.514   4.625   3.852
 6742SOL    HW221126   5.354   4.655   3.838
 6743SOL     OW21127   3.848   3.955   0.953
 6743SOL    HW121128   3.886   4.047   0.962
 6743SOL    HW221129   3.922   3.889   0.942
 6744SOL     OW21130   0.078   5.381   5.630
 6744SOL    HW121131   0.122   5.375   5.719
 6744SOL    HW221132   0.066   5.289   5.593
 6745SOL     OW21133   6.831   6.502   4.332
 6745SOL    HW121134   6.751   6.452   4.301
 6745SOL    HW221135   6.914   6.459   4.295
 6746SOL     OW21136   1.818   1.216   2.635
 6746SOL    HW121137   1.898   1.201   2.576
 6746SOL    HW221138   1.771   1.129   2.650
 6747SOL     OW21139   1.389   6.452   6.797
 6747SOL    HW121140   1.451   6.522   6.834
 6747SOL    HW221141   1.301   6.458   6.844
 6748SOL     OW21142   2.320   1.905   4.212
 6748SOL    HW121143   2.233   1.909   4.163
 6748SOL    HW221144   2.394   1.935   4.152
 6749SOL     OW21145   3.611   4.598   0.891
 6749SOL    HW121146   3.575   4.544   0.966
 6749SOL    HW221147   3.550   4.676   0.874
 6750SOL     OW21148   3.060   2.183   4.528
 6750SOL    HW121149   3.089   2.252   4.463
 6750SOL    HW221150   3.141   2.138   4.567
 6751SOL     OW21151   4.229   6.910   3.760
 6751SOL    HW121152   4.227   6.851   3.840
 6751SOL    HW221153   4.319   6.906   3.717
 6752SOL     OW21154   1.935   6.332   2.633
 6752SOL    HW121155   1.843   6.325   2.673
 6752SOL    HW221156   1.943   6.267   2.558
 6753SOL     OW21157   3.935   2.888   5.249
 6753SOL    HW121158   3.949   2.980   5.287
 6753SOL    HW221159   3.869   2.892   5.175
 6754SOL     OW21160   6.189   1.609   1.123
 6754SOL    HW121161   6.250   1.578   1.196
 6754SOL    HW221162   6.094   1.602   1.153
 6755SOL     OW21163   2.620   5.185   6.704
 6755SOL    HW121164   2.698   5.124   6.720
 6755SOL    HW221165   2.609   5.200   6.605
 6756SOL     OW21166   2.595   1.893   5.696
 6756SOL    HW121167   2.549   1.807   5.718
 6756SOL    HW221168   2.588   1.956   5.774
 6757SOL     OW21169   3.458   0.952   0.585
 6757SOL    HW121170   3.384   0.955   0.519
 6757SOL    HW221171   3.501   0.862   0.584
 6758SOL     OW21172   5.850   2.708   1.270
 6758SOL    HW121173   5.906   2.765   1.210
 6758SOL    HW221174   5.767   2.757   1.296
 6759SOL     OW21175   0.517   3.491   3.520
 6759SOL    HW121176   0.597   3.544   3.548
 6759SOL    HW221177   0.524   3.399   3.557
 6760SOL     OW21178   5.232   3.083   2.839
 6760SOL    HW121179   5.242   3.080   2.739
 6760SOL    HW221180   5.155   3.143   2.862
 6761SOL     OW21181   4.753   2.163   4.492
 6761SOL    HW121182   4.774   2.139   4.586
 6761SOL    HW221183   4.654   2.175   4.482
 6762SOL     OW21184   6.522   5.538   3.843
 6762SOL    HW121185   6.593   5.478   3.809
 6762SOL    HW221186   6.436   5.517   3.796
 6763SOL     OW21187   4.754   4.978   4.999
 6763SOL    HW121188   4.850   4.961   5.019
 6763SOL    HW221189   4.736   4.959   4.902
 6764SOL     OW21190   1.406   5.786   1.857
 6764SOL    HW121191   1.375   5.767   1.951
 6764SOL    HW221192   1.501   5.756   1.847
 6765SOL     OW21193   6.422   4.549   2.972
 6765SOL    HW121194   6.371   4.616   2.918
 6765SOL    HW221195   6.513   4.536   2.931
 6766SOL     OW21196   5.059   6.624   0.818
 6766SOL    HW121197   5.123   6.674   0.759
 6766SOL    HW221198   5.071   6.526   0.805
 6767SOL     OW21199   2.976   1.243   0.490
 6767SOL    HW121200   3.005   1.296   0.569
 6767SOL    HW221201   2.940   1.155   0.521
 6768SOL     OW21202   2.095   0.699   0.866
 6768SOL    HW121203   2.145   0.643   0.932
 6768SOL    HW221204   2.154   0.772   0.833
 6769SOL     OW21205   4.100   2.630   1.111
 6769SOL    HW121206   4.104   2.719   1.066
 6769SOL    HW221207   4.006   2.611   1.140
 6770SOL     OW21208   6.783   0.408   1.715
 6770SOL    HW121209   6.823   0.344   1.781
 6770SOL    HW221210   6.691   0.432   1.744
 6771SOL     OW21211   4.372   1.881   2.623
 6771SOL    HW121212   4.418   1.960   2.583
 6771SOL    HW221213   4.273   1.898   2.627
 6772SOL     OW21214   3.103   1.557   2.415
 6772SOL    HW121215   3.056   1.498   2.350
 6772SOL    HW221216   3.184   1.510   2.450
 6773SOL     OW21217   6.768   3.920   1.670
 6773SOL    HW121218   6.713   3.854   1.720
 6773SOL    HW221219   6.859   3.926   1.710
 6774SOL     OW21220   0.827   2.849   6.438
 6774SOL    HW121221   0.743   2.894   6.407
 6774SOL    HW221222   0.805   2.785   6.512
 6775SOL     OW21223   2.867   4.048   1.083
 6775SOL    HW121224   2.844   4.056   0.986
 6775SOL    HW221225   2.805   3.984   1.127
 6776SOL     OW21226   5.207   4.959   0.162
 6776SOL    HW121227   5.162   4.929   0.247
 6776SOL    HW221228   5.257   4.883   0.122
 6777SOL     OW21229   4.480   4.833   5.753
 6777SOL    HW121230   4.443   4.890   5.827
 6777SOL    HW221231   4.526   4.753   5.792
 6778SOL     OW21232   0.632   4.077   2.723
 6778SOL    HW121233   0.671   4.041   2.808
 6778SOL    HW221234   0.658   4.173   2.712
 6779SOL     OW21235   6.780   4.336   0.242
 6779SOL    HW121236   6.873   4.322   0.279
 6779SOL    HW221237   6.720   4.369   0.315
 6780SOL     OW21238   0.082   2.250   2.984
 6780SOL    HW121239   0.169   2.284   3.020
 6780SOL    HW221240   0.088   2.243   2.884
 6781SOL     OW21241   5.254   6.332   5.653
 6781SOL    HW121242   5.204   6.392   5.591
 6781SOL    HW221243   5.352   6.346   5.640
 6782SOL     OW21244   0.246   1.305   2.464
 6782SOL    HW121245   0.260   1.219   2.416
 6782SOL    HW221246   0.270   1.293   2.561
 6783SOL     OW21247   0.012   6.217   5.889
 6783SOL    HW121248   0.038   6.183   5.799
 6783SOL    HW221249   0.034   6.149   5.958
 6784SOL     OW21250   3.757   4.297   6.862
 6784SOL    HW121251   3.715   4.319   6.950
 6784SOL    HW221252   3.850   4.265   6.877
 6785SOL     OW21253   6.135   5.577   1.676
 6785SOL    HW121254   6.131   5.665   1.629
 6785SOL    HW221255   6.065   5.516   1.638
 6786SOL     OW21256   1.731   2.294   6.668
 6786SOL    HW121257   1.769   2.322   6.580
 6786SOL    HW221258   1.777   2.343   6.742
 6787SOL     OW21259   1.504   3.797   0.859
 6787SOL    HW121260   1.542   3.707   0.877
 6787SOL    HW221261   1.499   3.848   0.945
 6788SOL     OW21262   2.786   3.861   1.681
 6788SOL    HW121263   2.831   3.820   1.760
 6788SOL    HW221264   2.698   3.900   1.708
 6789SOL     OW21265   0.411   6.561   2.314
 6789SOL    HW121266   0.490   6.555   2.253
 6789SOL    HW221267   0.327   6.543   2.262
 6790SOL     OW21268   2.543   2.937   0.151
 6790SOL    HW121269   2.461   2.972   0.107
 6790SOL    HW221270   2.560   2.843   0.120
 6791SOL     OW21271   4.549   2.673   0.226
 6791SOL    HW121272   4.510   2.626   0.147
 6791SOL    HW221273   4.589   2.605   0.288
 6792SOL     OW21274   6.742   5.879   6.499
 6792SOL    HW121275   6.684   5.948   6.543
 6792SOL    HW221276   6.784   5.821   6.569
 6793SOL     OW21277   0.986   2.248   0.124
 6793SOL    HW121278   1.069   2.232   0.178
 6793SOL    HW221279   0.966   2.346   0.122
 6794SOL     OW21280   5.026   1.272   4.286
 6794SOL    HW121281   5.040   1.223   4.200
 6794SOL    HW221282   4.941   1.324   4.282
 6795SOL     OW21283   2.960   5.635   0.835
 6795SOL    HW121284   2.873   5.680   0.818
 6795SOL    HW221285   3.022   5.698   0.882
 6796SOL     OW21286   5.304   1.331   2.306
 6796SOL    HW121287   5.299   1.431   2.317
 6796SOL    HW221288   5.276   1.287   2.392
 6797SOL     OW21289   5.113   3.670   1.854
 6797SOL    HW121290   5.104   3.609   1.933
 6797SOL    HW221291   5.177   3.630   1.789
 6798SOL     OW21292   5.751   5.207   3.204
 6798SOL    HW121293   5.782   5.225   3.110
 6798SOL    HW221294   5.827   5.223   3.267
 6799SOL     OW21295   5.101   5.494   0.328
 6799SOL    HW121296   5.165   5.429   0.370
 6799SOL    HW221297   5.116   5.495   0.229
 6800SOL     OW21298   1.537   4.248   0.703
 6800SOL    HW121299   1.603   4.189   0.749
 6800SOL    HW221300   1.529   4.334   0.754
 6801SOL     OW21301   1.146   2.100   2.109
 6801SOL    HW121302   1.210   2.035   2.067
 6801SOL    HW221303   1.082   2.051   2.167
 6802SOL     OW21304   2.277   5.763   0.916
 6802SOL    HW121305   2.317   5.830   0.980
 6802SOL    HW221306   2.250   5.682   0.967
 6803SOL     OW21307   5.027   2.058   6.471
 6803SOL    HW121308   4.935   2.019   6.480
 6803SOL    HW221309   5.095   1.988   6.493
 6804SOL     OW21310   1.691   5.934   3.200
 6804SOL    HW121311   1.726   5.908   3.110
 6804SOL    HW221312   1.759   5.913   3.270
 6805SOL     OW21313   5.388   6.857   4.505
 6805SOL    HW121314   5.360   6.863   4.409
 6805SOL    HW221315   5.339   6.781   4.549
 6806SOL     OW21316   4.697   1.459   4.508
 6806SOL    HW121317   4.625   1.441   4.576
 6806SOL    HW221318   4.753   1.536   4.539
 6807SOL     OW21319   2.654   3.225   6.944
 6807SOL    HW121320   2.622   3.141   6.986
 6807SOL    HW221321   2.589   3.299   6.962
 6808SOL     OW21322   0.424   2.714   4.830
 6808SOL    HW121323   0.328   2.743   4.834
 6808SOL    HW221324   0.428   2.614   4.826
 6809SOL     OW21325   1.375   4.578   0.095
 6809SOL    HW121326   1.438   4.604   0.022
 6809SOL    HW221327   1.310   4.511   0.061
 6810SOL     OW21328   0.848   1.113   2.485
 6810SOL    HW121329   0.793   1.058   2.423
 6810SOL    HW221330   0.867   1.061   2.569
 6811SOL     OW21331   6.240   4.528   0.836
 6811SOL    HW121332   6.177   4.487   0.903
 6811SOL    HW221333   6.187   4.571   0.763
 6812SOL     OW21334   3.842   3.966   2.985
 6812SOL    HW121335   3.864   3.993   3.079
 6812SOL    HW221336   3.746   3.988   2.965
 6813SOL     OW21337   4.691   1.874   1.455
 6813SOL    HW121338   4.707   1.795   1.395
 6813SOL    HW221339   4.722   1.852   1.548
 6814SOL     OW21340   3.037   2.783   1.227
 6814SOL    HW121341   3.052   2.851   1.299
 6814SOL    HW221342   3.123   2.736   1.207
 6815SOL     OW21343   2.947   6.875   1.624
 6815SOL    HW121344   2.870   6.905   1.568
 6815SOL    HW221345   2.993   6.954   1.663
 6816SOL     OW21346   6.619   5.091   6.854
 6816SOL    HW121347   6.681   5.076   6.776
 6816SOL    HW221348   6.533   5.044   6.837
 6817SOL     OW21349   6.406   1.334   5.389
 6817SOL    HW121350   6.464   1.301   5.463
 6817SOL    HW221351   6.460   1.340   5.305
 6818SOL     OW21352   3.160   6.514   1.827
 6818SOL    HW121353   3.249   6.548   1.857
 6818SOL    HW221354   3.101   6.500   1.906
 6819SOL     OW21355   2.990   0.490   3.533
 6819SOL    HW121356   2.967   0.534   3.446
 6819SOL    HW221357   3.063   0.541   3.579
 6820SOL     OW21358   0.674   4.564   3.699
 6820SOL    HW121359   0.661   4.492   3.631
 6820SOL    HW221360   0.623   4.543   3.782
 6821SOL     OW21361   2.515   2.239   5.155
 6821SOL    HW121362   2.578   2.166   5.181
 6821SOL    HW221363   2.564   2.308   5.101
 6822SOL     OW21364   5.484   1.355   5.883
 6822SOL    HW121365   5.560   1.419   5.892
 6822SOL    HW221366   5.408   1.384   5.942
 6823SOL     OW21367   3.379   3.547   3.656
 6823SOL    HW121368   3.463   3.571   3.607
 6823SOL    HW221369   3.336   3.468   3.611
 6824SOL     OW21370   0.225   3.784   6.468
 6824SOL    HW121371   0.274   3.699   6.488
 6824SOL    HW221372   0.168   3.771   6.387
 6825SOL     OW21373   5.332   0.078   2.232
 6825SOL    HW121374   5.365   0.108   2.322
 6825SOL    HW221375   5.356   0.147   2.164
 6826SOL     OW21376   2.105   3.510   2.509
 6826SOL    HW121377   2.008   3.494   2.528
 6826SOL    HW221378   2.145   3.429   2.467
 6827SOL     OW21379   4.675   5.972   6.669
 6827SOL    HW121380   4.674   5.969   6.569
 6827SOL    HW221381   4.585   5.950   6.704
 6828SOL     OW21382   1.436   2.136   1.569
 6828SOL    HW121383   1.523   2.160   1.613
 6828SOL    HW221384   1.387   2.070   1.625
 6829SOL     OW21385   5.055   6.668   3.796
 6829SOL    HW121386   5.134   6.634   3.847
 6829SOL    HW221387   5.009   6.739   3.848
 6830SOL     OW21388   5.634   1.495   3.438
 6830SOL    HW121389   5.656   1.446   3.523
 6830SOL    HW221390   5.611   1.429   3.366
 6831SOL     OW21391   0.743   0.945   6.094
 6831SOL    HW121392   0.650   0.909   6.095
 6831SOL    HW221393   0.744   1.034   6.140
 6832SOL     OW21394   2.943   4.586   1.605
 6832SOL    HW121395   2.883   4.577   1.685
 6832SOL    HW221396   2.887   4.592   1.522
 6833SOL     OW21397   3.469   5.077   6.787
 6833SOL    HW121398   3.460   5.107   6.882
 6833SOL    HW221399   3.559   5.034   6.774
 6834SOL     OW21400   4.678   0.009   1.709
 6834SOL    HW121401   4.588   6.997   1.676
 6834SOL    HW221402   4.740   0.022   1.631
 6835SOL     OW21403   4.007   0.574   4.605
 6835SOL    HW121404   3.975   0.481   4.626
 6835SOL    HW221405   4.065   0.606   4.679
 6836SOL     OW21406   2.957   6.488   0.291
 6836SOL    HW121407   2.870   6.492   0.341
 6836SOL    HW221408   2.988   6.581   0.273
 6837SOL     OW21409   1.799   3.375   1.968
 6837SOL    HW121410   1.871   3.439   1.943
 6837SOL    HW221411   1.840   3.289   2.001
 6838SOL     OW21412   2.557   1.007   0.529
 6838SOL    HW121413   2.473   1.054   0.502
 6838SOL    HW221414   2.589   0.951   0.453
 6839SOL     OW21415   4.638   0.843   0.868
 6839SOL    HW121416   4.613   0.822   0.774
 6839SOL    HW221417   4.621   0.939   0.887
 6840SOL     OW21418   2.865   1.400   6.221
 6840SOL    HW121419   2.954   1.358   6.243
 6840SOL    HW221420   2.801   1.329   6.191
 6841SOL     OW21421   6.139   3.196   6.035
 6841SOL    HW121422   6.171   3.148   5.954
 6841SOL    HW221423   6.151   3.295   6.022
 6842SOL     OW21424   1.643   5.154   1.600
 6842SOL    HW121425   1.596   5.073   1.636
 6842SOL    HW221426   1.603   5.236   1.639
 6843SOL     OW21427   5.215   6.858   6.794
 6843SOL    HW121428   5.206   6.872   6.695
 6843SOL    HW221429   5.161   6.926   6.843
 6844SOL     OW21430   4.690   0.885   3.720
 6844SOL    HW121431   4.730   0.969   3.757
 6844SOL    HW221432   4.739   0.805   3.755
 6845SOL     OW21433   4.791   2.784   2.920
 6845SOL    HW121434   4.880   2.778   2.965
 6845SOL    HW221435   4.796   2.740   2.830
 6846SOL     OW21436   2.841   3.803   0.364
 6846SOL    HW121437   2.899   3.881   0.343
 6846SOL    HW221438   2.826   3.798   0.463
 6847SOL     OW21439   5.894   3.807   4.630
 6847SOL    HW121440   5.820   3.785   4.566
 6847SOL    HW221441   5.908   3.729   4.691
 6848SOL     OW21442   5.054   4.136   3.983
 6848SOL    HW121443   4.970   4.176   4.020
 6848SOL    HW221444   5.133   4.178   4.026
 6849SOL     OW21445   3.905   3.834   6.096
 6849SOL    HW121446   3.905   3.788   6.008
 6849SOL    HW221447   3.870   3.773   6.167
 6850SOL     OW21448   4.432   2.443   3.412
 6850SOL    HW121449   4.484   2.366   3.373
 6850SOL    HW221450   4.391   2.415   3.498
 6851SOL     OW21451   1.700   2.959   2.787
 6851SOL    HW121452   1.607   2.941   2.818
 6851SOL    HW221453   1.765   2.933   2.859
 6852SOL     OW21454   2.386   5.436   0.898
 6852SOL    HW121455   2.436   5.350   0.906
 6852SOL    HW221456   2.450   5.513   0.904
 6853SOL     OW21457   5.492   3.326   6.513
 6853SOL    HW121458   5.587   3.296   6.508
 6853SOL    HW221459   5.440   3.285   6.438
 6854SOL     OW21460   5.139   6.303   6.119
 6854SOL    HW121461   5.146   6.327   6.216
 6854SOL    HW221462   5.201   6.360   6.066
 6855SOL     OW21463   3.765   5.164   3.526
 6855SOL    HW121464   3.756   5.133   3.620
 6855SOL    HW221465   3.860   5.187   3.506
 6856SOL     OW21466   0.914   2.468   6.389
 6856SOL    HW121467   1.006   2.429   6.381
 6856SOL    HW221468   0.878   2.488   6.298
 6857SOL     OW21469   1.367   3.346   6.693
 6857SOL    HW121470   1.281   3.337   6.745
 6857SOL    HW221471   1.349   3.392   6.607
 6858SOL     OW21472   3.149   4.159   1.735
 6858SOL    HW121473   3.049   4.159   1.727
 6858SOL    HW221474   3.189   4.124   1.651
 6859SOL     OW21475   0.588   1.336   2.195
 6859SOL    HW121476   0.677   1.331   2.151
 6859SOL    HW221477   0.517   1.353   2.126
 6860SOL     OW21478   0.071   5.583   1.879
 6860SOL    HW121479   7.011   5.573   1.941
 6860SOL    HW221480   0.051   5.536   1.793
 6861SOL     OW21481   5.203   3.232   5.182
 6861SOL    HW121482   5.161   3.302   5.124
 6861SOL    HW221483   5.132   3.179   5.228
 6862SOL     OW21484   0.508   4.393   6.214
 6862SOL    HW121485   0.564   4.463   6.170
 6862SOL    HW221486   0.412   4.408   6.191
 6863SOL     OW21487   7.013   6.592   4.998
 6863SOL    HW121488   0.058   6.557   4.928
 6863SOL    HW221489   0.045   6.608   5.083
 6864SOL     OW21490   1.664   3.889   5.598
 6864SOL    HW121491   1.737   3.908   5.532
 6864SOL    HW221492   1.652   3.790   5.606
 6865SOL     OW21493   1.401   0.063   4.428
 6865SOL    HW121494   1.308   0.045   4.461
 6865SOL    HW221495   1.398   0.136   4.360
 6866SOL     OW21496   0.055   4.503   2.106
 6866SOL    HW121497   6.978   4.507   2.075
 6866SOL    HW221498   0.110   4.456   2.038
 6867SOL     OW21499   2.213   3.076   0.844
 6867SOL    HW121500   2.279   3.016   0.798
 6867SOL    HW221501   2.227   3.170   0.813
 6868SOL     OW21502   2.313   5.306   4.787
 6868SOL    HW121503   2.316   5.406   4.789
 6868SOL    HW221504   2.291   5.276   4.694
 6869SOL     OW21505   3.455   6.933   5.700
 6869SOL    HW121506   3.411   7.010   5.653
 6869SOL    HW221507   3.552   6.930   5.676
 6870SOL     OW21508   0.025   2.798   0.185
 6870SOL    HW121509   6.962   2.749   0.153
 6870SOL    HW221510   0.103   2.737   0.185
 6871SOL     OW21511   6.792   3.705   2.571
 6871SOL    HW121512   6.704   3.664   2.548
 6871SOL    HW221513   6.863   3.668   2.511
 6872SOL     OW21514   1.079   2.712   1.874
 6872SOL    HW121515   1.136   2.657   1.813
 6872SOL    HW221516   1.116   2.805   1.879
 6873SOL     OW21517   1.360   4.163   4.884
 6873SOL    HW121518   1.356   4.248   4.832
 6873SOL    HW221519   1.326   4.179   4.977
 6874SOL     OW21520   5.562   5.978   2.954
 6874SOL    HW121521   5.498   6.053   2.973
 6874SOL    HW221522   5.532   5.928   2.873
 6875SOL     OW21523   1.288   2.725   1.029
 6875SOL    HW121524   1.277   2.716   0.930
 6875SOL    HW221525   1.205   2.694   1.075
 6876SOL     OW21526   4.270   6.204   3.176
 6876SOL    HW121527   4.238   6.111   3.154
 6876SOL    HW221528   4.284   6.211   3.275
 6877SOL     OW21529   2.229   4.381   2.336
 6877SOL    HW121530   2.319   4.424   2.341
 6877SOL    HW221531   2.236   4.286   2.365
 6878SOL     OW21532   2.443   1.035   4.010
 6878SOL    HW121533   2.404   1.030   3.918
 6878SOL    HW221534   2.376   1.004   4.077
 6879SOL     OW21535   2.192   2.347   0.795
 6879SOL    HW121536   2.105   2.297   0.785
 6879SOL    HW221537   2.209   2.401   0.713
 6880SOL     OW21538   1.792   5.727   6.407
 6880SOL    HW121539   1.860   5.710   6.337
 6880SOL    HW221540   1.819   5.806   6.463
 6881SOL     OW21541   1.624   3.567   0.133
 6881SOL    HW121542   1.630   3.667   0.128
 6881SOL    HW221543   1.716   3.528   0.131
 6882SOL     OW21544   3.046   6.724   0.462
 6882SOL    HW121545   3.116   6.791   0.438
 6882SOL    HW221546   3.086   6.652   0.519
 6883SOL     OW21547   4.879   0.395   6.498
 6883SOL    HW121548   4.873   0.319   6.563
 6883SOL    HW221549   4.930   0.365   6.417
 6884SOL     OW21550   2.175   3.728   2.932
 6884SOL    HW121551   2.149   3.643   2.885
 6884SOL    HW221552   2.153   3.806   2.873
 6885SOL     OW21553   5.013   5.219   3.575
 6885SOL    HW121554   5.047   5.126   3.559
 6885SOL    HW221555   5.053   5.281   3.508
 6886SOL     OW21556   4.938   1.038   5.749
 6886SOL    HW121557   4.928   1.003   5.843
 6886SOL    HW221558   4.981   1.127   5.751
 6887SOL     OW21559   5.285   6.258   6.623
 6887SOL    HW121560   5.239   6.293   6.542
 6887SOL    HW221561   5.363   6.316   6.645
 6888SOL     OW21562   5.522   4.819   6.639
 6888SOL    HW121563   5.427   4.843   6.660
 6888SOL    HW221564   5.526   4.724   6.607
 6889SOL     OW21565   1.024   2.688   5.910
 6889SOL    HW121566   1.007   2.620   5.839
 6889SOL    HW221567   1.089   2.756   5.877
 6890SOL     OW21568   3.468   5.200   2.788
 6890SOL    HW121569   3.440   5.209   2.883
 6890SOL    HW221570   3.453   5.286   2.739
 6891SOL     OW21571   2.108   2.684   0.781
 6891SOL    HW121572   2.042   2.626   0.829
 6891SOL    HW221573   2.153   2.745   0.846
 6892SOL     OW21574   3.455   1.144   4.097
 6892SOL    HW121575   3.504   1.127   4.011
 6892SOL    HW221576   3.495   1.089   4.170
 6893SOL     OW21577   6.114   2.929   6.996
 6893SOL    HW121578   6.190   2.906   0.039
 6893SOL    HW221579   6.047   2.985   0.027
 6894SOL     OW21580   5.483   4.876   1.295
 6894SOL    HW121581   5.449   4.968   1.316
 6894SOL    HW221582   5.558   4.882   1.229
 6895SOL     OW21583   1.735   6.097   1.083
 6895SOL    HW121584   1.698   6.185   1.113
 6895SOL    HW221585   1.661   6.039   1.050
 6896SOL     OW21586   3.804   2.106   4.350
 6896SOL    HW121587   3.747   2.113   4.432
 6896SOL    HW221588   3.896   2.078   4.376
 6897SOL     OW21589   4.637   3.785   5.329
 6897SOL    HW121590   4.614   3.720   5.256
 6897SOL    HW221591   4.736   3.790   5.339
 6898SOL     OW21592   2.509   1.553   1.524
 6898SOL    HW121593   2.571   1.628   1.544
 6898SOL    HW221594   2.547   1.467   1.560
 6899SOL     OW21595   6.283   6.041   2.625
 6899SOL    HW121596   6.255   5.959   2.573
 6899SOL    HW221597   6.337   6.100   2.566
 6900SOL     OW21598   6.309   4.291   6.194
 6900SOL    HW121599   6.314   4.347   6.112
 6900SOL    HW221600   6.271   4.201   6.171
 6901SOL     OW21601   4.370   5.260   6.573
 6901SOL    HW121602   4.456   5.252   6.625
 6901SOL    HW221603   4.316   5.335   6.610
 6902SOL     OW21604   0.228   5.916   5.894
 6902SOL    HW121605   0.189   5.846   5.953
 6902SOL    HW221606   0.190   5.907   5.802
 6903SOL     OW21607   2.986   5.095   5.016
 6903SOL    HW121608   3.009   4.998   5.024
 6903SOL    HW221609   2.916   5.107   4.946
 6904SOL     OW21610   0.227   5.947   4.658
 6904SOL    HW121611   0.134   5.979   4.645
 6904SOL    HW221612   0.231   5.848   4.646
 6905SOL     OW21613   5.493   5.567   5.955
 6905SOL    HW121614   5.472   5.664   5.965
 6905SOL    HW221615   5.551   5.553   5.875
 6906SOL     OW21616   3.827   0.948   3.292
 6906SOL    HW121617   3.879   0.939   3.208
 6906SOL    HW221618   3.889   0.944   3.371
 6907SOL     OW21619   6.362   1.852   1.259
 6907SOL    HW121620   6.285   1.792   1.237
 6907SOL    HW221621   6.392   1.834   1.353
 6908SOL     OW21622   2.545   4.406   6.828
 6908SOL    HW121623   2.539   4.309   6.804
 6908SOL    HW221624   2.625   4.421   6.885
 6909SOL     OW21625   5.715   5.520   1.754
 6909SOL    HW121626   5.696   5.544   1.849
 6909SOL    HW221627   5.736   5.603   1.702
 6910SOL     OW21628   1.603   2.560   2.690
 6910SOL    HW121629   1.529   2.622   2.663
 6910SOL    HW221630   1.677   2.614   2.731
 6911SOL     OW21631   3.317   0.138   5.600
 6911SOL    HW121632   3.219   0.144   5.579
 6911SOL    HW221633   3.370   0.158   5.518
 6912SOL     OW21634   2.050   3.728   6.903
 6912SOL    HW121635   2.101   3.673   6.968
 6912SOL    HW221636   2.111   3.758   6.830
 6913SOL     OW21637   4.555   5.877   5.682
 6913SOL    HW121638   4.471   5.931   5.680
 6913SOL    HW221639   4.536   5.788   5.725
 6914SOL     OW21640   6.021   3.456   1.976
 6914SOL    HW121641   6.051   3.518   1.904
 6914SOL    HW221642   6.101   3.419   2.023
 6915SOL     OW21643   1.345   3.748   2.187
 6915SOL    HW121644   1.337   3.759   2.286
 6915SOL    HW221645   1.262   3.705   2.152
 6916SOL     OW21646   4.698   6.808   6.191
 6916SOL    HW121647   4.642   6.832   6.112
 6916SOL    HW221648   4.784   6.860   6.188
 6917SOL     OW21649   5.476   5.509   1.614
 6917SOL    HW121650   5.557   5.511   1.673
 6917SOL    HW221651   5.487   5.575   1.540
 6918SOL     OW21652   1.022   3.159   1.860
 6918SOL    HW121653   0.935   3.183   1.817
 6918SOL    HW221654   1.022   3.189   1.955
 6919SOL     OW21655   6.320   6.626   2.655
 6919SOL    HW121656   6.266   6.608   2.573
 6919SOL    HW221657   6.374   6.545   2.679
 6920SOL     OW21658   4.526   0.675   5.289
 6920SOL    HW121659   4.530   0.692   5.388
 6920SOL    HW221660   4.455   0.608   5.270
 6921SOL     OW21661   3.204   0.434   4.661
 6921SOL    HW121662   3.271   0.399   4.596
 6921SOL    HW221663   3.118   0.452   4.615
 6922SOL     OW21664   1.454   5.993   5.043
 6922SOL    HW121665   1.486   6.020   5.134
 6922SOL    HW221666   1.404   6.070   5.002
 6923SOL     OW21667   6.489   0.196   2.124
 6923SOL    HW121668   6.431   0.170   2.201
 6923SOL    HW221669   6.585   0.182   2.148
 6924SOL     OW21670   3.648   6.770   0.634
 6924SOL    HW121671   3.699   6.709   0.574
 6924SOL    HW221672   3.709   6.805   0.706
 6925SOL     OW21673   5.541   6.122   6.969
 6925SOL    HW121674   5.530   6.050   6.900
 6925SOL    HW221675   5.632   6.163   6.961
 6926SOL     OW21676   3.093   1.875   0.626
 6926SOL    HW121677   3.135   1.841   0.710
 6926SOL    HW221678   3.162   1.878   0.554
 6927SOL     OW21679   4.053   0.890   0.420
 6927SOL    HW121680   4.074   0.972   0.367
 6927SOL    HW221681   3.961   0.898   0.458
 6928SOL     OW21682   4.769   5.400   0.772
 6928SOL    HW121683   4.817   5.341   0.707
 6928SOL    HW221684   4.807   5.386   0.863
 6929SOL     OW21685   5.288   5.321   1.525
 6929SOL    HW121686   5.354   5.390   1.554
 6929SOL    HW221687   5.292   5.242   1.586
 6930SOL     OW21688   0.537   1.313   0.282
 6930SOL    HW121689   0.590   1.263   0.351
 6930SOL    HW221690   0.535   1.260   0.197
 6931SOL     OW21691   2.417   2.470   1.214
 6931SOL    HW121692   2.322   2.498   1.200
 6931SOL    HW221693   2.475   2.551   1.218
 6932SOL     OW21694   4.653   5.587   0.094
 6932SOL    HW121695   4.674   5.559   0.001
 6932SOL    HW221696   4.659   5.508   0.155
 6933SOL     OW21697   3.119   5.497   6.452
 6933SOL    HW121698   3.123   5.426   6.381
 6933SOL    HW221699   3.212   5.527   6.473
 6934SOL     OW21700   5.172   4.217   6.501
 6934SOL    HW121701   5.236   4.151   6.538
 6934SOL    HW221702   5.094   4.226   6.563
 6935SOL     OW21703   5.649   5.288   2.107
 6935SOL    HW121704   5.577   5.358   2.101
 6935SOL    HW221705   5.608   5.202   2.136
 6936SOL     OW21706   1.118   1.591   4.758
 6936SOL    HW121707   1.062   1.525   4.808
 6936SOL    HW221708   1.078   1.607   4.668
 6937SOL     OW21709   5.360   5.629   0.267
 6937SOL    HW121710   5.425   5.663   0.199
 6937SOL    HW221711   5.334   5.703   0.329
 6938SOL     OW21712   0.355   0.702   4.686
 6938SOL    HW121713   0.405   0.742   4.764
 6938SOL    HW221714   0.258   0.692   4.711
 6939SOL     OW21715   6.302   4.474   3.422
 6939SOL    HW121716   6.366   4.397   3.424
 6939SOL    HW221717   6.342   4.550   3.371
 6940SOL     OW21718   4.169   6.670   0.669
 6940SOL    HW121719   4.168   6.660   0.570
 6940SOL    HW221720   4.190   6.765   0.693
 6941SOL     OW21721   2.901   3.438   2.830
 6941SOL    HW121722   2.861   3.505   2.893
 6941SOL    HW221723   2.997   3.460   2.813
 6942SOL     OW21724   6.734   6.031   1.992
 6942SOL    HW121725   6.744   6.130   1.982
 6942SOL    HW221726   6.822   5.987   1.973
 6943SOL     OW21727   4.128   4.867   6.848
 6943SOL    HW121728   4.175   4.828   6.769
 6943SOL    HW221729   4.032   4.836   6.849
 6944SOL     OW21730   1.115   3.609   5.522
 6944SOL    HW121731   1.068   3.623   5.435
 6944SOL    HW221732   1.191   3.673   5.529
 6945SOL     OW21733   5.697   3.055   0.515
 6945SOL    HW121734   5.682   3.000   0.597
 6945SOL    HW221735   5.615   3.109   0.496
 6946SOL     OW21736   4.265   6.081   2.282
 6946SOL    HW121737   4.289   5.994   2.324
 6946SOL    HW221738   4.310   6.156   2.331
 6947SOL     OW21739   5.178   5.018   5.591
 6947SOL    HW121740   5.192   4.931   5.545
 6947SOL    HW221741   5.264   5.068   5.595
 6948SOL     OW21742   0.267   5.721   0.447
 6948SOL    HW121743   0.198   5.658   0.483
 6948SOL    HW221744   0.275   5.800   0.508
 6949SOL     OW21745   2.849   2.256   3.406
 6949SOL    HW121746   2.908   2.278   3.483
 6949SOL    HW221747   2.888   2.180   3.355
 6950SOL     OW21748   0.915   6.752   4.637
 6950SOL    HW121749   0.854   6.779   4.562
 6950SOL    HW221750   0.920   6.826   4.704
 6951SOL     OW21751   6.823   5.039   6.610
 6951SOL    HW121752   6.918   5.018   6.635
 6951SOL    HW221753   6.821   5.119   6.550
 6952SOL     OW21754   3.334   4.953   2.704
 6952SOL    HW121755   3.334   5.037   2.650
 6952SOL    HW221756   3.393   4.965   2.784
 6953SOL     OW21757   5.783   0.620   0.932
 6953SOL    HW121758   5.753   0.711   0.959
 6953SOL    HW221759   5.703   0.566   0.903
 6954SOL     OW21760   6.925   3.531   0.722
 6954SOL    HW121761   6.967   3.562   0.637
 6954SOL    HW221762   6.849   3.591   0.746
 6955SOL     OW21763   5.006   6.832   2.476
 6955SOL    HW121764   5.089   6.887   2.488
 6955SOL    HW221765   5.030   6.736   2.468
 6956SOL     OW21766   5.301   5.861   2.289
 6956SOL    HW121767   5.296   5.929   2.362
 6956SOL    HW221768   5.320   5.771   2.327
 6957SOL     OW21769   5.262   5.353   6.227
 6957SOL    HW121770   5.239   5.346   6.324
 6957SOL    HW221771   5.320   5.433   6.212
 6958SOL     OW21772   3.609   2.961   3.664
 6958SOL    HW121773   3.548   2.933   3.590
 6958SOL    HW221774   3.574   2.927   3.751
 6959SOL     OW21775   1.326   4.367   3.112
 6959SOL    HW121776   1.243   4.343   3.062
 6959SOL    HW221777   1.403   4.315   3.075
 6960SOL     OW21778   2.089   4.530   0.403
 6960SOL    HW121779   2.145   4.459   0.360
 6960SOL    HW221780   2.061   4.499   0.494
 6961SOL     OW21781   3.946   1.849   5.216
 6961SOL    HW121782   4.013   1.837   5.142
 6961SOL    HW221783   3.994   1.873   5.300
 6962SOL     OW21784   3.358   6.697   6.170
 6962SOL    HW121785   3.454   6.722   6.157
 6962SOL    HW221786   3.324   6.653   6.087
 6963SOL     OW21787   5.027   6.640   1.220
 6963SOL    HW121788   4.969   6.678   1.292
 6963SOL    HW221789   5.043   6.709   1.149
 6964SOL     OW21790   2.301   0.240   6.106
 6964SOL    HW121791   2.251   0.213   6.188
 6964SOL    HW221792   2.300   0.340   6.099
 6965SOL     OW21793   0.677   2.201   0.061
 6965SOL    HW121794   0.762   2.157   0.088
 6965SOL    HW221795   0.634   2.148   7.006
 6966SOL     OW21796   0.841   0.803   1.914
 6966SOL    HW121797   0.761   0.791   1.855
 6966SOL    HW221798   0.824   0.761   2.003
 6967SOL     OW21799   4.304   2.099   6.121
 6967SOL    HW121800   4.294   2.061   6.029
 6967SOL    HW221801   4.397   2.085   6.154
 6968SOL     OW21802   3.593   6.827   2.972
 6968SOL    HW121803   3.515   6.867   3.022
 6968SOL    HW221804   3.561   6.790   2.885
 6969SOL     OW21805   2.343   1.752   2.141
 6969SOL    HW121806   2.382   1.780   2.054
 6969SOL    HW221807   2.283   1.674   2.127
 6970SOL     OW21808   3.520   4.352   5.930
 6970SOL    HW121809   3.559   4.437   5.896
 6970SOL    HW221810   3.493   4.294   5.853
 6971SOL     OW21811   6.411   4.609   0.580
 6971SOL    HW121812   6.390   4.531   0.639
 6971SOL    HW221813   6.465   4.676   0.630
 6972SOL     OW21814   5.052   3.579   2.658
 6972SOL    HW121815   5.143   3.543   2.639
 6972SOL    HW221816   4.983   3.515   2.624
 6973SOL     OW21817   1.037   2.131   2.582
 6973SOL    HW121818   1.130   2.159   2.603
 6973SOL    HW221819   1.004   2.182   2.502
 6974SOL     OW21820   3.259   3.789   2.878
 6974SOL    HW121821   3.337   3.736   2.910
 6974SOL    HW221822   3.243   3.770   2.781
 6975SOL     OW21823   3.082   5.650   4.909
 6975SOL    HW121824   3.167   5.672   4.863
 6975SOL    HW221825   3.063   5.719   4.979
 6976SOL     OW21826   4.950   4.487   5.662
 6976SOL    HW121827   4.940   4.406   5.721
 6976SOL    HW221828   5.034   4.535   5.686
 6977SOL     OW21829   4.264   4.634   1.868
 6977SOL    HW121830   4.335   4.568   1.843
 6977SOL    HW221831   4.179   4.611   1.821
 6978SOL     OW21832   5.457   3.212   1.778
 6978SOL    HW121833   5.431   3.205   1.681
 6978SOL    HW221834   5.514   3.293   1.791
 6979SOL     OW21835   1.336   4.140   1.379
 6979SOL    HW121836   1.271   4.150   1.454
 6979SOL    HW221837   1.302   4.190   1.299
 6980SOL     OW21838   1.178   6.870   3.201
 6980SOL    HW121839   1.209   6.941   3.138
 6980SOL    HW221840   1.141   6.913   3.284
 6981SOL     OW21841   3.612   3.658   6.753
 6981SOL    HW121842   3.625   3.751   6.788
 6981SOL    HW221843   3.519   3.627   6.773
 6982SOL     OW21844   0.839   1.244   4.096
 6982SOL    HW121845   0.773   1.305   4.051
 6982SOL    HW221846   0.924   1.294   4.113
 6983SOL     OW21847   5.127   0.735   4.048
 6983SOL    HW121848   5.173   0.654   4.083
 6983SOL    HW221849   5.028   0.722   4.052
 6984SOL     OW21850   0.848   2.542   3.219
 6984SOL    HW121851   0.924   2.607   3.222
 6984SOL    HW221852   0.761   2.591   3.232
 6985SOL     OW21853   6.655   3.833   6.688
 6985SOL    HW121854   6.651   3.763   6.760
 6985SOL    HW221855   6.661   3.789   6.599
 6986SOL     OW21856   3.874   5.118   5.554
 6986SOL    HW121857   3.866   5.019   5.536
 6986SOL    HW221858   3.924   5.161   5.479
 6987SOL     OW21859   0.396   1.808   6.574
 6987SOL    HW121860   0.404   1.769   6.482
 6987SOL    HW221861   0.308   1.854   6.583
 6988SOL     OW21862   3.045   1.127   6.307
 6988SOL    HW121863   2.986   1.155   6.384
 6988SOL    HW221864   2.989   1.111   6.226
 6989SOL     OW21865   0.363   4.747   2.419
 6989SOL    HW121866   0.321   4.657   2.413
 6989SOL    HW221867   0.462   4.736   2.435
 6990SOL     OW21868   3.761   2.914   1.887
 6990SOL    HW121869   3.691   2.844   1.873
 6990SOL    HW221870   3.775   2.928   1.985
 6991SOL     OW21871   5.815   3.980   2.496
 6991SOL    HW121872   5.878   4.056   2.513
 6991SOL    HW221873   5.733   3.991   2.553
 6992SOL     OW21874   1.230   0.446   6.586
 6992SOL    HW121875   1.187   0.526   6.627
 6992SOL    HW221876   1.197   0.434   6.493
 6993SOL     OW21877   5.520   1.074   1.385
 6993SOL    HW121878   5.424   1.092   1.405
 6993SOL    HW221879   5.568   1.161   1.369
 6994SOL     OW21880   1.899   0.091   4.217
 6994SOL    HW121881   1.932   0.092   4.123
 6994SOL    HW221882   1.875   0.184   4.246
 6995SOL     OW21883   0.364   3.443   0.601
 6995SOL    HW121884   0.298   3.461   0.528
 6995SOL    HW221885   0.454   3.426   0.561
 6996SOL     OW21886   1.490   1.069   0.437
 6996SOL    HW121887   1.451   1.104   0.352
 6996SOL    HW221888   1.535   1.143   0.486
 6997SOL     OW21889   6.839   5.057   4.991
 6997SOL    HW121890   6.744   5.034   4.968
 6997SOL    HW221891   6.858   5.028   5.085
 6998SOL     OW21892   0.501   1.308   1.447
 6998SOL    HW121893   0.545   1.219   1.442
 6998SOL    HW221894   0.427   1.312   1.379
 6999SOL     OW21895   1.019   2.862   6.750
 6999SOL    HW121896   1.105   2.901   6.716
 6999SOL    HW221897   1.026   2.763   6.755
 7000SOL     OW21898   6.700   6.941   2.715
 7000SOL    HW121899   6.684   0.019   2.690
 7000SOL    HW221900   6.786   6.933   2.764
 7001SOL     OW21901   1.055   1.632   4.488
 7001SOL    HW121902   1.007   1.701   4.433
 7001SOL    HW221903   1.150   1.625   4.457
 7002SOL     OW21904   0.907   5.654   3.489
 7002SOL    HW121905   0.833   5.690   3.547
 7002SOL    HW221906   0.872   5.638   3.397
 7003SOL     OW21907   6.116   4.105   1.494
 7003SOL    HW121908   6.139   4.116   1.591
 7003SOL    HW221909   6.082   4.013   1.477
 7004SOL     OW21910   1.606   5.695   0.462
 7004SOL    HW121911   1.645   5.623   0.405
 7004SOL    HW221912   1.551   5.655   0.535
 7005SOL     OW21913   1.598   0.624   6.932
 7005SOL    HW121914   1.600   0.525   6.942
 7005SOL    HW221915   1.589   0.648   6.835
 7006SOL     OW21916   0.228   0.171   4.011
 7006SOL    HW121917   0.282   0.189   4.093
 7006SOL    HW221918   0.279   0.110   3.950
 7007SOL     OW21919   3.890   0.764   6.002
 7007SOL    HW121920   3.884   0.666   6.020
 7007SOL    HW221921   3.952   0.779   5.924
 7008SOL     OW21922   6.494   4.307   3.438
 7008SOL    HW121923   6.570   4.290   3.375
 7008SOL    HW221924   6.476   4.224   3.491
 7009SOL     OW21925   4.414   5.944   1.709
 7009SOL    HW121926   4.331   6.000   1.704
 7009SOL    HW221927   4.402   5.872   1.776
 7010SOL     OW21928   5.149   3.943   1.819
 7010SOL    HW121929   5.105   3.853   1.824
 7010SOL    HW221930   5.191   3.955   1.729
 7011SOL     OW21931   3.929   6.629   0.143
 7011SOL    HW121932   3.833   6.600   0.145
 7011SOL    HW221933   3.936   6.723   0.177
 7012SOL     OW21934   0.773   2.260   0.912
 7012SOL    HW121935   0.778   2.260   0.812
 7012SOL    HW221936   0.752   2.353   0.944
 7013SOL     OW21937   2.677   1.771   6.904
 7013SOL    HW121938   2.699   1.868   6.918
 7013SOL    HW221939   2.665   1.727   6.993
 7014SOL     OW21940   6.538   3.773   1.774
 7014SOL    HW121941   6.496   3.685   1.751
 7014SOL    HW221942   6.492   3.847   1.725
 7015SOL     OW21943   5.149   5.055   1.682
 7015SOL    HW121944   5.168   5.118   1.758
 7015SOL    HW221945   5.094   4.978   1.716
 7016SOL     OW21946   3.341   4.782   0.564
 7016SOL    HW121947   3.326   4.854   0.496
 7016SOL    HW221948   3.282   4.797   0.642
 7017SOL     OW21949   4.321   5.281   3.830
 7017SOL    HW121950   4.308   5.242   3.739
 7017SOL    HW221951   4.396   5.347   3.829
 7018SOL     OW21952   4.774   2.819   4.240
 7018SOL    HW121953   4.773   2.901   4.298
 7018SOL    HW221954   4.728   2.744   4.288
 7019SOL     OW21955   4.880   4.970   1.968
 7019SOL    HW121956   4.930   4.925   1.895
 7019SOL    HW221957   4.818   4.905   2.011
 7020SOL     OW21958   0.668   3.562   7.008
 7020SOL    HW121959   0.713   3.502   6.942
 7020SOL    HW221960   0.579   3.590   6.973
 7021SOL     OW21961   1.275   2.538   4.620
 7021SOL    HW121962   1.275   2.636   4.639
 7021SOL    HW221963   1.279   2.488   4.706
 7022SOL     OW21964   4.064   0.861   0.767
 7022SOL    HW121965   4.014   0.945   0.746
 7022SOL    HW221966   4.019   0.814   0.842
 7023SOL     OW21967   0.675   1.896   1.867
 7023SOL    HW121968   0.588   1.876   1.912
 7023SOL    HW221969   0.726   1.811   1.854
 7024SOL     OW21970   3.747   3.748   3.586
 7024SOL    HW121971   3.773   3.663   3.632
 7024SOL    HW221972   3.701   3.726   3.500
 7025SOL     OW21973   3.139   0.107   0.361
 7025SOL    HW121974   3.087   0.184   0.397
 7025SOL    HW221975   3.215   0.141   0.305
 7026SOL     OW21976   3.165   2.235   1.368
 7026SOL    HW121977   3.105   2.158   1.392
 7026SOL    HW221978   3.119   2.293   1.301
 7027SOL     OW21979   2.300   5.660   1.924
 7027SOL    HW121980   2.256   5.652   1.834
 7027SOL    HW221981   2.275   5.748   1.965
 7028SOL     OW21982   3.121   0.257   3.460
 7028SOL    HW121983   3.063   0.327   3.503
 7028SOL    HW221984   3.216   0.285   3.464
 7029SOL     OW21985   3.226   3.422   5.257
 7029SOL    HW121986   3.325   3.418   5.274
 7029SOL    HW221987   3.191   3.330   5.241
 7030SOL     OW21988   6.652   1.318   4.684
 7030SOL    HW121989   6.610   1.381   4.620
 7030SOL    HW221990   6.615   1.333   4.776
 7031SOL     OW21991   4.435   6.464   0.744
 7031SOL    HW121992   4.477   6.419   0.822
 7031SOL    HW221993   4.377   6.539   0.775
 7032SOL     OW21994   3.668   0.112   4.393
 7032SOL    HW121995   3.598   0.072   4.452
 7032SOL    HW221996   3.626   0.156   4.315
 7033SOL     OW21997   1.558   2.293   5.527
 7033SOL    HW121998   1.583   2.259   5.436
 7033SOL    HW221999   1.542   2.392   5.522
 7034SOL     OW22000   6.406   1.781   2.940
 7034SOL    HW122001   6.492   1.756   2.983
 7034SOL    HW222002   6.418   1.785   2.841
 7035SOL     OW22003   2.197   0.370   1.175
 7035SOL    HW122004   2.191   0.294   1.111
 7035SOL    HW222005   2.123   0.362   1.243
 7036SOL     OW22006   0.051   1.357   2.279
 7036SOL    HW122007   0.121   1.347   2.350
 7036SOL    HW222008   0.078   1.429   2.215
 7037SOL     OW22009   0.519   0.346   5.995
 7037SOL    HW122010   0.588   0.280   6.028
 7037SOL    HW222011   0.565   0.416   5.939
 7038SOL     OW22012   2.239   3.718   6.394
 7038SOL    HW122013   2.151   3.748   6.431
 7038SOL    HW222014   2.254   3.759   6.304
 7039SOL     OW22015   0.677   5.743   3.022
 7039SOL    HW122016   0.626   5.829   3.028
 7039SOL    HW222017   0.617   5.670   2.989
 7040SOL     OW22018   4.340   2.095   5.559
 7040SOL    HW122019   4.326   2.020   5.494
 7040SOL    HW222020   4.318   2.182   5.516
 7041SOL     OW22021   1.491   0.803   4.240
 7041SOL    HW122022   1.468   0.896   4.268
 7041SOL    HW222023   1.502   0.800   4.141
 7042SOL     OW22024   4.507   6.267   5.103
 7042SOL    HW122025   4.474   6.224   5.018
 7042SOL    HW222026   4.602   6.296   5.090
 7043SOL     OW22027   2.599   4.561   3.261
 7043SOL    HW122028   2.520   4.500   3.253
 7043SOL    HW222029   2.657   4.553   3.180
 7044SOL     OW22030   5.362   5.987   4.167
 7044SOL    HW122031   5.422   6.039   4.227
 7044SOL    HW222032   5.326   6.046   4.095
 7045SOL     OW22033   6.275   5.683   2.306
 7045SOL    HW122034   6.314   5.622   2.376
 7045SOL    HW222035   6.231   5.628   2.236
 7046SOL     OW22036   2.778   2.297   4.105
 7046SOL    HW122037   2.771   2.229   4.179
 7046SOL    HW222038   2.695   2.354   4.105
 7047SOL     OW22039   0.438   0.022   0.364
 7047SOL    HW122040   0.488   0.026   0.450
 7047SOL    HW222041   0.472   0.092   0.302
 7048SOL     OW22042   6.824   5.643   4.889
 7048SOL    HW122043   6.839   5.583   4.967
 7048SOL    HW222044   6.896   5.712   4.884
 7049SOL     OW22045   3.783   1.318   2.106
 7049SOL    HW122046   3.780   1.313   2.206
 7049SOL    HW222047   3.849   1.387   2.078
 7050SOL     OW22048   4.066   4.568   0.987
 7050SOL    HW122049   4.152   4.530   0.953
 7050SOL    HW222050   3.993   4.550   0.921
 7051SOL     OW22051   0.372   6.642   1.000
 7051SOL    HW122052   0.333   6.731   0.978
 7051SOL    HW222053   0.463   6.654   1.039
 7052SOL     OW22054   5.869   6.883   2.655
 7052SOL    HW122055   5.905   6.961   2.603
 7052SOL    HW222056   5.911   6.881   2.745
 7053SOL     OW22057   1.565   2.938   3.186
 7053SOL    HW122058   1.608   2.852   3.158
 7053SOL    HW222059   1.597   2.964   3.277
 7054SOL     OW22060   6.621   0.263   0.510
 7054SOL    HW122061   6.559   0.339   0.492
 7054SOL    HW222062   6.709   0.281   0.466
 7055SOL     OW22063   2.395   0.980   6.898
 7055SOL    HW122064   2.441   1.045   6.959
 7055SOL    HW222065   2.323   0.933   6.949
 7056SOL     OW22066   6.912   5.500   1.347
 7056SOL    HW122067   6.817   5.487   1.321
 7056SOL    HW222068   6.971   5.449   1.284
 7057SOL     OW22069   3.317   4.979   4.895
 7057SOL    HW122070   3.390   5.024   4.843
 7057SOL    HW222071   3.338   4.985   4.993
 7058SOL     OW22072   5.122   2.363   6.069
 7058SOL    HW122073   5.150   2.348   6.164
 7058SOL    HW222074   5.156   2.287   6.012
 7059SOL     OW22075   1.926   0.847   4.627
 7059SOL    HW122076   1.845   0.838   4.570
 7059SOL    HW222077   1.900   0.876   4.719
 7060SOL     OW22078   3.063   0.079   2.287
 7060SOL    HW122079   3.101   0.169   2.266
 7060SOL    HW222080   3.136   0.012   2.290
 7061SOL     OW22081   0.314   2.068   3.160
 7061SOL    HW122082   0.269   2.151   3.127
 7061SOL    HW222083   0.413   2.079   3.154
 7062SOL     OW22084   4.353   2.026   3.228
 7062SOL    HW122085   4.449   2.025   3.201
 7062SOL    HW222086   4.302   1.961   3.171
 7063SOL     OW22087   0.624   0.762   1.744
 7063SOL    HW122088   0.594   0.667   1.738
 7063SOL    HW222089   0.545   0.822   1.734
 7064SOL     OW22090   4.802   2.120   5.489
 7064SOL    HW122091   4.759   2.040   5.449
 7064SOL    HW222092   4.895   2.130   5.453
 7065SOL     OW22093   3.577   4.150   5.338
 7065SOL    HW122094   3.543   4.225   5.395
 7065SOL    HW222095   3.584   4.180   5.243
 7066SOL     OW22096   3.874   0.797   0.197
 7066SOL    HW122097   3.910   0.832   0.284
 7066SOL    HW222098   3.775   0.812   0.195
 7067SOL     OW22099   2.048   3.089   0.158
 7067SOL    HW122100   2.074   3.122   0.249
 7067SOL    HW222101   1.950   3.069   0.157
 7068SOL     OW22102   4.839   4.319   4.391
 7068SOL    HW122103   4.849   4.319   4.491
 7068SOL    HW222104   4.844   4.226   4.356
 7069SOL     OW22105   6.062   0.236   6.336
 7069SOL    HW122106   5.997   0.216   6.263
 7069SOL    HW222107   6.020   0.299   6.401
 7070SOL     OW22108   0.369   6.665   4.800
 7070SOL    HW122109   0.444   6.724   4.770
 7070SOL    HW222110   0.336   6.697   4.889
 7071SOL     OW22111   5.101   6.387   0.019
 7071SOL    HW122112   5.090   6.308   6.977
 7071SOL    HW222113   5.111   6.470   6.981
 7072SOL     OW22114   0.652   3.738   6.543
 7072SOL    HW122115   0.637   3.765   6.638
 7072SOL    HW222116   0.632   3.816   6.483
 7073SOL     OW22117   5.370   1.093   2.929
 7073SOL    HW122118   5.425   1.176   2.931
 7073SOL    HW222119   5.410   1.027   2.866
 7074SOL     OW22120   5.915   4.142   2.828
 7074SOL    HW122121   5.905   4.045   2.849
 7074SOL    HW222122   5.849   4.195   2.882
 7075SOL     OW22123   3.392   5.221   4.514
 7075SOL    HW122124   3.292   5.226   4.523
 7075SOL    HW222125   3.415   5.166   4.434
 7076SOL     OW22126   5.809   3.539   2.975
 7076SOL    HW122127   5.760   3.454   2.997
 7076SOL    HW222128   5.754   3.617   3.004
 7077SOL     OW22129   2.678   4.994   1.298
 7077SOL    HW122130   2.684   4.969   1.394
 7077SOL    HW222131   2.704   5.090   1.287
 7078SOL     OW22132   5.183   6.759   0.616
 7078SOL    HW122133   5.110   6.808   0.570
 7078SOL    HW222134   5.208   6.678   0.563
 7079SOL     OW22135   0.962   6.874   4.291
 7079SOL    HW122136   0.921   6.874   4.200
 7079SOL    HW222137   0.908   6.816   4.352
 7080SOL     OW22138   3.709   1.816   5.367
 7080SOL    HW122139   3.777   1.840   5.297
 7080SOL    HW222140   3.618   1.843   5.336
 7081SOL     OW22141   1.584   0.927   6.812
 7081SOL    HW122142   1.643   0.995   6.767
 7081SOL    HW222143   1.524   0.974   6.878
 7082SOL     OW22144   6.739   4.145   2.649
 7082SOL    HW122145   6.650   4.107   2.674
 7082SOL    HW222146   6.809   4.073   2.658
 7083SOL     OW22147   6.752   3.420   2.317
 7083SOL    HW122148   6.829   3.444   2.376
 7083SOL    HW222149   6.756   3.474   2.233
 7084SOL     OW22150   0.933   5.949   0.148
 7084SOL    HW122151   0.855   5.966   0.089
 7084SOL    HW222152   0.934   6.017   0.222
 7085SOL     OW22153   0.620   3.137   2.498
 7085SOL    HW122154   0.648   3.201   2.570
 7085SOL    HW222155   0.583   3.054   2.539
 7086SOL     OW22156   5.654   0.725   5.204
 7086SOL    HW122157   5.696   0.789   5.141
 7086SOL    HW222158   5.719   0.652   5.226
 7087SOL     OW22159   5.569   3.303   3.469
 7087SOL    HW122160   5.624   3.374   3.512
 7087SOL    HW222161   5.483   3.292   3.519
 7088SOL     OW22162   5.684   1.668   4.805
 7088SOL    HW122163   5.699   1.628   4.895
 7088SOL    HW222164   5.623   1.747   4.813
 7089SOL     OW22165   3.623   5.555   2.026
 7089SOL    HW122166   3.600   5.461   2.050
 7089SOL    HW222167   3.541   5.612   2.034
 7090SOL     OW22168   3.971   1.901   1.154
 7090SOL    HW122169   3.954   1.941   1.244
 7090SOL    HW222170   3.945   1.966   1.083
 7091SOL     OW22171   0.421   6.642   6.672
 7091SOL    HW122172   0.513   6.649   6.710
 7091SOL    HW222173   0.374   6.729   6.681
 7092SOL     OW22174   4.701   2.273   6.597
 7092SOL    HW122175   4.607   2.240   6.585
 7092SOL    HW222176   4.699   2.372   6.611
 7093SOL     OW22177   3.152   4.297   0.782
 7093SOL    HW122178   3.110   4.219   0.735
 7093SOL    HW222179   3.242   4.314   0.743
 7094SOL     OW22180   2.107   6.741   5.678
 7094SOL    HW122181   2.033   6.754   5.745
 7094SOL    HW222182   2.159   6.826   5.669
 7095SOL     OW22183   2.845   4.278   5.682
 7095SOL    HW122184   2.816   4.363   5.637
 7095SOL    HW222185   2.767   4.216   5.689
 7096SOL     OW22186   0.056   0.850   0.883
 7096SOL    HW122187   0.042   0.819   0.789
 7096SOL    HW222188   0.153   0.866   0.899
 7097SOL     OW22189   4.991   0.700   1.618
 7097SOL    HW122190   4.996   0.695   1.718
 7097SOL    HW222191   4.966   0.793   1.591
 7098SOL     OW22192   0.596   6.852   4.742
 7098SOL    HW122193   0.669   6.792   4.774
 7098SOL    HW222194   0.597   6.937   4.796
 7099SOL     OW22195   2.727   2.359   3.824
 7099SOL    HW122196   2.746   2.337   3.919
 7099SOL    HW222197   2.767   2.448   3.801
 7100SOL     OW22198   6.503   3.623   1.078
 7100SOL    HW122199   6.593   3.653   1.047
 7100SOL    HW222200   6.435   3.693   1.054
 7101SOL     OW22201   2.283   6.318   5.320
 7101SOL    HW122202   2.251   6.248   5.256
 7101SOL    HW222203   2.382   6.310   5.332
 7102SOL     OW22204   5.387   0.873   1.261
 7102SOL    HW122205   5.441   0.922   1.329
 7102SOL    HW222206   5.385   0.776   1.283
 7103SOL     OW22207   4.613   4.360   2.909
 7103SOL    HW122208   4.598   4.400   3.000
 7103SOL    HW222209   4.707   4.378   2.880
 7104SOL     OW22210   4.857   3.615   3.458
 7104SOL    HW122211   4.780   3.675   3.436
 7104SOL    HW222212   4.887   3.633   3.551
 7105SOL     OW22213   2.969   3.784   3.832
 7105SOL    HW122214   2.970   3.691   3.868
 7105SOL    HW222215   2.982   3.849   3.907
 7106SOL     OW22216   3.032   3.057   1.354
 7106SOL    HW122217   2.950   3.106   1.325
 7106SOL    HW222218   3.036   3.055   1.454
 7107SOL     OW22219   4.150   0.650   6.980
 7107SOL    HW122220   4.140   0.644   0.061
 7107SOL    HW222221   4.223   0.715   6.957
 7108SOL     OW22222   3.301   7.008   2.665
 7108SOL    HW122223   3.364   0.065   2.688
 7108SOL    HW222224   3.345   6.920   2.684
 7109SOL     OW22225   1.968   0.017   5.768
 7109SOL    HW122226   2.000   0.022   5.863
 7109SOL    HW222227   2.045   0.005   5.707
 7110SOL     OW22228   3.334   5.962   4.914
 7110SOL    HW122229   3.382   5.953   5.001
 7110SOL    HW222230   3.305   5.871   4.883
 7111SOL     OW22231   0.173   0.624   3.883
 7111SOL    HW122232   0.246   0.630   3.952
 7111SOL    HW222233   0.123   0.710   3.880
 7112SOL     OW22234   1.775   5.120   4.515
 7112SOL    HW122235   1.834   5.199   4.532
 7112SOL    HW222236   1.684   5.138   4.552
 7113SOL     OW22237   3.301   4.879   5.178
 7113SOL    HW122238   3.292   4.967   5.224
 7113SOL    HW222239   3.216   4.857   5.130
 7114SOL     OW22240   4.701   5.132   0.053
 7114SOL    HW122241   4.658   5.188   7.000
 7114SOL    HW222242   4.795   5.162   0.066
 7115SOL     OW22243   6.338   4.516   0.299
 7115SOL    HW122244   6.292   4.547   0.216
 7115SOL    HW222245   6.331   4.587   0.369
 7116SOL     OW22246   6.661   3.475   4.444
 7116SOL    HW122247   6.593   3.410   4.477
 7116SOL    HW222248   6.725   3.428   4.383
 7117SOL     OW22249   6.205   6.912   3.091
 7117SOL    HW122250   6.259   6.828   3.080
 7117SOL    HW222251   6.146   6.903   3.171
 7118SOL     OW22252   4.144   4.467   5.564
 7118SOL    HW122253   4.151   4.489   5.467
 7118SOL    HW222254   4.135   4.552   5.617
 7119SOL     OW22255   4.224   0.068   4.665
 7119SOL    HW122256   4.248   0.113   4.751
 7119SOL    HW222257   4.272   0.112   4.589
 7120SOL     OW22258   5.006   1.142   1.290
 7120SOL    HW122259   5.085   1.193   1.326
 7120SOL    HW222260   4.925   1.163   1.345
 7121SOL     OW22261   0.969   6.171   3.012
 7121SOL    HW122262   0.874   6.144   3.000
 7121SOL    HW222263   1.007   6.124   3.092
 7122SOL     OW22264   2.707   0.456   6.171
 7122SOL    HW122265   2.758   0.501   6.099
 7122SOL    HW222266   2.768   0.398   6.225
 7123SOL     OW22267   5.292   5.391   5.889
 7123SOL    HW122268   5.344   5.466   5.930
 7123SOL    HW222269   5.316   5.305   5.934
 7124SOL     OW22270   1.056   1.960   1.678
 7124SOL    HW122271   1.043   1.947   1.580
 7124SOL    HW222272   1.018   2.048   1.705
 7125SOL     OW22273   1.080   0.053   1.207
 7125SOL    HW122274   1.165   0.083   1.250
 7125SOL    HW222275   1.093   6.979   1.169
 7126SOL     OW22276   4.150   5.876   1.332
 7126SOL    HW122277   4.158   5.779   1.309
 7126SOL    HW222278   4.096   5.922   1.262
 7127SOL     OW22279   3.009   6.280   5.331
 7127SOL    HW122280   3.051   6.334   5.404
 7127SOL    HW222281   2.997   6.337   5.249
 7128SOL     OW22282   3.893   4.295   6.412
 7128SOL    HW122283   3.898   4.197   6.431
 7128SOL    HW222284   3.838   4.310   6.330
 7129SOL     OW22285   0.476   0.272   0.967
 7129SOL    HW122286   0.466   0.363   1.007
 7129SOL    HW222287   0.521   0.281   0.878
 7130SOL     OW22288   3.620   6.470   4.177
 7130SOL    HW122289   3.546   6.419   4.134
 7130SOL    HW222290   3.585   6.520   4.256
 7131SOL     OW22291   4.079   0.833   2.231
 7131SOL    HW122292   4.127   0.793   2.309
 7131SOL    HW222293   4.121   0.920   2.207
 7132SOL     OW22294   5.354   3.932   0.447
 7132SOL    HW122295   5.322   3.892   0.533
 7132SOL    HW222296   5.424   4.001   0.466
 7133SOL     OW22297   3.458   5.880   3.539
 7133SOL    HW122298   3.490   5.864   3.446
 7133SOL    HW222299   3.507   5.821   3.602
 7134SOL     OW22300   5.689   5.183   1.307
 7134SOL    HW122301   5.598   5.196   1.347
 7134SOL    HW222302   5.752   5.154   1.379
 7135SOL     OW22303   2.268   3.042   1.562
 7135SOL    HW122304   2.260   3.117   1.496
 7135SOL    HW222305   2.294   2.958   1.514
 7136SOL     OW22306   2.759   1.330   1.713
 7136SOL    HW122307   2.686   1.380   1.759
 7136SOL    HW222308   2.734   1.234   1.704
 7137SOL     OW22309   2.663   1.985   1.548
 7137SOL    HW122310   2.693   2.080   1.563
 7137SOL    HW222311   2.609   1.980   1.464
 7138SOL     OW22312   1.496   2.345   0.709
 7138SOL    HW122313   1.499   2.442   0.685
 7138SOL    HW222314   1.404   2.322   0.743
 7139SOL     OW22315   6.185   5.991   1.201
 7139SOL    HW122316   6.226   5.954   1.284
 7139SOL    HW222317   6.205   5.931   1.124
 7140SOL     OW22318   6.672   3.123   0.830
 7140SOL    HW122319   6.582   3.135   0.789
 7140SOL    HW222320   6.670   3.044   0.892
 7141SOL     OW22321   3.864   0.066   1.249
 7141SOL    HW122322   3.814   0.100   1.328
 7141SOL    HW222323   3.827   0.107   1.165
 7142SOL     OW22324   2.929   0.464   4.901
 7142SOL    HW122325   2.957   0.372   4.876
 7142SOL    HW222326   2.961   0.485   4.994
 7143SOL     OW22327   2.393   4.634   6.930
 7143SOL    HW122328   2.445   4.621   6.845
 7143SOL    HW222329   2.393   4.549   6.983
 7144SOL     OW22330   6.446   0.343   5.201
 7144SOL    HW122331   6.382   0.313   5.272
 7144SOL    HW222332   6.396   0.375   5.121
 7145SOL     OW22333   4.869   2.394   6.374
 7145SOL    HW122334   4.853   2.330   6.450
 7145SOL    HW222335   4.859   2.488   6.407
 7146SOL     OW22336   1.667   1.256   5.219
 7146SOL    HW122337   1.602   1.265   5.144
 7146SOL    HW222338   1.619   1.230   5.302
 7147SOL     OW22339   5.763   5.737   1.607
 7147SOL    HW122340   5.732   5.832   1.611
 7147SOL    HW222341   5.793   5.716   1.514
 7148SOL     OW22342   0.112   6.313   1.112
 7148SOL    HW122343   0.105   6.281   1.018
 7148SOL    HW222344   0.044   6.384   1.128
 7149SOL     OW22345   6.362   5.132   4.449
 7149SOL    HW122346   6.426   5.081   4.392
 7149SOL    HW222347   6.396   5.225   4.463
 7150SOL     OW22348   4.140   3.775   6.942
 7150SOL    HW122349   4.186   3.782   0.013
 7150SOL    HW222350   4.208   3.784   6.869
 7151SOL     OW22351   3.938   0.719   0.970
 7151SOL    HW122352   3.953   0.718   1.069
 7151SOL    HW222353   3.847   0.681   0.950
 7152SOL     OW22354   6.890   1.699   6.406
 7152SOL    HW122355   6.881   1.627   6.475
 7152SOL    HW222356   6.802   1.713   6.361
 7153SOL     OW22357   3.835   6.328   1.294
 7153SOL    HW122358   3.911   6.391   1.279
 7153SOL    HW222359   3.749   6.379   1.292
 7154SOL     OW22360   4.077   1.587   1.710
 7154SOL    HW122361   4.071   1.633   1.622
 7154SOL    HW222362   4.003   1.620   1.769
 7155SOL     OW22363   2.576   1.080   2.413
 7155SOL    HW122364   2.645   1.143   2.377
 7155SOL    HW222365   2.579   1.079   2.512
 7156SOL     OW22366   6.170   4.316   0.361
 7156SOL    HW122367   6.092   4.368   0.325
 7156SOL    HW222368   6.252   4.373   0.357
 7157SOL     OW22369   5.952   4.704   6.661
 7157SOL    HW122370   5.956   4.786   6.719
 7157SOL    HW222371   6.035   4.650   6.676
 7158SOL     OW22372   4.904   6.834   3.925
 7158SOL    HW122373   4.960   6.860   4.003
 7158SOL    HW222374   4.832   6.771   3.954
 7159SOL     OW22375   0.831   5.927   3.417
 7159SOL    HW122376   0.854   5.927   3.514
 7159SOL    HW222377   0.809   5.833   3.389
 7160SOL     OW22378   6.320   6.644   3.137
 7160SOL    HW122379   6.269   6.558   3.132
 7160SOL    HW222380   6.334   6.668   3.233
 7161SOL     OW22381   4.091   3.489   3.587
 7161SOL    HW122382   4.167   3.520   3.531
 7161SOL    HW222383   4.063   3.397   3.558
 7162SOL     OW22384   0.118   5.263   2.204
 7162SOL    HW122385   0.085   5.356   2.217
 7162SOL    HW222386   0.060   5.216   2.137
 7163SOL     OW22387   1.120   1.466   2.371
 7163SOL    HW122388   1.096   1.371   2.353
 7163SOL    HW222389   1.058   1.505   2.438
 7164SOL     OW22390   1.667   1.147   6.639
 7164SOL    HW122391   1.760   1.161   6.671
 7164SOL    HW222392   1.613   1.229   6.657
 7165SOL     OW22393   5.782   1.106   0.286
 7165SOL    HW122394   5.722   1.112   0.206
 7165SOL    HW222395   5.777   1.192   0.337
 7166SOL     OW22396   5.925   6.327   5.966
 7166SOL    HW122397   5.988   6.404   5.955
 7166SOL    HW222398   5.922   6.300   6.062
 7167SOL     OW22399   5.665   2.143   4.944
 7167SOL    HW122400   5.654   2.136   5.043
 7167SOL    HW222401   5.716   2.227   4.922
 7168SOL     OW22402   2.865   0.741   1.940
 7168SOL    HW122403   2.899   0.831   1.913
 7168SOL    HW222404   2.806   0.750   2.020
 7169SOL     OW22405   1.543   4.464   6.332
 7169SOL    HW122406   1.616   4.531   6.319
 7169SOL    HW222407   1.535   4.442   6.429
 7170SOL     OW22408   3.994   1.317   1.695
 7170SOL    HW122409   4.053   1.387   1.735
 7170SOL    HW222410   3.911   1.360   1.660
 7171SOL     OW22411   6.598   4.460   0.433
 7171SOL    HW122412   6.512   4.463   0.382
 7171SOL    HW222413   6.606   4.542   0.490
 7172SOL     OW22414   1.220   1.238   4.040
 7172SOL    HW122415   1.215   1.334   4.012
 7172SOL    HW222416   1.166   1.183   3.976
 7173SOL     OW22417   4.884   6.150   6.088
 7173SOL    HW122418   4.803   6.199   6.057
 7173SOL    HW222419   4.957   6.216   6.109
 7174SOL     OW22420   6.230   4.716   1.910
 7174SOL    HW122421   6.326   4.735   1.931
 7174SOL    HW222422   6.215   4.617   1.914
 7175SOL     OW22423   5.360   3.807   6.057
 7175SOL    HW122424   5.276   3.831   6.008
 7175SOL    HW222425   5.419   3.752   5.998
 7176SOL     OW22426   0.605   0.741   5.477
 7176SOL    HW122427   0.699   0.708   5.469
 7176SOL    HW222428   0.552   0.677   5.533
 7177SOL     OW22429   1.499   5.005   4.140
 7177SOL    HW122430   1.490   5.035   4.045
 7177SOL    HW222431   1.518   4.906   4.142
 7178SOL     OW22432   1.541   1.114   5.476
 7178SOL    HW122433   1.544   1.170   5.559
 7178SOL    HW222434   1.607   1.039   5.483
 7179SOL     OW22435   3.711   6.151   6.459
 7179SOL    HW122436   3.697   6.052   6.463
 7179SOL    HW222437   3.807   6.171   6.441
 7180SOL     OW22438   1.256   4.273   0.678
 7180SOL    HW122439   1.354   4.266   0.656
 7180SOL    HW222440   1.242   4.349   0.741
 7181SOL     OW22441   2.267   1.318   6.039
 7181SOL    HW122442   2.251   1.221   6.025
 7181SOL    HW222443   2.186   1.359   6.083
 7182SOL     OW22444   1.235   2.769   4.332
 7182SOL    HW122445   1.282   2.848   4.372
 7182SOL    HW222446   1.302   2.699   4.307
 7183SOL     OW22447   0.389   6.389   1.914
 7183SOL    HW122448   0.383   6.389   1.814
 7183SOL    HW222449   0.443   6.310   1.944
 7184SOL     OW22450   6.379   0.151   3.518
 7184SOL    HW122451   6.311   0.081   3.496
 7184SOL    HW222452   6.450   0.152   3.448
 7185SOL     OW22453   4.864   0.946   4.687
 7185SOL    HW122454   4.833   1.003   4.611
 7185SOL    HW222455   4.954   0.976   4.718
 7186SOL     OW22456   0.292   6.873   6.724
 7186SOL    HW122457   0.199   6.862   6.757
 7186SOL    HW222458   0.354   6.888   6.801
 7187SOL     OW22459   3.191   2.979   4.087
 7187SOL    HW122460   3.109   2.964   4.142
 7187SOL    HW222461   3.171   3.044   4.014
 7188SOL     OW22462   4.061   4.548   6.888
 7188SOL    HW122463   4.114   4.561   6.804
 7188SOL    HW222464   3.981   4.607   6.886
 7189SOL     OW22465   6.364   2.784   5.874
 7189SOL    HW122466   6.343   2.695   5.914
 7189SOL    HW222467   6.408   2.842   5.942
 7190SOL     OW22468   5.791   5.414   1.096
 7190SOL    HW122469   5.782   5.339   1.031
 7190SOL    HW222470   5.724   5.485   1.074
 7191SOL     OW22471   0.328   4.385   3.637
 7191SOL    HW122472   0.284   4.312   3.585
 7191SOL    HW222473   0.408   4.350   3.684
 7192SOL     OW22474   1.396   4.617   6.645
 7192SOL    HW122475   1.466   4.546   6.653
 7192SOL    HW222476   1.415   4.689   6.712
 7193SOL     OW22477   2.257   2.524   2.347
 7193SOL    HW122478   2.244   2.612   2.302
 7193SOL    HW222479   2.335   2.529   2.410
 7194SOL     OW22480   2.858   2.431   5.911
 7194SOL    HW122481   2.936   2.457   5.969
 7194SOL    HW222482   2.804   2.362   5.957
 7195SOL     OW22483   6.991   3.577   6.231
 7195SOL    HW122484   6.926   3.536   6.295
 7195SOL    HW222485   6.942   3.611   6.151
 7196SOL     OW22486   3.280   3.626   2.214
 7196SOL    HW122487   3.286   3.671   2.125
 7196SOL    HW222488   3.257   3.693   2.284
 7197SOL     OW22489   2.495   3.591   5.763
 7197SOL    HW122490   2.425   3.596   5.692
 7197SOL    HW222491   2.586   3.592   5.720
 7198SOL     OW22492   0.079   0.641   1.529
 7198SOL    HW122493   0.100   0.733   1.494
 7198SOL    HW222494   6.998   0.630   1.537
 7199SOL     OW22495   0.840   1.169   2.116
 7199SOL    HW122496   0.790   1.096   2.163
 7199SOL    HW222497   0.934   1.171   2.149
 7200SOL     OW22498   1.053   2.464   0.503
 7200SOL    HW122499   1.082   2.376   0.541
 7200SOL    HW222500   1.046   2.531   0.576
 7201SOL     OW22501   5.908   5.608   3.948
 7201SOL    HW122502   5.867   5.545   3.882
 7201SOL    HW222503   5.864   5.596   4.038
 7202SOL     OW22504   4.886   0.299   5.738
 7202SOL    HW122505   4.843   0.372   5.790
 7202SOL    HW222506   4.863   0.309   5.641
 7203SOL     OW22507   0.465   1.779   2.200
 7203SOL    HW122508   0.469   1.874   2.169
 7203SOL    HW222509   0.545   1.730   2.168
 7204SOL     OW22510   6.827   0.487   1.200
 7204SOL    HW122511   6.882   0.566   1.171
 7204SOL    HW222512   6.748   0.518   1.252
 7205SOL     OW22513   2.352   2.101   4.967
 7205SOL    HW122514   2.289   2.179   4.963
 7205SOL    HW222515   2.446   2.135   4.977
 7206SOL     OW22516   1.869   2.529   0.882
 7206SOL    HW122517   1.797   2.463   0.904
 7206SOL    HW222518   1.867   2.603   0.949
 7207SOL     OW22519   1.723   1.908   3.945
 7207SOL    HW122520   1.739   1.891   3.848
 7207SOL    HW222521   1.685   1.827   3.988
 7208SOL     OW22522   2.813   0.384   4.158
 7208SOL    HW122523   2.758   0.306   4.130
 7208SOL    HW222524   2.771   0.428   4.238
 7209SOL     OW22525   3.028   1.369   2.193
 7209SOL    HW122526   3.124   1.394   2.193
 7209SOL    HW222527   2.988   1.387   2.103
 7210SOL     OW22528   2.829   1.245   3.091
 7210SOL    HW122529   2.851   1.154   3.124
 7210SOL    HW222530   2.902   1.309   3.118
 7211SOL     OW22531   3.232   5.745   5.197
 7211SOL    HW122532   3.307   5.795   5.241
 7211SOL    HW222533   3.269   5.665   5.150
 7212SOL     OW22534   6.169   4.629   6.130
 7212SOL    HW122535   6.077   4.627   6.090
 7212SOL    HW222536   6.227   4.562   6.084
 7213SOL     OW22537   3.843   1.095   0.812
 7213SOL    HW122538   3.905   1.133   0.880
 7213SOL    HW222539   3.806   1.169   0.756
 7214SOL     OW22540   6.791   1.512   6.604
 7214SOL    HW122541   6.736   1.471   6.530
 7214SOL    HW222542   6.816   1.441   6.670
 7215SOL     OW22543   6.506   2.710   2.510
 7215SOL    HW122544   6.487   2.660   2.595
 7215SOL    HW222545   6.422   2.754   2.478
 7216SOL     OW22546   3.130   6.104   2.829
 7216SOL    HW122547   3.121   6.012   2.867
 7216SOL    HW222548   3.178   6.099   2.741
 7217SOL     OW22549   1.185   4.295   3.566
 7217SOL    HW122550   1.141   4.307   3.477
 7217SOL    HW222551   1.244   4.214   3.563
 7218SOL     OW22552   5.966   3.832   4.265
 7218SOL    HW122553   6.007   3.900   4.326
 7218SOL    HW222554   5.867   3.835   4.273
 7219SOL     OW22555   3.791   6.131   1.944
 7219SOL    HW122556   3.772   6.189   2.024
 7219SOL    HW222557   3.830   6.187   1.871
 7220SOL     OW22558   6.105   5.121   4.360
 7220SOL    HW122559   6.199   5.150   4.374
 7220SOL    HW222560   6.055   5.126   4.446
 7221SOL     OW22561   3.459   5.855   5.409
 7221SOL    HW122562   3.463   5.881   5.313
 7221SOL    HW222563   3.498   5.763   5.421
 7222SOL     OW22564   6.677   6.936   4.129
 7222SOL    HW122565   6.767   6.948   4.171
 7222SOL    HW222566   6.684   6.867   4.056
 7223SOL     OW22567   1.255   2.358   0.835
 7223SOL    HW122568   1.160   2.348   0.806
 7223SOL    HW222569   1.261   2.423   0.910
 7224SOL     OW22570   4.158   2.195   3.413
 7224SOL    HW122571   4.205   2.128   3.356
 7224SOL    HW222572   4.062   2.168   3.424
 7225SOL     OW22573   1.328   6.979   1.009
 7225SOL    HW122574   1.323   0.056   1.040
 7225SOL    HW222575   1.302   6.973   0.913
 7226SOL     OW22576   6.132   6.991   7.017
 7226SOL    HW122577   6.136   6.967   6.920
 7226SOL    HW222578   6.045   0.018   0.019
 7227SOL     OW22579   3.103   1.164   1.983
 7227SOL    HW122580   3.177   1.198   2.041
 7227SOL    HW222581   3.055   1.241   1.942
 7228SOL     OW22582   0.726   3.063   2.255
 7228SOL    HW122583   0.701   3.096   2.347
 7228SOL    HW222584   0.650   3.079   2.193
 7229SOL     OW22585   6.782   0.295   4.913
 7229SOL    HW122586   6.699   0.240   4.908
 7229SOL    HW222587   6.761   0.384   4.954
 7230SOL     OW22588   2.084   5.067   4.307
 7230SOL    HW122589   2.013   4.997   4.300
 7230SOL    HW222590   2.169   5.033   4.268
 7231SOL     OW22591   4.791   1.562   6.729
 7231SOL    HW122592   4.747   1.572   6.819
 7231SOL    HW222593   4.723   1.537   6.661
 7232SOL     OW22594   5.811   6.702   3.076
 7232SOL    HW122595   5.713   6.708   3.057
 7232SOL    HW222596   5.856   6.648   3.004
 7233SOL     OW22597   6.116   1.078   5.106
 7233SOL    HW122598   6.075   1.004   5.160
 7233SOL    HW222599   6.196   1.043   5.058
 7234SOL     OW22600   5.189   3.877   2.636
 7234SOL    HW122601   5.157   3.965   2.672
 7234SOL    HW222602   5.114   3.811   2.638
 7235SOL     OW22603   6.762   5.939   1.486
 7235SOL    HW122604   6.812   5.986   1.414
 7235SOL    HW222605   6.685   5.996   1.516
 7236SOL     OW22606   2.674   2.440   3.274
 7236SOL    HW122607   2.735   2.392   3.338
 7236SOL    HW222608   2.706   2.427   3.181
 7237SOL     OW22609   5.025   0.366   0.046
 7237SOL    HW122610   5.108   0.419   0.027
 7237SOL    HW222611   4.982   0.400   0.129
 7238SOL     OW22612   4.510   3.448   0.088
 7238SOL    HW122613   4.533   3.488   7.017
 7238SOL    HW222614   4.517   3.519   0.159
 7239SOL     OW22615   0.820   3.664   2.241
 7239SOL    HW122616   0.792   3.596   2.173
 7239SOL    HW222617   0.744   3.724   2.262
 7240SOL     OW22618   6.410   1.642   6.013
 7240SOL    HW122619   6.329   1.643   6.071
 7240SOL    HW222620   6.392   1.587   5.931
 7241SOL     OW22621   2.762   1.388   1.429
 7241SOL    HW122622   2.814   1.368   1.513
 7241SOL    HW222623   2.685   1.325   1.422
 7242SOL     OW22624   0.444   5.276   4.077
 7242SOL    HW122625   0.526   5.326   4.049
 7242SOL    HW222626   0.463   5.178   4.078
 7243SOL     OW22627   6.222   3.993   6.062
 7243SOL    HW122628   6.122   3.989   6.073
 7243SOL    HW222629   6.265   3.964   6.148
 7244SOL     OW22630   0.574   6.327   6.855
 7244SOL    HW122631   0.495   6.335   6.793
 7244SOL    HW222632   0.658   6.326   6.801
 7245SOL     OW22633   1.831   2.345   6.429
 7245SOL    HW122634   1.820   2.441   6.456
 7245SOL    HW222635   1.749   2.315   6.380
 7246SOL     OW22636   2.556   0.335   3.948
 7246SOL    HW122637   2.638   0.362   3.898
 7246SOL    HW222638   2.545   0.236   3.944
 7247SOL     OW22639   2.540   2.492   5.487
 7247SOL    HW122640   2.592   2.503   5.402
 7247SOL    HW222641   2.590   2.535   5.562
 7248SOL     OW22642   3.316   0.790   4.462
 7248SOL    HW122643   3.226   0.767   4.499
 7248SOL    HW222644   3.307   0.814   4.365
 7249SOL     OW22645   3.805   5.204   1.886
 7249SOL    HW122646   3.781   5.252   1.970
 7249SOL    HW222647   3.760   5.114   1.885
 7250SOL     OW22648   5.271   6.030   5.435
 7250SOL    HW122649   5.293   5.934   5.449
 7250SOL    HW222650   5.254   6.074   5.523
 7251SOL     OW22651   0.560   6.049   5.174
 7251SOL    HW122652   0.532   6.048   5.078
 7251SOL    HW222653   0.568   6.143   5.206
 7252SOL     OW22654   2.983   3.923   2.293
 7252SOL    HW122655   3.008   3.984   2.368
 7252SOL    HW222656   2.931   3.845   2.328
 7253SOL     OW22657   1.095   5.639   5.369
 7253SOL    HW122658   1.176   5.630   5.310
 7253SOL    HW222659   1.083   5.555   5.421
 7254SOL     OW22660   5.269   4.414   4.105
 7254SOL    HW122661   5.192   4.456   4.152
 7254SOL    HW222662   5.333   4.378   4.173
 7255SOL     OW22663   5.182   2.783   6.636
 7255SOL    HW122664   5.247   2.714   6.668
 7255SOL    HW222665   5.128   2.744   6.561
 7256SOL     OW22666   3.603   6.768   6.158
 7256SOL    HW122667   3.700   6.760   6.137
 7256SOL    HW222668   3.592   6.815   6.246
 7257SOL     OW22669   0.600   1.466   4.595
 7257SOL    HW122670   0.641   1.556   4.607
 7257SOL    HW222671   0.618   1.410   4.676
 7258SOL     OW22672   6.123   2.169   2.642
 7258SOL    HW122673   6.202   2.218   2.680
 7258SOL    HW222674   6.061   2.143   2.716
 7259SOL     OW22675   0.821   3.597   3.237
 7259SOL    HW122676   0.792   3.683   3.278
 7259SOL    HW222677   0.741   3.538   3.225
 7260SOL     OW22678   5.320   2.667   0.741
 7260SOL    HW122679   5.222   2.672   0.720
 7260SOL    HW222680   5.339   2.722   0.823
 7261SOL     OW22681   0.395   4.031   0.656
 7261SOL    HW122682   0.380   3.968   0.580
 7261SOL    HW222683   0.308   4.066   0.689
 7262SOL     OW22684   5.502   1.870   5.847
 7262SOL    HW122685   5.508   1.930   5.767
 7262SOL    HW222686   5.424   1.809   5.837
 7263SOL     OW22687   0.345   6.263   0.320
 7263SOL    HW122688   0.259   6.245   0.367
 7263SOL    HW222689   0.326   6.310   0.233
 7264SOL     OW22690   5.743   1.435   0.315
 7264SOL    HW122691   5.808   1.502   0.351
 7264SOL    HW222692   5.652   1.455   0.351
 7265SOL     OW22693   4.884   6.064   4.567
 7265SOL    HW122694   4.931   6.045   4.481
 7265SOL    HW222695   4.799   6.114   4.549
 7266SOL     OW22696   0.070   0.869   3.929
 7266SOL    HW122697   6.991   0.848   3.943
 7266SOL    HW222698   0.113   0.886   4.017
 7267SOL     OW22699   6.528   5.909   5.196
 7267SOL    HW122700   6.432   5.925   5.177
 7267SOL    HW222701   6.574   5.996   5.213
 7268SOL     OW22702   6.243   6.049   4.630
 7268SOL    HW122703   6.147   6.077   4.631
 7268SOL    HW222704   6.290   6.087   4.709
 7269SOL     OW22705   1.973   5.177   5.738
 7269SOL    HW122706   1.971   5.077   5.731
 7269SOL    HW222707   2.045   5.204   5.802
 7270SOL     OW22708   0.460   1.508   4.338
 7270SOL    HW122709   0.443   1.411   4.321
 7270SOL    HW222710   0.519   1.518   4.418
 7271SOL     OW22711   0.788   5.024   4.279
 7271SOL    HW122712   0.765   4.988   4.189
 7271SOL    HW222713   0.758   4.960   4.350
 7272SOL     OW22714   5.915   6.165   2.264
 7272SOL    HW122715   5.899   6.256   2.227
 7272SOL    HW222716   6.009   6.137   2.245
 7273SOL     OW22717   6.280   3.059   5.857
 7273SOL    HW122718   6.311   3.091   5.767
 7273SOL    HW222719   6.349   2.999   5.897
 7274SOL     OW22720   0.322   4.480   7.015
 7274SOL    HW122721   0.366   4.569   7.002
 7274SOL    HW222722   0.353   4.417   6.944
 7275SOL     OW22723   6.760   0.006   3.359
 7275SOL    HW122724   6.844   6.974   3.379
 7275SOL    HW222725   6.730   7.002   3.266
 7276SOL     OW22726   5.303   7.003   3.593
 7276SOL    HW122727   5.283   6.952   3.510
 7276SOL    HW222728   5.220   7.010   3.649
 7277SOL     OW22729   4.308   0.988   5.600
 7277SOL    HW122730   4.354   1.037   5.526
 7277SOL    HW222731   4.277   1.053   5.669
 7278SOL     OW22732   3.019   3.983   2.042
 7278SOL    HW122733   3.024   4.083   2.046
 7278SOL    HW222734   2.983   3.948   2.129
 7279SOL     OW22735   4.192   5.878   0.172
 7279SOL    HW122736   4.164   5.938   0.247
 7279SOL    HW222737   4.277   5.831   0.195
 7280SOL     OW22738   4.803   6.619   4.903
 7280SOL    HW122739   4.805   6.604   4.804
 7280SOL    HW222740   4.887   6.666   4.931
 7281SOL     OW22741   3.684   2.405   6.569
 7281SOL    HW122742   3.675   2.420   6.470
 7281SOL    HW222743   3.730   2.318   6.585
 7282SOL     OW22744   5.594   5.285   2.502
 7282SOL    HW122745   5.500   5.277   2.535
 7282SOL    HW222746   5.646   5.344   2.564
 7283SOL     OW22747   2.925   0.981   2.927
 7283SOL    HW122748   2.960   0.921   2.855
 7283SOL    HW222749   2.924   1.075   2.893
 7284SOL     OW22750   6.700   3.707   5.446
 7284SOL    HW122751   6.718   3.779   5.380
 7284SOL    HW222752   6.612   3.664   5.426
 7285SOL     OW22753   4.615   5.315   2.239
 7285SOL    HW122754   4.607   5.415   2.241
 7285SOL    HW222755   4.589   5.278   2.328
 7286SOL     OW22756   2.358   2.525   0.920
 7286SOL    HW122757   2.304   2.460   0.867
 7286SOL    HW222758   2.299   2.597   0.955
 7287SOL     OW22759   6.496   1.453   6.632
 7287SOL    HW122760   6.452   1.372   6.671
 7287SOL    HW222761   6.466   1.534   6.683
 7288SOL     OW22762   3.874   0.780   6.364
 7288SOL    HW122763   3.926   0.841   6.424
 7288SOL    HW222764   3.832   0.833   6.290
 7289SOL     OW22765   5.920   1.185   3.171
 7289SOL    HW122766   5.981   1.191   3.092
 7289SOL    HW222767   5.937   1.263   3.232
 7290SOL     OW22768   2.604   5.445   5.677
 7290SOL    HW122769   2.592   5.516   5.607
 7290SOL    HW222770   2.520   5.438   5.732
 7291SOL     OW22771   2.041   6.867   1.424
 7291SOL    HW122772   1.976   6.932   1.385
 7291SOL    HW222773   2.071   6.804   1.352
 7292SOL     OW22774   2.972   6.759   3.223
 7292SOL    HW122775   3.012   6.717   3.305
 7292SOL    HW222776   2.949   6.687   3.157
 7293SOL     OW22777   2.016   1.479   5.032
 7293SOL    HW122778   1.988   1.572   5.056
 7293SOL    HW222779   1.938   1.428   4.996
 7294SOL     OW22780   2.872   5.557   0.227
 7294SOL    HW122781   2.827   5.475   0.262
 7294SOL    HW222782   2.849   5.568   0.130
 7295SOL     OW22783   0.581   1.950   0.568
 7295SOL    HW122784   0.495   1.906   0.595
 7295SOL    HW222785   0.562   2.027   0.507
 7296SOL     OW22786   3.206   5.050   0.984
 7296SOL    HW122787   3.219   5.136   0.934
 7296SOL    HW222788   3.267   5.048   1.063
 7297SOL     OW22789   3.854   5.923   0.587
 7297SOL    HW122790   3.784   5.941   0.518
 7297SOL    HW222791   3.838   5.983   0.666
 7298SOL     OW22792   5.580   4.335   4.631
 7298SOL    HW122793   5.650   4.386   4.680
 7298SOL    HW222794   5.495   4.388   4.628
 7299SOL     OW22795   0.208   2.194   0.088
 7299SOL    HW122796   0.269   2.264   0.050
 7299SOL    HW222797   0.119   2.234   0.109
 7300SOL     OW22798   5.295   5.577   1.256
 7300SOL    HW122799   5.228   5.505   1.239
 7300SOL    HW222800   5.251   5.666   1.254
 7301SOL     OW22801   6.714   0.393   5.244
 7301SOL    HW122802   6.618   0.369   5.239
 7301SOL    HW222803   6.726   0.488   5.215
 7302SOL     OW22804   0.182   1.561   7.001
 7302SOL    HW122805   0.094   1.563   0.030
 7302SOL    HW222806   0.209   1.466   6.986
 7303SOL     OW22807   4.734   0.546   6.991
 7303SOL    HW122808   4.815   0.499   6.956
 7303SOL    HW222809   4.728   0.638   6.952
 7304SOL     OW22810   4.172   4.120   6.698
 7304SOL    HW122811   4.193   4.200   6.642
 7304SOL    HW222812   4.085   4.080   6.670
 7305SOL     OW22813   5.204   1.903   0.219
 7305SOL    HW122814   5.243   1.811   0.210
 7305SOL    HW222815   5.271   1.964   0.260
 7306SOL     OW22816   4.908   3.743   1.656
 7306SOL    HW122817   4.819   3.698   1.670
 7306SOL    HW222818   4.957   3.746   1.743
 7307SOL     OW22819   2.851   6.637   1.826
 7307SOL    HW122820   2.916   6.671   1.757
 7307SOL    HW222821   2.899   6.579   1.892
 7308SOL     OW22822   6.913   3.489   5.191
 7308SOL    HW122823   6.976   3.521   5.262
 7308SOL    HW222824   6.961   3.428   5.128
 7309SOL     OW22825   4.959   5.994   0.431
 7309SOL    HW122826   5.016   6.072   0.405
 7309SOL    HW222827   4.984   5.915   0.376
 7310SOL     OW22828   2.140   4.955   0.891
 7310SOL    HW122829   2.099   4.941   0.981
 7310SOL    HW222830   2.193   4.875   0.865
 7311SOL     OW22831   3.009   1.739   2.205
 7311SOL    HW122832   3.009   1.710   2.300
 7311SOL    HW222833   2.931   1.800   2.188
 7312SOL     OW22834   6.968   2.288   5.434
 7312SOL    HW122835   6.921   2.371   5.462
 7312SOL    HW222836   0.015   2.260   5.506
 7313SOL     OW22837   4.457   2.871   6.222
 7313SOL    HW122838   4.485   2.966   6.233
 7313SOL    HW222839   4.387   2.865   6.151
 7314SOL     OW22840   6.263   3.347   4.908
 7314SOL    HW122841   6.286   3.346   5.005
 7314SOL    HW222842   6.173   3.306   4.895
 7315SOL     OW22843   6.174   0.058   4.079
 7315SOL    HW122844   6.239   0.102   4.140
 7315SOL    HW222845   6.104   0.123   4.052
 7316SOL     OW22846   3.477   3.036   5.201
 7316SOL    HW122847   3.463   3.077   5.291
 7316SOL    HW222848   3.529   3.099   5.143
 7317SOL     OW22849   4.015   0.365   2.177
 7317SOL    HW122850   4.112   0.378   2.198
 7317SOL    HW222851   3.975   0.305   2.246
 7318SOL     OW22852   1.330   1.314   1.562
 7318SOL    HW122853   1.418   1.345   1.526
 7318SOL    HW222854   1.308   1.224   1.524
 7319SOL     OW22855   6.883   4.266   6.994
 7319SOL    HW122856   6.863   4.294   6.900
 7319SOL    HW222857   6.848   4.336   0.039
 7320SOL     OW22858   6.773   3.564   2.079
 7320SOL    HW122859   6.707   3.637   2.066
 7320SOL    HW222860   6.778   3.507   1.997
 7321SOL     OW22861   2.639   0.593   5.174
 7321SOL    HW122862   2.709   0.659   5.148
 7321SOL    HW222863   2.550   0.624   5.139
 7322SOL     OW22864   1.230   3.126   2.652
 7322SOL    HW122865   1.130   3.135   2.655
 7322SOL    HW222866   1.255   3.041   2.606
 7323SOL     OW22867   2.098   1.637   2.722
 7323SOL    HW122868   2.124   1.541   2.718
 7323SOL    HW222869   2.009   1.651   2.678
 7324SOL     OW22870   5.656   0.027   3.018
 7324SOL    HW122871   5.672   0.029   3.117
 7324SOL    HW222872   5.699   0.107   2.976
 7325SOL     OW22873   3.903   0.307   6.162
 7325SOL    HW122874   3.906   0.357   6.249
 7325SOL    HW222875   3.986   0.252   6.152
 7326SOL     OW22876   2.474   5.980   5.376
 7326SOL    HW122877   2.440   5.920   5.448
 7326SOL    HW222878   2.444   5.946   5.287
 7327SOL     OW22879   0.196   2.773   5.562
 7327SOL    HW122880   0.275   2.774   5.500
 7327SOL    HW222881   0.144   2.689   5.547
 7328SOL     OW22882   3.713   0.332   0.058
 7328SOL    HW122883   3.768   0.415   0.051
 7328SOL    HW222884   3.706   0.288   6.987
 7329SOL     OW22885   4.370   3.790   1.222
 7329SOL    HW122886   4.381   3.759   1.316
 7329SOL    HW222887   4.459   3.812   1.183
 7330SOL     OW22888   3.062   1.882   0.159
 7330SOL    HW122889   3.054   1.878   0.059
 7330SOL    HW222890   3.119   1.806   0.191
 7331SOL     OW22891   5.282   0.817   1.945
 7331SOL    HW122892   5.310   0.890   2.007
 7331SOL    HW222893   5.320   0.834   1.854
 7332SOL     OW22894   2.592   6.156   0.155
 7332SOL    HW122895   2.585   6.182   0.059
 7332SOL    HW222896   2.562   6.062   0.167
 7333SOL     OW22897   0.520   3.624   3.824
 7333SOL    HW122898   0.440   3.584   3.780
 7333SOL    HW222899   0.496   3.714   3.861
 7334SOL     OW22900   4.254   5.939   5.633
 7334SOL    HW122901   4.292   6.018   5.681
 7334SOL    HW222902   4.195   5.888   5.696
 7335SOL     OW22903   1.688   2.832   2.516
 7335SOL    HW122904   1.778   2.816   2.476
 7335SOL    HW222905   1.697   2.886   2.599
 7336SOL     OW22906   1.350   6.655   3.167
 7336SOL    HW122907   1.277   6.724   3.169
 7336SOL    HW222908   1.432   6.692   3.210
 7337SOL     OW22909   1.295   2.887   1.942
 7337SOL    HW122910   1.318   2.958   1.875
 7337SOL    HW222911   1.276   2.929   2.031
 7338SOL     OW22912   6.278   2.480   1.167
 7338SOL    HW122913   6.311   2.386   1.168
 7338SOL    HW222914   6.248   2.506   1.258
 7339SOL     OW22915   5.986   6.303   3.943
 7339SOL    HW122916   6.003   6.236   4.016
 7339SOL    HW222917   5.992   6.395   3.980
 7340SOL     OW22918   2.195   0.307   0.554
 7340SOL    HW122919   2.131   0.373   0.593
 7340SOL    HW222920   2.147   0.222   0.532
 7341SOL     OW22921   6.726   1.934   0.112
 7341SOL    HW122922   6.811   1.888   0.086
 7341SOL    HW222923   6.691   1.985   0.034
 7342SOL     OW22924   6.755   0.131   2.152
 7342SOL    HW122925   6.817   0.194   2.197
 7342SOL    HW222926   6.779   0.036   2.175
 7343SOL     OW22927   4.570   2.941   0.233
 7343SOL    HW122928   4.483   2.989   0.226
 7343SOL    HW222929   4.555   2.843   0.221
 7344SOL     OW22930   1.118   6.945   5.983
 7344SOL    HW122931   1.124   6.857   5.936
 7344SOL    HW222932   1.209   6.986   5.990
 7345SOL     OW22933   3.507   3.404   5.308
 7345SOL    HW122934   3.583   3.340   5.313
 7345SOL    HW222935   3.539   3.492   5.274
 7346SOL     OW22936   3.805   6.520   2.855
 7346SOL    HW122937   3.710   6.509   2.885
 7346SOL    HW222938   3.810   6.512   2.756
 7347SOL     OW22939   0.010   2.428   0.237
 7347SOL    HW122940   7.013   2.330   0.250
 7347SOL    HW222941   6.945   2.469   0.198
 7348SOL     OW22942   1.419   3.696   3.421
 7348SOL    HW122943   1.352   3.624   3.439
 7348SOL    HW222944   1.504   3.655   3.387
 7349SOL     OW22945   4.158   0.383   1.085
 7349SOL    HW122946   4.132   0.291   1.055
 7349SOL    HW222947   4.250   0.381   1.124
 7350SOL     OW22948   2.528   0.458   5.646
 7350SOL    HW122949   2.505   0.383   5.583
 7350SOL    HW222950   2.567   0.534   5.595
 7351SOL     OW22951   4.672   4.727   3.938
 7351SOL    HW122952   4.616   4.794   3.987
 7351SOL    HW222953   4.744   4.774   3.888
 7352SOL     OW22954   0.308   1.814   3.298
 7352SOL    HW122955   0.388   1.760   3.272
 7352SOL    HW222956   0.311   1.903   3.254
 7353SOL     OW22957   5.901   0.381   6.492
 7353SOL    HW122958   5.844   0.442   6.438
 7353SOL    HW222959   5.935   0.429   6.573
 7354SOL     OW22960   1.788   0.709   3.851
 7354SOL    HW122961   1.769   0.692   3.754
 7354SOL    HW222962   1.799   0.622   3.899
 7355SOL     OW22963   6.886   2.111   6.309
 7355SOL    HW122964   6.824   2.099   6.387
 7355SOL    HW222965   6.954   2.037   6.309
 7356SOL     OW22966   3.898   3.677   5.876
 7356SOL    HW122967   3.948   3.609   5.930
 7356SOL    HW222968   3.828   3.631   5.821
 7357SOL     OW22969   4.366   6.193   1.248
 7357SOL    HW122970   4.393   6.126   1.317
 7357SOL    HW222971   4.415   6.279   1.264
 7358SOL     OW22972   6.204   2.558   1.978
 7358SOL    HW122973   6.157   2.480   1.937
 7358SOL    HW222974   6.286   2.579   1.925
 7359SOL     OW22975   4.275   1.320   6.152
 7359SOL    HW122976   4.175   1.320   6.164
 7359SOL    HW222977   4.297   1.331   6.055
 7360SOL     OW22978   2.404   3.454   5.509
 7360SOL    HW122979   2.316   3.437   5.466
 7360SOL    HW222980   2.477   3.444   5.441
 7361SOL     OW22981   5.392   0.417   2.418
 7361SOL    HW122982   5.400   0.321   2.443
 7361SOL    HW222983   5.391   0.473   2.501
 7362SOL     OW22984   4.156   5.010   5.653
 7362SOL    HW122985   4.082   5.064   5.613
 7362SOL    HW222986   4.198   5.061   5.728
 7363SOL     OW22987   4.276   1.394   1.615
 7363SOL    HW122988   4.246   1.477   1.663
 7363SOL    HW222989   4.296   1.322   1.681
 7364SOL     OW22990   4.393   6.943   1.838
 7364SOL    HW122991   4.440   6.896   1.763
 7364SOL    HW222992   4.337   6.878   1.889
 7365SOL     OW22993   6.331   5.403   3.059
 7365SOL    HW122994   6.351   5.471   2.988
 7365SOL    HW222995   6.253   5.433   3.113
 7366SOL     OW22996   2.408   0.557   4.422
 7366SOL    HW122997   2.317   0.557   4.381
 7366SOL    HW222998   2.401   0.542   4.520
 7367SOL     OW22999   4.688   1.526   7.011
 7367SOL    HW123000   4.730   1.606   0.036
 7367SOL    HW223001   4.756   1.454   7.001
 7368SOL     OW23002   3.878   3.458   2.625
 7368SOL    HW123003   3.844   3.370   2.591
 7368SOL    HW223004   3.957   3.443   2.683
 7369SOL     OW23005   4.378   2.648   0.875
 7369SOL    HW123006   4.399   2.567   0.930
 7369SOL    HW223007   4.286   2.640   0.837
 7370SOL     OW23008   2.485   1.604   5.015
 7370SOL    HW123009   2.462   1.672   4.945
 7370SOL    HW223010   2.480   1.646   5.105
 7371SOL     OW23011   3.536   6.853   3.656
 7371SOL    HW123012   3.454   6.875   3.709
 7371SOL    HW223013   3.594   6.791   3.709
 7372SOL     OW23014   3.418   0.058   4.533
 7372SOL    HW123015   3.357   0.034   4.609
 7372SOL    HW223016   3.369   0.048   4.447
 7373SOL     OW23017   4.475   2.057   4.857
 7373SOL    HW123018   4.572   2.031   4.850
 7373SOL    HW223019   4.461   2.145   4.813
 7374SOL     OW23020   1.288   1.828   5.081
 7374SOL    HW123021   1.309   1.905   5.021
 7374SOL    HW223022   1.196   1.839   5.119
 7375SOL     OW23023   2.118   3.260   2.303
 7375SOL    HW123024   2.121   3.181   2.241
 7375SOL    HW223025   2.076   3.337   2.256
 7376SOL     OW23026   0.747   3.510   0.963
 7376SOL    HW123027   0.711   3.603   0.975
 7376SOL    HW223028   0.809   3.488   1.038
 7377SOL     OW23029   3.236   4.926   0.374
 7377SOL    HW123030   3.265   4.888   0.286
 7377SOL    HW223031   3.258   5.023   0.378
 7378SOL     OW23032   1.871   6.662   3.884
 7378SOL    HW123033   1.851   6.581   3.939
 7378SOL    HW223034   1.966   6.690   3.899
 7379SOL     OW23035   3.657   0.654   1.302
 7379SOL    HW123036   3.643   0.731   1.239
 7379SOL    HW223037   3.667   0.688   1.395
 7380SOL     OW23038   6.302   4.180   3.213
 7380SOL    HW123039   6.217   4.210   3.255
 7380SOL    HW223040   6.331   4.094   3.253
 7381SOL     OW23041   4.355   1.496   0.268
 7381SOL    HW123042   4.279   1.477   0.330
 7381SOL    HW223043   4.354   1.593   0.244
 7382SOL     OW23044   6.644   1.540   5.841
 7382SOL    HW123045   6.650   1.610   5.770
 7382SOL    HW223046   6.554   1.496   5.837
 7383SOL     OW23047   1.794   6.788   1.603
 7383SOL    HW123048   1.764   6.750   1.515
 7383SOL    HW223049   1.894   6.796   1.603
 7384SOL     OW23050   0.597   6.718   1.146
 7384SOL    HW123051   0.591   6.782   1.223
 7384SOL    HW223052   0.675   6.657   1.160
 7385SOL     OW23053   3.783   5.316   2.550
 7385SOL    HW123054   3.865   5.331   2.604
 7385SOL    HW223055   3.730   5.241   2.589
 7386SOL     OW23056   6.730   3.420   0.005
 7386SOL    HW123057   6.648   3.363   0.006
 7386SOL    HW223058   6.810   3.365   6.999
 7387SOL     OW23059   6.485   4.637   5.555
 7387SOL    HW123060   6.525   4.548   5.575
 7387SOL    HW223061   6.498   4.698   5.633
 7388SOL     OW23062   1.421   6.230   2.400
 7388SOL    HW123063   1.416   6.164   2.476
 7388SOL    HW223064   1.498   6.292   2.415
 7389SOL     OW23065   6.811   3.341   0.507
 7389SOL    HW123066   6.713   3.328   0.521
 7389SOL    HW223067   6.848   3.400   0.578
 7390SOL     OW23068   2.389   1.894   3.106
 7390SOL    HW123069   2.416   1.980   3.149
 7390SOL    HW223070   2.372   1.826   3.177
 7391SOL     OW23071   4.164   3.479   2.743
 7391SOL    HW123072   4.129   3.513   2.830
 7391SOL    HW223073   4.167   3.379   2.746
 7392SOL     OW23074   3.943   5.801   6.355
 7392SOL    HW123075   4.018   5.854   6.318
 7392SOL    HW223076   3.961   5.777   6.450
 7393SOL     OW23077   6.316   4.845   4.086
 7393SOL    HW123078   6.323   4.761   4.140
 7393SOL    HW223079   6.236   4.839   4.026
 7394SOL     OW23080   2.142   2.466   6.284
 7394SOL    HW123081   2.091   2.547   6.315
 7394SOL    HW223082   2.176   2.416   6.363
 7395SOL     OW23083   2.075   3.646   1.317
 7395SOL    HW123084   2.113   3.736   1.339
 7395SOL    HW223085   2.060   3.594   1.402
 7396SOL     OW23086   3.071   5.054   1.568
 7396SOL    HW123087   3.097   4.958   1.554
 7396SOL    HW223088   2.978   5.058   1.605
 7397SOL     OW23089   5.381   4.084   4.628
 7397SOL    HW123090   5.364   4.062   4.724
 7397SOL    HW223091   5.442   4.164   4.623
 7398SOL     OW23092   1.731   4.366   3.357
 7398SOL    HW123093   1.686   4.284   3.322
 7398SOL    HW223094   1.748   4.356   3.455
 7399SOL     OW23095   5.869   2.555   4.635
 7399SOL    HW123096   5.854   2.625   4.705
 7399SOL    HW223097   5.938   2.587   4.570
 7400SOL     OW23098   5.576   2.350   5.144
 7400SOL    HW123099   5.497   2.309   5.098
 7400SOL    HW223100   5.558   2.447   5.160
 7401SOL     OW23101   1.520   3.208   3.076
 7401SOL    HW123102   1.606   3.229   3.029
 7401SOL    HW223103   1.515   3.110   3.093
 7402SOL     OW23104   2.953   5.369   5.057
 7402SOL    HW123105   3.001   5.451   5.090
 7402SOL    HW223106   3.008   5.288   5.079
 7403SOL     OW23107   1.722   2.947   3.616
 7403SOL    HW123108   1.640   2.969   3.563
 7403SOL    HW223109   1.696   2.927   3.711
 7404SOL     OW23110   3.135   3.999   1.481
 7404SOL    HW123111   3.037   4.016   1.483
 7404SOL    HW223112   3.180   4.068   1.425
 7405SOL     OW23113   3.002   5.608   5.225
 7405SOL    HW123114   3.043   5.547   5.293
 7405SOL    HW223115   3.059   5.689   5.215
 7406SOL     OW23116   0.375   1.229   5.086
 7406SOL    HW123117   0.440   1.301   5.062
 7406SOL    HW223118   0.314   1.261   5.158
 7407SOL     OW23119   0.956   5.876   6.765
 7407SOL    HW123120   0.910   5.948   6.817
 7407SOL    HW223121   0.910   5.789   6.780
 7408SOL     OW23122   3.434   4.087   5.024
 7408SOL    HW123123   3.350   4.097   5.078
 7408SOL    HW223124   3.449   3.990   5.004
 7409SOL     OW23125   5.993   4.219   0.808
 7409SOL    HW123126   5.930   4.267   0.746
 7409SOL    HW223127   6.073   4.189   0.756
 7410SOL     OW23128   0.050   0.120   0.802
 7410SOL    HW123129   0.125   0.092   0.862
 7410SOL    HW223130   6.984   0.127   0.856
 7411SOL     OW23131   0.921   1.620   5.873
 7411SOL    HW123132   0.993   1.630   5.941
 7411SOL    HW223133   0.921   1.699   5.811
 7412SOL     OW23134   3.715   0.051   0.101
 7412SOL    HW123135   3.675   0.139   0.076
 7412SOL    HW223136   3.646   6.997   0.091
 7413SOL     OW23137   4.094   5.388   3.585
 7413SOL    HW123138   4.180   5.337   3.589
 7413SOL    HW223139   4.038   5.366   3.666
 7414SOL     OW23140   2.399   1.981   4.666
 7414SOL    HW123141   2.478   1.923   4.684
 7414SOL    HW223142   2.379   2.037   4.746
 7415SOL     OW23143   3.639   6.907   6.388
 7415SOL    HW123144   3.620   6.921   6.485
 7415SOL    HW223145   3.737   6.899   6.373
 7416SOL     OW23146   0.975   1.707   2.448
 7416SOL    HW123147   0.893   1.717   2.504
 7416SOL    HW223148   1.038   1.782   2.468
 7417SOL     OW23149   0.889   2.242   3.386
 7417SOL    HW123150   0.795   2.265   3.412
 7417SOL    HW223151   0.890   2.208   3.292
 7418SOL     OW23152   1.755   4.206   6.171
 7418SOL    HW123153   1.717   4.178   6.259
 7418SOL    HW223154   1.749   4.130   6.106
 7419SOL     OW23155   6.381   3.962   3.648
 7419SOL    HW123156   6.479   3.979   3.660
 7419SOL    HW223157   6.366   3.923   3.557
 7420SOL     OW23158   0.030   6.665   2.053
 7420SOL    HW123159   6.981   6.633   2.120
 7420SOL    HW223160   7.001   6.689   1.968
 7421SOL     OW23161   4.666   3.431   1.724
 7421SOL    HW123162   4.653   3.530   1.716
 7421SOL    HW223163   4.577   3.388   1.741
 7422SOL     OW23164   5.979   2.762   2.077
 7422SOL    HW123165   5.928   2.677   2.085
 7422SOL    HW223166   5.936   2.833   2.133
 7423SOL     OW23167   5.863   2.054   5.275
 7423SOL    HW123168   5.919   2.002   5.210
 7423SOL    HW223169   5.797   1.993   5.318
 7424SOL     OW23170   6.914   0.770   5.190
 7424SOL    HW123171   6.904   0.860   5.146
 7424SOL    HW223172   6.979   0.777   5.265
 7425SOL     OW23173   5.485   6.804   0.495
 7425SOL    HW123174   5.444   6.776   0.408
 7425SOL    HW223175   5.443   6.890   0.525
 7426SOL     OW23176   3.572   2.718   5.965
 7426SOL    HW123177   3.554   2.810   5.930
 7426SOL    HW223178   3.644   2.722   6.035
 7427SOL     OW23179   3.519   1.226   3.848
 7427SOL    HW123180   3.452   1.294   3.817
 7427SOL    HW223181   3.538   1.162   3.774
 7428SOL     OW23182   4.178   6.864   5.826
 7428SOL    HW123183   4.108   6.792   5.823
 7428SOL    HW223184   4.200   6.884   5.922
 7429SOL     OW23185   1.374   0.081   2.556
 7429SOL    HW123186   1.463   0.090   2.600
 7429SOL    HW223187   1.344   7.004   2.561
 7430SOL     OW23188   0.112   4.835   3.320
 7430SOL    HW123189   0.194   4.813   3.373
 7430SOL    HW223190   0.062   4.909   3.364
 7431SOL     OW23191   1.940   2.325   4.512
 7431SOL    HW123192   2.012   2.275   4.465
 7431SOL    HW223193   1.966   2.421   4.520
 7432SOL     OW23194   2.120   6.975   3.574
 7432SOL    HW123195   2.187   6.959   3.502
 7432SOL    HW223196   2.134   0.049   3.613
 7433SOL     OW23197   2.956   6.399   6.274
 7433SOL    HW123198   2.982   6.431   6.366
 7433SOL    HW223199   2.860   6.419   6.258
 7434SOL     OW23200   4.397   6.162   5.736
 7434SOL    HW123201   4.410   6.226   5.812
 7434SOL    HW223202   4.357   6.210   5.658
 7435SOL     OW23203   4.658   6.585   2.338
 7435SOL    HW123204   4.571   6.597   2.289
 7435SOL    HW223205   4.714   6.667   2.328
 7436SOL     OW23206   5.106   3.612   6.519
 7436SOL    HW123207   5.043   3.564   6.580
 7436SOL    HW223208   5.179   3.654   6.574
 7437SOL     OW23209   3.458   6.210   1.252
 7437SOL    HW123210   3.360   6.213   1.270
 7437SOL    HW223211   3.505   6.173   1.333
 7438SOL     OW23212   2.260   0.996   0.779
 7438SOL    HW123213   2.266   0.955   0.870
 7438SOL    HW223214   2.347   0.981   0.731
 7439SOL     OW23215   1.611   4.936   6.297
 7439SOL    HW123216   1.527   4.988   6.284
 7439SOL    HW223217   1.588   4.843   6.324
 7440SOL     OW23218   4.916   3.141   3.955
 7440SOL    HW123219   4.937   3.158   4.051
 7440SOL    HW223220   4.956   3.213   3.898
 7441SOL     OW23221   5.715   6.119   1.876
 7441SOL    HW123222   5.808   6.087   1.892
 7441SOL    HW223223   5.655   6.087   1.950
 7442SOL     OW23224   5.474   0.279   5.732
 7442SOL    HW123225   5.534   0.210   5.691
 7442SOL    HW223226   5.380   0.263   5.703
 7443SOL     OW23227   0.174   6.279   2.378
 7443SOL    HW123228   0.231   6.197   2.374
 7443SOL    HW223229   0.181   6.329   2.292
 7444SOL     OW23230   0.841   0.451   6.026
 7444SOL    HW123231   0.789   0.397   6.092
 7444SOL    HW223232   0.897   0.390   5.970
 7445SOL     OW23233   4.484   6.300   2.129
 7445SOL    HW123234   4.467   6.299   2.228
 7445SOL    HW223235   4.558   6.237   2.108
 7446SOL     OW23236   5.105   3.410   0.825
 7446SOL    HW123237   5.092   3.356   0.742
 7446SOL    HW223238   5.020   3.412   0.877
 7447SOL     OW23239   0.776   3.938   0.659
 7447SOL    HW123240   0.742   3.858   0.610
 7447SOL    HW223241   0.873   3.952   0.637
 7448SOL     OW23242   4.989   5.690   6.059
 7448SOL    HW123243   5.051   5.734   5.994
 7448SOL    HW223244   5.020   5.596   6.075
 7449SOL     OW23245   0.489   4.395   6.792
 7449SOL    HW123246   0.431   4.467   6.754
 7449SOL    HW223247   0.510   4.328   6.721
 7450SOL     OW23248   5.316   1.711   5.518
 7450SOL    HW123249   5.414   1.709   5.498
 7450SOL    HW223250   5.264   1.701   5.434
 7451SOL     OW23251   6.028   5.172   2.538
 7451SOL    HW123252   6.014   5.252   2.479
 7451SOL    HW223253   6.062   5.202   2.627
 7452SOL     OW23254   4.981   6.568   5.114
 7452SOL    HW123255   4.905   6.515   5.153
 7452SOL    HW223256   5.066   6.541   5.159
 7453SOL     OW23257   4.168   5.477   6.358
 7453SOL    HW123258   4.155   5.379   6.341
 7453SOL    HW223259   4.125   5.530   6.285
 7454SOL     OW23260   3.742   2.085   0.659
 7454SOL    HW123261   3.671   2.154   0.646
 7454SOL    HW223262   3.703   1.994   0.647
 7455SOL     OW23263   5.739   2.940   2.750
 7455SOL    HW123264   5.692   3.005   2.690
 7455SOL    HW223265   5.693   2.851   2.746
 7456SOL     OW23266   2.733   1.949   5.447
 7456SOL    HW123267   2.700   1.976   5.537
 7456SOL    HW223268   2.799   1.874   5.456
 7457SOL     OW23269   2.653   0.175   3.230
 7457SOL    HW123270   2.738   0.141   3.270
 7457SOL    HW223271   2.628   0.118   3.151
 7458SOL     OW23272   0.607   6.703   5.147
 7458SOL    HW123273   0.639   6.613   5.119
 7458SOL    HW223274   0.671   6.773   5.112
 7459SOL     OW23275   6.101   0.947   2.700
 7459SOL    HW123276   6.195   0.926   2.675
 7459SOL    HW223277   6.076   1.036   2.662
 7460SOL     OW23278   1.049   6.990   0.910
 7460SOL    HW123279   1.032   6.927   0.986
 7460SOL    HW223280   1.043   0.066   0.942
 7461SOL     OW23281   0.828   5.852   6.001
 7461SOL    HW123282   0.882   5.936   6.011
 7461SOL    HW223283   0.865   5.798   5.926
 7462SOL     OW23284   1.211   5.472   1.338
 7462SOL    HW123285   1.287   5.535   1.354
 7462SOL    HW223286   1.214   5.440   1.243
 7463SOL     OW23287   4.475   4.641   0.187
 7463SOL    HW123288   4.383   4.614   0.157
 7463SOL    HW223289   4.476   4.739   0.208
 7464SOL     OW23290   6.338   5.264   5.057
 7464SOL    HW123291   6.316   5.166   5.059
 7464SOL    HW223292   6.437   5.276   5.049
 7465SOL     OW23293   2.431   5.181   0.135
 7465SOL    HW123294   2.480   5.269   0.138
 7465SOL    HW223295   2.343   5.191   0.180
 7466SOL     OW23296   0.867   6.765   4.995
 7466SOL    HW123297   0.935   6.804   4.933
 7466SOL    HW223298   0.796   6.833   5.015
 7467SOL     OW23299   0.534   3.178   6.065
 7467SOL    HW123300   0.563   3.085   6.085
 7467SOL    HW223301   0.501   3.183   5.971
 7468SOL     OW23302   5.536   2.673   5.000
 7468SOL    HW123303   5.556   2.677   5.098
 7468SOL    HW223304   5.452   2.620   4.985
 7469SOL     OW23305   6.622   2.320   0.195
 7469SOL    HW123306   6.714   2.293   0.167
 7469SOL    HW223307   6.627   2.379   0.275
 7470SOL     OW23308   5.496   3.619   4.199
 7470SOL    HW123309   5.507   3.702   4.254
 7470SOL    HW223310   5.572   3.612   4.134
 7471SOL     OW23311   5.761   5.469   6.741
 7471SOL    HW123312   5.661   5.471   6.737
 7471SOL    HW223313   5.792   5.381   6.778
 7472SOL     OW23314   6.300   6.742   5.270
 7472SOL    HW123315   6.383   6.728   5.216
 7472SOL    HW223316   6.321   6.796   5.351
 7473SOL     OW23317   3.979   0.326   3.943
 7473SOL    HW123318   3.881   0.311   3.946
 7473SOL    HW223319   3.999   0.423   3.955
 7474SOL     OW23320   5.765   2.053   6.059
 7474SOL    HW123321   5.755   2.153   6.061
 7474SOL    HW223322   5.699   2.012   6.122
 7475SOL     OW23323   4.577   2.112   1.388
 7475SOL    HW123324   4.624   2.161   1.315
 7475SOL    HW223325   4.624   2.025   1.406
 7476SOL     OW23326   2.139   1.232   3.011
 7476SOL    HW123327   2.076   1.229   3.088
 7476SOL    HW223328   2.205   1.305   3.025
 7477SOL     OW23329   0.588   3.865   5.378
 7477SOL    HW123330   0.588   3.934   5.450
 7477SOL    HW223331   0.576   3.775   5.419
 7478SOL     OW23332   6.774   1.896   4.939
 7478SOL    HW123333   6.828   1.909   4.856
 7478SOL    HW223334   6.703   1.827   4.922
 7479SOL     OW23335   5.999   3.311   6.968
 7479SOL    HW123336   6.044   3.394   7.002
 7479SOL    HW223337   5.924   3.286   0.011
 7480SOL     OW23338   3.408   5.094   2.300
 7480SOL    HW123339   3.398   5.048   2.212
 7480SOL    HW223340   3.333   5.066   2.361
 7481SOL     OW23341   6.454   4.215   6.866
 7481SOL    HW123342   6.491   4.271   6.941
 7481SOL    HW223343   6.492   4.122   6.873
 7482SOL     OW23344   3.841   2.129   2.416
 7482SOL    HW123345   3.872   2.205   2.474
 7482SOL    HW223346   3.916   2.064   2.404
 7483SOL     OW23347   4.446   2.476   5.451
 7483SOL    HW123348   4.501   2.397   5.424
 7483SOL    HW223349   4.430   2.534   5.370
 7484SOL     OW23350   2.613   6.480   4.437
 7484SOL    HW123351   2.545   6.539   4.482
 7484SOL    HW223352   2.703   6.499   4.474
 7485SOL     OW23353   2.833   0.074   3.692
 7485SOL    HW123354   2.774   0.119   3.625
 7485SOL    HW223355   2.790   7.007   3.723
 7486SOL     OW23356   1.512   6.241   6.988
 7486SOL    HW123357   1.509   6.174   6.913
 7486SOL    HW223358   1.511   6.333   6.950
 7487SOL     OW23359   4.496   0.123   3.452
 7487SOL    HW123360   4.576   0.179   3.431
 7487SOL    HW223361   4.413   0.170   3.419
 7488SOL     OW23362   0.921   6.012   3.988
 7488SOL    HW123363   0.986   5.961   4.045
 7488SOL    HW223364   0.920   5.972   3.896
 7489SOL     OW23365   5.828   4.129   6.543
 7489SOL    HW123366   5.784   4.137   6.632
 7489SOL    HW223367   5.777   4.180   6.475
 7490SOL     OW23368   0.474   2.125   2.862
 7490SOL    HW123369   0.412   2.203   2.868
 7490SOL    HW223370   0.511   2.118   2.770
 7491SOL     OW23371   4.365   3.139   0.227
 7491SOL    HW123372   4.376   3.234   0.256
 7491SOL    HW223373   4.390   3.131   0.130
 7492SOL     OW23374   1.449   0.520   4.312
 7492SOL    HW123375   1.483   0.613   4.299
 7492SOL    HW223376   1.523   0.462   4.347
 7493SOL     OW23377   5.738   3.573   5.708
 7493SOL    HW123378   5.703   3.609   5.622
 7493SOL    HW223379   5.727   3.474   5.710
 7494SOL     OW23380   6.139   1.175   2.960
 7494SOL    HW123381   6.218   1.192   2.902
 7494SOL    HW223382   6.097   1.087   2.935
 7495SOL     OW23383   2.079   3.302   4.723
 7495SOL    HW123384   2.003   3.361   4.749
 7495SOL    HW223385   2.136   3.284   4.804
 7496SOL     OW23386   6.034   3.558   2.784
 7496SOL    HW123387   6.021   3.637   2.724
 7496SOL    HW223388   5.948   3.535   2.828
 7497SOL     OW23389   0.485   6.649   0.523
 7497SOL    HW123390   0.550   6.629   0.597
 7497SOL    HW223391   0.529   6.708   0.455
 7498SOL     OW23392   3.443   0.440   3.010
 7498SOL    HW123393   3.411   0.456   3.103
 7498SOL    HW223394   3.519   0.375   3.011
 7499SOL     OW23395   3.857   2.106   3.688
 7499SOL    HW123396   3.759   2.129   3.684
 7499SOL    HW223397   3.902   2.164   3.756
 7500SOL     OW23398   4.106   0.302   3.613
 7500SOL    HW123399   4.154   0.287   3.526
 7500SOL    HW223400   4.080   0.214   3.652
 7501SOL     OW23401   6.024   2.723   4.500
 7501SOL    HW123402   6.076   2.653   4.452
 7501SOL    HW223403   6.083   2.802   4.518
 7502SOL     OW23404   3.300   0.023   4.277
 7502SOL    HW123405   3.216   6.997   4.246
 7502SOL    HW223406   3.367   0.023   4.203
 7503SOL     OW23407   2.147   5.932   1.397
 7503SOL    HW123408   2.200   5.853   1.366
 7503SOL    HW223409   2.101   5.974   1.319
 7504SOL     OW23410   6.847   6.552   3.428
 7504SOL    HW123411   6.784   6.487   3.470
 7504SOL    HW223412   6.805   6.591   3.346
 7505SOL     OW23413   0.161   0.510   4.773
 7505SOL    HW123414   0.260   0.504   4.762
 7505SOL    HW223415   0.117   0.502   4.683
 7506SOL     OW23416   3.430   1.861   3.578
 7506SOL    HW123417   3.389   1.951   3.562
 7506SOL    HW223418   3.376   1.791   3.530
 7507SOL     OW23419   6.267   3.499   4.330
 7507SOL    HW123420   6.314   3.470   4.247
 7507SOL    HW223421   6.327   3.559   4.383
 7508SOL     OW23422   2.078   6.107   0.401
 7508SOL    HW123423   1.997   6.091   0.344
 7508SOL    HW223424   2.129   6.185   0.365
 7509SOL     OW23425   5.178   3.801   0.621
 7509SOL    HW123426   5.198   3.776   0.716
 7509SOL    HW223427   5.125   3.727   0.578
 7510SOL     OW23428   3.559   4.126   3.953
 7510SOL    HW123429   3.656   4.152   3.955
 7510SOL    HW223430   3.551   4.029   3.928
 7511SOL     OW23431   3.521   5.870   2.760
 7511SOL    HW123432   3.430   5.836   2.786
 7511SOL    HW223433   3.518   5.969   2.750
 7512SOL     OW23434   3.156   6.421   6.076
 7512SOL    HW123435   3.087   6.440   6.145
 7512SOL    HW223436   3.236   6.379   6.118
 7513SOL     OW23437   1.620   2.155   3.638
 7513SOL    HW123438   1.672   2.070   3.625
 7513SOL    HW223439   1.599   2.167   3.735
 7514SOL     OW23440   2.456   4.371   3.006
 7514SOL    HW123441   2.498   4.322   3.082
 7514SOL    HW223442   2.488   4.465   3.004
 7515SOL     OW23443   6.825   3.735   5.079
 7515SOL    HW123444   6.812   3.813   5.141
 7515SOL    HW223445   6.824   3.650   5.132
 7516SOL     OW23446   0.919   4.894   5.470
 7516SOL    HW123447   0.837   4.869   5.419
 7516SOL    HW223448   0.897   4.903   5.567
 7517SOL     OW23449   0.999   2.101   6.894
 7517SOL    HW123450   0.980   2.179   6.954
 7517SOL    HW223451   0.959   2.019   6.933
 7518SOL     OW23452   4.792   2.876   3.970
 7518SOL    HW123453   4.787   2.860   4.068
 7518SOL    HW223454   4.822   2.970   3.953
 7519SOL     OW23455   3.937   6.758   5.146
 7519SOL    HW123456   4.010   6.792   5.087
 7519SOL    HW223457   3.883   6.691   5.097
 7520SOL     OW23458   1.765   2.020   2.021
 7520SOL    HW123459   1.707   2.092   2.059
 7520SOL    HW223460   1.788   1.954   2.092
 7521SOL     OW23461   4.769   1.144   4.512
 7521SOL    HW123462   4.863   1.169   4.534
 7521SOL    HW223463   4.721   1.223   4.474
 7522SOL     OW23464   1.193   6.189   2.873
 7522SOL    HW123465   1.259   6.188   2.949
 7522SOL    HW223466   1.100   6.179   2.909
 7523SOL     OW23467   5.711   1.450   6.180
 7523SOL    HW123468   5.676   1.543   6.167
 7523SOL    HW223469   5.722   1.432   6.277
 7524SOL     OW23470   0.349   2.352   4.560
 7524SOL    HW123471   0.279   2.423   4.570
 7524SOL    HW223472   0.438   2.395   4.545
 7525SOL     OW23473   4.406   6.198   6.211
 7525SOL    HW123474   4.340   6.128   6.186
 7525SOL    HW223475   4.439   6.244   6.129
 7526SOL     OW23476   1.974   3.573   1.892
 7526SOL    HW123477   1.966   3.645   1.823
 7526SOL    HW223478   2.071   3.559   1.913
 7527SOL     OW23479   4.008   5.856   3.624
 7527SOL    HW123480   4.009   5.929   3.556
 7527SOL    HW223481   3.954   5.779   3.591
 7528SOL     OW23482   6.417   2.726   6.239
 7528SOL    HW123483   6.323   2.762   6.234
 7528SOL    HW223484   6.479   2.799   6.268
 7529SOL     OW23485   5.995   1.959   4.097
 7529SOL    HW123486   6.064   1.921   4.037
 7529SOL    HW223487   6.011   2.057   4.110
 7530SOL     OW23488   6.668   1.394   2.009
 7530SOL    HW123489   6.686   1.297   1.991
 7530SOL    HW223490   6.674   1.411   2.107
 7531SOL     OW23491   4.633   2.213   3.836
 7531SOL    HW123492   4.577   2.294   3.820
 7531SOL    HW223493   4.578   2.144   3.884
 7532SOL     OW23494   4.379   5.798   6.899
 7532SOL    HW123495   4.444   5.873   6.895
 7532SOL    HW223496   4.410   5.724   6.838
 7533SOL     OW23497   4.466   3.244   1.718
 7533SOL    HW123498   4.530   3.178   1.758
 7533SOL    HW223499   4.372   3.217   1.740
 7534SOL     OW23500   4.774   0.399   3.816
 7534SOL    HW123501   4.715   0.435   3.744
 7534SOL    HW223502   4.864   0.442   3.810
 7535SOL     OW23503   0.855   6.072   4.304
 7535SOL    HW123504   0.804   6.104   4.224
 7535SOL    HW223505   0.949   6.107   4.300
 7536SOL     OW23506   4.760   5.632   3.876
 7536SOL    HW123507   4.777   5.701   3.806
 7536SOL    HW223508   4.686   5.571   3.847
 7537SOL     OW23509   2.857   6.190   2.535
 7537SOL    HW123510   2.876   6.281   2.571
 7537SOL    HW223511   2.760   6.168   2.549
 7538SOL     OW23512   0.499   3.453   1.533
 7538SOL    HW123513   0.523   3.455   1.436
 7538SOL    HW223514   0.574   3.492   1.587
 7539SOL     OW23515   0.477   5.538   3.615
 7539SOL    HW123516   0.453   5.491   3.530
 7539SOL    HW223517   0.395   5.551   3.670
 7540SOL     OW23518   5.690   5.683   4.130
 7540SOL    HW123519   5.597   5.691   4.166
 7540SOL    HW223520   5.721   5.772   4.097
 7541SOL     OW23521   0.972   3.838   6.520
 7541SOL    HW123522   0.935   3.866   6.431
 7541SOL    HW223523   0.896   3.818   6.582
 7542SOL     OW23524   6.074   5.707   6.181
 7542SOL    HW123525   6.062   5.759   6.097
 7542SOL    HW223526   6.001   5.638   6.187
 7543SOL     OW23527   2.674   0.593   5.445
 7543SOL    HW123528   2.695   0.600   5.347
 7543SOL    HW223529   2.631   0.678   5.476
 7544SOL     OW23530   6.865   3.041   3.759
 7544SOL    HW123531   6.848   3.129   3.804
 7544SOL    HW223532   6.777   2.997   3.738
 7545SOL     OW23533   0.937   5.227   0.012
 7545SOL    HW123534   0.849   5.271   0.025
 7545SOL    HW223535   0.924   5.136   6.991
 7546SOL     OW23536   3.280   2.969   1.686
 7546SOL    HW123537   3.372   2.997   1.661
 7546SOL    HW223538   3.283   2.911   1.768
 7547SOL     OW23539   4.458   0.348   1.618
 7547SOL    HW123540   4.484   0.416   1.687
 7547SOL    HW223541   4.401   0.277   1.661
 7548SOL     OW23542   4.489   2.376   6.229
 7548SOL    HW123543   4.562   2.313   6.203
 7548SOL    HW223544   4.421   2.328   6.284
 7549SOL     OW23545   4.424   2.613   5.211
 7549SOL    HW123546   4.338   2.570   5.182
 7549SOL    HW223547   4.431   2.703   5.168
 7550SOL     OW23548   1.815   4.031   3.711
 7550SOL    HW123549   1.824   4.002   3.615
 7550SOL    HW223550   1.906   4.039   3.752
 7551SOL     OW23551   5.715   1.833   5.352
 7551SOL    HW123552   5.691   1.842   5.449
 7551SOL    HW223553   5.731   1.737   5.330
 7552SOL     OW23554   2.032   5.886   5.030
 7552SOL    HW123555   2.044   5.787   5.038
 7552SOL    HW223556   1.935   5.908   5.021
 7553SOL     OW23557   5.484   6.455   6.633
 7553SOL    HW123558   5.409   6.497   6.582
 7553SOL    HW223559   5.522   6.522   6.697
 7554SOL     OW23560   5.199   1.417   0.628
 7554SOL    HW123561   5.271   1.370   0.577
 7554SOL    HW223562   5.178   1.367   0.712
 7555SOL     OW23563   3.369   5.558   6.558
 7555SOL    HW123564   3.372   5.459   6.546
 7555SOL    HW223565   3.369   5.580   6.655
 7556SOL     OW23566   0.483   0.785   0.717
 7556SOL    HW123567   0.470   0.774   0.618
 7556SOL    HW223568   0.567   0.737   0.744
 7557SOL     OW23569   4.760   0.357   0.517
 7557SOL    HW123570   4.792   0.275   0.470
 7557SOL    HW223571   4.753   0.338   0.615
 7558SOL     OW23572   1.386   2.610   4.160
 7558SOL    HW123573   1.358   2.540   4.095
 7558SOL    HW223574   1.472   2.650   4.130
 7559SOL     OW23575   3.707   2.142   4.840
 7559SOL    HW123576   3.765   2.224   4.836
 7559SOL    HW223577   3.746   2.077   4.906
 7560SOL     OW23578   6.887   0.562   6.510
 7560SOL    HW123579   6.921   0.493   6.446
 7560SOL    HW223580   6.901   0.653   6.472
 7561SOL     OW23581   5.562   2.226   5.418
 7561SOL    HW123582   5.625   2.263   5.486
 7561SOL    HW223583   5.566   2.283   5.335
 7562SOL     OW23584   1.185   5.075   4.568
 7562SOL    HW123585   1.157   5.155   4.515
 7562SOL    HW223586   1.247   5.104   4.641
 7563SOL     OW23587   3.827   6.229   2.205
 7563SOL    HW123588   3.884   6.174   2.266
 7563SOL    HW223589   3.866   6.320   2.195
 7564SOL     OW23590   4.576   1.399   3.955
 7564SOL    HW123591   4.606   1.315   3.910
 7564SOL    HW223592   4.517   1.376   4.032
 7565SOL     OW23593   5.445   3.506   6.180
 7565SOL    HW123594   5.539   3.473   6.189
 7565SOL    HW223595   5.415   3.496   6.085
 7566SOL     OW23596   4.772   4.448   1.494
 7566SOL    HW123597   4.680   4.454   1.456
 7566SOL    HW223598   4.807   4.355   1.482
 7567SOL     OW23599   0.436   0.922   4.520
 7567SOL    HW123600   0.411   0.831   4.553
 7567SOL    HW223601   0.367   0.954   4.455
 7568SOL     OW23602   6.244   5.663   1.204
 7568SOL    HW123603   6.302   5.612   1.268
 7568SOL    HW223604   6.154   5.621   1.200
 7569SOL     OW23605   4.317   3.860   6.755
 7569SOL    HW123606   4.273   3.949   6.744
 7569SOL    HW223607   4.416   3.871   6.753
 7570SOL     OW23608   6.510   2.754   3.122
 7570SOL    HW123609   6.529   2.758   3.024
 7570SOL    HW223610   6.475   2.843   3.153
 7571SOL     OW23611   5.306   3.514   2.602
 7571SOL    HW123612   5.307   3.436   2.664
 7571SOL    HW223613   5.320   3.481   2.508
 7572SOL     OW23614   5.178   6.349   2.736
 7572SOL    HW123615   5.135   6.306   2.656
 7572SOL    HW223616   5.129   6.434   2.758
 7573SOL     OW23617   5.634   6.449   5.743
 7573SOL    HW123618   5.645   6.397   5.658
 7573SOL    HW223619   5.629   6.385   5.820
 7574SOL     OW23620   6.420   1.259   4.250
 7574SOL    HW123621   6.486   1.189   4.275
 7574SOL    HW223622   6.327   1.227   4.271
 7575SOL     OW23623   6.785   6.229   1.181
 7575SOL    HW123624   6.862   6.193   1.235
 7575SOL    HW223625   6.801   6.210   1.084
 7576SOL     OW23626   5.530   2.870   0.692
 7576SOL    HW123627   5.462   2.819   0.745
 7576SOL    HW223628   5.535   2.832   0.600
 7577SOL     OW23629   0.713   0.056   6.727
 7577SOL    HW123630   0.707   0.148   6.688
 7577SOL    HW223631   0.805   0.019   6.711
 7578SOL     OW23632   0.025   5.720   3.604
 7578SOL    HW123633   0.111   5.733   3.554
 7578SOL    HW223634   7.007   5.629   3.586
 7579SOL     OW23635   6.736   1.524   0.646
 7579SOL    HW123636   6.692   1.449   0.696
 7579SOL    HW223637   6.711   1.519   0.549
 7580SOL     OW23638   2.161   4.801   3.632
 7580SOL    HW123639   2.069   4.801   3.670
 7580SOL    HW223640   2.226   4.822   3.705
 7581SOL     OW23641   0.036   0.895   1.720
 7581SOL    HW123642   0.005   0.808   1.760
 7581SOL    HW223643   0.036   0.886   1.620
 7582SOL     OW23644   3.498   2.119   4.250
 7582SOL    HW123645   3.528   2.191   4.313
 7582SOL    HW223646   3.437   2.057   4.299
 7583SOL     OW23647   5.063   3.440   3.848
 7583SOL    HW123648   5.032   3.532   3.875
 7583SOL    HW223649   5.161   3.432   3.866
 7584SOL     OW23650   0.908   1.276   3.120
 7584SOL    HW123651   1.004   1.249   3.124
 7584SOL    HW223652   0.901   1.369   3.084
 7585SOL     OW23653   1.214   2.246   6.832
 7585SOL    HW123654   1.275   2.208   6.762
 7585SOL    HW223655   1.137   2.184   6.846
 7586SOL     OW23656   1.146   0.981   2.360
 7586SOL    HW123657   1.157   1.019   2.268
 7586SOL    HW223658   1.066   1.022   2.403
 7587SOL     OW23659   3.384   1.212   0.845
 7587SOL    HW123660   3.384   1.307   0.811
 7587SOL    HW223661   3.420   1.210   0.938
 7588SOL     OW23662   1.434   2.386   4.478
 7588SOL    HW123663   1.372   2.452   4.520
 7588SOL    HW223664   1.383   2.332   4.410
 7589SOL     OW23665   0.300   1.256   3.020
 7589SOL    HW123666   0.341   1.165   3.010
 7589SOL    HW223667   0.230   1.269   2.950
 7590SOL     OW23668   0.042   1.571   0.275
 7590SOL    HW123669   0.024   1.657   0.228
 7590SOL    HW223670   0.120   1.582   0.337
 7591SOL     OW23671   4.110   3.095   6.403
 7591SOL    HW123672   4.150   3.106   6.312
 7591SOL    HW223673   4.183   3.097   6.472
 7592SOL     OW23674   6.735   6.181   5.031
 7592SOL    HW123675   6.689   6.155   4.947
 7592SOL    HW223676   6.830   6.149   5.029
 7593SOL     OW23677   0.197   1.341   5.750
 7593SOL    HW123678   0.270   1.387   5.700
 7593SOL    HW223679   0.132   1.301   5.685
 7594SOL     OW23680   0.303   4.179   1.301
 7594SOL    HW123681   0.261   4.181   1.391
 7594SOL    HW223682   0.374   4.109   1.298
 7595SOL     OW23683   6.143   2.603   5.942
 7595SOL    HW123684   6.118   2.653   6.025
 7595SOL    HW223685   6.084   2.631   5.867
 7596SOL     OW23686   3.128   0.940   5.237
 7596SOL    HW123687   3.191   0.880   5.187
 7596SOL    HW223688   3.088   1.006   5.173
 7597SOL     OW23689   1.904   4.956   1.955
 7597SOL    HW123690   1.952   4.903   2.025
 7597SOL    HW223691   1.849   4.895   1.898
 7598SOL     OW23692   6.001   0.773   3.265
 7598SOL    HW123693   5.998   0.717   3.348
 7598SOL    HW223694   5.913   0.818   3.251
 7599SOL     OW23695   4.040   3.369   0.838
 7599SOL    HW123696   4.101   3.300   0.875
 7599SOL    HW223697   3.979   3.402   0.911
 7600SOL     OW23698   1.141   1.493   3.962
 7600SOL    HW123699   1.068   1.549   4.002
 7600SOL    HW223700   1.220   1.551   3.942
 7601SOL     OW23701   3.930   5.910   2.047
 7601SOL    HW123702   3.902   5.829   1.994
 7601SOL    HW223703   3.879   5.990   2.013
 7602SOL     OW23704   0.190   1.679   0.789
 7602SOL    HW123705   0.096   1.713   0.794
 7602SOL    HW223706   0.192   1.581   0.809
 7603SOL     OW23707   2.298   0.469   5.933
 7603SOL    HW123708   2.217   0.479   5.874
 7603SOL    HW223709   2.380   0.465   5.876
 7604SOL     OW23710   1.185   2.309   4.782
 7604SOL    HW123711   1.160   2.248   4.707
 7604SOL    HW223712   1.108   2.317   4.845
 7605SOL     OW23713   3.072   7.017   7.005
 7605SOL    HW123714   2.995   0.017   6.943
 7605SOL    HW223715   3.037   6.993   0.077
 7606SOL     OW23716   6.238   1.438   3.838
 7606SOL    HW123717   6.310   1.506   3.828
 7606SOL    HW223718   6.174   1.468   3.910
 7607SOL     OW23719   3.241   5.928   5.838
 7607SOL    HW123720   3.294   5.969   5.764
 7607SOL    HW223721   3.302   5.877   5.899
 7608SOL     OW23722   5.745   2.758   5.968
 7608SOL    HW123723   5.843   2.747   5.951
 7608SOL    HW223724   5.731   2.797   6.059
 7609SOL     OW23725   0.557   2.145   4.801
 7609SOL    HW123726   0.495   2.070   4.823
 7609SOL    HW223727   0.613   2.121   4.722
 7610SOL     OW23728   3.419   4.821   6.046
 7610SOL    HW123729   3.505   4.773   6.062
 7610SOL    HW223730   3.430   4.918   6.069
 7611SOL     OW23731   4.806   3.072   1.667
 7611SOL    HW123732   4.754   3.069   1.752
 7611SOL    HW223733   4.769   3.006   1.602
 7612SOL     OW23734   3.214   1.883   3.051
 7612SOL    HW123735   3.227   1.981   3.067
 7612SOL    HW223736   3.163   1.869   2.966
 7613SOL     OW23737   1.476   1.802   2.186
 7613SOL    HW123738   1.521   1.880   2.228
 7613SOL    HW223739   1.412   1.761   2.251
 7614SOL     OW23740   4.811   3.253   0.700
 7614SOL    HW123741   4.897   3.269   0.652
 7614SOL    HW223742   4.830   3.242   0.798
 7615SOL     OW23743   5.202   2.991   4.383
 7615SOL    HW123744   5.188   2.896   4.411
 7615SOL    HW223745   5.298   3.006   4.362
 7616SOL     OW23746   6.164   6.854   3.558
 7616SOL    HW123747   6.151   6.912   3.478
 7616SOL    HW223748   6.117   6.894   3.637
 7617SOL     OW23749   5.075   5.376   3.357
 7617SOL    HW123750   5.127   5.460   3.339
 7617SOL    HW223751   4.995   5.373   3.297
 7618SOL     OW23752   2.851   2.871   0.192
 7618SOL    HW123753   2.862   2.775   0.167
 7618SOL    HW223754   2.937   2.906   0.229
 7619SOL     OW23755   0.488   2.408   4.213
 7619SOL    HW123756   0.518   2.483   4.273
 7619SOL    HW223757   0.406   2.436   4.163
 7620SOL     OW23758   3.905   4.183   1.176
 7620SOL    HW123759   3.863   4.188   1.267
 7620SOL    HW223760   3.998   4.148   1.185
 7621SOL     OW23761   0.483   5.713   0.937
 7621SOL    HW123762   0.448   5.806   0.944
 7621SOL    HW223763   0.583   5.715   0.936
 7622SOL     OW23764   3.886   4.682   0.527
 7622SOL    HW123765   3.920   4.750   0.592
 7622SOL    HW223766   3.786   4.688   0.521
 7623SOL     OW23767   4.869   5.154   1.336
 7623SOL    HW123768   4.927   5.215   1.389
 7623SOL    HW223769   4.832   5.083   1.395
 7624SOL     OW23770   0.537   2.771   2.064
 7624SOL    HW123771   0.613   2.746   2.124
 7624SOL    HW223772   0.510   2.692   2.010
 7625SOL     OW23773   5.283   2.283   0.297
 7625SOL    HW123774   5.345   2.286   0.218
 7625SOL    HW223775   5.334   2.263   0.380
 7626SOL     OW23776   5.324   0.273   4.949
 7626SOL    HW123777   5.237   0.279   4.900
 7626SOL    HW223778   5.384   0.348   4.920
 7627SOL     OW23779   2.939   1.723   6.959
 7627SOL    HW123780   2.949   1.626   6.982
 7627SOL    HW223781   2.843   1.745   6.944
 7628SOL     OW23782   3.574   2.842   0.501
 7628SOL    HW123783   3.496   2.830   0.563
 7628SOL    HW223784   3.641   2.770   0.518
 7629SOL     OW23785   6.013   3.220   4.121
 7629SOL    HW123786   6.053   3.139   4.164
 7629SOL    HW223787   6.000   3.291   4.189
 7630SOL     OW23788   1.820   0.225   5.005
 7630SOL    HW123789   1.864   0.315   5.013
 7630SOL    HW223790   1.868   0.171   4.936
 7631SOL     OW23791   1.988   0.057   5.163
 7631SOL    HW123792   2.065   0.075   5.223
 7631SOL    HW223793   1.946   0.144   5.135
 7632SOL     OW23794   4.842   5.917   1.122
 7632SOL    HW123795   4.874   5.899   1.215
 7632SOL    HW223796   4.895   5.993   1.083
 7633SOL     OW23797   6.394   1.091   0.990
 7633SOL    HW123798   6.312   1.067   0.937
 7633SOL    HW223799   6.377   1.073   1.087
 7634SOL     OW23800   1.121   2.159   0.518
 7634SOL    HW123801   1.143   2.162   0.420
 7634SOL    HW223802   1.029   2.121   0.531
 7635SOL     OW23803   2.726   5.106   6.035
 7635SOL    HW123804   2.698   5.018   6.074
 7635SOL    HW223805   2.743   5.095   5.938
 7636SOL     OW23806   0.724   3.888   5.010
 7636SOL    HW123807   0.682   3.798   5.026
 7636SOL    HW223808   0.821   3.876   4.989
 7637SOL     OW23809   0.428   6.369   4.521
 7637SOL    HW123810   0.522   6.339   4.502
 7637SOL    HW223811   0.397   6.329   4.607
 7638SOL     OW23812   0.893   5.373   1.736
 7638SOL    HW123813   0.834   5.450   1.761
 7638SOL    HW223814   0.969   5.407   1.680
 7639SOL     OW23815   1.054   1.337   0.602
 7639SOL    HW123816   1.015   1.249   0.630
 7639SOL    HW223817   1.092   1.328   0.510
 7640SOL     OW23818   3.281   0.992   6.304
 7640SOL    HW123819   3.267   0.898   6.273
 7640SOL    HW223820   3.194   1.040   6.305
 7641SOL     OW23821   0.013   3.848   2.892
 7641SOL    HW123822   6.997   3.788   2.964
 7641SOL    HW223823   0.113   3.841   2.887
 7642SOL     OW23824   6.025   1.390   3.317
 7642SOL    HW123825   6.012   1.474   3.265
 7642SOL    HW223826   6.066   1.412   3.406
 7643SOL     OW23827   5.034   2.862   2.998
 7643SOL    HW123828   5.106   2.931   3.009
 7643SOL    HW223829   5.057   2.781   3.052
 7644SOL     OW23830   5.069   3.493   1.609
 7644SOL    HW123831   5.029   3.584   1.619
 7644SOL    HW223832   5.153   3.498   1.555
 7645SOL     OW23833   3.195   3.672   6.071
 7645SOL    HW123834   3.117   3.701   6.015
 7645SOL    HW223835   3.209   3.737   6.146
 7646SOL     OW23836   0.786   2.288   3.091
 7646SOL    HW123837   0.832   2.295   3.003
 7646SOL    HW223838   0.803   2.372   3.144
 7647SOL     OW23839   6.746   2.745   4.985
 7647SOL    HW123840   6.705   2.759   5.075
 7647SOL    HW223841   6.844   2.768   4.988
 7648SOL     OW23842   2.333   2.254   2.726
 7648SOL    HW123843   2.406   2.186   2.738
 7648SOL    HW223844   2.359   2.339   2.771
 7649SOL     OW23845   6.247   0.619   5.320
 7649SOL    HW123846   6.218   0.582   5.408
 7649SOL    HW223847   6.268   0.716   5.330
 7650SOL     OW23848   4.104   1.094   1.554
 7650SOL    HW123849   4.186   1.113   1.499
 7650SOL    HW223850   4.055   1.179   1.572
 7651SOL     OW23851   2.543   5.089   4.975
 7651SOL    HW123852   2.596   5.059   5.054
 7651SOL    HW223853   2.514   5.184   4.987
 7652SOL     OW23854   5.625   1.408   4.678
 7652SOL    HW123855   5.676   1.491   4.701
 7652SOL    HW223856   5.541   1.405   4.732
 7653SOL     OW23857   0.579   2.092   6.791
 7653SOL    HW123858   0.618   2.039   6.717
 7653SOL    HW223859   0.597   2.189   6.777
 7654SOL     OW23860   5.999   3.040   5.556
 7654SOL    HW123861   5.993   3.135   5.524
 7654SOL    HW223862   5.908   3.006   5.579
 7655SOL     OW23863   2.874   0.644   3.313
 7655SOL    HW123864   2.798   0.709   3.319
 7655SOL    HW223865   2.946   0.682   3.256
 7656SOL     OW23866   6.701   3.575   6.818
 7656SOL    HW123867   6.756   3.562   6.736
 7656SOL    HW223868   6.742   3.527   6.895
 7657SOL     OW23869   1.760   3.841   4.815
 7657SOL    HW123870   1.729   3.916   4.758
 7657SOL    HW223871   1.692   3.768   4.815
 7658SOL     OW23872   2.551   0.870   0.751
 7658SOL    HW123873   2.645   0.863   0.783
 7658SOL    HW223874   2.548   0.923   0.666
 7659SOL     OW23875   4.168   3.759   5.218
 7659SOL    HW123876   4.155   3.790   5.312
 7659SOL    HW223877   4.096   3.693   5.195
 7660SOL     OW23878   6.902   4.418   4.512
 7660SOL    HW123879   6.845   4.377   4.583
 7660SOL    HW223880   6.878   4.515   4.501
 7661SOL     OW23881   4.647   2.867   5.477
 7661SOL    HW123882   4.607   2.782   5.511
 7661SOL    HW223883   4.608   2.944   5.527
 7662SOL     OW23884   0.970   2.243   2.329
 7662SOL    HW123885   0.937   2.191   2.250
 7662SOL    HW223886   1.024   2.321   2.296
 7663SOL     OW23887   6.167   5.459   5.700
 7663SOL    HW123888   6.175   5.480   5.603
 7663SOL    HW223889   6.248   5.492   5.748
 7664SOL     OW23890   3.675   2.084   3.285
 7664SOL    HW123891   3.596   2.073   3.225
 7664SOL    HW223892   3.680   2.006   3.348
 7665SOL     OW23893   4.139   1.669   4.347
 7665SOL    HW123894   4.120   1.605   4.273
 7665SOL    HW223895   4.189   1.748   4.311
 7666SOL     OW23896   6.144   5.627   3.578
 7666SOL    HW123897   6.209   5.703   3.572
 7666SOL    HW223898   6.061   5.649   3.527
 7667SOL     OW23899   5.063   6.280   2.239
 7667SOL    HW123900   5.017   6.214   2.181
 7667SOL    HW223901   5.040   6.373   2.210
 7668SOL     OW23902   2.097   4.959   1.426
 7668SOL    HW123903   2.155   5.040   1.436
 7668SOL    HW223904   2.082   4.917   1.515
 7669SOL     OW23905   2.627   6.703   6.113
 7669SOL    HW123906   2.723   6.716   6.088
 7669SOL    HW223907   2.569   6.741   6.040
 7670SOL     OW23908   0.534   6.803   6.883
 7670SOL    HW123909   0.541   6.731   6.951
 7670SOL    HW223910   0.625   6.824   6.846
 7671SOL     OW23911   4.794   0.896   1.304
 7671SOL    HW123912   4.755   0.909   1.395
 7671SOL    HW223913   4.890   0.924   1.304
 7672SOL     OW23914   5.288   4.843   2.727
 7672SOL    HW123915   5.283   4.805   2.635
 7672SOL    HW223916   5.381   4.877   2.744
 7673SOL     OW23917   0.901   5.250   3.685
 7673SOL    HW123918   0.935   5.340   3.711
 7673SOL    HW223919   0.977   5.193   3.655
 7674SOL     OW23920   4.406   0.156   4.467
 7674SOL    HW123921   4.481   0.096   4.496
 7674SOL    HW223922   4.441   0.249   4.455
 7675SOL     OW23923   3.527   6.549   2.473
 7675SOL    HW123924   3.427   6.549   2.474
 7675SOL    HW223925   3.560   6.455   2.484
 7676SOL     OW23926   3.025   2.855   5.564
 7676SOL    HW123927   2.960   2.779   5.571
 7676SOL    HW223928   3.020   2.910   5.647
 7677SOL     OW23929   5.862   4.853   1.814
 7677SOL    HW123930   5.888   4.807   1.729
 7677SOL    HW223931   5.787   4.918   1.796
 7678SOL     OW23932   1.262   1.330   5.609
 7678SOL    HW123933   1.169   1.362   5.628
 7678SOL    HW223934   1.267   1.231   5.620
 7679SOL     OW23935   1.570   5.479   5.277
 7679SOL    HW123936   1.591   5.485   5.179
 7679SOL    HW223937   1.655   5.462   5.327
 7680SOL     OW23938   1.663   0.893   5.377
 7680SOL    HW123939   1.594   0.821   5.374
 7680SOL    HW223940   1.753   0.852   5.395
 7681SOL     OW23941   2.832   3.367   6.429
 7681SOL    HW123942   2.827   3.319   6.517
 7681SOL    HW223943   2.749   3.423   6.417
 7682SOL     OW23944   3.045   1.806   2.869
 7682SOL    HW123945   2.983   1.835   2.795
 7682SOL    HW223946   3.020   1.715   2.900
 7683SOL     OW23947   0.747   1.287   4.434
 7683SOL    HW123948   0.691   1.322   4.509
 7683SOL    HW223949   0.691   1.230   4.374
 7684SOL     OW23950   3.865   2.043   1.396
 7684SOL    HW123951   3.776   2.009   1.424
 7684SOL    HW223952   3.916   2.074   1.477
 7685SOL     OW23953   3.019   1.129   0.111
 7685SOL    HW123954   3.048   1.159   0.020
 7685SOL    HW223955   3.071   1.047   0.137
 7686SOL     OW23956   5.545   0.788   4.051
 7686SOL    HW123957   5.483   0.807   4.127
 7686SOL    HW223958   5.593   0.872   4.025
 7687SOL     OW23959   5.700   5.526   4.945
 7687SOL    HW123960   5.790   5.552   4.910
 7687SOL    HW223961   5.656   5.464   4.880
 7688SOL     OW23962   0.952   5.051   6.813
 7688SOL    HW123963   1.003   5.137   6.811
 7688SOL    HW223964   0.988   4.989   6.743
 7689SOL     OW23965   4.903   0.048   2.005
 7689SOL    HW123966   4.995   0.084   1.993
 7689SOL    HW223967   4.907   6.966   2.015
 7690SOL     OW23968   6.500   5.093   0.821
 7690SOL    HW123969   6.508   5.134   0.730
 7690SOL    HW223970   6.587   5.101   0.869
 7691SOL     OW23971   4.713   4.732   3.438
 7691SOL    HW123972   4.635   4.701   3.383
 7691SOL    HW223973   4.750   4.816   3.399
 7692SOL     OW23974   1.676   6.430   2.450
 7692SOL    HW123975   1.623   6.463   2.529
 7692SOL    HW223976   1.736   6.502   2.418
 7693SOL     OW23977   2.716   1.344   1.144
 7693SOL    HW123978   2.810   1.335   1.176
 7693SOL    HW223979   2.680   1.434   1.169
 7694SOL     OW23980   6.074   2.135   4.864
 7694SOL    HW123981   6.003   2.068   4.843
 7694SOL    HW223982   6.033   2.225   4.874
 7695SOL     OW23983   5.770   0.665   2.563
 7695SOL    HW123984   5.761   0.716   2.478
 7695SOL    HW223985   5.729   0.718   2.638
 7696SOL     OW23986   0.553   2.894   6.394
 7696SOL    HW123987   0.467   2.935   6.363
 7696SOL    HW223988   0.577   2.931   6.484
 7697SOL     OW23989   4.226   0.191   2.912
 7697SOL    HW123990   4.196   0.200   2.817
 7697SOL    HW223991   4.147   0.176   2.971
 7698SOL     OW23992   6.216   1.697   6.999
 7698SOL    HW123993   6.281   1.621   6.996
 7698SOL    HW223994   6.267   1.783   7.011
 7699SOL     OW23995   3.511   5.255   5.918
 7699SOL    HW123996   3.554   5.204   5.844
 7699SOL    HW223997   3.493   5.194   5.995
 7700SOL     OW23998   4.940   5.359   2.620
 7700SOL    HW123999   5.033   5.362   2.658
 7700SOL    HW224000   4.926   5.273   2.572
 7701SOL     OW24001   0.112   2.459   5.913
 7701SOL    HW124002   0.200   2.482   5.953
 7701SOL    HW224003   0.051   2.538   5.916
 7702SOL     OW24004   4.760   0.217   4.330
 7702SOL    HW124005   4.740   0.310   4.359
 7702SOL    HW224006   4.779   0.160   4.410
 7703SOL     OW24007   6.630   6.398   4.562
 7703SOL    HW124008   6.612   6.495   4.579
 7703SOL    HW224009   6.579   6.369   4.481
 7704SOL     OW24010   6.038   1.278   4.406
 7704SOL    HW124011   6.103   1.243   4.339
 7704SOL    HW224012   5.948   1.287   4.364
 7705SOL     OW24013   2.167   5.148   0.311
 7705SOL    HW124014   2.150   5.200   0.394
 7705SOL    HW224015   2.088   5.156   0.249
 7706SOL     OW24016   3.631   3.251   2.302
 7706SOL    HW124017   3.580   3.337   2.293
 7706SOL    HW224018   3.582   3.178   2.253
 7707SOL     OW24019   6.688   5.721   6.763
 7707SOL    HW124020   6.679   5.629   6.803
 7707SOL    HW224021   6.785   5.740   6.746
 7708SOL     OW24022   2.200   6.684   4.831
 7708SOL    HW124023   2.178   6.592   4.863
 7708SOL    HW224024   2.167   6.751   4.897
 7709SOL     OW24025   0.391   5.023   1.336
 7709SOL    HW124026   0.326   5.017   1.411
 7709SOL    HW224027   0.343   5.049   1.252
 7710SOL     OW24028   1.450   3.467   0.619
 7710SOL    HW124029   1.475   3.472   0.716
 7710SOL    HW224030   1.501   3.537   0.569
 7711SOL     OW24031   6.441   4.712   5.291
 7711SOL    HW124032   6.531   4.701   5.248
 7711SOL    HW224033   6.449   4.691   5.389
 7712SOL     OW24034   6.727   4.690   6.124
 7712SOL    HW124035   6.656   4.642   6.073
 7712SOL    HW224036   6.688   4.726   6.209
 7713SOL     OW24037   1.816   4.901   0.408
 7713SOL    HW124038   1.843   4.823   0.352
 7713SOL    HW224039   1.877   4.907   0.488
 7714SOL     OW24040   6.593   0.601   4.645
 7714SOL    HW124041   6.574   0.668   4.574
 7714SOL    HW224042   6.685   0.563   4.631
 7715SOL     OW24043   2.165   2.700   5.880
 7715SOL    HW124044   2.224   2.630   5.921
 7715SOL    HW224045   2.140   2.767   5.949
 7716SOL     OW24046   1.025   5.459   5.718
 7716SOL    HW124047   1.050   5.421   5.629
 7716SOL    HW224048   1.066   5.405   5.791
 7717SOL     OW24049   1.803   2.034   6.754
 7717SOL    HW124050   1.824   1.976   6.676
 7717SOL    HW224051   1.777   2.125   6.722
 7718SOL     OW24052   1.415   4.296   2.713
 7718SOL    HW124053   1.417   4.219   2.776
 7718SOL    HW224054   1.360   4.370   2.752
 7719SOL     OW24055   1.852   3.904   5.073
 7719SOL    HW124056   1.948   3.931   5.063
 7719SOL    HW224057   1.813   3.884   4.983
 7720SOL     OW24058   6.224   1.420   6.855
 7720SOL    HW124059   6.259   1.344   6.800
 7720SOL    HW224060   6.183   1.488   6.795
 7721SOL     OW24061   0.642   0.981   2.699
 7721SOL    HW124062   0.654   0.892   2.654
 7721SOL    HW224063   0.544   1.003   2.703
 7722SOL     OW24064   2.109   5.720   3.962
 7722SOL    HW124065   2.182   5.727   4.030
 7722SOL    HW224066   2.130   5.779   3.884
 7723SOL     OW24067   4.734   3.864   0.562
 7723SOL    HW124068   4.654   3.804   0.565
 7723SOL    HW224069   4.797   3.841   0.636
 7724SOL     OW24070   2.599   4.152   1.676
 7724SOL    HW124071   2.545   4.137   1.593
 7724SOL    HW224072   2.544   4.132   1.756
 7725SOL     OW24073   5.492   3.135   3.253
 7725SOL    HW124074   5.411   3.121   3.309
 7725SOL    HW224075   5.514   3.232   3.249
 7726SOL     OW24076   0.276   3.433   6.271
 7726SOL    HW124077   0.257   3.434   6.173
 7726SOL    HW224078   0.363   3.385   6.288
 7727SOL     OW24079   4.966   2.571   2.326
 7727SOL    HW124080   4.886   2.513   2.341
 7727SOL    HW224081   4.952   2.625   2.243
 7728SOL     OW24082   2.115   3.222   5.058
 7728SOL    HW124083   2.208   3.188   5.045
 7728SOL    HW224084   2.084   3.199   5.150
 7729SOL     OW24085   5.798   2.113   3.710
 7729SOL    HW124086   5.775   2.101   3.807
 7729SOL    HW224087   5.811   2.211   3.692
 7730SOL     OW24088   6.335   4.052   5.149
 7730SOL    HW124089   6.237   4.050   5.129
 7730SOL    HW224090   6.351   4.114   5.226
 7731SOL     OW24091   5.723   6.663   0.456
 7731SOL    HW124092   5.804   6.715   0.482
 7731SOL    HW224093   5.642   6.704   0.498
 7732SOL     OW24094   4.453   0.265   6.434
 7732SOL    HW124095   4.355   0.287   6.436
 7732SOL    HW224096   4.468   0.187   6.374
 7733SOL     OW24097   6.545   6.078   2.199
 7733SOL    HW124098   6.563   6.084   2.100
 7733SOL    HW224099   6.632   6.082   2.248
 7734SOL     OW24100   3.020   3.864   5.170
 7734SOL    HW124101   3.085   3.799   5.129
 7734SOL    HW224102   2.946   3.882   5.106
 7735SOL     OW24103   0.029   6.007   0.588
 7735SOL    HW124104   0.002   5.932   0.527
 7735SOL    HW224105   0.034   6.092   0.536
 7736SOL     OW24106   2.995   3.179   0.416
 7736SOL    HW124107   2.979   3.277   0.404
 7736SOL    HW224108   2.907   3.130   0.410
 7737SOL     OW24109   4.082   4.517   1.656
 7737SOL    HW124110   3.988   4.537   1.685
 7737SOL    HW224111   4.080   4.460   1.574
 7738SOL     OW24112   2.735   6.484   6.674
 7738SOL    HW124113   2.757   6.558   6.611
 7738SOL    HW224114   2.686   6.412   6.624
 7739SOL     OW24115   1.332   2.133   1.072
 7739SOL    HW124116   1.379   2.188   1.003
 7739SOL    HW224117   1.270   2.069   1.028
 7740SOL     OW24118   1.410   1.045   4.347
 7740SOL    HW124119   1.433   1.139   4.323
 7740SOL    HW224120   1.362   1.043   4.435
 7741SOL     OW24121   1.712   4.416   5.986
 7741SOL    HW124122   1.727   4.357   6.065
 7741SOL    HW224123   1.777   4.392   5.913
 7742SOL     OW24124   3.839   1.320   4.175
 7742SOL    HW124125   3.769   1.377   4.131
 7742SOL    HW224126   3.813   1.224   4.169
 7743SOL     OW24127   4.928   1.304   6.129
 7743SOL    HW124128   5.018   1.270   6.099
 7743SOL    HW224129   4.925   1.307   6.228
 7744SOL     OW24130   0.332   6.101   4.346
 7744SOL    HW124131   0.330   6.199   4.325
 7744SOL    HW224132   0.325   6.089   4.445
 7745SOL     OW24133   1.821   6.445   0.370
 7745SOL    HW124134   1.899   6.507   0.358
 7745SOL    HW224135   1.784   6.421   0.280
 7746SOL     OW24136   1.345   6.402   0.825
 7746SOL    HW124137   1.408   6.330   0.794
 7746SOL    HW224138   1.392   6.490   0.821
 7747SOL     OW24139   0.903   5.980   0.968
 7747SOL    HW124140   0.823   5.991   0.910
 7747SOL    HW224141   0.986   5.982   0.912
 7748SOL     OW24142   4.266   2.842   5.514
 7748SOL    HW124143   4.188   2.893   5.551
 7748SOL    HW224144   4.233   2.773   5.450
 7749SOL     OW24145   3.533   3.348   4.211
 7749SOL    HW124146   3.453   3.361   4.269
 7749SOL    HW224147   3.516   3.275   4.145
 7750SOL     OW24148   5.712   5.050   5.204
 7750SOL    HW124149   5.778   4.976   5.196
 7750SOL    HW224150   5.760   5.135   5.229
 7751SOL     OW24151   0.086   0.930   5.018
 7751SOL    HW124152   0.076   0.955   4.922
 7751SOL    HW224153   0.180   0.901   5.036
 7752SOL     OW24154   5.820   5.633   5.374
 7752SOL    HW124155   5.831   5.657   5.278
 7752SOL    HW224156   5.875   5.695   5.430
 7753SOL     OW24157   1.764   0.834   4.195
 7753SOL    HW124158   1.731   0.900   4.263
 7753SOL    HW224159   1.698   0.828   4.120
 7754SOL     OW24160   5.943   0.502   0.734
 7754SOL    HW124161   5.913   0.537   0.823
 7754SOL    HW224162   5.902   0.412   0.719
 7755SOL     OW24163   0.647   5.876   5.372
 7755SOL    HW124164   0.619   5.781   5.360
 7755SOL    HW224165   0.609   5.932   5.298
 7756SOL     OW24166   2.900   5.110   2.303
 7756SOL    HW124167   2.914   5.155   2.215
 7756SOL    HW224168   2.959   5.030   2.309
 7757SOL     OW24169   4.362   6.404   5.564
 7757SOL    HW124170   4.457   6.403   5.595
 7757SOL    HW224171   4.360   6.405   5.464
 7758SOL     OW24172   2.555   2.259   6.060
 7758SOL    HW124173   2.564   2.165   6.095
 7758SOL    HW224174   2.531   2.256   5.963
 7759SOL     OW24175   2.140   0.474   4.124
 7759SOL    HW124176   2.152   0.533   4.203
 7759SOL    HW224177   2.168   0.522   4.041
 7760SOL     OW24178   5.153   2.861   1.963
 7760SOL    HW124179   5.086   2.933   1.943
 7760SOL    HW224180   5.220   2.895   2.029
 7761SOL     OW24181   2.941   0.060   6.765
 7761SOL    HW124182   3.036   0.036   6.749
 7761SOL    HW224183   2.905   0.110   6.686
 7762SOL     OW24184   4.066   1.820   0.255
 7762SOL    HW124185   4.023   1.755   0.193
 7762SOL    HW224186   4.068   1.911   0.212
 7763SOL     OW24187   1.983   2.130   0.801
 7763SOL    HW124188   1.893   2.155   0.839
 7763SOL    HW224189   2.045   2.104   0.875
 7764SOL     OW24190   3.885   2.949   2.172
 7764SOL    HW124191   3.913   3.043   2.152
 7764SOL    HW224192   3.966   2.891   2.178
 7765SOL     OW24193   6.157   3.078   2.887
 7765SOL    HW124194   6.210   3.154   2.852
 7765SOL    HW224195   6.119   3.025   2.811
 7766SOL     OW24196   5.999   1.769   6.839
 7766SOL    HW124197   6.064   1.722   6.899
 7766SOL    HW224198   6.040   1.854   6.805
 7767SOL     OW24199   3.808   6.251   4.049
 7767SOL    HW124200   3.825   6.228   4.145
 7767SOL    HW224201   3.838   6.177   3.990
 7768SOL     OW24202   3.747   4.961   2.144
 7768SOL    HW124203   3.677   4.895   2.118
 7768SOL    HW224204   3.728   4.995   2.236
 7769SOL     OW24205   5.281   1.974   0.657
 7769SOL    HW124206   5.200   1.939   0.704
 7769SOL    HW224207   5.313   1.907   0.590
 7770SOL     OW24208   3.126   4.781   1.573
 7770SOL    HW124209   3.067   4.701   1.584
 7770SOL    HW224210   3.191   4.785   1.648
 7771SOL     OW24211   2.839   2.124   5.787
 7771SOL    HW124212   2.850   2.167   5.877
 7771SOL    HW224213   2.851   2.194   5.716
 7772SOL     OW24214   4.855   0.746   3.951
 7772SOL    HW124215   4.827   0.841   3.967
 7772SOL    HW224216   4.837   0.691   4.032
 7773SOL     OW24217   4.103   3.811   5.474
 7773SOL    HW124218   4.122   3.907   5.494
 7773SOL    HW224219   4.143   3.753   5.546
 7774SOL     OW24220   5.317   1.528   6.022
 7774SOL    HW124221   5.311   1.608   5.963
 7774SOL    HW224222   5.288   1.552   6.115
 7775SOL     OW24223   3.183   6.834   2.301
 7775SOL    HW124224   3.199   6.741   2.269
 7775SOL    HW224225   3.256   6.862   2.363
 7776SOL     OW24226   3.719   3.432   6.066
 7776SOL    HW124227   3.648   3.452   6.133
 7776SOL    HW224228   3.706   3.489   5.985
 7777SOL     OW24229   2.489   1.166   0.048
 7777SOL    HW124230   2.426   1.117   0.108
 7777SOL    HW224231   2.464   1.263   0.044
 7778SOL     OW24232   5.622   0.202   6.530
 7778SOL    HW124233   5.702   0.251   6.565
 7778SOL    HW224234   5.591   0.243   6.444
 7779SOL     OW24235   3.495   2.298   0.776
 7779SOL    HW124236   3.472   2.290   0.873
 7779SOL    HW224237   3.569   2.364   0.764
 7780SOL     OW24238   1.748   6.243   4.540
 7780SOL    HW124239   1.723   6.303   4.464
 7780SOL    HW224240   1.814   6.175   4.509
 7781SOL     OW24241   1.385   3.752   5.924
 7781SOL    HW124242   1.354   3.717   5.836
 7781SOL    HW224243   1.374   3.682   5.994
 7782SOL     OW24244   2.422   4.164   6.555
 7782SOL    HW124245   2.353   4.143   6.486
 7782SOL    HW224246   2.425   4.263   6.570
 7783SOL     OW24247   2.487   6.192   6.885
 7783SOL    HW124248   2.431   6.118   6.920
 7783SOL    HW224249   2.431   6.253   6.829
 7784SOL     OW24250   0.776   2.906   6.868
 7784SOL    HW124251   0.782   2.992   6.920
 7784SOL    HW224252   0.859   2.895   6.813
 7785SOL     OW24253   2.270   6.442   4.103
 7785SOL    HW124254   2.262   6.528   4.052
 7785SOL    HW224255   2.180   6.402   4.115
 7786SOL     OW24256   2.929   4.675   5.400
 7786SOL    HW124257   2.915   4.630   5.488
 7786SOL    HW224258   2.929   4.607   5.327
 7787SOL     OW24259   2.276   2.860   4.862
 7787SOL    HW124260   2.311   2.902   4.946
 7787SOL    HW224261   2.182   2.829   4.877
 7788SOL     OW24262   0.967   1.533   1.719
 7788SOL    HW124263   1.028   1.591   1.773
 7788SOL    HW224264   0.915   1.473   1.780
 7789SOL     OW24265   2.651   0.416   1.178
 7789SOL    HW124266   2.720   0.489   1.182
 7789SOL    HW224267   2.570   0.444   1.230
 7790SOL     OW24268   6.671   3.991   3.005
 7790SOL    HW124269   6.618   3.934   2.942
 7790SOL    HW224270   6.626   4.079   3.016
 7791SOL     OW24271   2.806   5.090   4.605
 7791SOL    HW124272   2.741   5.032   4.655
 7791SOL    HW224273   2.812   5.179   4.651
 7792SOL     OW24274   2.286   6.061   6.321
 7792SOL    HW124275   2.331   5.983   6.365
 7792SOL    HW224276   2.279   6.136   6.387
 7793SOL     OW24277   1.286   1.102   6.059
 7793SOL    HW124278   1.287   1.052   5.973
 7793SOL    HW224279   1.194   1.098   6.099
 7794SOL     OW24280   5.315   5.359   4.777
 7794SOL    HW124281   5.270   5.444   4.807
 7794SOL    HW224282   5.347   5.370   4.683
 7795SOL     OW24283   2.134   3.924   5.934
 7795SOL    HW124284   2.056   3.962   5.884
 7795SOL    HW224285   2.165   3.840   5.888
 7796SOL     OW24286   3.637   3.999   3.420
 7796SOL    HW124287   3.587   3.912   3.420
 7796SOL    HW224288   3.654   4.027   3.515
 7797SOL     OW24289   0.077   6.499   2.750
 7797SOL    HW124290   0.168   6.537   2.766
 7797SOL    HW224291   0.023   6.507   2.833
 7798SOL     OW24292   3.605   5.596   0.062
 7798SOL    HW124293   3.696   5.636   0.056
 7798SOL    HW224294   3.601   5.514   0.004
 7799SOL     OW24295   0.260   5.277   0.926
 7799SOL    HW124296   0.332   5.345   0.938
 7799SOL    HW224297   0.176   5.322   0.898
 7800SOL     OW24298   0.443   4.877   1.732
 7800SOL    HW124299   0.490   4.889   1.819
 7800SOL    HW224300   0.466   4.787   1.694
 7801SOL     OW24301   2.343   1.337   0.248
 7801SOL    HW124302   2.305   1.401   0.181
 7801SOL    HW224303   2.428   1.375   0.285
 7802SOL     OW24304   5.580   2.554   1.870
 7802SOL    HW124305   5.563   2.648   1.839
 7802SOL    HW224306   5.678   2.541   1.885
 7803SOL     OW24307   3.887   4.090   6.000
 7803SOL    HW124308   3.874   3.999   6.039
 7803SOL    HW224309   3.872   4.087   5.901
 7804SOL     OW24310   5.180   1.629   5.027
 7804SOL    HW124311   5.243   1.706   5.018
 7804SOL    HW224312   5.216   1.551   4.974
 7805SOL     OW24313   5.318   2.485   2.070
 7805SOL    HW124314   5.381   2.415   2.036
 7805SOL    HW224315   5.357   2.527   2.152
 7806SOL     OW24316   5.243   2.664   6.250
 7806SOL    HW124317   5.332   2.626   6.278
 7806SOL    HW224318   5.248   2.696   6.156
 7807SOL     OW24319   6.834   3.982   6.381
 7807SOL    HW124320   6.892   3.992   6.462
 7807SOL    HW224321   6.765   4.055   6.379
 7808SOL     OW24322   0.368   1.314   4.582
 7808SOL    HW124323   0.371   1.266   4.495
 7808SOL    HW224324   0.455   1.363   4.596
 7809SOL     OW24325   2.255   5.227   4.527
 7809SOL    HW124326   2.211   5.293   4.465
 7809SOL    HW224327   2.221   5.135   4.508
 7810SOL     OW24328   2.896   0.424   5.519
 7810SOL    HW124329   2.895   0.487   5.441
 7810SOL    HW224330   2.805   0.421   5.560
 7811SOL     OW24331   5.324   4.585   3.646
 7811SOL    HW124332   5.339   4.486   3.646
 7811SOL    HW224333   5.384   4.627   3.578
 7812SOL     OW24334   1.952   1.425   4.490
 7812SOL    HW124335   2.032   1.476   4.458
 7812SOL    HW224336   1.878   1.488   4.513
 7813SOL     OW24337   5.825   2.917   6.812
 7813SOL    HW124338   5.897   2.900   6.879
 7813SOL    HW224339   5.743   2.866   6.837
 7814SOL     OW24340   6.491   2.956   3.656
 7814SOL    HW124341   6.545   3.033   3.621
 7814SOL    HW224342   6.545   2.872   3.651
 7815SOL     OW24343   5.989   1.536   6.244
 7815SOL    HW124344   6.005   1.623   6.290
 7815SOL    HW224345   5.976   1.552   6.146
 7816SOL     OW24346   0.179   3.523   5.811
 7816SOL    HW124347   0.192   3.489   5.718
 7816SOL    HW224348   0.198   3.450   5.877
 7817SOL     OW24349   5.760   4.229   4.898
 7817SOL    HW124350   5.805   4.147   4.931
 7817SOL    HW224351   5.774   4.303   4.964
 7818SOL     OW24352   6.435   6.782   1.558
 7818SOL    HW124353   6.501   6.726   1.509
 7818SOL    HW224354   6.343   6.746   1.544
 7819SOL     OW24355   6.636   2.510   1.163
 7819SOL    HW124356   6.603   2.581   1.224
 7819SOL    HW224357   6.571   2.433   1.163
 7820SOL     OW24358   1.743   1.703   6.408
 7820SOL    HW124359   1.752   1.761   6.327
 7820SOL    HW224360   1.699   1.617   6.382
 7821SOL     OW24361   3.745   5.623   1.102
 7821SOL    HW124362   3.657   5.582   1.129
 7821SOL    HW224363   3.818   5.581   1.156
 7822SOL     OW24364   1.037   5.638   4.926
 7822SOL    HW124365   1.119   5.693   4.910
 7822SOL    HW224366   0.998   5.660   5.015
 7823SOL     OW24367   2.219   4.272   5.155
 7823SOL    HW124368   2.274   4.225   5.086
 7823SOL    HW224369   2.260   4.257   5.245
 7824SOL     OW24370   0.195   2.494   5.464
 7824SOL    HW124371   0.244   2.431   5.404
 7824SOL    HW224372   0.184   2.453   5.554
 7825SOL     OW24373   2.210   1.928   6.616
 7825SOL    HW124374   2.165   1.975   6.692
 7825SOL    HW224375   2.294   1.885   6.649
 7826SOL     OW24376   6.544   2.662   6.679
 7826SOL    HW124377   6.550   2.568   6.644
 7826SOL    HW224378   6.633   2.690   6.715
 7827SOL     OW24379   6.892   6.233   3.078
 7827SOL    HW124380   6.806   6.190   3.104
 7827SOL    HW224381   6.909   6.218   2.980
 7828SOL     OW24382   0.105   3.759   6.735
 7828SOL    HW124383   0.158   3.684   6.695
 7828SOL    HW224384   0.150   3.791   6.819
 7829SOL     OW24385   3.509   2.804   1.504
 7829SOL    HW124386   3.548   2.867   1.571
 7829SOL    HW224387   3.445   2.743   1.549
 7830SOL     OW24388   2.867   5.252   4.349
 7830SOL    HW124389   2.819   5.218   4.430
 7830SOL    HW224390   2.951   5.199   4.335
 7831SOL     OW24391   1.752   2.088   0.961
 7831SOL    HW124392   1.736   2.175   1.009
 7831SOL    HW224393   1.817   2.034   1.014
 7832SOL     OW24394   5.490   0.528   4.897
 7832SOL    HW124395   5.414   0.591   4.881
 7832SOL    HW224396   5.517   0.486   4.811
 7833SOL     OW24397   1.914   0.352   4.222
 7833SOL    HW124398   1.857   0.429   4.250
 7833SOL    HW224399   2.005   0.385   4.199
 7834SOL     OW24400   6.393   2.639   4.552
 7834SOL    HW124401   6.400   2.735   4.524
 7834SOL    HW224402   6.418   2.581   4.475
 7835SOL     OW24403   4.241   1.996   5.309
 7835SOL    HW124404   4.251   2.095   5.303
 7835SOL    HW224405   4.204   1.961   5.223
 7836SOL     OW24406   3.655   4.222   5.089
 7836SOL    HW124407   3.739   4.190   5.045
 7836SOL    HW224408   3.576   4.177   5.047
 7837SOL     OW24409   6.233   6.620   0.158
 7837SOL    HW124410   6.231   6.524   0.187
 7837SOL    HW224411   6.309   6.634   0.095
 7838SOL     OW24412   5.360   5.511   0.943
 7838SOL    HW124413   5.408   5.564   1.012
 7838SOL    HW224414   5.422   5.490   0.868
 7839SOL     OW24415   6.075   4.127   4.882
 7839SOL    HW124416   6.131   4.055   4.840
 7839SOL    HW224417   6.039   4.187   4.811
 7840SOL     OW24418   2.145   3.943   3.176
 7840SOL    HW124419   2.170   3.847   3.177
 7840SOL    HW224420   2.060   3.955   3.125
 7841SOL     OW24421   5.461   2.047   5.617
 7841SOL    HW124422   5.507   2.066   5.530
 7841SOL    HW224423   5.363   2.038   5.601
 7842SOL     OW24424   1.983   1.212   2.411
 7842SOL    HW124425   1.967   1.146   2.337
 7842SOL    HW224426   1.967   1.305   2.378
 7843SOL     OW24427   0.364   6.638   3.567
 7843SOL    HW124428   0.436   6.696   3.606
 7843SOL    HW224429   0.329   6.575   3.637
 7844SOL     OW24430   3.595   1.040   2.556
 7844SOL    HW124431   3.520   1.044   2.622
 7844SOL    HW224432   3.670   0.987   2.595
 7845SOL     OW24433   6.002   2.035   1.480
 7845SOL    HW124434   5.965   2.104   1.418
 7845SOL    HW224435   6.021   1.952   1.429
 7846SOL     OW24436   1.133   2.599   0.009
 7846SOL    HW124437   1.184   2.685   0.008
 7846SOL    HW224438   1.078   2.594   0.092
 7847SOL     OW24439   5.988   2.278   4.287
 7847SOL    HW124440   6.008   2.203   4.350
 7847SOL    HW224441   6.070   2.334   4.275
 7848SOL     OW24442   2.469   5.008   0.394
 7848SOL    HW124443   2.531   4.985   0.470
 7848SOL    HW224444   2.519   5.001   0.308
 7849SOL     OW24445   4.751   3.937   5.823
 7849SOL    HW124446   4.706   3.848   5.818
 7849SOL    HW224447   4.807   3.951   5.741
 7850SOL     OW24448   6.632   1.458   3.624
 7850SOL    HW124449   6.695   1.514   3.677
 7850SOL    HW224450   6.619   1.370   3.670
 7851SOL     OW24451   1.069   4.362   1.392
 7851SOL    HW124452   1.115   4.451   1.391
 7851SOL    HW224453   1.122   4.298   1.448
 7852SOL     OW24454   2.230   1.913   0.341
 7852SOL    HW124455   2.132   1.924   0.359
 7852SOL    HW224456   2.260   1.824   0.378
 7853SOL     OW24457   4.056   2.894   1.589
 7853SOL    HW124458   4.015   2.844   1.666
 7853SOL    HW224459   4.114   2.832   1.536
 7854SOL     OW24460   4.742   1.831   5.752
 7854SOL    HW124461   4.832   1.867   5.725
 7854SOL    HW224462   4.677   1.907   5.758
 7855SOL     OW24463   5.355   6.908   4.230
 7855SOL    HW124464   5.371   6.883   4.134
 7855SOL    HW224465   5.393   6.999   4.247
 7856SOL     OW24466   2.009   5.393   4.763
 7856SOL    HW124467   1.970   5.408   4.672
 7856SOL    HW224468   2.070   5.314   4.761
 7857SOL     OW24469   5.308   4.057   0.047
 7857SOL    HW124470   5.405   4.077   0.038
 7857SOL    HW224471   5.258   4.141   0.067
 7858SOL     OW24472   0.546   5.111   6.032
 7858SOL    HW124473   0.491   5.186   5.995
 7858SOL    HW224474   0.531   5.028   5.977
 7859SOL     OW24475   5.116   2.574   6.473
 7859SOL    HW124476   5.154   2.611   6.389
 7859SOL    HW224477   5.190   2.538   6.531
 7860SOL     OW24478   2.831   0.827   5.144
 7860SOL    HW124479   2.772   0.880   5.085
 7860SOL    HW224480   2.890   0.888   5.197
 7861SOL     OW24481   2.694   6.309   1.458
 7861SOL    HW124482   2.756   6.245   1.413
 7861SOL    HW224483   2.741   6.396   1.473
 7862SOL     OW24484   2.854   6.171   1.258
 7862SOL    HW124485   2.800   6.159   1.174
 7862SOL    HW224486   2.907   6.256   1.252
 7863SOL     OW24487   6.900   4.221   3.678
 7863SOL    HW124488   6.902   4.295   3.611
 7863SOL    HW224489   6.970   4.154   3.656
 7864SOL     OW24490   2.445   6.490   5.774
 7864SOL    HW124491   2.454   6.475   5.873
 7864SOL    HW224492   2.504   6.425   5.726
 7865SOL     OW24493   6.313   6.480   3.982
 7865SOL    HW124494   6.222   6.439   3.981
 7865SOL    HW224495   6.381   6.411   3.957
 7866SOL     OW24496   1.689   0.629   6.527
 7866SOL    HW124497   1.716   0.720   6.494
 7866SOL    HW224498   1.763   0.589   6.581
 7867SOL     OW24499   5.385   0.407   3.694
 7867SOL    HW124500   5.304   0.386   3.750
 7867SOL    HW224501   5.356   0.427   3.601
 7868SOL     OW24502   3.643   6.628   1.009
 7868SOL    HW124503   3.606   6.596   1.096
 7868SOL    HW224504   3.724   6.575   0.985
 7869SOL     OW24505   4.782   4.133   5.605
 7869SOL    HW124506   4.696   4.110   5.649
 7869SOL    HW224507   4.768   4.145   5.507
 7870SOL     OW24508   4.740   6.356   4.952
 7870SOL    HW124509   4.749   6.455   4.958
 7870SOL    HW224510   4.797   6.313   5.022
 7871SOL     OW24511   5.128   1.620   2.001
 7871SOL    HW124512   5.111   1.524   2.023
 7871SOL    HW224513   5.122   1.634   1.903
 7872SOL     OW24514   1.981   5.794   2.543
 7872SOL    HW124515   1.920   5.717   2.562
 7872SOL    HW224516   1.996   5.847   2.626
 7873SOL     OW24517   6.917   1.347   0.260
 7873SOL    HW124518   6.910   1.304   0.349
 7873SOL    HW224519   6.954   1.439   0.270
 7874SOL     OW24520   5.653   2.574   0.941
 7874SOL    HW124521   5.584   2.585   0.869
 7874SOL    HW224522   5.610   2.536   1.023
 7875SOL     OW24523   4.426   4.352   6.500
 7875SOL    HW124524   4.423   4.263   6.455
 7875SOL    HW224525   4.342   4.403   6.481
 7876SOL     OW24526   0.629   0.204   2.528
 7876SOL    HW124527   0.577   0.286   2.505
 7876SOL    HW224528   0.634   0.195   2.628
 7877SOL     OW24529   6.702   1.508   3.029
 7877SOL    HW124530   6.740   1.470   2.945
 7877SOL    HW224531   6.763   1.490   3.105
 7878SOL     OW24532   4.803   4.614   3.664
 7878SOL    HW124533   4.823   4.704   3.702
 7878SOL    HW224534   4.754   4.625   3.577
 7879SOL     OW24535   2.656   4.686   3.476
 7879SOL    HW124536   2.635   4.642   3.389
 7879SOL    HW224537   2.605   4.772   3.483
 7880SOL     OW24538   1.698   3.733   1.760
 7880SOL    HW124539   1.695   3.818   1.708
 7880SOL    HW224540   1.628   3.734   1.832
 7881SOL     OW24541   4.866   3.650   4.302
 7881SOL    HW124542   4.870   3.707   4.384
 7881SOL    HW224543   4.952   3.600   4.291
 7882SOL     OW24544   1.788   3.014   1.365
 7882SOL    HW124545   1.871   3.065   1.386
 7882SOL    HW224546   1.749   2.977   1.449
 7883SOL     OW24547   1.043   1.374   4.952
 7883SOL    HW124548   1.059   1.419   5.040
 7883SOL    HW224549   1.112   1.303   4.938
 7884SOL     OW24550   0.272   3.234   4.792
 7884SOL    HW124551   0.269   3.171   4.714
 7884SOL    HW224552   0.350   3.210   4.850
 7885SOL     OW24553   6.025   5.355   0.042
 7885SOL    HW124554   6.104   5.415   0.024
 7885SOL    HW224555   6.056   5.269   0.081
 7886SOL     OW24556   4.701   5.554   6.861
 7886SOL    HW124557   4.769   5.567   6.789
 7886SOL    HW224558   4.610   5.557   6.821
 7887SOL     OW24559   4.815   2.269   0.233
 7887SOL    HW124560   4.791   2.354   0.186
 7887SOL    HW224561   4.907   2.241   0.207
 7888SOL     OW24562   4.758   0.701   4.479
 7888SOL    HW124563   4.825   0.752   4.533
 7888SOL    HW224564   4.699   0.649   4.541
 7889SOL     OW24565   0.030   5.904   2.298
 7889SOL    HW124566   0.116   5.947   2.327
 7889SOL    HW224567   0.028   5.809   2.328
 7890SOL     OW24568   1.711   3.979   2.468
 7890SOL    HW124569   1.795   3.928   2.449
 7890SOL    HW224570   1.730   4.077   2.460
 7891SOL     OW24571   2.648   4.817   1.963
 7891SOL    HW124572   2.718   4.747   1.955
 7891SOL    HW224573   2.564   4.787   1.918
 7892SOL     OW24574   2.235   2.179   5.827
 7892SOL    HW124575   2.174   2.234   5.885
 7892SOL    HW224576   2.328   2.214   5.834
 7893SOL     OW24577   6.295   6.491   0.950
 7893SOL    HW124578   6.365   6.559   0.931
 7893SOL    HW224579   6.210   6.537   0.975
 7894SOL     OW24580   2.712   6.397   2.075
 7894SOL    HW124581   2.676   6.373   1.985
 7894SOL    HW224582   2.769   6.479   2.068
 7895SOL     OW24583   6.430   0.984   4.419
 7895SOL    HW124584   6.501   1.010   4.485
 7895SOL    HW224585   6.343   0.974   4.465
 7896SOL     OW24586   4.910   4.253   5.814
 7896SOL    HW124587   4.873   4.208   5.733
 7896SOL    HW224588   4.920   4.186   5.888
 7897SOL     OW24589   2.592   3.598   6.700
 7897SOL    HW124590   2.541   3.643   6.626
 7897SOL    HW224591   2.680   3.566   6.665
 7898SOL     OW24592   4.333   2.327   3.633
 7898SOL    HW124593   4.410   2.267   3.611
 7898SOL    HW224594   4.249   2.288   3.594
 7899SOL     OW24595   5.660   2.016   2.824
 7899SOL    HW124596   5.601   2.095   2.840
 7899SOL    HW224597   5.689   1.978   2.912
 7900SOL     OW24598   1.862   5.800   1.251
 7900SOL    HW124599   1.909   5.755   1.176
 7900SOL    HW224600   1.902   5.891   1.266
 7901SOL     OW24601   6.410   6.460   6.493
 7901SOL    HW124602   6.399   6.519   6.413
 7901SOL    HW224603   6.467   6.381   6.468
 7902SOL     OW24604   4.428   4.212   0.769
 7902SOL    HW124605   4.399   4.161   0.688
 7902SOL    HW224606   4.510   4.171   0.808
 7903SOL     OW24607   6.477   1.539   0.138
 7903SOL    HW124608   6.522   1.624   0.167
 7903SOL    HW224609   6.435   1.495   0.217
 7904SOL     OW24610   6.911   1.363   2.635
 7904SOL    HW124611   6.914   1.408   2.546
 7904SOL    HW224612   6.851   1.413   2.697
 7905SOL     OW24613   4.068   0.793   1.210
 7905SOL    HW124614   4.122   0.854   1.151
 7905SOL    HW224615   4.059   0.833   1.301
 7906SOL     OW24616   5.306   6.020   0.085
 7906SOL    HW124617   5.375   6.076   0.039
 7906SOL    HW224618   5.215   6.042   0.049
 7907SOL     OW24619   7.003   2.999   3.534
 7907SOL    HW124620   6.942   3.022   3.610
 7907SOL    HW224621   0.080   3.005   3.565
 7908SOL     OW24622   6.572   2.072   3.760
 7908SOL    HW124623   6.601   1.977   3.749
 7908SOL    HW224624   6.590   2.122   3.676
 7909SOL     OW24625   4.821   4.104   5.072
 7909SOL    HW124626   4.920   4.111   5.061
 7909SOL    HW224627   4.796   4.123   5.167
 7910SOL     OW24628   4.644   3.360   5.815
 7910SOL    HW124629   4.558   3.332   5.772
 7910SOL    HW224630   4.644   3.459   5.828
 7911SOL     OW24631   6.533   4.833   0.219
 7911SOL    HW124632   6.467   4.814   0.291
 7911SOL    HW224633   6.485   4.841   0.131
 7912SOL     OW24634   5.731   4.616   6.212
 7912SOL    HW124635   5.779   4.578   6.292
 7912SOL    HW224636   5.798   4.638   6.141
 7913SOL     OW24637   6.431   5.363   6.726
 7913SOL    HW124638   6.344   5.378   6.774
 7913SOL    HW224639   6.504   5.410   6.776
 7914SOL     OW24640   6.012   3.881   1.435
 7914SOL    HW124641   6.027   3.822   1.355
 7914SOL    HW224642   5.914   3.889   1.453
 7915SOL     OW24643   3.878   1.851   3.329
 7915SOL    HW124644   3.939   1.929   3.326
 7915SOL    HW224645   3.925   1.773   3.371
 7916SOL     OW24646   5.563   3.137   5.591
 7916SOL    HW124647   5.471   3.138   5.630
 7916SOL    HW224648   5.561   3.171   5.497
 7917SOL     OW24649   3.540   3.887   4.256
 7917SOL    HW124650   3.496   3.837   4.181
 7917SOL    HW224651   3.530   3.986   4.240
 7918SOL     OW24652   6.007   1.407   2.912
 7918SOL    HW124653   6.050   1.322   2.942
 7918SOL    HW224654   5.916   1.388   2.876
 7919SOL     OW24655   5.250   5.252   2.266
 7919SOL    HW124656   5.213   5.206   2.185
 7919SOL    HW224657   5.254   5.350   2.250
 7920SOL     OW24658   0.567   5.209   1.460
 7920SOL    HW124659   0.550   5.115   1.431
 7920SOL    HW224660   0.590   5.265   1.381
 7921SOL     OW24661   2.162   6.752   1.620
 7921SOL    HW124662   2.122   6.817   1.556
 7921SOL    HW224663   2.163   6.660   1.579
 7922SOL     OW24664   1.245   5.626   6.239
 7922SOL    HW124665   1.170   5.559   6.242
 7922SOL    HW224666   1.288   5.625   6.149
 7923SOL     OW24667   1.357   1.275   3.594
 7923SOL    HW124668   1.353   1.279   3.494
 7923SOL    HW224669   1.264   1.274   3.630
 7924SOL     OW24670   2.992   6.858   3.639
 7924SOL    HW124671   3.078   6.827   3.679
 7924SOL    HW224672   2.954   6.932   3.694
 7925SOL     OW24673   6.008   1.676   5.955
 7925SOL    HW124674   6.044   1.708   5.867
 7925SOL    HW224675   5.993   1.754   6.016
 7926SOL     OW24676   3.610   0.600   2.299
 7926SOL    HW124677   3.708   0.607   2.281
 7926SOL    HW224678   3.560   0.612   2.213
 7927SOL     OW24679   4.046   4.867   5.023
 7927SOL    HW124680   4.033   4.810   5.103
 7927SOL    HW224681   4.126   4.835   4.971
 7928SOL     OW24682   1.699   5.299   2.381
 7928SOL    HW124683   1.736   5.386   2.350
 7928SOL    HW224684   1.599   5.302   2.379
 7929SOL     OW24685   4.069   3.680   4.334
 7929SOL    HW124686   4.060   3.581   4.325
 7929SOL    HW224687   4.088   3.720   4.244
 7930SOL     OW24688   4.618   5.209   3.731
 7930SOL    HW124689   4.558   5.282   3.700
 7930SOL    HW224690   4.623   5.138   3.660
 7931SOL     OW24691   2.473   1.848   0.601
 7931SOL    HW124692   2.497   1.761   0.643
 7931SOL    HW224693   2.417   1.902   0.664
 7932SOL     OW24694   1.956   6.849   0.446
 7932SOL    HW124695   2.006   6.786   0.387
 7932SOL    HW224696   1.862   6.857   0.415
 7933SOL     OW24697   1.074   0.614   6.793
 7933SOL    HW124698   1.095   0.533   6.847
 7933SOL    HW224699   1.121   0.693   6.831
 7934SOL     OW24700   2.806   3.806   6.905
 7934SOL    HW124701   2.742   3.736   6.938
 7934SOL    HW224702   2.786   3.825   6.809
 7935SOL     OW24703   4.462   6.618   1.746
 7935SOL    HW124704   4.378   6.565   1.761
 7935SOL    HW224705   4.520   6.613   1.827
 7936SOL     OW24706   4.235   5.943   3.131
 7936SOL    HW124707   4.221   5.914   3.226
 7936SOL    HW224708   4.262   5.864   3.076
 7937SOL     OW24709   6.425   6.399   5.529
 7937SOL    HW124710   6.416   6.350   5.615
 7937SOL    HW224711   6.492   6.473   5.540
 7938SOL     OW24712   4.392   5.276   4.682
 7938SOL    HW124713   4.356   5.247   4.771
 7938SOL    HW224714   4.489   5.300   4.692
 7939SOL     OW24715   1.143   0.936   5.894
 7939SOL    HW124716   1.168   0.849   5.853
 7939SOL    HW224717   1.043   0.945   5.894
 7940SOL     OW24718   2.258   5.726   1.248
 7940SOL    HW124719   2.204   5.666   1.189
 7940SOL    HW224720   2.300   5.671   1.321
 7941SOL     OW24721   0.127   1.060   0.574
 7941SOL    HW124722   0.067   1.046   0.494
 7941SOL    HW224723   0.103   1.147   0.617
 7942SOL     OW24724   0.436   0.086   1.656
 7942SOL    HW124725   0.404   0.093   1.751
 7942SOL    HW224726   0.465   7.010   1.638
 7943SOL     OW24727   5.662   2.189   0.797
 7943SOL    HW124728   5.644   2.218   0.703
 7943SOL    HW224729   5.760   2.197   0.816
 7944SOL     OW24730   0.614   4.112   0.963
 7944SOL    HW124731   0.680   4.184   0.982
 7944SOL    HW224732   0.522   4.152   0.955
 7945SOL     OW24733   5.384   6.522   2.744
 7945SOL    HW124734   5.305   6.462   2.749
 7945SOL    HW224735   5.434   6.505   2.659
 7946SOL     OW24736   2.053   2.354   5.955
 7946SOL    HW124737   1.989   2.403   5.896
 7946SOL    HW224738   2.011   2.335   6.043
 7947SOL     OW24739   4.376   2.828   6.542
 7947SOL    HW124740   4.303   2.760   6.540
 7947SOL    HW224741   4.424   2.828   6.455
 7948SOL     OW24742   0.099   6.509   0.451
 7948SOL    HW124743   0.004   6.535   0.468
 7948SOL    HW224744   0.159   6.556   0.516
 7949SOL     OW24745   5.403   4.955   3.636
 7949SOL    HW124746   5.402   5.025   3.565
 7949SOL    HW224747   5.495   4.918   3.646
 7950SOL     OW24748   3.938   5.102   3.908
 7950SOL    HW124749   3.850   5.073   3.946
 7950SOL    HW224750   4.011   5.079   3.973
 7951SOL     OW24751   3.529   3.531   0.727
 7951SOL    HW124752   3.596   3.457   0.717
 7951SOL    HW224753   3.570   3.618   0.700
 7952SOL     OW24754   6.105   3.451   0.922
 7952SOL    HW124755   6.089   3.550   0.916
 7952SOL    HW224756   6.194   3.434   0.964
 7953SOL     OW24757   2.458   2.566   3.322
 7953SOL    HW124758   2.548   2.530   3.296
 7953SOL    HW224759   2.388   2.525   3.263
 7954SOL     OW24760   4.105   5.514   4.488
 7954SOL    HW124761   4.081   5.461   4.569
 7954SOL    HW224762   4.202   5.501   4.468
 7955SOL     OW24763   0.518   6.294   6.420
 7955SOL    HW124764   0.468   6.258   6.341
 7955SOL    HW224765   0.598   6.345   6.388
 7956SOL     OW24766   6.589   6.104   4.237
 7956SOL    HW124767   6.497   6.142   4.223
 7956SOL    HW224768   6.605   6.032   4.170
 7957SOL     OW24769   1.161   1.344   1.018
 7957SOL    HW124770   1.145   1.413   0.947
 7957SOL    HW224771   1.116   1.258   0.992
 7958SOL     OW24772   3.082   4.879   3.457
 7958SOL    HW124773   3.027   4.853   3.377
 7958SOL    HW224774   3.170   4.916   3.426
 7959SOL     OW24775   6.291   4.816   0.411
 7959SOL    HW124776   6.292   4.907   0.452
 7959SOL    HW224777   6.320   4.749   0.479
 7960SOL     OW24778   2.678   1.611   1.251
 7960SOL    HW124779   2.720   1.701   1.240
 7960SOL    HW224780   2.691   1.580   1.345
 7961SOL     OW24781   1.459   5.899   6.259
 7961SOL    HW124782   1.416   5.875   6.171
 7961SOL    HW224783   1.548   5.941   6.242
 7962SOL     OW24784   1.820   0.787   2.108
 7962SOL    HW124785   1.862   0.877   2.120
 7962SOL    HW224786   1.891   0.721   2.082
 7963SOL     OW24787   0.867   0.946   5.855
 7963SOL    HW124788   0.800   0.964   5.928
 7963SOL    HW224789   0.840   0.864   5.805
 7964SOL     OW24790   5.493   5.375   3.530
 7964SOL    HW124791   5.438   5.324   3.464
 7964SOL    HW224792   5.433   5.413   3.601
 7965SOL     OW24793   5.112   2.515   0.256
 7965SOL    HW124794   5.182   2.449   0.281
 7965SOL    HW224795   5.046   2.472   0.194
 7966SOL     OW24796   0.134   4.963   3.926
 7966SOL    HW124797   0.037   4.967   3.950
 7966SOL    HW224798   0.145   4.909   3.842
 7967SOL     OW24799   3.256   6.379   2.516
 7967SOL    HW124800   3.198   6.430   2.580
 7967SOL    HW224801   3.253   6.282   2.540
 7968SOL     OW24802   2.367   2.363   3.495
 7968SOL    HW124803   2.425   2.433   3.453
 7968SOL    HW224804   2.413   2.323   3.574
 7969SOL     OW24805   3.638   1.474   3.455
 7969SOL    HW124806   3.652   1.523   3.540
 7969SOL    HW224807   3.713   1.409   3.441
 7970SOL     OW24808   0.463   4.154   3.012
 7970SOL    HW124809   0.499   4.236   2.969
 7970SOL    HW224810   0.407   4.103   2.947
 7971SOL     OW24811   3.454   0.221   1.025
 7971SOL    HW124812   3.375   0.279   1.045
 7971SOL    HW224813   3.534   0.256   1.076
 7972SOL     OW24814   0.073   4.687   1.551
 7972SOL    HW124815   0.127   4.768   1.575
 7972SOL    HW224816   0.039   4.644   1.635
 7973SOL     OW24817   5.009   3.259   3.652
 7973SOL    HW124818   5.025   3.342   3.707
 7973SOL    HW224819   4.938   3.278   3.584
 7974SOL     OW24820   5.239   0.486   4.165
 7974SOL    HW124821   5.194   0.399   4.144
 7974SOL    HW224822   5.332   0.484   4.130
 7975SOL     OW24823   3.215   1.012   4.285
 7975SOL    HW124824   3.296   1.012   4.344
 7975SOL    HW224825   3.225   1.081   4.214
 7976SOL     OW24826   1.028   6.119   5.342
 7976SOL    HW124827   1.045   6.060   5.421
 7976SOL    HW224828   1.001   6.210   5.374
 7977SOL     OW24829   5.351   6.233   1.769
 7977SOL    HW124830   5.305   6.321   1.758
 7977SOL    HW224831   5.447   6.249   1.791
 7978SOL     OW24832   4.418   3.531   5.821
 7978SOL    HW124833   4.441   3.585   5.740
 7978SOL    HW224834   4.462   3.570   5.902
 7979SOL     OW24835   2.709   0.072   4.054
 7979SOL    HW124836   2.795   0.040   4.094
 7979SOL    HW224837   2.636   0.066   4.122
 7980SOL     OW24838   3.181   5.963   0.040
 7980SOL    HW124839   3.192   5.871   0.077
 7980SOL    HW224840   3.094   5.969   7.008
 7981SOL     OW24841   1.226   5.226   2.433
 7981SOL    HW124842   1.168   5.257   2.508
 7981SOL    HW224843   1.171   5.173   2.369
 7982SOL     OW24844   6.429   2.260   0.472
 7982SOL    HW124845   6.354   2.212   0.426
 7982SOL    HW224846   6.423   2.358   0.452
 7983SOL     OW24847   5.355   1.882   2.320
 7983SOL    HW124848   5.290   1.918   2.387
 7983SOL    HW224849   5.384   1.955   2.259
 7984SOL     OW24850   0.061   2.548   2.144
 7984SOL    HW124851   6.993   2.500   2.125
 7984SOL    HW224852   0.134   2.481   2.160
 7985SOL     OW24853   0.785   1.359   2.563
 7985SOL    HW124854   0.709   1.388   2.504
 7985SOL    HW224855   0.815   1.268   2.536
 7986SOL     OW24856   3.955   0.980   6.598
 7986SOL    HW124857   4.053   0.969   6.616
 7986SOL    HW224858   3.936   1.076   6.575
 7987SOL     OW24859   0.627   2.431   5.522
 7987SOL    HW124860   0.720   2.398   5.506
 7987SOL    HW224861   0.572   2.419   5.440
 7988SOL     OW24862   2.676   1.947   4.671
 7988SOL    HW124863   2.751   1.943   4.606
 7988SOL    HW224864   2.709   1.919   4.762
 7989SOL     OW24865   3.095   2.245   5.668
 7989SOL    HW124866   3.010   2.275   5.625
 7989SOL    HW224867   3.159   2.321   5.673
 7990SOL     OW24868   0.972   2.547   4.587
 7990SOL    HW124869   1.065   2.521   4.610
 7990SOL    HW224870   0.967   2.647   4.575
 7991SOL     OW24871   0.339   2.520   6.032
 7991SOL    HW124872   0.437   2.516   6.010
 7991SOL    HW224873   0.327   2.577   6.113
 7992SOL     OW24874   1.781   0.139   0.814
 7992SOL    HW124875   1.724   0.191   0.879
 7992SOL    HW224876   1.722   0.088   0.752
 7993SOL     OW24877   2.170   5.572   6.743
 7993SOL    HW124878   2.186   5.652   6.800
 7993SOL    HW224879   2.118   5.504   6.795
 7994SOL     OW24880   4.850   1.413   3.333
 7994SOL    HW124881   4.919   1.445   3.268
 7994SOL    HW224882   4.802   1.491   3.373
 7995SOL     OW24883   2.811   5.361   4.040
 7995SOL    HW124884   2.897   5.388   4.082
 7995SOL    HW224885   2.827   5.338   3.944
 7996SOL     OW24886   3.726   6.962   4.753
 7996SOL    HW124887   3.669   0.013   4.796
 7996SOL    HW224888   3.678   6.924   4.674
 7997SOL     OW24889   5.902   2.440   0.956
 7997SOL    HW124890   5.812   2.484   0.957
 7997SOL    HW224891   5.955   2.473   0.878
 7998SOL     OW24892   5.542   4.152   0.511
 7998SOL    HW124893   5.632   4.123   0.542
 7998SOL    HW224894   5.551   4.231   0.450
 7999SOL     OW24895   1.847   6.875   5.312
 7999SOL    HW124896   1.910   6.947   5.285
 7999SOL    HW224897   1.758   6.891   5.270
 8000SOL     OW24898   6.482   6.820   5.686
 8000SOL    HW124899   6.534   6.735   5.674
 8000SOL    HW224900   6.546   6.897   5.691
 8001SOL     OW24901   2.112   6.740   1.203
 8001SOL    HW124902   2.187   6.708   1.146
 8001SOL    HW224903   2.034   6.765   1.144
 8002SOL     OW24904   5.952   2.834   5.024
 8002SOL    HW124905   6.038   2.783   5.036
 8002SOL    HW224906   5.973   2.931   5.014
 8003SOL     OW24907   3.625   5.099   3.148
 8003SOL    HW124908   3.641   5.068   3.242
 8003SOL    HW224909   3.540   5.151   3.144
 8004SOL     OW24910   2.227   4.211   2.988
 8004SOL    HW124911   2.226   4.166   3.077
 8004SOL    HW224912   2.310   4.267   2.980
 8005SOL     OW24913   3.370   0.744   1.530
 8005SOL    HW124914   3.405   0.808   1.599
 8005SOL    HW224915   3.427   0.663   1.528
 8006SOL     OW24916   2.569   5.916   0.527
 8006SOL    HW124917   2.549   6.013   0.516
 8006SOL    HW224918   2.495   5.872   0.578
 8007SOL     OW24919   0.043   0.591   4.255
 8007SOL    HW124920   6.997   0.521   4.224
 8007SOL    HW224921   0.133   0.575   4.214
 8008SOL     OW24922   6.169   6.879   0.224
 8008SOL    HW124923   6.198   6.784   0.210
 8008SOL    HW224924   6.147   6.921   0.136
 8009SOL     OW24925   6.790   6.963   3.817
 8009SOL    HW124926   6.706   6.911   3.835
 8009SOL    HW224927   6.778   0.000   3.734
 8010SOL     OW24928   2.255   2.168   0.489
 8010SOL    HW124929   2.232   2.250   0.437
 8010SOL    HW224930   2.230   2.087   0.436
 8011SOL     OW24931   3.245   2.451   1.074
 8011SOL    HW124932   3.282   2.483   1.162
 8011SOL    HW224933   3.167   2.391   1.090
 8012SOL     OW24934   2.518   6.563   1.761
 8012SOL    HW124935   2.591   6.630   1.774
 8012SOL    HW224936   2.554   6.471   1.776
 8013SOL     OW24937   5.420   5.027   4.509
 8013SOL    HW124938   5.344   5.074   4.553
 8013SOL    HW224939   5.442   5.072   4.422
 8014SOL     OW24940   2.037   6.857   6.629
 8014SOL    HW124941   2.022   6.860   6.530
 8014SOL    HW224942   2.132   6.833   6.648
 8015SOL     OW24943   2.762   2.482   0.565
 8015SOL    HW124944   2.676   2.432   0.554
 8015SOL    HW224945   2.785   2.487   0.662
 8016SOL     OW24946   4.377   6.858   0.026
 8016SOL    HW124947   4.366   6.941   0.080
 8016SOL    HW224948   4.314   6.862   6.966
 8017SOL     OW24949   6.610   3.654   4.917
 8017SOL    HW124950   6.512   3.655   4.940
 8017SOL    HW224951   6.661   3.704   4.987
 8018SOL     OW24952   4.720   1.763   5.484
 8018SOL    HW124953   4.770   1.683   5.448
 8018SOL    HW224954   4.752   1.783   5.576
 8019SOL     OW24955   1.701   5.947   0.510
 8019SOL    HW124956   1.781   5.979   0.561
 8019SOL    HW224957   1.702   5.848   0.506
 8020SOL     OW24958   5.159   5.376   6.482
 8020SOL    HW124959   5.196   5.452   6.536
 8020SOL    HW224960   5.061   5.368   6.500
 8021SOL     OW24961   0.469   1.153   0.861
 8021SOL    HW124962   0.561   1.115   0.866
 8021SOL    HW224963   0.458   1.223   0.932
 8022SOL     OW24964   4.345   6.593   3.081
 8022SOL    HW124965   4.265   6.583   3.141
 8022SOL    HW224966   4.427   6.608   3.136
 8023SOL     OW24967   6.138   5.877   2.421
 8023SOL    HW124968   6.144   5.949   2.352
 8023SOL    HW224969   6.197   5.801   2.395
 8024SOL     OW24970   4.599   5.491   5.582
 8024SOL    HW124971   4.548   5.505   5.667
 8024SOL    HW224972   4.538   5.501   5.504
 8025SOL     OW24973   3.662   5.888   6.408
 8025SOL    HW124974   3.749   5.839   6.408
 8025SOL    HW224975   3.587   5.823   6.395
 8026SOL     OW24976   1.860   3.343   6.492
 8026SOL    HW124977   1.888   3.425   6.443
 8026SOL    HW224978   1.929   3.272   6.482
 8027SOL     OW24979   4.566   1.931   5.129
 8027SOL    HW124980   4.640   1.941   5.063
 8027SOL    HW224981   4.488   1.885   5.086
 8028SOL     OW24982   4.758   5.181   6.390
 8028SOL    HW124983   4.778   5.259   6.330
 8028SOL    HW224984   4.810   5.102   6.359
 8029SOL     OW24985   4.085   4.218   0.508
 8029SOL    HW124986   4.155   4.232   0.438
 8029SOL    HW224987   4.028   4.140   0.484
 8030SOL     OW24988   5.831   4.284   6.082
 8030SOL    HW124989   5.732   4.276   6.090
 8030SOL    HW224990   5.854   4.346   6.007
 8031SOL     OW24991   3.846   5.490   1.591
 8031SOL    HW124992   3.760   5.465   1.546
 8031SOL    HW224993   3.842   5.585   1.621
 8032SOL     OW24994   5.320   4.088   5.403
 8032SOL    HW124995   5.220   4.094   5.407
 8032SOL    HW224996   5.349   4.060   5.312
 8033SOL     OW24997   5.608   2.397   0.307
 8033SOL    HW124998   5.553   2.452   0.244
 8033SOL    HW224999   5.593   2.428   0.401
 8034SOL     OW25000   5.021   0.077   4.675
 8034SOL    HW125001   5.064   0.167   4.686
 8034SOL    HW225002   5.052   0.035   4.590
 8035SOL     OW25003   5.741   6.294   7.001
 8035SOL    HW125004   5.701   6.275   0.073
 8035SOL    HW225005   5.802   6.372   7.007
 8036SOL     OW25006   2.123   3.935   1.943
 8036SOL    HW125007   2.093   3.888   1.860
 8036SOL    HW225008   2.123   3.871   2.020
 8037SOL     OW25009   1.476   2.613   0.656
 8037SOL    HW125010   1.398   2.673   0.675
 8037SOL    HW225011   1.561   2.667   0.662
 8038SOL     OW25012   0.474   2.106   3.592
 8038SOL    HW125013   0.504   2.125   3.686
 8038SOL    HW225014   0.376   2.086   3.592
 8039SOL     OW25015   2.142   6.878   3.236
 8039SOL    HW125016   2.109   6.939   3.163
 8039SOL    HW225017   2.093   6.791   3.231
 8040SOL     OW25018   0.448   5.455   1.015
 8040SOL    HW125019   0.461   5.545   0.972
 8040SOL    HW225020   0.472   5.460   1.112
 8041SOL     OW25021   4.413   1.337   0.716
 8041SOL    HW125022   4.385   1.315   0.623
 8041SOL    HW225023   4.483   1.273   0.746
 8042SOL     OW25024   3.343   2.850   2.459
 8042SOL    HW125025   3.357   2.816   2.552
 8042SOL    HW225026   3.249   2.883   2.448
 8043SOL     OW25027   2.731   0.260   1.460
 8043SOL    HW125028   2.642   0.249   1.505
 8043SOL    HW225029   2.722   0.234   1.364
 8044SOL     OW25030   2.938   3.422   1.281
 8044SOL    HW125031   2.947   3.489   1.355
 8044SOL    HW225032   3.017   3.431   1.219
 8045SOL     OW25033   5.734   2.472   3.304
 8045SOL    HW125034   5.718   2.374   3.292
 8045SOL    HW225035   5.717   2.519   3.217
 8046SOL     OW25036   6.023   4.558   5.741
 8046SOL    HW125037   5.951   4.529   5.679
 8046SOL    HW225038   6.044   4.655   5.725
 8047SOL     OW25039   3.675   5.918   4.568
 8047SOL    HW125040   3.661   5.823   4.596
 8047SOL    HW225041   3.772   5.941   4.572
 8048SOL     OW25042   6.669   0.011   5.706
 8048SOL    HW125043   6.674   0.089   5.768
 8048SOL    HW225044   6.756   6.980   5.706
 8049SOL     OW25045   1.309   6.665   1.156
 8049SOL    HW125046   1.293   6.621   1.244
 8049SOL    HW225047   1.356   6.752   1.171
 8050SOL     OW25048   1.631   3.231   0.863
 8050SOL    HW125049   1.532   3.226   0.852
 8050SOL    HW225050   1.658   3.183   0.946
 8051SOL     OW25051   4.943   0.981   2.991
 8051SOL    HW125052   4.843   0.985   2.995
 8051SOL    HW225053   4.981   1.070   3.015
 8052SOL     OW25054   3.241   1.762   2.660
 8052SOL    HW125055   3.295   1.681   2.683
 8052SOL    HW225056   3.186   1.789   2.739
 8053SOL     OW25057   3.800   3.964   2.644
 8053SOL    HW125058   3.887   3.971   2.595
 8053SOL    HW225059   3.810   4.005   2.735
 8054SOL     OW25060   4.876   0.051   4.129
 8054SOL    HW125061   4.915   6.989   4.175
 8054SOL    HW225062   4.837   0.113   4.197
 8055SOL     OW25063   1.635   6.975   6.006
 8055SOL    HW125064   1.700   6.936   6.071
 8055SOL    HW225065   1.559   6.912   5.991
 8056SOL     OW25066   4.461   1.708   3.109
 8056SOL    HW125067   4.443   1.714   3.011
 8056SOL    HW225068   4.531   1.774   3.135
 8057SOL     OW25069   3.003   6.964   3.065
 8057SOL    HW125070   3.003   6.900   3.142
 8057SOL    HW225071   2.916   7.012   3.062
 8058SOL     OW25072   3.194   0.541   2.424
 8058SOL    HW125073   3.143   0.603   2.364
 8058SOL    HW225074   3.195   0.449   2.384
 8059SOL     OW25075   2.955   2.247   4.791
 8059SOL    HW125076   3.037   2.289   4.830
 8059SOL    HW225077   2.971   2.223   4.696
 8060SOL     OW25078   6.627   0.677   4.923
 8060SOL    HW125079   6.611   0.636   4.833
 8060SOL    HW225080   6.608   0.776   4.919
 8061SOL     OW25081   6.626   5.538   3.052
 8061SOL    HW125082   6.542   5.583   3.082
 8061SOL    HW225083   6.634   5.546   2.953
 8062SOL     OW25084   1.382   4.113   3.827
 8062SOL    HW125085   1.359   4.127   3.730
 8062SOL    HW225086   1.433   4.029   3.837
 8063SOL     OW25087   3.067   3.303   6.674
 8063SOL    HW125088   3.118   3.263   6.598
 8063SOL    HW225089   2.981   3.252   6.686
 8064SOL     OW25090   0.173   3.489   0.425
 8064SOL    HW125091   0.115   3.431   0.368
 8064SOL    HW225092   0.116   3.559   0.469
 8065SOL     OW25093   4.659   0.421   4.078
 8065SOL    HW125094   4.639   0.326   4.054
 8065SOL    HW225095   4.680   0.473   3.996
 8066SOL     OW25096   1.596   0.859   1.439
 8066SOL    HW125097   1.669   0.855   1.508
 8066SOL    HW225098   1.546   0.773   1.438
 8067SOL     OW25099   4.694   2.575   1.443
 8067SOL    HW125100   4.788   2.541   1.440
 8067SOL    HW225101   4.636   2.516   1.385
 8068SOL     OW25102   0.931   4.143   4.991
 8068SOL    HW125103   0.936   4.157   5.090
 8068SOL    HW225104   0.951   4.047   4.970
 8069SOL     OW25105   1.471   6.334   1.447
 8069SOL    HW125106   1.522   6.316   1.532
 8069SOL    HW225107   1.399   6.400   1.466
 8070SOL     OW25108   3.741   6.481   1.767
 8070SOL    HW125109   3.708   6.406   1.710
 8070SOL    HW225110   3.715   6.465   1.862
 8071SOL     OW25111   3.401   0.123   5.988
 8071SOL    HW125112   3.411   0.117   5.889
 8071SOL    HW225113   3.313   0.084   6.016
 8072SOL     OW25114   4.992   1.440   0.428
 8072SOL    HW125115   4.903   1.461   0.469
 8072SOL    HW225116   5.060   1.426   0.500
 8073SOL     OW25117   4.107   6.478   5.637
 8073SOL    HW125118   4.202   6.448   5.633
 8073SOL    HW225119   4.058   6.445   5.556
 8074SOL     OW25120   3.394   3.688   0.180
 8074SOL    HW125121   3.327   3.761   0.165
 8074SOL    HW225122   3.484   3.719   0.148
 8075SOL     OW25123   6.879   1.285   2.965
 8075SOL    HW125124   6.831   1.227   2.899
 8075SOL    HW225125   6.973   1.298   2.935
 8076SOL     OW25126   6.023   2.487   5.068
 8076SOL    HW125127   6.000   2.454   5.160
 8076SOL    HW225128   6.082   2.567   5.076
 8077SOL     OW25129   0.939   0.179   1.031
 8077SOL    HW125130   0.839   0.172   1.039
 8077SOL    HW225131   0.982   0.138   1.111
 8078SOL     OW25132   6.228   2.663   0.980
 8078SOL    HW125133   6.173   2.741   1.009
 8078SOL    HW225134   6.231   2.595   1.054
 8079SOL     OW25135   6.809   2.208   2.721
 8079SOL    HW125136   6.713   2.195   2.700
 8079SOL    HW225137   6.836   2.302   2.698
 8080SOL     OW25138   2.916   4.212   0.453
 8080SOL    HW125139   2.972   4.178   0.529
 8080SOL    HW225140   2.861   4.289   0.484
 8081SOL     OW25141   5.904   0.486   4.922
 8081SOL    HW125142   5.820   0.446   4.958
 8081SOL    HW225143   5.928   0.442   4.836
 8082SOL     OW25144   0.076   2.512   3.766
 8082SOL    HW125145   0.091   2.611   3.770
 8082SOL    HW225146   7.010   2.493   3.714
 8083SOL     OW25147   4.522   2.584   3.204
 8083SOL    HW125148   4.511   2.683   3.199
 8083SOL    HW225149   4.471   2.549   3.283
 8084SOL     OW25150   6.899   6.664   1.808
 8084SOL    HW125151   6.809   6.641   1.770
 8084SOL    HW225152   6.969   6.607   1.764
 8085SOL     OW25153   6.117   0.695   1.091
 8085SOL    HW125154   6.101   0.597   1.085
 8085SOL    HW225155   6.095   0.739   1.004
 8086SOL     OW25156   3.933   1.010   4.966
 8086SOL    HW125157   4.017   1.002   4.913
 8086SOL    HW225158   3.902   0.919   4.994
 8087SOL     OW25159   2.826   2.439   1.312
 8087SOL    HW125160   2.784   2.349   1.324
 8087SOL    HW225161   2.855   2.475   1.400
 8088SOL     OW25162   4.876   0.920   2.403
 8088SOL    HW125163   4.789   0.909   2.452
 8088SOL    HW225164   4.902   0.834   2.361
 8089SOL     OW25165   5.469   3.166   0.456
 8089SOL    HW125166   5.443   3.254   0.416
 8089SOL    HW225167   5.387   3.112   0.475
 8090SOL     OW25168   5.292   1.710   5.796
 8090SOL    HW125169   5.193   1.716   5.804
 8090SOL    HW225170   5.319   1.713   5.700
 8091SOL     OW25171   2.783   4.621   6.266
 8091SOL    HW125172   2.710   4.634   6.334
 8091SOL    HW225173   2.839   4.703   6.262
 8092SOL     OW25174   1.342   1.491   4.836
 8092SOL    HW125175   1.253   1.532   4.814
 8092SOL    HW225176   1.384   1.541   4.911
 8093SOL     OW25177   5.568   5.384   0.801
 8093SOL    HW125178   5.608   5.365   0.891
 8093SOL    HW225179   5.636   5.428   0.742
 8094SOL     OW25180   1.008   4.139   6.002
 8094SOL    HW125181   0.929   4.141   6.065
 8094SOL    HW225182   1.061   4.223   6.014
 8095SOL     OW25183   5.709   3.256   4.642
 8095SOL    HW125184   5.801   3.294   4.648
 8095SOL    HW225185   5.651   3.316   4.587
 8096SOL     OW25186   3.467   6.260   1.837
 8096SOL    HW125187   3.423   6.170   1.835
 8096SOL    HW225188   3.450   6.307   1.750
 8097SOL     OW25189   4.963   1.158   3.237
 8097SOL    HW125190   4.910   1.238   3.264
 8097SOL    HW225191   5.021   1.129   3.312
 8098SOL     OW25192   2.912   6.280   4.102
 8098SOL    HW125193   2.856   6.362   4.119
 8098SOL    HW225194   2.871   6.202   4.149
 8099SOL     OW25195   4.580   6.744   5.070
 8099SOL    HW125196   4.654   6.718   5.007
 8099SOL    HW225197   4.587   6.688   5.153
 8100SOL     OW25198   0.209   6.632   0.672
 8100SOL    HW125199   0.171   6.669   0.757
 8100SOL    HW225200   0.308   6.643   0.673
 8101SOL     OW25201   1.281   6.308   3.603
 8101SOL    HW125202   1.223   6.370   3.657
 8101SOL    HW225203   1.249   6.307   3.508
 8102SOL     OW25204   6.759   5.661   5.998
 8102SOL    HW125205   6.806   5.738   5.955
 8102SOL    HW225206   6.778   5.578   5.945
 8103SOL     OW25207   3.489   1.264   2.380
 8103SOL    HW125208   3.531   1.321   2.450
 8103SOL    HW225209   3.548   1.187   2.359
 8104SOL     OW25210   2.607   6.872   6.556
 8104SOL    HW125211   2.560   6.950   6.513
 8104SOL    HW225212   2.632   6.806   6.485
 8105SOL     OW25213   2.391   1.933   3.409
 8105SOL    HW125214   2.477   1.983   3.422
 8105SOL    HW225215   2.410   1.841   3.376
 8106SOL     OW25216   0.996   4.096   4.030
 8106SOL    HW125217   0.961   4.107   4.123
 8106SOL    HW225218   1.081   4.148   4.021
 8107SOL     OW25219   2.152   6.311   5.879
 8107SOL    HW125220   2.153   6.232   5.818
 8107SOL    HW225221   2.245   6.331   5.910
 8108SOL     OW25222   0.934   3.504   4.381
 8108SOL    HW125223   0.955   3.410   4.409
 8108SOL    HW225224   0.841   3.527   4.408
 8109SOL     OW25225   1.417   4.609   4.922
 8109SOL    HW125226   1.492   4.634   4.983
 8109SOL    HW225227   1.439   4.525   4.874
 8110SOL     OW25228   2.411   6.129   0.470
 8110SOL    HW125229   2.366   6.187   0.538
 8110SOL    HW225230   2.391   6.165   0.379
 8111SOL     OW25231   3.123   5.202   4.577
 8111SOL    HW125232   3.112   5.124   4.638
 8111SOL    HW225233   3.047   5.266   4.592
 8112SOL     OW25234   2.427   0.693   5.039
 8112SOL    HW125235   2.370   0.631   4.986
 8112SOL    HW225236   2.369   0.758   5.088
 8113SOL     OW25237   3.420   2.686   6.381
 8113SOL    HW125238   3.381   2.721   6.466
 8113SOL    HW225239   3.517   2.665   6.394
 8114SOL     OW25240   2.172   3.038   2.119
 8114SOL    HW125241   2.250   3.073   2.171
 8114SOL    HW225242   2.204   3.007   2.029
 8115SOL     OW25243   3.368   1.538   1.288
 8115SOL    HW125244   3.392   1.444   1.311
 8115SOL    HW225245   3.290   1.567   1.343
 8116SOL     OW25246   6.215   0.229   5.357
 8116SOL    HW125247   6.130   0.274   5.384
 8116SOL    HW225248   6.284   0.242   5.429
 8117SOL     OW25249   1.737   1.731   5.272
 8117SOL    HW125250   1.772   1.746   5.365
 8117SOL    HW225251   1.701   1.816   5.236
 8118SOL     OW25252   0.745   3.155   5.316
 8118SOL    HW125253   0.750   3.095   5.396
 8118SOL    HW225254   0.830   3.206   5.308
 8119SOL     OW25255   0.647   6.156   2.783
 8119SOL    HW125256   0.666   6.099   2.863
 8119SOL    HW225257   0.693   6.117   2.703
 8120SOL     OW25258   4.277   4.051   1.142
 8120SOL    HW125259   4.284   3.954   1.167
 8120SOL    HW225260   4.248   4.059   1.047
 8121SOL     OW25261   6.499   0.633   2.649
 8121SOL    HW125262   6.588   0.590   2.658
 8121SOL    HW225263   6.460   0.610   2.559
 8122SOL     OW25264   6.488   6.613   1.994
 8122SOL    HW125265   6.517   6.700   1.957
 8122SOL    HW225266   6.389   6.616   2.013
 8123SOL     OW25267   1.828   6.455   6.890
 8123SOL    HW125268   1.849   6.382   6.826
 8123SOL    HW225269   1.817   6.541   6.840
 8124SOL     OW25270   1.180   5.897   1.769
 8124SOL    HW125271   1.150   5.885   1.674
 8124SOL    HW225272   1.267   5.851   1.782
 8125SOL     OW25273   5.893   4.929   3.055
 8125SOL    HW125274   5.934   4.934   3.146
 8125SOL    HW225275   5.951   4.977   2.989
 8126SOL     OW25276   5.700   4.387   2.640
 8126SOL    HW125277   5.663   4.477   2.663
 8126SOL    HW225278   5.666   4.358   2.551
 8127SOL     OW25279   2.060   5.126   6.975
 8127SOL    HW125280   2.136   5.065   6.996
 8127SOL    HW225281   1.983   5.072   6.941
 8128SOL     OW25282   3.652   2.419   5.421
 8128SOL    HW125283   3.640   2.356   5.344
 8128SOL    HW225284   3.688   2.506   5.386
 8129SOL     OW25285   5.390   0.447   5.946
 8129SOL    HW125286   5.434   0.378   5.888
 8129SOL    HW225287   5.432   0.536   5.929
 8130SOL     OW25288   1.860   6.232   6.716
 8130SOL    HW125289   1.948   6.220   6.762
 8130SOL    HW225290   1.808   6.146   6.721
 8131SOL     OW25291   2.925   1.066   0.695
 8131SOL    HW125292   2.854   1.044   0.761
 8131SOL    HW225293   3.015   1.056   0.738
 8132SOL     OW25294   5.759   5.400   3.791
 8132SOL    HW125295   5.764   5.405   3.691
 8132SOL    HW225296   5.813   5.322   3.823
 8133SOL     OW25297   2.164   5.289   2.546
 8133SOL    HW125298   2.167   5.233   2.464
 8133SOL    HW225299   2.199   5.381   2.525
 8134SOL     OW25300   2.175   2.479   3.646
 8134SOL    HW125301   2.247   2.461   3.579
 8134SOL    HW225302   2.110   2.403   3.647
 8135SOL     OW25303   4.113   5.533   1.995
 8135SOL    HW125304   4.168   5.480   2.061
 8135SOL    HW225305   4.141   5.509   1.902
 8136SOL     OW25306   4.134   5.713   2.238
 8136SOL    HW125307   4.078   5.664   2.305
 8136SOL    HW225308   4.120   5.673   2.147
 8137SOL     OW25309   2.250   4.345   4.880
 8137SOL    HW125310   2.226   4.249   4.891
 8137SOL    HW225311   2.263   4.387   4.970
 8138SOL     OW25312   5.088   0.863   2.794
 8138SOL    HW125313   5.040   0.911   2.867
 8138SOL    HW225314   5.177   0.833   2.827
 8139SOL     OW25315   1.681   2.052   3.340
 8139SOL    HW125316   1.707   2.106   3.260
 8139SOL    HW225317   1.623   2.107   3.400
 8140SOL     OW25318   5.062   0.833   0.910
 8140SOL    HW125319   5.003   0.775   0.965
 8140SOL    HW225320   5.059   0.927   0.945
 8141SOL     OW25321   5.018   1.651   5.806
 8141SOL    HW125322   4.926   1.690   5.799
 8141SOL    HW225323   5.028   1.608   5.896
 8142SOL     OW25324   2.369   5.522   0.496
 8142SOL    HW125325   2.451   5.476   0.464
 8142SOL    HW225326   2.319   5.463   0.559
 8143SOL     OW25327   5.663   4.683   0.842
 8143SOL    HW125328   5.717   4.700   0.924
 8143SOL    HW225329   5.642   4.585   0.836
 8144SOL     OW25330   0.025   4.741   6.002
 8144SOL    HW125331   0.031   4.736   6.101
 8144SOL    HW225332   0.092   4.679   5.961
 8145SOL     OW25333   5.102   5.536   0.052
 8145SOL    HW125334   5.036   5.609   0.067
 8145SOL    HW225335   5.165   5.562   6.996
 8146SOL     OW25336   5.844   0.186   4.671
 8146SOL    HW125337   5.817   0.109   4.613
 8146SOL    HW225338   5.889   0.256   4.615
 8147SOL     OW25339   1.517   0.899   5.926
 8147SOL    HW125340   1.455   0.881   6.002
 8147SOL    HW225341   1.545   0.995   5.927
 8148SOL     OW25342   4.090   4.931   0.280
 8148SOL    HW125343   4.155   4.899   0.210
 8148SOL    HW225344   4.001   4.948   0.237
 8149SOL     OW25345   1.389   6.271   4.408
 8149SOL    HW125346   1.408   6.273   4.506
 8149SOL    HW225347   1.465   6.228   4.360
 8150SOL     OW25348   0.991   3.141   0.768
 8150SOL    HW125349   0.894   3.118   0.757
 8150SOL    HW225350   1.010   3.164   0.863
 8151SOL     OW25351   6.215   4.635   3.646
 8151SOL    HW125352   6.236   4.569   3.718
 8151SOL    HW225353   6.217   4.589   3.557
 8152SOL     OW25354   4.657   1.897   3.179
 8152SOL    HW125355   4.710   1.883   3.263
 8152SOL    HW225356   4.673   1.989   3.144
 8153SOL     OW25357   7.006   2.191   4.023
 8153SOL    HW125358   0.025   2.138   4.099
 8153SOL    HW225359   0.062   2.219   3.962
 8154SOL     OW25360   1.929   1.385   3.562
 8154SOL    HW125361   1.879   1.464   3.526
 8154SOL    HW225362   2.008   1.417   3.614
 8155SOL     OW25363   1.572   5.075   2.147
 8155SOL    HW125364   1.498   5.008   2.136
 8155SOL    HW225365   1.621   5.055   2.232
 8156SOL     OW25366   6.160   5.214   1.464
 8156SOL    HW125367   6.085   5.194   1.528
 8156SOL    HW225368   6.247   5.212   1.513
 8157SOL     OW25369   6.710   2.770   5.948
 8157SOL    HW125370   6.642   2.722   6.004
 8157SOL    HW225371   6.796   2.778   6.000
 8158SOL     OW25372   5.727   4.880   6.473
 8158SOL    HW125373   5.681   4.939   6.407
 8158SOL    HW225374   5.660   4.843   6.537
 8159SOL     OW25375   2.969   6.042   5.407
 8159SOL    HW125376   2.994   6.136   5.387
 8159SOL    HW225377   3.052   5.989   5.426
 8160SOL     OW25378   5.267   1.230   3.340
 8160SOL    HW125379   5.195   1.279   3.389
 8160SOL    HW225380   5.348   1.222   3.399
 8161SOL     OW25381   5.815   3.208   0.849
 8161SOL    HW125382   5.818   3.284   0.913
 8161SOL    HW225383   5.741   3.146   0.874
 8162SOL     OW25384   0.428   4.701   6.445
 8162SOL    HW125385   0.479   4.782   6.475
 8162SOL    HW225386   0.413   4.640   6.522
 8163SOL     OW25387   4.657   4.638   5.106
 8163SOL    HW125388   4.692   4.673   5.019
 8163SOL    HW225389   4.711   4.675   5.182
 8164SOL     OW25390   5.604   1.166   0.060
 8164SOL    HW125391   5.685   1.215   0.026
 8164SOL    HW225392   5.584   1.089   7.018
 8165SOL     OW25393   0.147   1.999   6.525
 8165SOL    HW125394   0.152   2.092   6.563
 8165SOL    HW225395   0.088   1.943   6.584
 8166SOL     OW25396   1.650   2.066   4.917
 8166SOL    HW125397   1.599   2.051   4.832
 8166SOL    HW225398   1.739   2.105   4.896
 8167SOL     OW25399   0.497   2.832   4.223
 8167SOL    HW125400   0.399   2.819   4.210
 8167SOL    HW225401   0.545   2.814   4.137
 8168SOL     OW25402   2.652   0.840   1.529
 8168SOL    HW125403   2.741   0.795   1.535
 8168SOL    HW225404   2.598   0.797   1.457
 8169SOL     OW25405   5.298   2.503   1.415
 8169SOL    HW125406   5.332   2.539   1.502
 8169SOL    HW225407   5.328   2.408   1.404
 8170SOL     OW25408   6.622   4.813   2.662
 8170SOL    HW125409   6.567   4.772   2.590
 8170SOL    HW225410   6.627   4.912   2.648
 8171SOL     OW25411   1.851   1.229   0.470
 8171SOL    HW125412   1.757   1.243   0.500
 8171SOL    HW225413   1.898   1.317   0.464
 8172SOL     OW25414   0.749   2.465   1.794
 8172SOL    HW125415   0.844   2.478   1.824
 8172SOL    HW225416   0.732   2.523   1.714
 8173SOL     OW25417   5.584   1.122   1.693
 8173SOL    HW125418   5.559   1.218   1.697
 8173SOL    HW225419   5.602   1.096   1.598
 8174SOL     OW25420   2.705   5.521   2.599
 8174SOL    HW125421   2.764   5.543   2.677
 8174SOL    HW225422   2.623   5.474   2.632
 8175SOL     OW25423   0.628   1.731   4.614
 8175SOL    HW125424   0.706   1.783   4.582
 8175SOL    HW225425   0.543   1.772   4.579
 8176SOL     OW25426   2.116   4.180   0.883
 8176SOL    HW125427   2.180   4.237   0.833
 8176SOL    HW225428   2.118   4.204   0.980
 8177SOL     OW25429   3.963   1.625   2.658
 8177SOL    HW125430   3.931   1.577   2.576
 8177SOL    HW225431   3.968   1.562   2.735
 8178SOL     OW25432   2.140   6.527   0.922
 8178SOL    HW125433   2.218   6.539   0.983
 8178SOL    HW225434   2.147   6.591   0.845
 8179SOL     OW25435   5.241   0.923   3.353
 8179SOL    HW125436   5.250   1.022   3.354
 8179SOL    HW225437   5.259   0.887   3.445
 8180SOL     OW25438   4.810   6.154   6.929
 8180SOL    HW125439   4.825   6.246   6.892
 8180SOL    HW225440   4.832   6.154   0.009
 8181SOL     OW25441   0.434   0.798   1.159
 8181SOL    HW125442   0.401   0.822   1.068
 8181SOL    HW225443   0.520   0.845   1.178
 8182SOL     OW25444   2.866   3.405   4.326
 8182SOL    HW125445   2.905   3.329   4.274
 8182SOL    HW225446   2.856   3.485   4.267
 8183SOL     OW25447   6.944   0.261   5.173
 8183SOL    HW125448   6.878   0.328   5.208
 8183SOL    HW225449   6.903   0.212   5.096
 8184SOL     OW25450   0.882   6.114   6.900
 8184SOL    HW125451   0.800   6.086   6.950
 8184SOL    HW225452   0.880   6.213   6.886
 8185SOL     OW25453   0.738   0.062   6.997
 8185SOL    HW125454   0.702   0.055   6.904
 8185SOL    HW225455   0.762   0.157   7.016
 8186SOL     OW25456   1.517   5.484   6.866
 8186SOL    HW125457   1.552   5.529   6.784
 8186SOL    HW225458   1.593   5.439   6.914
 8187SOL     OW25459   1.475   0.779   6.260
 8187SOL    HW125460   1.500   0.686   6.287
 8187SOL    HW225461   1.379   0.795   6.280
 8188SOL     OW25462   2.702   2.089   3.861
 8188SOL    HW125463   2.718   2.188   3.852
 8188SOL    HW225464   2.783   2.040   3.830
 8189SOL     OW25465   4.955   4.511   3.877
 8189SOL    HW125466   4.919   4.550   3.793
 8189SOL    HW225467   5.051   4.537   3.888
 8190SOL     OW25468   6.107   3.873   3.224
 8190SOL    HW125469   6.129   3.858   3.128
 8190SOL    HW225470   6.137   3.794   3.277
 8191SOL     OW25471   4.098   5.071   1.665
 8191SOL    HW125472   4.171   5.048   1.729
 8191SOL    HW225473   4.112   5.020   1.579
 8192SOL     OW25474   1.471   5.081   3.872
 8192SOL    HW125475   1.465   5.023   3.791
 8192SOL    HW225476   1.530   5.159   3.852
 8193SOL     OW25477   0.301   3.923   5.286
 8193SOL    HW125478   0.349   3.845   5.325
 8193SOL    HW225479   0.366   3.996   5.264
 8194SOL     OW25480   4.817   6.583   1.762
 8194SOL    HW125481   4.758   6.651   1.806
 8194SOL    HW225482   4.824   6.503   1.822
 8195SOL     OW25483   5.557   6.478   3.191
 8195SOL    HW125484   5.536   6.526   3.106
 8195SOL    HW225485   5.622   6.404   3.173
 8196SOL     OW25486   4.534   0.188   0.283
 8196SOL    HW125487   4.565   0.223   0.194
 8196SOL    HW225488   4.488   0.261   0.333
 8197SOL     OW25489   5.245   1.836   1.663
 8197SOL    HW125490   5.186   1.762   1.696
 8197SOL    HW225491   5.210   1.923   1.699
 8198SOL     OW25492   1.833   0.671   2.530
 8198SOL    HW125493   1.901   0.740   2.554
 8198SOL    HW225494   1.799   0.689   2.437
 8199SOL     OW25495   5.489   2.852   5.772
 8199SOL    HW125496   5.545   2.776   5.737
 8199SOL    HW225497   5.548   2.921   5.812
 8200SOL     OW25498   4.325   3.380   1.124
 8200SOL    HW125499   4.276   3.302   1.085
 8200SOL    HW225500   4.304   3.386   1.222
 8201SOL     OW25501   0.368   6.999   5.299
 8201SOL    HW125502   0.372   0.062   5.358
 8201SOL    HW225503   0.286   6.945   5.322
 8202SOL     OW25504   0.545   6.177   2.326
 8202SOL    HW125505   0.502   6.243   2.387
 8202SOL    HW225506   0.609   6.120   2.378
 8203SOL     OW25507   1.361   3.323   0.874
 8203SOL    HW125508   1.324   3.239   0.834
 8203SOL    HW225509   1.320   3.338   0.964
 8204SOL     OW25510   4.382   3.295   1.392
 8204SOL    HW125511   4.338   3.293   1.482
 8204SOL    HW225512   4.434   3.380   1.382
 8205SOL     OW25513   0.824   3.559   0.652
 8205SOL    HW125514   0.814   3.554   0.752
 8205SOL    HW225515   0.899   3.500   0.624
 8206SOL     OW25516   4.354   1.278   6.702
 8206SOL    HW125517   4.453   1.280   6.694
 8206SOL    HW225518   4.316   1.365   6.673
 8207SOL     OW25519   3.779   3.131   4.633
 8207SOL    HW125520   3.762   3.190   4.554
 8207SOL    HW225521   3.866   3.083   4.621
 8208SOL     OW25522   1.393   1.204   0.222
 8208SOL    HW125523   1.395   1.185   0.124
 8208SOL    HW225524   1.408   1.301   0.238
 8209SOL     OW25525   6.513   0.469   5.653
 8209SOL    HW125526   6.493   0.461   5.750
 8209SOL    HW225527   6.509   0.566   5.626
 8210SOL     OW25528   2.127   3.169   0.398
 8210SOL    HW125529   2.116   3.099   0.468
 8210SOL    HW225530   2.212   3.220   0.414
 8211SOL     OW25531   2.911   4.369   0.888
 8211SOL    HW125532   2.922   4.382   0.986
 8211SOL    HW225533   2.992   4.321   0.852
 8212SOL     OW25534   1.976   2.418   3.274
 8212SOL    HW125535   1.952   2.393   3.368
 8212SOL    HW225536   1.909   2.379   3.211
 8213SOL     OW25537   0.247   4.975   1.548
 8213SOL    HW125538   0.324   4.939   1.600
 8213SOL    HW225539   0.169   4.988   1.609
 8214SOL     OW25540   5.826   4.288   3.494
 8214SOL    HW125541   5.770   4.340   3.430
 8214SOL    HW225542   5.917   4.274   3.454
 8215SOL     OW25543   3.905   4.923   4.816
 8215SOL    HW125544   3.959   4.865   4.877
 8215SOL    HW225545   3.960   5.002   4.789
 8216SOL     OW25546   5.043   4.476   4.270
 8216SOL    HW125547   4.970   4.416   4.304
 8216SOL    HW225548   5.003   4.559   4.232
 8217SOL     OW25549   2.150   6.032   0.907
 8217SOL    HW125550   2.196   5.980   0.835
 8217SOL    HW225551   2.131   6.125   0.874
 8218SOL     OW25552   0.333   1.871   0.124
 8218SOL    HW125553   0.328   1.882   0.025
 8218SOL    HW225554   0.387   1.945   0.164
 8219SOL     OW25555   5.471   1.930   6.115
 8219SOL    HW125556   5.458   1.916   6.016
 8219SOL    HW225557   5.407   1.999   6.147
 8220SOL     OW25558   3.583   3.825   2.493
 8220SOL    HW125559   3.637   3.904   2.523
 8220SOL    HW225560   3.644   3.746   2.480
 8221SOL     OW25561   5.248   5.880   3.684
 8221SOL    HW125562   5.263   5.979   3.684
 8221SOL    HW225563   5.303   5.838   3.757
 8222SOL     OW25564   5.965   1.660   1.815
 8222SOL    HW125565   5.923   1.573   1.788
 8222SOL    HW225566   6.063   1.656   1.800
 8223SOL     OW25567   0.664   4.220   6.334
 8223SOL    HW125568   0.636   4.235   6.429
 8223SOL    HW225569   0.611   4.279   6.274
 8224SOL     OW25570   0.762   2.879   2.491
 8224SOL    HW125571   0.780   2.931   2.407
 8224SOL    HW225572   0.665   2.855   2.495
 8225SOL     OW25573   4.925   1.326   6.418
 8225SOL    HW125574   4.995   1.387   6.455
 8225SOL    HW225575   4.934   1.236   6.461
 8226SOL     OW25576   4.990   0.539   1.096
 8226SOL    HW125577   4.983   0.504   1.003
 8226SOL    HW225578   4.923   0.612   1.110
 8227SOL     OW25579   6.403   3.026   3.194
 8227SOL    HW125580   6.431   3.116   3.228
 8227SOL    HW225581   6.309   3.032   3.159
 8228SOL     OW25582   0.343   2.129   5.038
 8228SOL    HW125583   0.350   2.227   5.019
 8228SOL    HW225584   0.265   2.091   4.988
 8229SOL     OW25585   3.042   5.603   6.831
 8229SOL    HW125586   3.114   5.637   6.892
 8229SOL    HW225587   2.976   5.551   6.884
 8230SOL     OW25588   4.523   0.187   5.136
 8230SOL    HW125589   4.482   0.106   5.095
 8230SOL    HW225590   4.595   0.222   5.076
 8231SOL     OW25591   5.276   5.267   1.072
 8231SOL    HW125592   5.304   5.362   1.053
 8231SOL    HW225593   5.304   5.208   0.996
 8232SOL     OW25594   4.148   1.485   6.948
 8232SOL    HW125595   4.224   1.422   6.956
 8232SOL    HW225596   4.176   1.564   6.892
 8233SOL     OW25597   0.672   5.505   6.132
 8233SOL    HW125598   0.701   5.572   6.201
 8233SOL    HW225599   0.576   5.521   6.110
 8234SOL     OW25600   3.179   2.308   6.894
 8234SOL    HW125601   3.263   2.359   6.874
 8234SOL    HW225602   3.191   2.255   6.978
 8235SOL     OW25603   3.830   3.423   0.975
 8235SOL    HW125604   3.871   3.392   1.060
 8235SOL    HW225605   3.733   3.442   0.990
 8236SOL     OW25606   6.653   2.741   0.100
 8236SOL    HW125607   6.684   2.734   0.195
 8236SOL    HW225608   6.683   2.829   0.062
 8237SOL     OW25609   4.195   5.832   5.106
 8237SOL    HW125610   4.137   5.904   5.143
 8237SOL    HW225611   4.291   5.858   5.115
 8238SOL     OW25612   2.222   3.564   0.029
 8238SOL    HW125613   2.170   3.480   0.014
 8238SOL    HW225614   2.256   3.565   0.123
 8239SOL     OW25615   6.522   1.767   5.454
 8239SOL    HW125616   6.575   1.695   5.409
 8239SOL    HW225617   6.510   1.844   5.390
 8240SOL     OW25618   3.107   3.977   2.543
 8240SOL    HW125619   3.174   4.048   2.565
 8240SOL    HW225620   3.042   3.967   2.618
 8241SOL     OW25621   3.514   0.209   0.668
 8241SOL    HW125622   3.578   0.178   0.739
 8241SOL    HW225623   3.479   0.130   0.618
 8242SOL     OW25624   0.708   4.544   5.980
 8242SOL    HW125625   0.614   4.518   5.956
 8242SOL    HW225626   0.769   4.517   5.906
 8243SOL     OW25627   0.347   2.859   5.925
 8243SOL    HW125628   0.406   2.781   5.942
 8243SOL    HW225629   0.269   2.830   5.870
 8244SOL     OW25630   0.613   6.611   3.976
 8244SOL    HW125631   0.515   6.627   3.978
 8244SOL    HW225632   0.635   6.546   3.903
 8245SOL     OW25633   4.532   1.702   0.956
 8245SOL    HW125634   4.470   1.767   0.912
 8245SOL    HW225635   4.599   1.752   1.010
 8246SOL     OW25636   5.910   4.010   6.135
 8246SOL    HW125637   5.873   4.097   6.103
 8246SOL    HW225638   5.834   3.948   6.156
 8247SOL     OW25639   0.681   0.432   1.312
 8247SOL    HW125640   0.697   0.506   1.247
 8247SOL    HW225641   0.760   0.423   1.372
 8248SOL     OW25642   5.965   4.795   3.982
 8248SOL    HW125643   5.888   4.761   4.037
 8248SOL    HW225644   5.976   4.893   3.998
 8249SOL     OW25645   1.966   4.830   4.324
 8249SOL    HW125646   1.976   4.756   4.257
 8249SOL    HW225647   1.873   4.831   4.360
 8250SOL     OW25648   3.443   4.123   3.202
 8250SOL    HW125649   3.363   4.182   3.211
 8250SOL    HW225650   3.482   4.105   3.292
 8251SOL     OW25651   5.082   1.997   4.977
 8251SOL    HW125652   5.100   2.031   4.885
 8251SOL    HW225653   5.135   1.913   4.992
 8252SOL     OW25654   2.984   3.034   5.760
 8252SOL    HW125655   3.058   3.069   5.816
 8252SOL    HW225656   2.934   3.110   5.720
 8253SOL     OW25657   3.520   2.748   5.328
 8253SOL    HW125658   3.432   2.706   5.352
 8253SOL    HW225659   3.510   2.847   5.326
 8254SOL     OW25660   4.088   4.844   4.471
 8254SOL    HW125661   4.151   4.828   4.547
 8254SOL    HW225662   4.121   4.794   4.390
 8255SOL     OW25663   4.405   5.770   3.856
 8255SOL    HW125664   4.308   5.793   3.861
 8255SOL    HW225665   4.458   5.837   3.907
 8256SOL     OW25666   5.408   1.243   3.788
 8256SOL    HW125667   5.378   1.336   3.807
 8256SOL    HW225668   5.439   1.237   3.693
 8257SOL     OW25669   6.069   4.789   3.374
 8257SOL    HW125670   6.144   4.818   3.315
 8257SOL    HW225671   6.039   4.866   3.430
 8258SOL     OW25672   4.670   1.452   0.327
 8258SOL    HW125673   4.693   1.357   0.307
 8258SOL    HW225674   4.576   1.470   0.298
 8259SOL     OW25675   3.448   1.911   3.996
 8259SOL    HW125676   3.469   2.008   3.983
 8259SOL    HW225677   3.379   1.883   3.929
 8260SOL     OW25678   2.767   6.935   1.846
 8260SOL    HW125679   2.704   6.998   1.801
 8260SOL    HW225680   2.813   6.879   1.777
 8261SOL     OW25681   5.508   1.231   0.994
 8261SOL    HW125682   5.442   1.283   1.048
 8261SOL    HW225683   5.551   1.291   0.926
 8262SOL     OW25684   1.080   2.348   1.502
 8262SOL    HW125685   1.151   2.414   1.529
 8262SOL    HW225686   1.020   2.329   1.580
 8263SOL     OW25687   6.806   1.204   1.259
 8263SOL    HW125688   6.773   1.250   1.176
 8263SOL    HW225689   6.902   1.178   1.247
 8264SOL     OW25690   1.234   6.085   2.247
 8264SOL    HW125691   1.318   6.125   2.284
 8264SOL    HW225692   1.238   6.085   2.147
 8265SOL     OW25693   1.609   0.380   1.562
 8265SOL    HW125694   1.534   0.363   1.626
 8265SOL    HW225695   1.648   0.292   1.533
 8266SOL     OW25696   2.298   6.746   2.969
 8266SOL    HW125697   2.285   6.838   2.932
 8266SOL    HW225698   2.375   6.747   3.033
 8267SOL     OW25699   1.834   3.441   1.192
 8267SOL    HW125700   1.738   3.437   1.222
 8267SOL    HW225701   1.892   3.400   1.262
 8268SOL     OW25702   2.314   0.066   6.535
 8268SOL    HW125703   2.244   0.077   6.465
 8268SOL    HW225704   2.316   6.988   6.565
 8269SOL     OW25705   5.773   1.794   0.813
 8269SOL    HW125706   5.764   1.754   0.721
 8269SOL    HW225707   5.685   1.832   0.841
 8270SOL     OW25708   3.422   6.769   4.040
 8270SOL    HW125709   3.347   6.703   4.036
 8270SOL    HW225710   3.452   6.780   4.135
 8271SOL     OW25711   6.672   1.898   2.818
 8271SOL    HW125712   6.764   1.930   2.793
 8271SOL    HW225713   6.675   1.853   2.907
 8272SOL     OW25714   4.293   0.421   2.214
 8272SOL    HW125715   4.349   0.383   2.140
 8272SOL    HW225716   4.304   0.365   2.296
 8273SOL     OW25717   1.985   0.039   1.114
 8273SOL    HW125718   1.991   0.016   1.017
 8273SOL    HW225719   2.076   0.059   1.150
 8274SOL     OW25720   4.457   5.114   3.305
 8274SOL    HW125721   4.384   5.056   3.268
 8274SOL    HW225722   4.460   5.200   3.253
 8275SOL     OW25723   4.634   2.205   5.921
 8275SOL    HW125724   4.640   2.181   6.017
 8275SOL    HW225725   4.701   2.277   5.900
 8276SOL     OW25726   0.738   2.251   4.249
 8276SOL    HW125727   0.665   2.318   4.233
 8276SOL    HW225728   0.701   2.159   4.238
 8277SOL     OW25729   6.690   0.704   6.631
 8277SOL    HW125730   6.755   0.658   6.572
 8277SOL    HW225731   6.735   0.779   6.679
 8278SOL     OW25732   2.376   2.065   0.198
 8278SOL    HW125733   2.468   2.025   0.204
 8278SOL    HW225734   2.313   2.011   0.254
 8279SOL     OW25735   0.632   6.260   4.397
 8279SOL    HW125736   0.698   6.334   4.394
 8279SOL    HW225737   0.624   6.218   4.306
 8280SOL     OW25738   3.087   2.729   6.747
 8280SOL    HW125739   3.087   2.821   6.788
 8280SOL    HW225740   3.015   2.674   6.788
 8281SOL     OW25741   1.075   5.499   1.579
 8281SOL    HW125742   1.096   5.450   1.495
 8281SOL    HW225743   1.055   5.595   1.558
 8282SOL     OW25744   5.440   2.883   6.115
 8282SOL    HW125745   5.403   2.791   6.129
 8282SOL    HW225746   5.539   2.881   6.129
 8283SOL     OW25747   1.063   4.533   6.056
 8283SOL    HW125748   0.981   4.502   6.104
 8283SOL    HW225749   1.129   4.459   6.051
 8284SOL     OW25750   0.568   4.369   1.923
 8284SOL    HW125751   0.496   4.436   1.907
 8284SOL    HW225752   0.583   4.316   1.840
 8285SOL     OW25753   4.139   3.437   4.899
 8285SOL    HW125754   4.204   3.363   4.916
 8285SOL    HW225755   4.055   3.421   4.951
 8286SOL     OW25756   6.475   2.385   5.559
 8286SOL    HW125757   6.564   2.389   5.604
 8286SOL    HW225758   6.408   2.346   5.622
 8287SOL     OW25759   1.129   5.302   4.413
 8287SOL    HW125760   1.035   5.270   4.425
 8287SOL    HW225761   1.131   5.401   4.415
 8288SOL     OW25762   2.682   2.312   3.023
 8288SOL    HW125763   2.750   2.265   2.965
 8288SOL    HW225764   2.611   2.352   2.965
 8289SOL     OW25765   0.907   0.320   0.415
 8289SOL    HW125766   0.904   0.357   0.322
 8289SOL    HW225767   0.903   0.220   0.410
 8290SOL     OW25768   6.872   1.775   0.437
 8290SOL    HW125769   6.840   1.690   0.396
 8290SOL    HW225770   6.797   1.818   0.487
 8291SOL     OW25771   4.560   0.310   6.676
 8291SOL    HW125772   4.565   0.409   6.694
 8291SOL    HW225773   4.519   0.295   6.586
 8292SOL     OW25774   2.681   6.502   0.382
 8292SOL    HW125775   2.691   6.600   0.364
 8292SOL    HW225776   2.633   6.459   0.305
 8293SOL     OW25777   4.222   0.005   6.357
 8293SOL    HW125778   4.284   6.947   6.373
 8293SOL    HW225779   4.217   0.062   6.439
 8294SOL     OW25780   5.999   2.896   6.474
 8294SOL    HW125781   6.053   2.971   6.514
 8294SOL    HW225782   5.902   2.919   6.481
 8295SOL     OW25783   5.605   4.839   1.974
 8295SOL    HW125784   5.604   4.849   1.875
 8295SOL    HW225785   5.623   4.928   2.016
 8296SOL     OW25786   1.578   6.257   6.352
 8296SOL    HW125787   1.499   6.207   6.388
 8296SOL    HW225788   1.583   6.242   6.253
 8297SOL     OW25789   6.560   2.513   3.266
 8297SOL    HW125790   6.536   2.593   3.210
 8297SOL    HW225791   6.613   2.448   3.211
 8298SOL     OW25792   5.258   1.380   1.625
 8298SOL    HW125793   5.275   1.296   1.677
 8298SOL    HW225794   5.312   1.455   1.663
 8299SOL     OW25795   0.291   3.115   1.850
 8299SOL    HW125796   0.192   3.117   1.836
 8299SOL    HW225797   0.330   3.202   1.820
 8300SOL     OW25798   0.786   4.548   5.087
 8300SOL    HW125799   0.772   4.523   5.183
 8300SOL    HW225800   0.708   4.602   5.055
 8301SOL     OW25801   4.138   2.362   1.057
 8301SOL    HW125802   4.146   2.302   1.137
 8301SOL    HW225803   4.133   2.457   1.086
 8302SOL     OW25804   5.810   6.570   6.660
 8302SOL    HW125805   5.891   6.578   6.719
 8302SOL    HW225806   5.829   6.613   6.572
 8303SOL     OW25807   0.296   0.146   4.621
 8303SOL    HW125808   0.212   0.191   4.652
 8303SOL    HW225809   0.272   0.071   4.560
 8304SOL     OW25810   0.801   3.509   6.076
 8304SOL    HW125811   0.837   3.419   6.052
 8304SOL    HW225812   0.823   3.530   6.171
 8305SOL     OW25813   3.383   5.430   3.709
 8305SOL    HW125814   3.310   5.415   3.776
 8305SOL    HW225815   3.463   5.376   3.734
 8306SOL     OW25816   0.757   2.263   5.852
 8306SOL    HW125817   0.688   2.334   5.835
 8306SOL    HW225818   0.714   2.173   5.848
 8307SOL     OW25819   3.475   5.125   0.722
 8307SOL    HW125820   3.427   5.127   0.810
 8307SOL    HW225821   3.418   5.168   0.652
 8308SOL     OW25822   4.258   6.844   1.459
 8308SOL    HW125823   4.190   6.832   1.532
 8308SOL    HW225824   4.222   6.906   1.389
 8309SOL     OW25825   5.972   5.760   2.947
 8309SOL    HW125826   5.937   5.852   2.967
 8309SOL    HW225827   5.907   5.692   2.981
 8310SOL     OW25828   0.841   4.205   0.699
 8310SOL    HW125829   0.794   4.292   0.715
 8310SOL    HW225830   0.777   4.130   0.710
 8311SOL     OW25831   0.188   0.802   6.503
 8311SOL    HW125832   0.247   0.722   6.492
 8311SOL    HW225833   0.243   0.882   6.525
 8312SOL     OW25834   4.687   6.532   1.535
 8312SOL    HW125835   4.601   6.485   1.556
 8312SOL    HW225836   4.739   6.545   1.619
 8313SOL     OW25837   3.953   1.768   2.966
 8313SOL    HW125838   3.979   1.816   2.883
 8313SOL    HW225839   3.877   1.705   2.946
 8314SOL     OW25840   5.056   6.832   1.040
 8314SOL    HW125841   5.097   6.792   0.958
 8314SOL    HW225842   4.976   6.887   1.014
 8315SOL     OW25843   4.370   3.163   0.769
 8315SOL    HW125844   4.441   3.177   0.700
 8315SOL    HW225845   4.399   3.202   0.856
 8316SOL     OW25846   0.529   4.000   1.248
 8316SOL    HW125847   0.570   4.067   1.186
 8316SOL    HW225848   0.524   3.911   1.202
 8317SOL     OW25849   2.067   3.497   2.799
 8317SOL    HW125850   1.968   3.490   2.788
 8317SOL    HW225851   2.112   3.493   2.710
 8318SOL     OW25852   4.198   1.810   5.065
 8318SOL    HW125853   4.237   1.718   5.077
 8318SOL    HW225854   4.168   1.821   4.970
 8319SOL     OW25855   3.589   1.377   5.341
 8319SOL    HW125856   3.618   1.412   5.252
 8319SOL    HW225857   3.504   1.325   5.331
 8320SOL     OW25858   3.444   4.800   1.197
 8320SOL    HW125859   3.500   4.810   1.280
 8320SOL    HW225860   3.357   4.849   1.210
 8321SOL     OW25861   0.447   1.122   6.846
 8321SOL    HW125862   0.405   1.194   6.792
 8321SOL    HW225863   0.495   1.162   6.924
 8322SOL     OW25864   6.873   0.096   6.784
 8322SOL    HW125865   6.911   0.155   6.713
 8322SOL    HW225866   6.866   0.147   6.870
 8323SOL     OW25867   0.435   0.425   2.520
 8323SOL    HW125868   0.405   0.461   2.608
 8323SOL    HW225869   0.482   0.496   2.468
 8324SOL     OW25870   6.271   0.539   2.461
 8324SOL    HW125871   6.250   0.545   2.363
 8324SOL    HW225872   6.186   0.545   2.513
 8325SOL     OW25873   3.981   3.322   4.227
 8325SOL    HW125874   3.921   3.383   4.176
 8325SOL    HW225875   4.061   3.299   4.171
 8326SOL     OW25876   4.272   3.506   5.511
 8326SOL    HW125877   4.180   3.531   5.481
 8326SOL    HW225878   4.338   3.530   5.439
 8327SOL     OW25879   5.152   2.412   5.683
 8327SOL    HW125880   5.215   2.484   5.653
 8327SOL    HW225881   5.076   2.406   5.618
 8328SOL     OW25882   2.646   3.980   6.377
 8328SOL    HW125883   2.581   4.057   6.375
 8328SOL    HW225884   2.683   3.965   6.285
 8329SOL     OW25885   0.262   2.707   5.119
 8329SOL    HW125886   0.265   2.617   5.077
 8329SOL    HW225887   0.301   2.703   5.211
 8330SOL     OW25888   1.704   6.613   0.596
 8330SOL    HW125889   1.784   6.643   0.646
 8330SOL    HW225890   1.732   6.556   0.518
 8331SOL     OW25891   3.337   6.961   1.229
 8331SOL    HW125892   3.337   6.982   1.131
 8331SOL    HW225893   3.255   7.001   1.271
 8332SOL     OW25894   4.642   5.195   1.985
 8332SOL    HW125895   4.658   5.250   2.066
 8332SOL    HW225896   4.715   5.126   1.976
 8333SOL     OW25897   0.381   5.830   6.778
 8333SOL    HW125898   0.339   5.847   6.867
 8333SOL    HW225899   0.476   5.799   6.791
 8334SOL     OW25900   5.508   1.427   4.164
 8334SOL    HW125901   5.426   1.484   4.162
 8334SOL    HW225902   5.482   1.332   4.178
 8335SOL     OW25903   6.302   5.837   5.828
 8335SOL    HW125904   6.338   5.753   5.867
 8335SOL    HW225905   6.368   5.911   5.841
 8336SOL     OW25906   6.681   1.147   2.806
 8336SOL    HW125907   6.634   1.222   2.760
 8336SOL    HW225908   6.614   1.084   2.844
 8337SOL     OW25909   0.669   6.418   3.786
 8337SOL    HW125910   0.709   6.330   3.761
 8337SOL    HW225911   0.684   6.484   3.712
 8338SOL     OW25912   1.864   4.540   1.321
 8338SOL    HW125913   1.823   4.460   1.364
 8338SOL    HW225914   1.937   4.576   1.380
 8339SOL     OW25915   6.412   0.813   3.058
 8339SOL    HW125916   6.368   0.825   3.146
 8339SOL    HW225917   6.387   0.724   3.019
 8340SOL     OW25918   4.793   3.790   0.954
 8340SOL    HW125919   4.724   3.765   1.021
 8340SOL    HW225920   4.794   3.889   0.942
 8341SOL     OW25921   1.705   6.914   0.324
 8341SOL    HW125922   1.620   6.962   0.345
 8341SOL    HW225923   1.765   6.973   0.270
 8342SOL     OW25924   3.864   0.406   1.020
 8342SOL    HW125925   3.959   0.435   1.006
 8342SOL    HW225926   3.803   0.481   0.997
 8343SOL     OW25927   1.699   5.265   6.085
 8343SOL    HW125928   1.638   5.186   6.078
 8343SOL    HW225929   1.644   5.348   6.098
 8344SOL     OW25930   4.460   6.355   6.001
 8344SOL    HW125931   4.429   6.447   6.024
 8344SOL    HW225932   4.560   6.353   5.996
 8345SOL     OW25933   5.543   2.018   3.624
 8345SOL    HW125934   5.467   1.990   3.683
 8345SOL    HW225935   5.623   2.038   3.680
 8346SOL     OW25936   2.295   4.704   0.461
 8346SOL    HW125937   2.347   4.689   0.376
 8346SOL    HW225938   2.211   4.650   0.458
 8347SOL     OW25939   2.934   6.701   5.032
 8347SOL    HW125940   3.007   6.640   5.064
 8347SOL    HW225941   2.912   6.768   5.103
 8348SOL     OW25942   1.461   0.740   1.682
 8348SOL    HW125943   1.554   0.705   1.682
 8348SOL    HW225944   1.410   0.699   1.607
 8349SOL     OW25945   5.652   3.928   1.166
 8349SOL    HW125946   5.622   3.857   1.103
 8349SOL    HW225947   5.723   3.983   1.123
 8350SOL     OW25948   5.954   0.847   4.872
 8350SOL    HW125949   5.973   0.769   4.932
 8350SOL    HW225950   5.864   0.834   4.830
 8351SOL     OW25951   3.671   5.585   4.275
 8351SOL    HW125952   3.696   5.512   4.212
 8351SOL    HW225953   3.729   5.580   4.356
 8352SOL     OW25954   6.419   0.206   1.828
 8352SOL    HW125955   6.428   0.198   1.928
 8352SOL    HW225956   6.433   0.116   1.786
 8353SOL     OW25957   5.892   3.832   2.246
 8353SOL    HW125958   5.986   3.836   2.212
 8353SOL    HW225959   5.892   3.851   2.344
 8354SOL     OW25960   3.349   1.464   6.608
 8354SOL    HW125961   3.377   1.560   6.608
 8354SOL    HW225962   3.266   1.453   6.662
 8355SOL     OW25963   3.095   0.550   0.073
 8355SOL    HW125964   3.062   0.641   0.100
 8355SOL    HW225965   3.120   0.551   6.994
 8356SOL     OW25966   0.868   6.466   0.009
 8356SOL    HW125967   0.944   6.425   6.977
 8356SOL    HW225968   0.788   6.407   0.003
 8357SOL     OW25969   3.571   5.367   5.144
 8357SOL    HW125970   3.564   5.356   5.045
 8357SOL    HW225971   3.665   5.392   5.167
 8358SOL     OW25972   1.935   2.346   5.535
 8358SOL    HW125973   1.874   2.271   5.562
 8358SOL    HW225974   2.030   2.319   5.551
 8359SOL     OW25975   3.994   5.964   4.542
 8359SOL    HW125976   4.082   6.003   4.515
 8359SOL    HW225977   3.931   5.965   4.464
 8360SOL     OW25978   4.007   0.181   3.068
 8360SOL    HW125979   3.955   0.128   3.001
 8360SOL    HW225980   3.949   0.253   3.106
 8361SOL     OW25981   1.960   1.479   2.296
 8361SOL    HW125982   1.870   1.523   2.293
 8361SOL    HW225983   2.008   1.493   2.210
 8362SOL     OW25984   3.003   2.466   0.365
 8362SOL    HW125985   2.925   2.462   0.426
 8362SOL    HW225986   3.050   2.377   0.366
 8363SOL     OW25987   1.218   2.758   0.761
 8363SOL    HW125988   1.172   2.840   0.726
 8363SOL    HW225989   1.150   2.690   0.787
 8364SOL     OW25990   6.375   3.219   2.741
 8364SOL    HW125991   6.459   3.183   2.701
 8364SOL    HW225992   6.340   3.295   2.685
 8365SOL     OW25993   2.235   3.345   0.718
 8365SOL    HW125994   2.311   3.336   0.654
 8365SOL    HW225995   2.149   3.349   0.667
 8366SOL     OW25996   4.727   6.178   2.303
 8366SOL    HW125997   4.651   6.151   2.363
 8366SOL    HW225998   4.768   6.262   2.337
 8367SOL     OW25999   4.624   6.263   3.777
 8367SOL    HW126000   4.634   6.164   3.772
 8367SOL    HW226001   4.533   6.289   3.746
 8368SOL     OW26002   2.831   5.598   6.102
 8368SOL    HW126003   2.889   5.679   6.110
 8368SOL    HW226004   2.846   5.555   6.013
 8369SOL     OW26005   1.890   0.680   0.472
 8369SOL    HW126006   1.924   0.588   0.455
 8369SOL    HW226007   1.967   0.740   0.493
 8370SOL     OW26008   2.571   1.959   5.962
 8370SOL    HW126009   2.605   1.994   6.050
 8370SOL    HW226010   2.583   1.860   5.959
 8371SOL     OW26011   1.381   3.205   0.095
 8371SOL    HW126012   1.360   3.296   0.132
 8371SOL    HW226013   1.376   3.137   0.168
 8372SOL     OW26014   0.589   0.130   2.802
 8372SOL    HW126015   0.494   0.105   2.786
 8372SOL    HW226016   0.631   0.063   2.864
 8373SOL     OW26017   0.811   6.342   5.452
 8373SOL    HW126018   0.795   6.258   5.503
 8373SOL    HW226019   0.725   6.392   5.443
 8374SOL     OW26020   6.788   1.007   0.187
 8374SOL    HW126021   6.823   1.100   0.203
 8374SOL    HW226022   6.817   0.976   0.096
 8375SOL     OW26023   3.437   5.771   5.991
 8375SOL    HW126024   3.526   5.786   6.035
 8375SOL    HW226025   3.451   5.742   5.896
 8376SOL     OW26026   2.667   0.532   4.345
 8376SOL    HW126027   2.715   0.576   4.421
 8376SOL    HW226028   2.568   0.538   4.360
 8377SOL     OW26029   5.920   5.760   1.084
 8377SOL    HW126030   5.915   5.839   1.022
 8377SOL    HW226031   5.879   5.680   1.040
 8378SOL     OW26032   5.394   3.424   3.200
 8378SOL    HW126033   5.305   3.410   3.243
 8378SOL    HW226034   5.381   3.453   3.105
 8379SOL     OW26035   6.517   4.029   2.351
 8379SOL    HW126036   6.611   3.996   2.359
 8379SOL    HW226037   6.500   4.061   2.258
 8380SOL     OW26038   5.986   1.398   2.470
 8380SOL    HW126039   5.888   1.381   2.479
 8380SOL    HW226040   6.003   1.496   2.462
 8381SOL     OW26041   0.842   5.228   4.710
 8381SOL    HW126042   0.914   5.271   4.765
 8381SOL    HW226043   0.859   5.247   4.614
 8382SOL     OW26044   1.609   1.648   2.384
 8382SOL    HW126045   1.520   1.681   2.418
 8382SOL    HW226046   1.660   1.608   2.460
 8383SOL     OW26047   2.794   2.290   6.784
 8383SOL    HW126048   2.728   2.355   6.822
 8383SOL    HW226049   2.849   2.336   6.714
 8384SOL     OW26050   6.932   6.492   1.203
 8384SOL    HW126051   6.966   6.565   1.262
 8384SOL    HW226052   6.833   6.481   1.216
 8385SOL     OW26053   5.484   2.291   1.945
 8385SOL    HW126054   5.472   2.240   1.860
 8385SOL    HW226055   5.505   2.386   1.923
 8386SOL     OW26056   1.011   4.273   2.666
 8386SOL    HW126057   0.912   4.287   2.670
 8386SOL    HW226058   1.036   4.198   2.728
 8387SOL     OW26059   1.687   1.330   1.108
 8387SOL    HW126060   1.599   1.329   1.061
 8387SOL    HW226061   1.695   1.413   1.163
 8388SOL     OW26062   2.971   6.071   1.592
 8388SOL    HW126063   2.950   5.981   1.553
 8388SOL    HW226064   2.955   6.142   1.523
 8389SOL     OW26065   5.564   2.953   1.982
 8389SOL    HW126066   5.570   2.917   1.889
 8389SOL    HW226067   5.516   3.041   1.981
 8390SOL     OW26068   3.902   2.391   6.021
 8390SOL    HW126069   3.824   2.329   6.033
 8390SOL    HW226070   3.947   2.371   5.933
 8391SOL     OW26071   6.262   0.101   0.688
 8391SOL    HW126072   6.358   0.074   0.685
 8391SOL    HW226073   6.246   0.175   0.621
 8392SOL     OW26074   6.163   3.592   4.596
 8392SOL    HW126075   6.215   3.678   4.594
 8392SOL    HW226076   6.156   3.555   4.503
 8393SOL     OW26077   4.706   0.225   2.112
 8393SOL    HW126078   4.728   0.135   2.073
 8393SOL    HW226079   4.785   0.285   2.104
 8394SOL     OW26080   6.263   4.119   2.446
 8394SOL    HW126081   6.355   4.085   2.429
 8394SOL    HW226082   6.268   4.212   2.484
 8395SOL     OW26083   2.156   0.576   5.315
 8395SOL    HW126084   2.168   0.505   5.385
 8395SOL    HW226085   2.208   0.657   5.342
 8396SOL     OW26086   4.074   5.704   4.298
 8396SOL    HW126087   4.172   5.719   4.293
 8396SOL    HW226088   4.055   5.630   4.364
 8397SOL     OW26089   6.570   1.250   3.978
 8397SOL    HW126090   6.578   1.205   3.889
 8397SOL    HW226091   6.551   1.347   3.965
 8398SOL     OW26092   5.151   1.980   6.204
 8398SOL    HW126093   5.058   1.948   6.185
 8398SOL    HW226094   5.151   2.038   6.285
 8399SOL     OW26095   6.907   5.969   6.854
 8399SOL    HW126096   6.915   5.930   6.946
 8399SOL    HW226097   6.877   6.064   6.861
 8400SOL     OW26098   1.442   2.273   4.134
 8400SOL    HW126099   1.460   2.367   4.161
 8400SOL    HW226100   1.500   2.211   4.187
 8401SOL     OW26101   2.676   0.090   5.337
 8401SOL    HW126102   2.699   0.006   5.289
 8401SOL    HW226103   2.636   0.155   5.272
 8402SOL     OW26104   4.676   0.855   5.901
 8402SOL    HW126105   4.721   0.937   5.939
 8402SOL    HW226106   4.585   0.880   5.867
 8403SOL     OW26107   6.498   4.487   4.222
 8403SOL    HW126108   6.589   4.446   4.233
 8403SOL    HW226109   6.492   4.529   4.132
 8404SOL     OW26110   2.592   1.747   6.361
 8404SOL    HW126111   2.535   1.820   6.400
 8404SOL    HW226112   2.590   1.754   6.261
 8405SOL     OW26113   3.641   1.527   5.757
 8405SOL    HW126114   3.668   1.431   5.760
 8405SOL    HW226115   3.717   1.582   5.722
 8406SOL     OW26116   4.851   0.878   6.232
 8406SOL    HW126117   4.754   0.856   6.215
 8406SOL    HW226118   4.893   0.803   6.284
 8407SOL     OW26119   3.876   6.469   3.565
 8407SOL    HW126120   3.825   6.459   3.650
 8407SOL    HW226121   3.910   6.563   3.557
 8408SOL     OW26122   5.324   6.901   0.851
 8408SOL    HW126123   5.300   6.995   0.825
 8408SOL    HW226124   5.289   6.837   0.782
 8409SOL     OW26125   4.546   2.249   1.813
 8409SOL    HW126126   4.614   2.206   1.871
 8409SOL    HW226127   4.537   2.346   1.838
 8410SOL     OW26128   6.875   1.584   1.718
 8410SOL    HW126129   6.963   1.587   1.765
 8410SOL    HW226130   6.858   1.490   1.685
 8411SOL     OW26131   0.378   5.955   0.947
 8411SOL    HW126132   0.353   6.004   0.863
 8411SOL    HW226133   0.396   6.020   1.020
 8412SOL     OW26134   2.922   3.259   0.737
 8412SOL    HW126135   2.917   3.264   0.837
 8412SOL    HW226136   2.834   3.284   0.698
 8413SOL     OW26137   4.213   5.457   5.836
 8413SOL    HW126138   4.161   5.453   5.750
 8413SOL    HW226139   4.195   5.543   5.882
 8414SOL     OW26140   1.752   0.951   2.468
 8414SOL    HW126141   1.684   0.890   2.428
 8414SOL    HW226142   1.725   0.974   2.562
 8415SOL     OW26143   2.781   6.844   4.287
 8415SOL    HW126144   2.780   6.831   4.387
 8415SOL    HW226145   2.848   6.913   4.263
 8416SOL     OW26146   6.134   1.498   4.669
 8416SOL    HW126147   6.217   1.508   4.725
 8416SOL    HW226148   6.084   1.417   4.697
 8417SOL     OW26149   1.180   2.991   5.028
 8417SOL    HW126150   1.225   2.902   5.018
 8417SOL    HW226151   1.101   2.982   5.088
 8418SOL     OW26152   0.586   5.521   2.044
 8418SOL    HW126153   0.556   5.440   1.992
 8418SOL    HW226154   0.630   5.492   2.129
 8419SOL     OW26155   5.428   0.603   2.893
 8419SOL    HW126156   5.378   0.686   2.918
 8419SOL    HW226157   5.373   0.523   2.915
 8420SOL     OW26158   3.233   6.266   2.268
 8420SOL    HW126159   3.268   6.307   2.353
 8420SOL    HW226160   3.306   6.266   2.199
 8421SOL     OW26161   3.977   6.388   5.838
 8421SOL    HW126162   3.956   6.291   5.823
 8421SOL    HW226163   4.024   6.425   5.757
 8422SOL     OW26164   4.748   2.396   2.401
 8422SOL    HW126165   4.662   2.447   2.399
 8422SOL    HW226166   4.744   2.326   2.473
 8423SOL     OW26167   5.442   4.473   5.807
 8423SOL    HW126168   5.387   4.390   5.812
 8423SOL    HW226169   5.463   4.506   5.899
 8424SOL     OW26170   1.839   0.087   3.544
 8424SOL    HW126171   1.937   0.077   3.556
 8424SOL    HW226172   1.820   0.131   3.456
 8425SOL     OW26173   3.236   3.405   3.456
 8425SOL    HW126174   3.144   3.375   3.482
 8425SOL    HW226175   3.270   3.346   3.383
 8426SOL     OW26176   3.821   3.232   2.489
 8426SOL    HW126177   3.742   3.245   2.428
 8426SOL    HW226178   3.849   3.136   2.488
 8427SOL     OW26179   3.129   3.086   3.450
 8427SOL    HW126180   3.192   3.089   3.527
 8427SOL    HW226181   3.174   3.042   3.372
 8428SOL     OW26182   0.250   0.577   0.589
 8428SOL    HW126183   0.184   0.508   0.618
 8428SOL    HW226184   0.213   0.668   0.606
 8429SOL     OW26185   2.028   5.760   6.277
 8429SOL    HW126186   2.039   5.859   6.265
 8429SOL    HW226187   2.103   5.712   6.233
 8430SOL     OW26188   4.389   6.046   4.034
 8430SOL    HW126189   4.322   6.032   4.108
 8430SOL    HW226190   4.416   6.142   4.032
 8431SOL     OW26191   2.467   2.946   6.379
 8431SOL    HW126192   2.530   2.898   6.318
 8431SOL    HW226193   2.419   3.017   6.329
 8432SOL     OW26194   6.606   5.608   5.732
 8432SOL    HW126195   6.694   5.611   5.683
 8432SOL    HW226196   6.533   5.632   5.668
 8433SOL     OW26197   4.703   2.229   1.168
 8433SOL    HW126198   4.667   2.320   1.192
 8433SOL    HW226199   4.669   2.202   1.079
 8434SOL     OW26200   1.972   5.934   4.667
 8434SOL    HW126201   1.940   6.002   4.733
 8434SOL    HW226202   1.968   5.973   4.575
 8435SOL     OW26203   5.055   0.398   2.587
 8435SOL    HW126204   5.087   0.308   2.615
 8435SOL    HW226205   5.125   0.442   2.531
 8436SOL     OW26206   2.462   6.390   3.397
 8436SOL    HW126207   2.377   6.416   3.351
 8436SOL    HW226208   2.441   6.338   3.479
 8437SOL     OW26209   2.140   3.056   2.476
 8437SOL    HW126210   2.145   3.132   2.412
 8437SOL    HW226211   2.145   3.091   2.570
 8438SOL     OW26212   1.451   3.854   3.089
 8438SOL    HW126213   1.550   3.854   3.077
 8438SOL    HW226214   1.421   3.762   3.115
 8439SOL     OW26215   6.238   4.900   3.618
 8439SOL    HW126216   6.231   4.802   3.598
 8439SOL    HW226217   6.328   4.933   3.590
 8440SOL     OW26218   2.016   1.674   3.435
 8440SOL    HW126219   2.083   1.734   3.480
 8440SOL    HW226220   1.941   1.729   3.399
 8441SOL     OW26221   5.779   6.450   5.257
 8441SOL    HW126222   5.876   6.427   5.263
 8441SOL    HW226223   5.726   6.367   5.241
 8442SOL     OW26224   3.658   0.782   5.051
 8442SOL    HW126225   3.653   0.777   4.951
 8442SOL    HW226226   3.566   0.789   5.088
 8443SOL     OW26227   1.750   4.760   3.410
 8443SOL    HW126228   1.843   4.731   3.435
 8443SOL    HW226229   1.689   4.681   3.410
 8444SOL     OW26230   4.497   6.331   3.102
 8444SOL    HW126231   4.410   6.294   3.134
 8444SOL    HW226232   4.480   6.397   3.028
 8445SOL     OW26233   3.453   6.931   6.628
 8445SOL    HW126234   3.450   6.832   6.643
 8445SOL    HW226235   3.540   6.967   6.664
 8446SOL     OW26236   0.400   6.590   5.251
 8446SOL    HW126237   0.478   6.640   5.213
 8446SOL    HW226238   0.428   6.543   5.335
 8447SOL     OW26239   4.267   1.432   2.869
 8447SOL    HW126240   4.304   1.525   2.866
 8447SOL    HW226241   4.168   1.435   2.879
 8448SOL     OW26242   4.668   6.628   3.156
 8448SOL    HW126243   4.719   6.612   3.071
 8448SOL    HW226244   4.645   6.725   3.163
 8449SOL     OW26245   1.924   2.673   3.151
 8449SOL    HW126246   1.937   2.589   3.204
 8449SOL    HW226247   1.994   2.739   3.176
 8450SOL     OW26248   6.644   0.651   0.208
 8450SOL    HW126249   6.565   0.710   0.222
 8450SOL    HW226250   6.646   0.620   0.113
 8451SOL     OW26251   4.241   1.780   1.284
 8451SOL    HW126252   4.202   1.788   1.193
 8451SOL    HW226253   4.255   1.683   1.306
 8452SOL     OW26254   4.721   1.950   4.910
 8452SOL    HW126255   4.712   1.865   4.859
 8452SOL    HW226256   4.792   2.007   4.867
 8453SOL     OW26257   1.237   6.032   6.780
 8453SOL    HW126258   1.194   5.999   6.864
 8453SOL    HW226259   1.194   5.988   6.702
 8454SOL     OW26260   0.686   4.348   6.959
 8454SOL    HW126261   0.608   4.382   6.907
 8454SOL    HW226262   0.711   4.415   0.011
 8455SOL     OW26263   1.135   0.534   2.419
 8455SOL    HW126264   1.113   0.531   2.321
 8455SOL    HW226265   1.225   0.493   2.434
 8456SOL     OW26266   5.268   0.796   2.979
 8456SOL    HW126267   5.306   0.888   2.988
 8456SOL    HW226268   5.199   0.781   3.050
 8457SOL     OW26269   6.057   6.320   4.516
 8457SOL    HW126270   6.018   6.244   4.569
 8457SOL    HW226271   6.151   6.335   4.546
 8458SOL     OW26272   0.443   0.263   0.206
 8458SOL    HW126273   0.373   0.331   0.229
 8458SOL    HW226274   0.402   0.190   0.151
 8459SOL     OW26275   1.382   5.719   3.355
 8459SOL    HW126276   1.402   5.757   3.264
 8459SOL    HW226277   1.376   5.619   3.348
 8460SOL     OW26278   3.483   4.157   4.739
 8460SOL    HW126279   3.536   4.074   4.753
 8460SOL    HW226280   3.458   4.196   4.828
 8461SOL     OW26281   0.065   2.809   4.558
 8461SOL    HW126282   6.987   2.810   4.531
 8461SOL    HW226283   0.106   2.721   4.533
 8462SOL     OW26284   2.680   1.732   1.670
 8462SOL    HW126285   2.661   1.822   1.630
 8462SOL    HW226286   2.747   1.742   1.743
 8463SOL     OW26287   5.988   0.826   2.406
 8463SOL    HW126288   6.016   0.743   2.358
 8463SOL    HW226289   6.030   0.829   2.497
 8464SOL     OW26290   5.865   3.008   4.411
 8464SOL    HW126291   5.903   2.996   4.503
 8464SOL    HW226292   5.890   3.098   4.376
 8465SOL     OW26293   1.247   2.044   0.765
 8465SOL    HW126294   1.212   2.078   0.678
 8465SOL    HW226295   1.343   2.071   0.775
 8466SOL     OW26296   0.992   5.944   3.195
 8466SOL    HW126297   1.084   5.915   3.221
 8466SOL    HW226298   0.937   5.957   3.278
 8467SOL     OW26299   2.777   5.384   0.974
 8467SOL    HW126300   2.756   5.327   0.894
 8467SOL    HW226301   2.810   5.473   0.942
 8468SOL     OW26302   4.314   2.160   6.813
 8468SOL    HW126303   4.385   2.145   6.744
 8468SOL    HW226304   4.276   2.072   6.842
 8469SOL     OW26305   3.498   3.097   6.587
 8469SOL    HW126306   3.417   3.136   6.542
 8469SOL    HW226307   3.491   3.110   6.686
 8470SOL     OW26308   2.946   3.175   6.962
 8470SOL    HW126309   2.898   3.259   6.939
 8470SOL    HW226310   3.001   3.188   0.026
 8471SOL     OW26311   2.844   0.693   3.917
 8471SOL    HW126312   2.850   0.787   3.884
 8471SOL    HW226313   2.909   0.680   3.992
 8472SOL     OW26314   0.477   6.843   4.456
 8472SOL    HW126315   0.472   6.843   4.556
 8472SOL    HW226316   0.387   6.863   4.418
 8473SOL     OW26317   6.494   5.131   6.591
 8473SOL    HW126318   6.474   5.222   6.626
 8473SOL    HW226319   6.549   5.138   6.508
 8474SOL     OW26320   3.419   3.278   1.345
 8474SOL    HW126321   3.383   3.358   1.298
 8474SOL    HW226322   3.369   3.263   1.430
 8475SOL     OW26323   6.012   1.907   2.555
 8475SOL    HW126324   6.037   1.997   2.590
 8475SOL    HW226325   5.922   1.881   2.589
 8476SOL     OW26326   4.978   0.736   1.908
 8476SOL    HW126327   5.057   0.770   1.959
 8476SOL    HW226328   4.895   0.753   1.960
 8477SOL     OW26329   2.711   6.858   1.135
 8477SOL    HW126330   2.737   6.768   1.170
 8477SOL    HW226331   2.792   6.910   1.110
 8478SOL     OW26332   1.762   0.699   5.956
 8478SOL    HW126333   1.750   0.604   5.985
 8478SOL    HW226334   1.681   0.751   5.980
 8479SOL     OW26335   6.240   1.105   0.483
 8479SOL    HW126336   6.197   1.143   0.401
 8479SOL    HW226337   6.179   1.039   0.526
 8480SOL     OW26338   3.279   0.503   1.327
 8480SOL    HW126339   3.358   0.546   1.370
 8480SOL    HW226340   3.228   0.450   1.395
 8481SOL     OW26341   3.250   1.523   4.430
 8481SOL    HW126342   3.326   1.492   4.374
 8481SOL    HW226343   3.172   1.462   4.418
 8482SOL     OW26344   1.351   6.892   2.135
 8482SOL    HW126345   1.304   6.818   2.183
 8482SOL    HW226346   1.347   6.876   2.037
 8483SOL     OW26347   3.527   5.722   1.595
 8483SOL    HW126348   3.485   5.709   1.684
 8483SOL    HW226349   3.626   5.715   1.603
 8484SOL     OW26350   0.640   4.875   4.435
 8484SOL    HW126351   0.557   4.908   4.392
 8484SOL    HW226352   0.633   4.777   4.451
 8485SOL     OW26353   2.122   4.284   6.897
 8485SOL    HW126354   2.075   4.196   6.897
 8485SOL    HW226355   2.101   4.334   6.982
 8486SOL     OW26356   5.943   0.889   2.077
 8486SOL    HW126357   5.925   0.953   2.151
 8486SOL    HW226358   5.941   0.936   1.989
 8487SOL     OW26359   5.132   0.376   1.763
 8487SOL    HW126360   5.050   0.376   1.706
 8487SOL    HW226361   5.206   0.326   1.716
 8488SOL     OW26362   5.234   4.241   4.441
 8488SOL    HW126363   5.271   4.175   4.506
 8488SOL    HW226364   5.138   4.259   4.462
 8489SOL     OW26365   5.191   4.806   1.527
 8489SOL    HW126366   5.150   4.885   1.573
 8489SOL    HW226367   5.129   4.773   1.456
 8490SOL     OW26368   4.256   5.370   3.249
 8490SOL    HW126369   4.245   5.302   3.176
 8490SOL    HW226370   4.323   5.439   3.221
 8491SOL     OW26371   2.615   0.334   1.902
 8491SOL    HW126372   2.587   0.427   1.876
 8491SOL    HW226373   2.684   0.339   1.974
 8492SOL     OW26374   6.309   2.499   5.365
 8492SOL    HW126375   6.377   2.485   5.437
 8492SOL    HW226376   6.228   2.443   5.384
 8493SOL     OW26377   4.272   1.600   6.735
 8493SOL    HW126378   4.347   1.664   6.753
 8493SOL    HW226379   4.296   1.543   6.657
 8494SOL     OW26380   2.811   5.553   6.982
 8494SOL    HW126381   2.774   5.644   7.000
 8494SOL    HW226382   2.768   5.515   6.900
 8495SOL     OW26383   6.797   2.536   0.660
 8495SOL    HW126384   6.750   2.538   0.749
 8495SOL    HW226385   6.827   2.628   0.636
 8496SOL     OW26386   7.003   2.304   3.410
 8496SOL    HW126387   6.944   2.377   3.377
 8496SOL    HW226388   6.993   2.295   3.509
 8497SOL     OW26389   6.151   5.036   3.845
 8497SOL    HW126390   6.219   5.106   3.822
 8497SOL    HW226391   6.162   4.957   3.785
 8498SOL     OW26392   0.109   0.482   1.283
 8498SOL    HW126393   0.134   0.579   1.274
 8498SOL    HW226394   0.110   0.456   1.379
 8499SOL     OW26395   2.982   4.454   6.327
 8499SOL    HW126396   2.903   4.508   6.298
 8499SOL    HW226397   3.026   4.415   6.247
 8500SOL     OW26398   2.488   6.893   6.249
 8500SOL    HW126399   2.553   6.822   6.220
 8500SOL    HW226400   2.533   6.982   6.248
 8501SOL     OW26401   2.267   3.502   6.578
 8501SOL    HW126402   2.341   3.438   6.560
 8501SOL    HW226403   2.271   3.577   6.512
 8502SOL     OW26404   6.739   6.306   2.049
 8502SOL    HW126405   6.805   6.364   2.001
 8502SOL    HW226406   6.757   6.310   2.147
 8503SOL     OW26407   2.867   4.815   3.648
 8503SOL    HW126408   2.782   4.799   3.597
 8503SOL    HW226409   2.945   4.808   3.585
 8504SOL     OW26410   1.766   5.222   3.369
 8504SOL    HW126411   1.764   5.128   3.405
 8504SOL    HW226412   1.767   5.286   3.446
 8505SOL     OW26413   5.078   3.974   3.746
 8505SOL    HW126414   5.043   4.016   3.663
 8505SOL    HW226415   5.065   4.036   3.824
 8506SOL     OW26416   1.160   6.726   0.367
 8506SOL    HW126417   1.173   6.686   0.457
 8506SOL    HW226418   1.222   6.682   0.301
 8507SOL     OW26419   1.902   1.407   6.508
 8507SOL    HW126420   1.939   1.324   6.465
 8507SOL    HW226421   1.932   1.487   6.457
 8508SOL     OW26422   0.325   2.005   5.645
 8508SOL    HW126423   0.335   2.031   5.741
 8508SOL    HW226424   0.271   1.921   5.639
 8509SOL     OW26425   5.871   1.677   4.107
 8509SOL    HW126426   5.915   1.762   4.135
 8509SOL    HW226427   5.810   1.646   4.180
 8510SOL     OW26428   5.501   5.584   3.053
 8510SOL    HW126429   5.546   5.673   3.067
 8510SOL    HW226430   5.528   5.521   3.125
 8511SOL     OW26431   6.666   4.646   1.126
 8511SOL    HW126432   6.629   4.616   1.039
 8511SOL    HW226433   6.656   4.574   1.194
 8512SOL     OW26434   4.449   2.236   0.196
 8512SOL    HW126435   4.488   2.275   0.113
 8512SOL    HW226436   4.410   2.146   0.176
 8513SOL     OW26437   5.788   4.124   0.989
 8513SOL    HW126438   5.855   4.133   0.916
 8513SOL    HW226439   5.814   4.183   1.065
 8514SOL     OW26440   2.953   1.419   4.707
 8514SOL    HW126441   3.038   1.423   4.655
 8514SOL    HW226442   2.880   1.463   4.654
 8515SOL     OW26443   0.609   1.219   0.022
 8515SOL    HW126444   0.661   1.253   6.962
 8515SOL    HW226445   0.657   1.141   0.062
 8516SOL     OW26446   5.747   3.349   2.568
 8516SOL    HW126447   5.785   3.328   2.478
 8516SOL    HW226448   5.699   3.269   2.603
 8517SOL     OW26449   1.936   2.492   5.176
 8517SOL    HW126450   2.024   2.539   5.178
 8517SOL    HW226451   1.886   2.512   5.260
 8518SOL     OW26452   5.094   4.967   6.509
 8518SOL    HW126453   5.033   4.984   6.586
 8518SOL    HW226454   5.176   5.023   6.519
 8519SOL     OW26455   1.655   4.378   1.006
 8519SOL    HW126456   1.699   4.305   0.955
 8519SOL    HW226457   1.651   4.461   0.950
 8520SOL     OW26458   3.828   4.035   4.667
 8520SOL    HW126459   3.905   3.985   4.628
 8520SOL    HW226460   3.779   4.082   4.594
 8521SOL     OW26461   1.251   6.663   5.594
 8521SOL    HW126462   1.273   6.568   5.572
 8521SOL    HW226463   1.309   6.724   5.539
 8522SOL     OW26464   1.143   6.994   0.353
 8522SOL    HW126465   1.096   0.005   0.436
 8522SOL    HW226466   1.170   6.898   0.362
 8523SOL     OW26467   2.554   0.180   6.489
 8523SOL    HW126468   2.540   0.181   6.390
 8523SOL    HW226469   2.468   0.156   6.534
 8524SOL     OW26470   1.362   5.158   4.780
 8524SOL    HW126471   1.418   5.116   4.852
 8524SOL    HW226472   1.291   5.214   4.822
 8525SOL     OW26473   6.509   4.834   1.314
 8525SOL    HW126474   6.602   4.798   1.307
 8525SOL    HW226475   6.448   4.779   1.256
 8526SOL     OW26476   2.241   6.611   0.513
 8526SOL    HW126477   2.324   6.653   0.475
 8526SOL    HW226478   2.220   6.655   0.600
 8527SOL     OW26479   3.446   0.385   6.589
 8527SOL    HW126480   3.492   0.468   6.554
 8527SOL    HW226481   3.429   0.323   6.513
 8528SOL     OW26482   4.629   2.180   0.922
 8528SOL    HW126483   4.552   2.175   0.859
 8528SOL    HW226484   4.713   2.201   0.871
 8529SOL     OW26485   1.341   6.124   0.170
 8529SOL    HW126486   1.426   6.071   0.177
 8529SOL    HW226487   1.350   6.191   0.096
 8530SOL     OW26488   2.949   3.225   4.112
 8530SOL    HW126489   2.881   3.262   4.048
 8530SOL    HW226490   3.040   3.236   4.073
 8531SOL     OW26491   6.729   6.112   3.686
 8531SOL    HW126492   6.679   6.035   3.647
 8531SOL    HW226493   6.793   6.078   3.755
 8532SOL     OW26494   3.902   6.409   4.408
 8532SOL    HW126495   3.844   6.330   4.388
 8532SOL    HW226496   3.846   6.485   4.441
 8533SOL     OW26497   1.455   6.184   6.712
 8533SOL    HW126498   1.371   6.133   6.730
 8533SOL    HW226499   1.439   6.282   6.726
 8534SOL     OW26500   4.458   2.038   3.956
 8534SOL    HW126501   4.453   1.953   4.009
 8534SOL    HW226502   4.395   2.105   3.995
 8535SOL     OW26503   5.448   0.907   3.571
 8535SOL    HW126504   5.545   0.891   3.556
 8535SOL    HW226505   5.406   0.825   3.610
 8536SOL     OW26506   0.408   1.086   4.772
 8536SOL    HW126507   0.431   1.027   4.695
 8536SOL    HW226508   0.417   1.035   4.858
 8537SOL     OW26509   6.330   1.134   3.614
 8537SOL    HW126510   6.383   1.149   3.530
 8537SOL    HW226511   6.246   1.188   3.610
 8538SOL     OW26512   1.285   1.793   0.296
 8538SOL    HW126513   1.264   1.735   0.217
 8538SOL    HW226514   1.354   1.860   0.271
 8539SOL     OW26515   5.991   2.710   2.992
 8539SOL    HW126516   5.907   2.763   3.006
 8539SOL    HW226517   5.969   2.613   2.988
 8540SOL     OW26518   4.177   0.169   6.628
 8540SOL    HW126519   4.271   0.141   6.648
 8540SOL    HW226520   4.163   0.262   6.660
 8541SOL     OW26521   2.297   2.241   3.892
 8541SOL    HW126522   2.299   2.338   3.918
 8541SOL    HW226523   2.203   2.208   3.895
 8542SOL     OW26524   4.159   4.440   6.333
 8542SOL    HW126525   4.181   4.508   6.263
 8542SOL    HW226526   4.072   4.396   6.311
 8543SOL     OW26527   2.246   2.595   0.334
 8543SOL    HW126528   2.156   2.553   0.339
 8543SOL    HW226529   2.307   2.536   0.280
 8544SOL     OW26530   5.261   2.802   3.839
 8544SOL    HW126531   5.171   2.774   3.873
 8544SOL    HW226532   5.253   2.893   3.797
 8545SOL     OW26533   4.943   6.166   5.440
 8545SOL    HW126534   4.846   6.144   5.437
 8545SOL    HW226535   4.993   6.110   5.374
 8546SOL     OW26536   5.226   1.876   3.575
 8546SOL    HW126537   5.180   1.940   3.514
 8546SOL    HW226538   5.289   1.819   3.522
 8547SOL     OW26539   1.047   4.911   4.166
 8547SOL    HW126540   0.959   4.956   4.183
 8547SOL    HW226541   1.031   4.816   4.141
 8548SOL     OW26542   5.215   1.108   5.511
 8548SOL    HW126543   5.152   1.162   5.568
 8548SOL    HW226544   5.196   1.011   5.525
 8549SOL     OW26545   6.633   3.376   4.027
 8549SOL    HW126546   6.626   3.473   4.049
 8549SOL    HW226547   6.665   3.325   4.106
 8550SOL     OW26548   1.725   5.378   6.394
 8550SOL    HW126549   1.804   5.439   6.382
 8550SOL    HW226550   1.754   5.283   6.380
 8551SOL     OW26551   3.756   4.407   6.585
 8551SOL    HW126552   3.743   4.343   6.661
 8551SOL    HW226553   3.801   4.359   6.509
 8552SOL     OW26554   3.452   5.959   3.069
 8552SOL    HW126555   3.421   6.053   3.051
 8552SOL    HW226556   3.396   5.895   3.017
 8553SOL     OW26557   4.749   6.695   0.404
 8553SOL    HW126558   4.713   6.678   0.312
 8553SOL    HW226559   4.675   6.687   0.471
 8554SOL     OW26560   0.164   4.138   6.711
 8554SOL    HW126561   0.257   4.104   6.697
 8554SOL    HW226562   0.154   4.227   6.668
 8555SOL     OW26563   0.763   1.029   3.922
 8555SOL    HW126564   0.746   1.066   3.831
 8555SOL    HW226565   0.857   1.052   3.951
 8556SOL     OW26566   6.827   0.857   3.979
 8556SOL    HW126567   6.789   0.768   4.007
 8556SOL    HW226568   6.858   0.906   4.060
 8557SOL     OW26569   6.838   7.004   1.471
 8557SOL    HW126570   6.834   0.084   1.454
 8557SOL    HW226571   6.816   6.985   1.566
 8558SOL     OW26572   1.888   5.337   2.608
 8558SOL    HW126573   1.984   5.308   2.611
 8558SOL    HW226574   1.852   5.322   2.516
 8559SOL     OW26575   0.917   0.482   1.762
 8559SOL    HW126576   0.874   0.522   1.681
 8559SOL    HW226577   0.847   0.461   1.830
 8560SOL     OW26578   6.666   1.486   0.393
 8560SOL    HW126579   6.651   1.575   0.351
 8560SOL    HW226580   6.652   1.414   0.325
 8561SOL     OW26581   5.037   6.231   2.982
 8561SOL    HW126582   5.072   6.237   2.889
 8561SOL    HW226583   5.052   6.139   3.018
 8562SOL     OW26584   3.749   6.578   4.541
 8562SOL    HW126585   3.688   6.515   4.590
 8562SOL    HW226586   3.710   6.670   4.541
 8563SOL     OW26587   2.602   3.007   6.601
 8563SOL    HW126588   2.558   2.996   6.512
 8563SOL    HW226589   2.555   2.950   6.669
 8564SOL     OW26590   0.658   0.138   3.772
 8564SOL    HW126591   0.653   0.102   3.865
 8564SOL    HW226592   0.612   0.227   3.769
 8565SOL     OW26593   3.753   0.087   0.491
 8565SOL    HW126594   3.673   0.039   0.454
 8565SOL    HW226595   3.780   0.159   0.427
 8566SOL     OW26596   1.016   1.952   2.776
 8566SOL    HW126597   0.935   1.893   2.773
 8566SOL    HW226598   1.012   2.020   2.704
 8567SOL     OW26599   5.584   1.420   0.819
 8567SOL    HW126600   5.673   1.459   0.839
 8567SOL    HW226601   5.525   1.489   0.777
 8568SOL     OW26602   5.470   2.021   0.283
 8568SOL    HW126603   5.503   1.979   0.367
 8568SOL    HW226604   5.546   2.068   0.238
 8569SOL     OW26605   4.774   1.412   4.261
 8569SOL    HW126606   4.701   1.359   4.219
 8569SOL    HW226607   4.759   1.416   4.360
 8570SOL     OW26608   0.594   3.950   6.370
 8570SOL    HW126609   0.650   4.032   6.355
 8570SOL    HW226610   0.515   3.953   6.309
 8571SOL     OW26611   6.564   4.133   4.425
 8571SOL    HW126612   6.630   4.064   4.394
 8571SOL    HW226613   6.613   4.208   4.470
 8572SOL     OW26614   1.799   5.236   5.299
 8572SOL    HW126615   1.808   5.315   5.359
 8572SOL    HW226616   1.889   5.210   5.264
 8573SOL     OW26617   4.423   5.691   6.063
 8573SOL    HW126618   4.433   5.706   6.161
 8573SOL    HW226619   4.508   5.717   6.016
 8574SOL     OW26620   6.989   3.678   5.713
 8574SOL    HW126621   0.054   3.624   5.727
 8574SOL    HW226622   6.927   3.629   5.652
 8575SOL     OW26623   2.689   2.781   0.510
 8575SOL    HW126624   2.716   2.687   0.534
 8575SOL    HW226625   2.742   2.812   0.431
 8576SOL     OW26626   1.158   0.026   1.551
 8576SOL    HW126627   1.130   0.098   1.615
 8576SOL    HW226628   1.152   6.955   1.596
 8577SOL     OW26629   6.116   5.645   3.201
 8577SOL    HW126630   6.148   5.738   3.221
 8577SOL    HW226631   6.021   5.649   3.168
 8578SOL     OW26632   4.459   0.560   3.886
 8578SOL    HW126633   4.487   0.553   3.981
 8578SOL    HW226634   4.462   0.470   3.843
 8579SOL     OW26635   1.267   4.984   3.453
 8579SOL    HW126636   1.197   4.912   3.446
 8579SOL    HW226637   1.344   4.950   3.507
 8580SOL     OW26638   1.606   6.294   1.696
 8580SOL    HW126639   1.580   6.237   1.774
 8580SOL    HW226640   1.628   6.386   1.728
 8581SOL     OW26641   3.189   1.745   1.033
 8581SOL    HW126642   3.284   1.726   1.007
 8581SOL    HW226643   3.187   1.820   1.098
 8582SOL     OW26644   4.539   4.512   2.201
 8582SOL    HW126645   4.517   4.427   2.154
 8582SOL    HW226646   4.489   4.588   2.160
 8583SOL     OW26647   6.025   0.011   5.755
 8583SOL    HW126648   6.043   6.969   5.678
 8583SOL    HW226649   5.930   0.042   5.751
 8584SOL     OW26650   0.421   5.431   0.205
 8584SOL    HW126651   0.444   5.492   0.281
 8584SOL    HW226652   0.382   5.346   0.241
 8585SOL     OW26653   0.011   1.056   0.329
 8585SOL    HW126654   0.019   1.004   0.244
 8585SOL    HW226655   0.055   1.145   0.318
 8586SOL     OW26656   3.720   5.634   2.617
 8586SOL    HW126657   3.811   5.619   2.576
 8586SOL    HW226658   3.670   5.701   2.563
 8587SOL     OW26659   6.973   1.553   2.450
 8587SOL    HW126660   6.994   1.638   2.499
 8587SOL    HW226661   6.988   1.568   2.352
 8588SOL     OW26662   4.049   2.606   0.247
 8588SOL    HW126663   4.101   2.690   0.261
 8588SOL    HW226664   3.952   2.623   0.268
 8589SOL     OW26665   3.583   0.965   4.240
 8589SOL    HW126666   3.624   0.953   4.330
 8589SOL    HW226667   3.571   0.876   4.196
 8590SOL     OW26668   6.207   5.438   4.830
 8590SOL    HW126669   6.238   5.368   4.895
 8590SOL    HW226670   6.258   5.522   4.845
 8591SOL     OW26671   1.181   3.578   6.224
 8591SOL    HW126672   1.271   3.540   6.247
 8591SOL    HW226673   1.110   3.524   6.271
 8592SOL     OW26674   0.023   4.218   0.905
 8592SOL    HW126675   0.085   4.292   0.929
 8592SOL    HW226676   6.950   4.237   0.943
 8593SOL     OW26677   1.879   6.910   2.247
 8593SOL    HW126678   1.952   6.974   2.221
 8593SOL    HW226679   1.792   6.942   2.210
 8594SOL     OW26680   2.987   3.534   3.950
 8594SOL    HW126681   2.963   3.591   4.029
 8594SOL    HW226682   3.072   3.484   3.970
 8595SOL     OW26683   1.948   2.126   2.281
 8595SOL    HW126684   2.031   2.155   2.234
 8595SOL    HW226685   1.927   2.031   2.259
 8596SOL     OW26686   5.799   5.440   1.399
 8596SOL    HW126687   5.783   5.368   1.331
 8596SOL    HW226688   5.801   5.399   1.490
 8597SOL     OW26689   2.790   1.451   0.800
 8597SOL    HW126690   2.758   1.361   0.770
 8597SOL    HW226691   2.816   1.447   0.897
 8598SOL     OW26692   6.081   3.701   1.021
 8598SOL    HW126693   6.001   3.730   0.969
 8598SOL    HW226694   6.056   3.688   1.117
 8599SOL     OW26695   1.332   2.750   3.170
 8599SOL    HW126696   1.399   2.824   3.178
 8599SOL    HW226697   1.319   2.707   3.259
 8600SOL     OW26698   6.366   4.860   6.554
 8600SOL    HW126699   6.288   4.876   6.494
 8600SOL    HW226700   6.409   4.948   6.577
 8601SOL     OW26701   7.011   0.003   3.975
 8601SOL    HW126702   0.063   0.074   3.968
 8601SOL    HW226703   6.944   0.015   3.902
 8602SOL     OW26704   2.525   5.565   2.252
 8602SOL    HW126705   2.588   5.642   2.259
 8602SOL    HW226706   2.515   5.539   2.156
 8603SOL     OW26707   4.101   3.092   0.139
 8603SOL    HW126708   4.109   3.128   0.046
 8603SOL    HW226709   4.183   3.114   0.191
 8604SOL     OW26710   5.701   2.979   3.662
 8604SOL    HW126711   5.729   3.045   3.732
 8604SOL    HW226712   5.720   3.016   3.571
 8605SOL     OW26713   2.509   5.941   3.370
 8605SOL    HW126714   2.430   5.985   3.327
 8605SOL    HW226715   2.534   5.991   3.453
 8606SOL     OW26716   3.865   4.808   5.983
 8606SOL    HW126717   3.838   4.811   5.887
 8606SOL    HW226718   3.827   4.886   6.032
 8607SOL     OW26719   4.329   5.757   1.873
 8607SOL    HW126720   4.249   5.763   1.814
 8607SOL    HW226721   4.301   5.732   1.965
 8608SOL     OW26722   3.993   5.304   2.752
 8608SOL    HW126723   3.961   5.378   2.811
 8608SOL    HW226724   3.941   5.221   2.771
 8609SOL     OW26725   3.330   0.358   5.140
 8609SOL    HW126726   3.384   0.407   5.209
 8609SOL    HW226727   3.365   0.380   5.049
 8610SOL     OW26728   0.965   6.468   3.560
 8610SOL    HW126729   0.961   6.423   3.471
 8610SOL    HW226730   1.007   6.406   3.626
 8611SOL     OW26731   1.919   2.150   4.747
 8611SOL    HW126732   1.917   2.209   4.666
 8611SOL    HW226733   1.940   2.205   4.828
 8612SOL     OW26734   3.899   3.210   6.531
 8612SOL    HW126735   3.977   3.166   6.487
 8612SOL    HW226736   3.814   3.182   6.485
 8613SOL     OW26737   1.875   1.931   1.120
 8613SOL    HW126738   1.887   1.832   1.111
 8613SOL    HW226739   1.916   1.961   1.206
 8614SOL     OW26740   1.097   2.635   2.795
 8614SOL    HW126741   1.067   2.664   2.704
 8614SOL    HW226742   1.196   2.619   2.793
 8615SOL     OW26743   4.270   2.039   5.839
 8615SOL    HW126744   4.294   2.091   5.757
 8615SOL    HW226745   4.214   1.961   5.813
 8616SOL     OW26746   0.879   4.456   0.386
 8616SOL    HW126747   0.930   4.380   0.347
 8616SOL    HW226748   0.794   4.471   0.334
 8617SOL     OW26749   5.813   2.804   0.966
 8617SOL    HW126750   5.760   2.887   0.949
 8617SOL    HW226751   5.752   2.725   0.966
 8618SOL     OW26752   4.556   6.905   3.098
 8618SOL    HW126753   4.462   6.910   3.134
 8618SOL    HW226754   4.566   6.972   3.024
 8619SOL     OW26755   4.532   4.898   0.066
 8619SOL    HW126756   4.601   4.970   0.065
 8619SOL    HW226757   4.526   4.856   6.993
 8620SOL     OW26758   5.588   6.295   2.121
 8620SOL    HW126759   5.668   6.284   2.181
 8620SOL    HW226760   5.507   6.311   2.176
 8621SOL     OW26761   5.741   1.442   3.692
 8621SOL    HW126762   5.735   1.437   3.792
 8621SOL    HW226763   5.801   1.518   3.666
 8622SOL     OW26764   4.726   5.394   0.314
 8622SOL    HW126765   4.742   5.435   0.404
 8622SOL    HW226766   4.685   5.304   0.325
 8623SOL     OW26767   0.994   3.450   3.079
 8623SOL    HW126768   0.931   3.465   3.155
 8623SOL    HW226769   1.053   3.529   3.068
 8624SOL     OW26770   0.965   3.911   2.986
 8624SOL    HW126771   0.883   3.966   2.975
 8624SOL    HW226772   0.944   3.815   2.966
 8625SOL     OW26773   4.154   1.256   4.530
 8625SOL    HW126774   4.191   1.163   4.529
 8625SOL    HW226775   4.107   1.272   4.617
 8626SOL     OW26776   3.272   3.325   4.300
 8626SOL    HW126777   3.225   3.385   4.364
 8626SOL    HW226778   3.241   3.230   4.313
 8627SOL     OW26779   0.920   0.971   1.107
 8627SOL    HW126780   0.980   1.027   1.050
 8627SOL    HW226781   0.975   0.918   1.172
 8628SOL     OW26782   5.725   0.997   6.746
 8628SOL    HW126783   5.724   0.917   6.806
 8628SOL    HW226784   5.763   1.075   6.796
 8629SOL     OW26785   1.324   4.534   4.068
 8629SOL    HW126786   1.347   4.438   4.055
 8629SOL    HW226787   1.362   4.566   4.155
 8630SOL     OW26788   5.934   4.220   4.071
 8630SOL    HW126789   5.869   4.294   4.051
 8630SOL    HW226790   5.896   4.133   4.040
 8631SOL     OW26791   3.889   6.233   4.686
 8631SOL    HW126792   3.831   6.186   4.619
 8631SOL    HW226793   3.951   6.167   4.728
 8632SOL     OW26794   3.374   0.656   3.332
 8632SOL    HW126795   3.287   0.692   3.365
 8632SOL    HW226796   3.359   0.566   3.290
 8633SOL     OW26797   5.386   1.172   4.128
 8633SOL    HW126798   5.364   1.165   4.030
 8633SOL    HW226799   5.401   1.080   4.164
 8634SOL     OW26800   6.809   4.729   1.827
 8634SOL    HW126801   6.764   4.788   1.761
 8634SOL    HW226802   6.742   4.667   1.868
 8635SOL     OW26803   5.917   3.631   5.916
 8635SOL    HW126804   5.973   3.702   5.873
 8635SOL    HW226805   5.844   3.603   5.854
 8636SOL     OW26806   6.700   6.035   0.581
 8636SOL    HW126807   6.639   5.972   0.629
 8636SOL    HW226808   6.736   6.102   0.646
 8637SOL     OW26809   1.841   0.749   0.811
 8637SOL    HW126810   1.934   0.721   0.834
 8637SOL    HW226811   1.839   0.847   0.792
 8638SOL     OW26812   2.714   4.467   0.091
 8638SOL    HW126813   2.767   4.399   0.041
 8638SOL    HW226814   2.755   4.482   0.181
 8639SOL     OW26815   5.684   3.684   1.770
 8639SOL    HW126816   5.654   3.758   1.829
 8639SOL    HW226817   5.771   3.709   1.727
 8640SOL     OW26818   4.842   4.404   0.611
 8640SOL    HW126819   4.805   4.491   0.643
 8640SOL    HW226820   4.916   4.421   0.545
 8641SOL     OW26821   0.046   4.303   3.391
 8641SOL    HW126822   6.984   4.347   3.433
 8641SOL    HW226823   0.027   4.284   3.295
 8642SOL     OW26824   4.356   0.881   1.962
 8642SOL    HW126825   4.352   0.781   1.958
 8642SOL    HW226826   4.279   0.915   2.016
 8643SOL     OW26827   4.357   0.559   6.563
 8643SOL    HW126828   4.436   0.520   6.517
 8643SOL    HW226829   4.276   0.551   6.505
 8644SOL     OW26830   5.448   2.174   4.796
 8644SOL    HW126831   5.531   2.149   4.844
 8644SOL    HW226832   5.470   2.230   4.716
 8645SOL     OW26833   6.448   3.878   1.321
 8645SOL    HW126834   6.546   3.896   1.323
 8645SOL    HW226835   6.429   3.791   1.367
 8646SOL     OW26836   5.040   0.913   0.051
 8646SOL    HW126837   4.977   0.915   6.992
 8646SOL    HW226838   5.125   0.960   0.027
 8647SOL     OW26839   3.774   4.623   0.071
 8647SOL    HW126840   3.713   4.689   0.115
 8647SOL    HW226841   3.805   4.660   7.001
 8648SOL     OW26842   5.268   0.721   4.640
 8648SOL    HW126843   5.345   0.706   4.577
 8648SOL    HW226844   5.194   0.657   4.619
 8649SOL     OW26845   6.060   3.882   5.561
 8649SOL    HW126846   6.118   3.953   5.519
 8649SOL    HW226847   6.061   3.893   5.660
 8650SOL     OW26848   2.063   4.879   3.985
 8650SOL    HW126849   1.985   4.848   3.931
 8650SOL    HW226850   2.078   4.815   4.061
 8651SOL     OW26851   3.976   1.614   0.089
 8651SOL    HW126852   4.042   1.571   0.027
 8651SOL    HW226853   3.899   1.649   0.035
 8652SOL     OW26854   2.053   3.749   3.438
 8652SOL    HW126855   2.082   3.843   3.457
 8652SOL    HW226856   2.084   3.723   3.347
 8653SOL     OW26857   0.474   2.582   6.537
 8653SOL    HW126858   0.522   2.651   6.590
 8653SOL    HW226859   0.421   2.524   6.599
 8654SOL     OW26860   0.393   6.655   3.023
 8654SOL    HW126861   0.450   6.700   3.091
 8654SOL    HW226862   0.311   6.617   3.067
 8655SOL     OW26863   5.625   6.412   4.440
 8655SOL    HW126864   5.634   6.379   4.346
 8655SOL    HW226865   5.675   6.498   4.450
 8656SOL     OW26866   6.344   1.105   1.270
 8656SOL    HW126867   6.302   1.029   1.320
 8656SOL    HW226868   6.441   1.109   1.291
 8657SOL     OW26869   4.895   4.923   6.317
 8657SOL    HW126870   4.958   4.924   6.394
 8657SOL    HW226871   4.928   4.858   6.248
 8658SOL     OW26872   5.538   4.600   0.435
 8658SOL    HW126873   5.581   4.666   0.496
 8658SOL    HW226874   5.442   4.588   0.461
 8659SOL     OW26875   4.741   0.656   3.077
 8659SOL    HW126876   4.809   0.706   3.023
 8659SOL    HW226877   4.703   0.581   3.023
 8660SOL     OW26878   5.766   3.652   0.254
 8660SOL    HW126879   5.694   3.722   0.260
 8660SOL    HW226880   5.824   3.658   0.335
 8661SOL     OW26881   6.684   4.167   1.851
 8661SOL    HW126882   6.673   4.082   1.902
 8661SOL    HW226883   6.622   4.167   1.772
 8662SOL     OW26884   6.375   6.417   1.215
 8662SOL    HW126885   6.292   6.426   1.269
 8662SOL    HW226886   6.352   6.415   1.117
 8663SOL     OW26887   2.184   5.540   1.039
 8663SOL    HW126888   2.122   5.462   1.030
 8663SOL    HW226889   2.265   5.526   0.982
 8664SOL     OW26890   3.946   5.930   0.073
 8664SOL    HW126891   3.952   5.998   7.018
 8664SOL    HW226892   4.038   5.903   0.101
 8665SOL     OW26893   4.189   5.464   4.957
 8665SOL    HW126894   4.279   5.503   4.940
 8665SOL    HW226895   4.152   5.502   5.042
 8666SOL     OW26896   5.069   2.587   5.422
 8666SOL    HW126897   4.981   2.549   5.395
 8666SOL    HW226898   5.057   2.643   5.504
 8667SOL     OW26899   5.169   1.713   3.146
 8667SOL    HW126900   5.256   1.750   3.113
 8667SOL    HW226901   5.095   1.774   3.119
 8668SOL     OW26902   5.151   2.405   4.417
 8668SOL    HW126903   5.194   2.487   4.379
 8668SOL    HW226904   5.190   2.324   4.373
 8669SOL     OW26905   4.300   0.625   5.991
 8669SOL    HW126906   4.317   0.552   6.058
 8669SOL    HW226907   4.231   0.594   5.926
 8670SOL     OW26908   3.844   5.533   4.493
 8670SOL    HW126909   3.821   5.438   4.517
 8670SOL    HW226910   3.943   5.542   4.486
 8671SOL     OW26911   5.977   6.885   3.763
 8671SOL    HW126912   5.926   6.821   3.706
 8671SOL    HW226913   5.953   6.871   3.859
 8672SOL     OW26914   3.086   5.083   4.261
 8672SOL    HW126915   3.157   5.132   4.209
 8672SOL    HW226916   3.126   5.046   4.344
 8673SOL     OW26917   0.103   1.969   0.639
 8673SOL    HW126918   0.197   1.935   0.639
 8673SOL    HW226919   0.089   2.027   0.558
 8674SOL     OW26920   0.140   0.350   2.811
 8674SOL    HW126921   0.208   0.277   2.803
 8674SOL    HW226922   0.176   0.434   2.771
 8675SOL     OW26923   2.477   1.858   3.809
 8675SOL    HW126924   2.493   1.920   3.886
 8675SOL    HW226925   2.561   1.807   3.789
 8676SOL     OW26926   3.848   0.315   2.406
 8676SOL    HW126927   3.753   0.323   2.376
 8676SOL    HW226928   3.855   0.241   2.473
 8677SOL     OW26929   2.864   4.163   6.128
 8677SOL    HW126930   2.943   4.223   6.139
 8677SOL    HW226931   2.874   4.109   6.045
 8678SOL     OW26932   1.432   0.164   6.500
 8678SOL    HW126933   1.396   0.166   6.594
 8678SOL    HW226934   1.368   0.211   6.439
 8679SOL     OW26935   6.548   1.659   5.098
 8679SOL    HW126936   6.605   1.576   5.100
 8679SOL    HW226937   6.599   1.735   5.137
 8680SOL     OW26938   1.877   3.498   0.213
 8680SOL    HW126939   1.937   3.521   0.289
 8680SOL    HW226940   1.925   3.437   0.150
 8681SOL     OW26941   4.192   4.560   0.534
 8681SOL    HW126942   4.107   4.589   0.489
 8681SOL    HW226943   4.264   4.550   0.465
 8682SOL     OW26944   2.613   6.597   2.710
 8682SOL    HW126945   2.540   6.637   2.655
 8682SOL    HW226946   2.577   6.522   2.765
 8683SOL     OW26947   1.063   2.862   1.317
 8683SOL    HW126948   1.110   2.835   1.401
 8683SOL    HW226949   1.121   2.924   1.264
 8684SOL     OW26950   6.183   2.706   5.161
 8684SOL    HW126951   6.257   2.648   5.195
 8684SOL    HW226952   6.212   2.750   5.076
 8685SOL     OW26953   0.875   1.847   0.003
 8685SOL    HW126954   0.777   1.850   7.003
 8685SOL    HW226955   0.924   1.822   6.937
 8686SOL     OW26956   0.142   2.046   2.641
 8686SOL    HW126957   0.196   2.015   2.563
 8686SOL    HW226958   0.090   1.969   2.678
 8687SOL     OW26959   3.227   6.573   2.249
 8687SOL    HW126960   3.267   6.522   2.173
 8687SOL    HW226961   3.180   6.509   2.310
 8688SOL     OW26962   3.002   6.817   1.083
 8688SOL    HW126963   2.928   6.753   1.104
 8688SOL    HW226964   3.049   6.787   1.000
 8689SOL     OW26965   4.279   5.542   0.332
 8689SOL    HW126966   4.335   5.604   0.277
 8689SOL    HW226967   4.232   5.477   0.273
 8690SOL     OW26968   1.038   1.973   3.435
 8690SOL    HW126969   1.127   1.934   3.457
 8690SOL    HW226970   1.035   2.069   3.463
 8691SOL     OW26971   4.846   2.639   6.509
 8691SOL    HW126972   4.945   2.638   6.520
 8691SOL    HW226973   4.820   2.710   6.443
 8692SOL     OW26974   2.942   2.012   3.330
 8692SOL    HW126975   2.911   1.970   3.245
 8692SOL    HW226976   2.908   1.958   3.407
 8693SOL     OW26977   5.933   2.103   0.578
 8693SOL    HW126978   5.840   2.115   0.544
 8693SOL    HW226979   5.933   2.111   0.678
 8694SOL     OW26980   5.041   0.082   6.745
 8694SOL    HW126981   5.046   0.107   6.842
 8694SOL    HW226982   4.949   0.101   6.710
 8695SOL     OW26983   5.110   3.067   5.505
 8695SOL    HW126984   5.028   3.056   5.561
 8695SOL    HW226985   5.186   3.096   5.562
 8696SOL     OW26986   3.459   5.465   0.902
 8696SOL    HW126987   3.434   5.562   0.905
 8696SOL    HW226988   3.554   5.456   0.874
 8697SOL     OW26989   6.532   3.218   1.287
 8697SOL    HW126990   6.602   3.249   1.223
 8697SOL    HW226991   6.576   3.166   1.361
 8698SOL     OW26992   5.560   5.649   4.503
 8698SOL    HW126993   5.568   5.648   4.404
 8698SOL    HW226994   5.616   5.723   4.541
 8699SOL     OW26995   0.913   1.855   5.719
 8699SOL    HW126996   0.937   1.813   5.632
 8699SOL    HW226997   0.958   1.944   5.728
 8700SOL     OW26998   1.892   0.635   4.850
 8700SOL    HW126999   1.903   0.537   4.831
 8700SOL    HW227000   1.982   0.678   4.854
 8701SOL     OW27001   1.042   1.114   5.476
 8701SOL    HW127002   0.986   1.183   5.431
 8701SOL    HW227003   1.128   1.104   5.427
 8702SOL     OW27004   5.573   4.810   0.626
 8702SOL    HW127005   5.598   4.751   0.703
 8702SOL    HW227006   5.637   4.887   0.621
 8703SOL     OW27007   3.269   5.430   1.180
 8703SOL    HW127008   3.171   5.447   1.172
 8703SOL    HW227009   3.302   5.386   1.097
 8704SOL     OW27010   6.947   4.462   2.531
 8704SOL    HW127011   6.939   4.415   2.619
 8704SOL    HW227012   6.940   4.561   2.546
 8705SOL     OW27013   4.920   0.510   6.068
 8705SOL    HW127014   4.888   0.545   6.156
 8705SOL    HW227015   4.903   0.578   5.997
 8706SOL     OW27016   4.693   2.104   0.002
 8706SOL    HW127017   4.608   2.152   7.000
 8706SOL    HW227018   4.730   2.136   0.088
 8707SOL     OW27019   4.493   2.724   6.768
 8707SOL    HW127020   4.479   2.763   6.677
 8707SOL    HW227021   4.482   2.795   6.837
 8708SOL     OW27022   3.750   1.084   1.568
 8708SOL    HW127023   3.690   1.136   1.628
 8708SOL    HW227024   3.806   1.146   1.514
 8709SOL     OW27025   0.063   4.564   0.083
 8709SOL    HW127026   7.017   4.612   0.024
 8709SOL    HW227027   0.132   4.518   0.027
 8710SOL     OW27028   1.545   3.451   2.712
 8710SOL    HW127029   1.467   3.440   2.773
 8710SOL    HW227030   1.513   3.478   2.621
 8711SOL     OW27031   6.391   0.512   2.900
 8711SOL    HW127032   6.293   0.499   2.885
 8711SOL    HW227033   6.430   0.564   2.825
 8712SOL     OW27034   3.243   1.902   4.184
 8712SOL    HW127035   3.310   1.921   4.112
 8712SOL    HW227036   3.289   1.901   4.273
 8713SOL     OW27037   6.788   4.256   3.905
 8713SOL    HW127038   6.832   4.244   3.816
 8713SOL    HW227039   6.747   4.347   3.910
 8714SOL     OW27040   1.516   1.212   6.139
 8714SOL    HW127041   1.565   1.155   6.206
 8714SOL    HW227042   1.431   1.168   6.112
 8715SOL     OW27043   6.137   1.096   1.465
 8715SOL    HW127044   6.150   1.175   1.404
 8715SOL    HW227045   6.101   1.019   1.412
 8716SOL     OW27046   0.489   1.608   1.648
 8716SOL    HW127047   0.499   1.512   1.673
 8716SOL    HW227048   0.577   1.644   1.619
 8717SOL     OW27049   4.123   3.623   2.038
 8717SOL    HW127050   4.074   3.620   2.125
 8717SOL    HW227051   4.221   3.625   2.055
 8718SOL     OW27052   6.962   2.295   4.601
 8718SOL    HW127053   6.975   2.253   4.511
 8718SOL    HW227054   6.875   2.345   4.601
 8719SOL     OW27055   1.501   0.671   5.444
 8719SOL    HW127056   1.543   0.700   5.530
 8719SOL    HW227057   1.563   0.610   5.395
 8720SOL     OW27058   5.980   5.370   5.033
 8720SOL    HW127059   6.066   5.351   5.081
 8720SOL    HW227060   5.987   5.459   4.988
 8721SOL     OW27061   6.320   1.650   4.408
 8721SOL    HW127062   6.224   1.625   4.424
 8721SOL    HW227063   6.327   1.749   4.399
 8722SOL     OW27064   3.588   1.809   0.638
 8722SOL    HW127065   3.597   1.714   0.671
 8722SOL    HW227066   3.623   1.815   0.545
 8723SOL     OW27067   6.617   5.446   0.542
 8723SOL    HW127068   6.705   5.488   0.564
 8723SOL    HW227069   6.549   5.469   0.612
 8724SOL     OW27070   5.618   0.087   5.614
 8724SOL    HW127071   5.648   7.012   5.639
 8724SOL    HW227072   5.552   0.081   5.539
 8725SOL     OW27073   2.220   0.384   0.258
 8725SOL    HW127074   2.127   0.405   0.288
 8725SOL    HW227075   2.230   0.406   0.161
 8726SOL     OW27076   6.039   6.963   1.267
 8726SOL    HW127077   6.061   0.037   1.235
 8726SOL    HW227078   6.121   6.906   1.265
 8727SOL     OW27079   6.567   6.365   1.851
 8727SOL    HW127080   6.514   6.443   1.885
 8727SOL    HW227081   6.625   6.330   1.924
 8728SOL     OW27082   3.171   6.600   5.157
 8728SOL    HW127083   3.246   6.562   5.104
 8728SOL    HW227084   3.190   6.588   5.255
 8729SOL     OW27085   4.195   5.774   3.374
 8729SOL    HW127086   4.125   5.717   3.417
 8729SOL    HW227087   4.269   5.716   3.341
 8730SOL     OW27088   0.125   5.605   2.409
 8730SOL    HW127089   0.085   5.560   2.329
 8730SOL    HW227090   0.221   5.578   2.418
 8731SOL     OW27091   1.289   2.193   3.225
 8731SOL    HW127092   1.292   2.196   3.325
 8731SOL    HW227093   1.227   2.264   3.191
 8732SOL     OW27094   5.272   4.237   1.931
 8732SOL    HW127095   5.246   4.143   1.953
 8732SOL    HW227096   5.284   4.289   2.016
 8733SOL     OW27097   0.749   6.347   2.219
 8733SOL    HW127098   0.670   6.295   2.251
 8733SOL    HW227099   0.826   6.334   2.282
 8734SOL     OW27100   0.710   5.255   1.243
 8734SOL    HW127101   0.769   5.311   1.185
 8734SOL    HW227102   0.766   5.204   1.308
 8735SOL     OW27103   0.559   2.113   0.344
 8735SOL    HW127104   0.589   2.110   0.248
 8735SOL    HW227105   0.525   2.205   0.365
 8736SOL     OW27106   0.834   5.636   6.837
 8736SOL    HW127107   0.782   5.607   6.917
 8736SOL    HW227108   0.872   5.556   6.791
 8737SOL     OW27109   3.396   6.243   5.903
 8737SOL    HW127110   3.459   6.165   5.896
 8737SOL    HW227111   3.356   6.243   5.995
 8738SOL     OW27112   1.841   3.816   4.036
 8738SOL    HW127113   1.871   3.860   4.120
 8738SOL    HW227114   1.918   3.808   3.973
 8739SOL     OW27115   6.751   3.510   5.854
 8739SOL    HW127116   6.663   3.467   5.834
 8739SOL    HW227117   6.791   3.546   5.769
 8740SOL     OW27118   2.904   0.381   6.387
 8740SOL    HW127119   2.949   0.407   6.301
 8740SOL    HW227120   2.878   0.464   6.437
 8741SOL     OW27121   1.431   2.894   2.332
 8741SOL    HW127122   1.513   2.949   2.351
 8741SOL    HW227123   1.456   2.819   2.271
 8742SOL     OW27124   5.039   6.764   1.523
 8742SOL    HW127125   5.066   6.670   1.543
 8742SOL    HW227126   5.016   6.811   1.608
 8743SOL     OW27127   1.969   5.690   2.038
 8743SOL    HW127128   2.002   5.620   2.101
 8743SOL    HW227129   2.046   5.747   2.009
 8744SOL     OW27130   4.711   2.507   6.735
 8744SOL    HW127131   4.764   2.554   6.665
 8744SOL    HW227132   4.676   2.574   6.801
 8745SOL     OW27133   6.043   1.906   5.123
 8745SOL    HW127134   5.983   1.900   5.042
 8745SOL    HW227135   6.118   1.841   5.114
 8746SOL     OW27136   4.880   4.997   5.785
 8746SOL    HW127137   4.977   4.977   5.769
 8746SOL    HW227138   4.870   5.091   5.816
 8747SOL     OW27139   1.045   2.740   3.887
 8747SOL    HW127140   1.038   2.706   3.981
 8747SOL    HW227141   0.981   2.689   3.829
 8748SOL     OW27142   1.434   0.778   6.633
 8748SOL    HW127143   1.460   0.837   6.709
 8748SOL    HW227144   1.512   0.720   6.606
 8749SOL     OW27145   3.494   0.842   3.846
 8749SOL    HW127146   3.591   0.862   3.858
 8749SOL    HW227147   3.479   0.800   3.757
 8750SOL     OW27148   2.102   2.256   5.131
 8750SOL    HW127149   2.031   2.311   5.174
 8750SOL    HW227150   2.120   2.291   5.039
 8751SOL     OW27151   0.569   6.976   1.907
 8751SOL    HW127152   0.620   0.002   1.980
 8751SOL    HW227153   0.497   0.020   1.874
 8752SOL     OW27154   2.503   3.764   6.502
 8752SOL    HW127155   2.546   3.848   6.468
 8752SOL    HW227156   2.411   3.756   6.464
 8753SOL     OW27157   5.125   1.351   5.335
 8753SOL    HW127158   5.051   1.285   5.348
 8753SOL    HW227159   5.123   1.419   5.409
 8754SOL     OW27160   0.664   1.585   5.940
 8754SOL    HW127161   0.651   1.493   5.902
 8754SOL    HW227162   0.757   1.617   5.922
 8755SOL     OW27163   2.569   0.773   0.343
 8755SOL    HW127164   2.469   0.764   0.345
 8755SOL    HW227165   2.609   0.713   0.412
 8756SOL     OW27166   2.109   2.665   4.043
 8756SOL    HW127167   2.065   2.581   4.073
 8756SOL    HW227168   2.050   2.713   3.978
 8757SOL     OW27169   4.357   6.421   4.830
 8757SOL    HW127170   4.455   6.399   4.825
 8757SOL    HW227171   4.346   6.515   4.862
 8758SOL     OW27172   5.617   6.464   1.647
 8758SOL    HW127173   5.717   6.469   1.644
 8758SOL    HW227174   5.586   6.459   1.742
 8759SOL     OW27175   4.864   0.663   5.819
 8759SOL    HW127176   4.817   0.747   5.846
 8759SOL    HW227177   4.962   0.673   5.833
 8760SOL     OW27178   1.802   1.902   4.673
 8760SOL    HW127179   1.851   1.868   4.593
 8760SOL    HW227180   1.829   1.996   4.692
 8761SOL     OW27181   5.235   0.546   0.021
 8761SOL    HW127182   5.235   0.643   0.042
 8761SOL    HW227183   5.276   0.531   6.948
 8762SOL     OW27184   1.558   3.458   1.250
 8762SOL    HW127185   1.578   3.555   1.243
 8762SOL    HW227186   1.469   3.439   1.209
 8763SOL     OW27187   6.677   6.284   5.661
 8763SOL    HW127188   6.752   6.304   5.725
 8763SOL    HW227189   6.590   6.292   5.710
 8764SOL     OW27190   4.944   1.524   4.079
 8764SOL    HW127191   4.971   1.617   4.107
 8764SOL    HW227192   4.897   1.479   4.155
 8765SOL     OW27193   5.350   6.857   4.862
 8765SOL    HW127194   5.446   6.884   4.862
 8765SOL    HW227195   5.320   6.842   4.957
 8766SOL     OW27196   2.913   4.823   3.229
 8766SOL    HW127197   2.931   4.835   3.131
 8766SOL    HW227198   2.855   4.743   3.243
 8767SOL     OW27199   4.728   1.276   3.062
 8767SOL    HW127200   4.681   1.339   3.124
 8767SOL    HW227201   4.716   1.182   3.094
 8768SOL     OW27202   1.707   3.252   0.598
 8768SOL    HW127203   1.663   3.272   0.686
 8768SOL    HW227204   1.652   3.292   0.524
 8769SOL     OW27205   0.902   0.082   5.913
 8769SOL    HW127206   0.989   0.034   5.910
 8769SOL    HW227207   0.906   0.163   5.855
 8770SOL     OW27208   4.962   4.602   1.646
 8770SOL    HW127209   5.049   4.558   1.624
 8770SOL    HW227210   4.889   4.560   1.592
 8771SOL     OW27211   1.781   1.415   6.751
 8771SOL    HW127212   1.836   1.400   6.833
 8771SOL    HW227213   1.841   1.412   6.670
 8772SOL     OW27214   6.030   1.332   6.650
 8772SOL    HW127215   6.079   1.268   6.709
 8772SOL    HW227216   5.931   1.321   6.664
 8773SOL     OW27217   3.434   2.072   3.156
 8773SOL    HW127218   3.407   2.134   3.082
 8773SOL    HW227219   3.357   2.060   3.219
 8774SOL     OW27220   0.993   1.747   0.745
 8774SOL    HW127221   0.917   1.800   0.781
 8774SOL    HW227222   0.997   1.759   0.646
 8775SOL     OW27223   5.969   6.832   3.257
 8775SOL    HW127224   5.982   6.749   3.311
 8775SOL    HW227225   5.891   6.819   3.195
 8776SOL     OW27226   3.061   3.234   4.982
 8776SOL    HW127227   3.142   3.246   4.925
 8776SOL    HW227228   3.089   3.202   5.073
 8777SOL     OW27229   6.240   5.401   1.907
 8777SOL    HW127230   6.228   5.301   1.907
 8777SOL    HW227231   6.176   5.442   1.842
 8778SOL     OW27232   0.215   2.059   3.612
 8778SOL    HW127233   0.198   1.969   3.572
 8778SOL    HW227234   0.130   2.113   3.610
 8779SOL     OW27235   1.894   4.254   1.461
 8779SOL    HW127236   1.865   4.278   1.553
 8779SOL    HW227237   1.814   4.229   1.406
 8780SOL     OW27238   0.711   5.436   4.375
 8780SOL    HW127239   0.706   5.413   4.278
 8780SOL    HW227240   0.717   5.535   4.386
 8781SOL     OW27241   0.554   1.865   2.930
 8781SOL    HW127242   0.504   1.951   2.918
 8781SOL    HW227243   0.616   1.873   3.008
 8782SOL     OW27244   4.405   1.471   2.566
 8782SOL    HW127245   4.399   1.562   2.526
 8782SOL    HW227246   4.447   1.477   2.657
 8783SOL     OW27247   5.688   3.953   4.258
 8783SOL    HW127248   5.682   4.047   4.292
 8783SOL    HW227249   5.730   3.953   4.168
 8784SOL     OW27250   5.699   5.442   5.498
 8784SOL    HW127251   5.738   5.522   5.453
 8784SOL    HW227252   5.709   5.362   5.437
 8785SOL     OW27253   5.427   4.206   6.639
 8785SOL    HW127254   5.511   4.161   6.609
 8785SOL    HW227255   5.447   4.263   6.719
 8786SOL     OW27256   1.751   6.339   0.127
 8786SOL    HW127257   1.673   6.287   0.090
 8786SOL    HW227258   1.788   6.397   0.054
 8787SOL     OW27259   2.130   3.404   1.678
 8787SOL    HW127260   2.210   3.402   1.738
 8787SOL    HW227261   2.072   3.481   1.702
 8788SOL     OW27262   6.678   1.850   5.203
 8788SOL    HW127263   6.637   1.924   5.257
 8788SOL    HW227264   6.736   1.890   5.132
 8789SOL     OW27265   6.622   0.063   6.494
 8789SOL    HW127266   6.545   0.088   6.553
 8789SOL    HW227267   6.623   0.122   6.414
 8790SOL     OW27268   6.933   1.875   6.616
 8790SOL    HW127269   6.861   1.944   6.603
 8790SOL    HW227270   6.917   1.798   6.555
 8791SOL     OW27271   4.804   6.609   5.646
 8791SOL    HW127272   4.844   6.661   5.722
 8791SOL    HW227273   4.771   6.672   5.577
 8792SOL     OW27274   4.277   6.966   3.227
 8792SOL    HW127275   4.295   6.896   3.296
 8792SOL    HW227276   4.203   0.008   3.259
 8793SOL     OW27277   2.238   5.965   3.862
 8793SOL    HW127278   2.298   6.031   3.906
 8793SOL    HW227279   2.166   6.012   3.811
 8794SOL     OW27280   1.822   6.580   2.978
 8794SOL    HW127281   1.880   6.647   2.932
 8794SOL    HW227282   1.728   6.615   2.981
 8795SOL     OW27283   1.906   6.357   5.785
 8795SOL    HW127284   1.834   6.343   5.852
 8795SOL    HW227285   1.995   6.356   5.831
 8796SOL     OW27286   4.610   2.295   5.377
 8796SOL    HW127287   4.668   2.226   5.422
 8796SOL    HW227288   4.607   2.276   5.279
 8797SOL     OW27289   0.715   6.414   6.250
 8797SOL    HW127290   0.806   6.403   6.291
 8797SOL    HW227291   0.723   6.465   6.165
 8798SOL     OW27292   5.425   3.690   5.233
 8798SOL    HW127293   5.449   3.638   5.151
 8798SOL    HW227294   5.335   3.661   5.266
 8799SOL     OW27295   2.964   4.843   2.967
 8799SOL    HW127296   3.022   4.884   2.896
 8799SOL    HW227297   2.875   4.820   2.929
 8800SOL     OW27298   4.981   4.724   6.140
 8800SOL    HW127299   4.946   4.632   6.157
 8800SOL    HW227300   4.910   4.778   6.094
 8801SOL     OW27301   2.448   1.188   4.294
 8801SOL    HW127302   2.354   1.219   4.298
 8801SOL    HW227303   2.474   1.171   4.199
 8802SOL     OW27304   1.721   6.198   2.292
 8802SOL    HW127305   1.716   6.262   2.369
 8802SOL    HW227306   1.790   6.229   2.227
 8803SOL     OW27307   2.531   5.709   0.007
 8803SOL    HW127308   2.477   5.666   0.078
 8803SOL    HW227309   2.624   5.724   0.040
 8804SOL     OW27310   4.015   0.510   1.337
 8804SOL    HW127311   4.008   0.602   1.299
 8804SOL    HW227312   4.071   0.453   1.277
 8805SOL     OW27313   0.912   0.511   3.392
 8805SOL    HW127314   0.989   0.540   3.450
 8805SOL    HW227315   0.941   0.512   3.296
 8806SOL     OW27316   1.579   5.058   0.419
 8806SOL    HW127317   1.543   5.078   0.510
 8806SOL    HW227318   1.655   4.993   0.427
 8807SOL     OW27319   0.061   6.110   5.645
 8807SOL    HW127320   0.085   6.020   5.609
 8807SOL    HW227321   6.993   6.141   5.603
 8808SOL     OW27322   5.403   1.141   0.255
 8808SOL    HW127323   5.460   1.165   0.177
 8808SOL    HW227324   5.313   1.184   0.246
 8809SOL     OW27325   5.571   4.175   1.839
 8809SOL    HW127326   5.571   4.086   1.885
 8809SOL    HW227327   5.482   4.218   1.849
 8810SOL     OW27328   4.698   1.597   3.487
 8810SOL    HW127329   4.609   1.607   3.444
 8810SOL    HW227330   4.686   1.576   3.584
 8811SOL     OW27331   2.850   1.895   3.097
 8811SOL    HW127332   2.943   1.908   3.062
 8811SOL    HW227333   2.818   1.803   3.072
 8812SOL     OW27334   0.925   1.086   0.652
 8812SOL    HW127335   0.885   1.094   0.743
 8812SOL    HW227336   0.875   1.018   0.600
 8813SOL     OW27337   1.167   6.436   1.816
 8813SOL    HW127338   1.156   6.510   1.883
 8813SOL    HW227339   1.108   6.359   1.841
 8814SOL     OW27340   6.380   0.832   6.902
 8814SOL    HW127341   6.401   0.782   6.986
 8814SOL    HW227342   6.460   0.884   6.874
 8815SOL     OW27343   0.293   6.060   1.853
 8815SOL    HW127344   0.282   6.156   1.826
 8815SOL    HW227345   0.212   6.031   1.904
 8816SOL     OW27346   1.283   5.733   1.510
 8816SOL    HW127347   1.351   5.663   1.532
 8816SOL    HW227348   1.320   5.823   1.532
 8817SOL     OW27349   1.329   5.744   4.928
 8817SOL    HW127350   1.369   5.825   4.970
 8817SOL    HW227351   1.395   5.700   4.868
 8818SOL     OW27352   0.245   4.468   4.282
 8818SOL    HW127353   0.312   4.400   4.252
 8818SOL    HW227354   0.283   4.559   4.274
 8819SOL     OW27355   4.667   6.511   4.207
 8819SOL    HW127356   4.698   6.430   4.257
 8819SOL    HW227357   4.603   6.563   4.264
 8820SOL     OW27358   1.781   2.730   4.205
 8820SOL    HW127359   1.837   2.792   4.260
 8820SOL    HW227360   1.723   2.675   4.264
 8821SOL     OW27361   2.855   0.611   6.549
 8821SOL    HW127362   2.909   0.695   6.554
 8821SOL    HW227363   2.792   0.608   6.627
 8822SOL     OW27364   0.773   1.479   3.485
 8822SOL    HW127365   0.854   1.421   3.495
 8822SOL    HW227366   0.799   1.575   3.498
 8823SOL     OW27367   1.677   6.831   0.914
 8823SOL    HW127368   1.766   6.806   0.877
 8823SOL    HW227369   1.631   6.893   0.850
 8824SOL     OW27370   3.324   4.058   0.669
 8824SOL    HW127371   3.389   4.072   0.743
 8824SOL    HW227372   3.319   3.961   0.647
 8825SOL     OW27373   1.490   0.990   2.219
 8825SOL    HW127374   1.472   1.088   2.209
 8825SOL    HW227375   1.502   0.949   2.129
 8826SOL     OW27376   5.566   0.994   6.487
 8826SOL    HW127377   5.634   0.982   6.559
 8826SOL    HW227378   5.612   1.019   6.402
 8827SOL     OW27379   2.052   1.566   3.154
 8827SOL    HW127380   2.091   1.614   3.075
 8827SOL    HW227381   2.057   1.626   3.234
 8828SOL     OW27382   2.400   6.237   3.030
 8828SOL    HW127383   2.482   6.293   3.021
 8828SOL    HW227384   2.319   6.295   3.030
 8829SOL     OW27385   0.324   2.497   6.747
 8829SOL    HW127386   0.387   2.533   6.816
 8829SOL    HW227387   0.231   2.498   6.784
 8830SOL     OW27388   0.845   1.174   0.311
 8830SOL    HW127389   0.943   1.179   0.328
 8830SOL    HW227390   0.825   1.094   0.253
 8831SOL     OW27391   6.002   0.754   2.946
 8831SOL    HW127392   5.989   0.847   2.911
 8831SOL    HW227393   6.028   0.758   3.042
 8832SOL     OW27394   6.653   0.373   2.440
 8832SOL    HW127395   6.718   0.348   2.368
 8832SOL    HW227396   6.695   0.440   2.501
 8833SOL     OW27397   2.519   5.229   4.495
 8833SOL    HW127398   2.423   5.202   4.504
 8833SOL    HW227399   2.571   5.154   4.454
 8834SOL     OW27400   5.902   2.928   4.706
 8834SOL    HW127401   5.997   2.909   4.679
 8834SOL    HW227402   5.886   2.891   4.798
 8835SOL     OW27403   6.789   6.577   5.387
 8835SOL    HW127404   6.791   6.517   5.307
 8835SOL    HW227405   6.879   6.577   5.430
 8836SOL     OW27406   4.410   1.410   0.011
 8836SOL    HW127407   4.400   1.451   0.102
 8836SOL    HW227408   4.498   1.438   6.989
 8837SOL     OW27409   0.427   0.929   1.716
 8837SOL    HW127410   0.399   0.915   1.622
 8837SOL    HW227411   0.358   0.982   1.765
 8838SOL     OW27412   2.908   5.396   3.333
 8838SOL    HW127413   2.973   5.336   3.287
 8838SOL    HW227414   2.930   5.401   3.431
 8839SOL     OW27415   6.375   5.996   3.326
 8839SOL    HW127416   6.352   5.941   3.407
 8839SOL    HW227417   6.474   6.013   3.325
 8840SOL     OW27418   5.667   2.397   2.356
 8840SOL    HW127419   5.739   2.334   2.329
 8840SOL    HW227420   5.687   2.432   2.448
 8841SOL     OW27421   0.970   1.737   5.223
 8841SOL    HW127422   0.954   1.771   5.130
 8841SOL    HW227423   0.989   1.639   5.220
 8842SOL     OW27424   2.654   2.617   1.710
 8842SOL    HW127425   2.579   2.557   1.738
 8842SOL    HW227426   2.631   2.712   1.731
 8843SOL     OW27427   1.193   2.724   4.879
 8843SOL    HW127428   1.264   2.723   4.807
 8843SOL    HW227429   1.104   2.740   4.837
 8844SOL     OW27430   6.215   1.256   5.800
 8844SOL    HW127431   6.257   1.192   5.735
 8844SOL    HW227432   6.182   1.206   5.879
 8845SOL     OW27433   4.553   4.063   0.304
 8845SOL    HW127434   4.599   4.135   0.355
 8845SOL    HW227435   4.590   3.974   0.330
 8846SOL     OW27436   1.871   4.383   4.287
 8846SOL    HW127437   1.892   4.302   4.231
 8846SOL    HW227438   1.927   4.460   4.256
 8847SOL     OW27439   2.805   0.097   2.067
 8847SOL    HW127440   2.890   0.046   2.083
 8847SOL    HW227441   2.765   0.069   1.980
 8848SOL     OW27442   1.897   0.458   2.238
 8848SOL    HW127443   1.816   0.507   2.269
 8848SOL    HW227444   1.921   0.488   2.146
 8849SOL     OW27445   2.463   6.556   2.094
 8849SOL    HW127446   2.502   6.624   2.155
 8849SOL    HW227447   2.517   6.472   2.098
 8850SOL     OW27448   3.410   2.490   6.915
 8850SOL    HW127449   3.408   2.457   6.821
 8850SOL    HW227450   3.420   2.590   6.915
 8851SOL     OW27451   1.561   4.543   2.234
 8851SOL    HW127452   1.564   4.550   2.135
 8851SOL    HW227453   1.622   4.612   2.274
 8852SOL     OW27454   1.011   1.666   6.208
 8852SOL    HW127455   0.997   1.608   6.288
 8852SOL    HW227456   1.062   1.615   6.138
 8853SOL     OW27457   3.688   0.862   0.758
 8853SOL    HW127458   3.752   0.932   0.791
 8853SOL    HW227459   3.606   0.863   0.814
 8854SOL     OW27460   1.450   3.084   4.968
 8854SOL    HW127461   1.514   3.007   4.974
 8854SOL    HW227462   1.368   3.064   5.021
 8855SOL     OW27463   5.644   5.105   1.049
 8855SOL    HW127464   5.608   5.012   1.062
 8855SOL    HW227465   5.634   5.156   1.135
 8856SOL     OW27466   0.842   5.719   6.239
 8856SOL    HW127467   0.816   5.786   6.308
 8856SOL    HW227468   0.839   5.761   6.148
 8857SOL     OW27469   6.362   0.912   5.071
 8857SOL    HW127470   6.420   0.905   4.989
 8857SOL    HW227471   6.303   0.832   5.077
 8858SOL     OW27472   6.181   4.781   4.378
 8858SOL    HW127473   6.146   4.864   4.334
 8858SOL    HW227474   6.232   4.806   4.460
 8859SOL     OW27475   0.698   0.856   3.591
 8859SOL    HW127476   0.623   0.814   3.540
 8859SOL    HW227477   0.682   0.954   3.599
 8860SOL     OW27478   6.467   2.298   1.742
 8860SOL    HW127479   6.423   2.217   1.704
 8860SOL    HW227480   6.483   2.285   1.840
 8861SOL     OW27481   4.310   2.009   1.406
 8861SOL    HW127482   4.403   2.044   1.397
 8861SOL    HW227483   4.298   1.930   1.347
 8862SOL     OW27484   4.709   5.048   5.283
 8862SOL    HW127485   4.720   4.951   5.306
 8862SOL    HW227486   4.755   5.067   5.196
 8863SOL     OW27487   2.038   4.122   3.809
 8863SOL    HW127488   2.131   4.158   3.809
 8863SOL    HW227489   1.975   4.191   3.846
 8864SOL     OW27490   5.559   1.533   5.541
 8864SOL    HW127491   5.598   1.573   5.624
 8864SOL    HW227492   5.493   1.462   5.566
 8865SOL     OW27493   2.257   1.617   6.489
 8865SOL    HW127494   2.217   1.694   6.438
 8865SOL    HW227495   2.288   1.650   6.579
 8866SOL     OW27496   5.946   5.865   1.943
 8866SOL    HW127497   6.036   5.863   1.986
 8866SOL    HW227498   5.955   5.898   1.849
 8867SOL     OW27499   6.517   3.795   2.838
 8867SOL    HW127500   6.441   3.731   2.825
 8867SOL    HW227501   6.595   3.766   2.782
 8868SOL     OW27502   6.863   3.570   3.288
 8868SOL    HW127503   6.805   3.494   3.259
 8868SOL    HW227504   6.807   3.640   3.332
 8869SOL     OW27505   3.181   6.338   3.706
 8869SOL    HW127506   3.086   6.332   3.734
 8869SOL    HW227507   3.203   6.263   3.643
 8870SOL     OW27508   1.637   7.008   2.148
 8870SOL    HW127509   1.543   6.974   2.160
 8870SOL    HW227510   1.654   0.005   2.050
 8871SOL     OW27511   0.551   0.976   3.009
 8871SOL    HW127512   0.509   1.020   2.930
 8871SOL    HW227513   0.649   0.964   2.993
 8872SOL     OW27514   0.343   4.626   4.906
 8872SOL    HW127515   0.259   4.584   4.871
 8872SOL    HW227516   0.421   4.594   4.852
 8873SOL     OW27517   1.434   0.721   2.254
 8873SOL    HW127518   1.454   0.818   2.262
 8873SOL    HW227519   1.340   0.704   2.282
 8874SOL     OW27520   2.943   5.745   0.436
 8874SOL    HW127521   2.909   5.656   0.406
 8874SOL    HW227522   2.889   5.817   0.392
 8875SOL     OW27523   0.324   3.343   3.801
 8875SOL    HW127524   0.286   3.311   3.714
 8875SOL    HW227525   0.422   3.359   3.791
 8876SOL     OW27526   3.604   0.575   6.441
 8876SOL    HW127527   3.643   0.491   6.404
 8876SOL    HW227528   3.653   0.601   6.524
 8877SOL     OW27529   1.857   3.827   1.244
 8877SOL    HW127530   1.904   3.750   1.286
 8877SOL    HW227531   1.885   3.836   1.148
 8878SOL     OW27532   4.236   4.406   0.770
 8878SOL    HW127533   4.211   4.432   0.677
 8878SOL    HW227534   4.283   4.318   0.769
 8879SOL     OW27535   6.371   4.776   2.509
 8879SOL    HW127536   6.390   4.754   2.413
 8879SOL    HW227537   6.286   4.827   2.516
 8880SOL     OW27538   4.700   6.965   3.785
 8880SOL    HW127539   4.735   6.895   3.847
 8880SOL    HW227540   4.725   0.038   3.820
 8881SOL     OW27541   3.951   5.278   4.218
 8881SOL    HW127542   4.001   5.223   4.285
 8881SOL    HW227543   4.015   5.339   4.171
 8882SOL     OW27544   4.337   0.603   0.869
 8882SOL    HW127545   4.330   0.653   0.955
 8882SOL    HW227546   4.434   0.587   0.848
 8883SOL     OW27547   0.286   6.232   4.730
 8883SOL    HW127548   0.322   6.249   4.822
 8883SOL    HW227549   0.295   6.135   4.708
 8884SOL     OW27550   5.336   3.644   4.838
 8884SOL    HW127551   5.277   3.566   4.817
 8884SOL    HW227552   5.403   3.618   4.908
 8885SOL     OW27553   6.190   5.639   0.359
 8885SOL    HW127554   6.170   5.541   0.353
 8885SOL    HW227555   6.106   5.691   0.350
 8886SOL     OW27556   3.206   5.874   6.701
 8886SOL    HW127557   3.210   5.776   6.679
 8886SOL    HW227558   3.285   5.898   6.757
 8887SOL     OW27559   4.706   1.839   1.123
 8887SOL    HW127560   4.703   1.778   1.201
 8887SOL    HW227561   4.724   1.933   1.154
 8888SOL     OW27562   2.484   1.665   3.315
 8888SOL    HW127563   2.503   1.655   3.218
 8888SOL    HW227564   2.535   1.596   3.367
 8889SOL     OW27565   0.585   6.564   6.062
 8889SOL    HW127566   0.495   6.522   6.068
 8889SOL    HW227567   0.578   6.652   6.014
 8890SOL     OW27568   0.482   7.006   0.055
 8890SOL    HW127569   0.483   6.919   0.006
 8890SOL    HW227570   0.575   0.026   0.058
 8891SOL     OW27571   6.213   4.532   0.062
 8891SOL    HW127572   6.113   4.524   0.065
 8891SOL    HW227573   6.239   4.586   7.000
 8892SOL     OW27574   3.091   5.762   3.407
 8892SOL    HW127575   3.176   5.725   3.445
 8892SOL    HW227576   3.050   5.695   3.345
 8893SOL     OW27577   1.486   5.053   5.003
 8893SOL    HW127578   1.482   5.139   5.055
 8893SOL    HW227579   1.571   5.005   5.026
 8894SOL     OW27580   4.296   2.022   0.147
 8894SOL    HW127581   4.262   1.984   0.062
 8894SOL    HW227582   4.220   2.036   0.211
 8895SOL     OW27583   0.567   3.718   1.167
 8895SOL    HW127584   0.491   3.654   1.177
 8895SOL    HW227585   0.594   3.723   1.071
 8896SOL     OW27586   0.381   2.147   4.293
 8896SOL    HW127587   0.425   2.237   4.288
 8896SOL    HW227588   0.376   2.118   4.389
 8897SOL     OW27589   2.288   4.308   4.197
 8897SOL    HW127590   2.248   4.252   4.269
 8897SOL    HW227591   2.313   4.398   4.234
 8898SOL     OW27592   4.870   3.887   2.843
 8898SOL    HW127593   4.877   3.887   2.743
 8898SOL    HW227594   4.819   3.807   2.873
 8899SOL     OW27595   6.848   3.348   6.064
 8899SOL    HW127596   6.804   3.401   5.990
 8899SOL    HW227597   6.932   3.306   6.029
 8900SOL     OW27598   5.091   2.774   4.119
 8900SOL    HW127599   5.026   2.807   4.187
 8900SOL    HW227600   5.070   2.679   4.095
 8901SOL     OW27601   1.051   2.804   4.611
 8901SOL    HW127602   1.066   2.896   4.647
 8901SOL    HW227603   1.139   2.759   4.598
 8902SOL     OW27604   0.678   4.216   0.314
 8902SOL    HW127605   0.696   4.305   0.272
 8902SOL    HW227606   0.627   4.229   0.399
 8903SOL     OW27607   1.398   0.465   4.808
 8903SOL    HW127608   1.376   0.488   4.903
 8903SOL    HW227609   1.492   0.431   4.802
 8904SOL     OW27610   0.559   1.373   3.348
 8904SOL    HW127611   0.566   1.391   3.250
 8904SOL    HW227612   0.631   1.424   3.396
 8905SOL     OW27613   1.746   3.820   2.181
 8905SOL    HW127614   1.805   3.842   2.259
 8905SOL    HW227615   1.711   3.727   2.192
 8906SOL     OW27616   6.939   6.987   0.578
 8906SOL    HW127617   6.844   6.974   0.604
 8906SOL    HW227618   6.990   0.004   0.657
 8907SOL     OW27619   3.853   3.184   5.045
 8907SOL    HW127620   3.819   3.103   4.998
 8907SOL    HW227621   3.817   3.266   5.001
 8908SOL     OW27622   1.504   5.947   0.987
 8908SOL    HW127623   1.453   5.994   0.914
 8908SOL    HW227624   1.449   5.871   1.021
 8909SOL     OW27625   2.880   0.779   0.120
 8909SOL    HW127626   2.798   0.724   0.106
 8909SOL    HW227627   2.867   0.869   0.078
 8910SOL     OW27628   1.769   2.176   4.000
 8910SOL    HW127629   1.680   2.216   3.975
 8910SOL    HW227630   1.766   2.078   3.982
 8911SOL     OW27631   4.691   1.659   4.105
 8911SOL    HW127632   4.685   1.559   4.098
 8911SOL    HW227633   4.707   1.698   4.014
 8912SOL     OW27634   3.510   3.770   4.511
 8912SOL    HW127635   3.551   3.839   4.571
 8912SOL    HW227636   3.531   3.792   4.415
 8913SOL     OW27637   5.084   6.092   6.943
 8913SOL    HW127638   4.989   6.088   6.912
 8913SOL    HW227639   5.145   6.078   6.865
 8914SOL     OW27640   4.894   6.543   6.296
 8914SOL    HW127641   4.916   6.518   6.201
 8914SOL    HW227642   4.907   6.642   6.308
 8915SOL     OW27643   1.113   1.257   3.724
 8915SOL    HW127644   1.114   1.169   3.771
 8915SOL    HW227645   1.046   1.317   3.767
 8916SOL     OW27646   5.213   1.527   6.755
 8916SOL    HW127647   5.189   1.497   6.847
 8916SOL    HW227648   5.244   1.622   6.758
 8917SOL     OW27649   5.836   1.996   0.077
 8917SOL    HW127650   5.753   2.047   0.094
 8917SOL    HW227651   5.873   2.020   7.005
 8918SOL     OW27652   0.907   4.200   1.732
 8918SOL    HW127653   0.897   4.300   1.731
 8918SOL    HW227654   0.927   4.169   1.825
 8919SOL     OW27655   5.553   4.173   6.956
 8919SOL    HW127656   5.540   4.259   6.907
 8919SOL    HW227657   5.639   4.130   6.928
 8920SOL     OW27658   6.708   1.378   0.041
 8920SOL    HW127659   6.783   1.417   0.094
 8920SOL    HW227660   6.625   1.432   0.053
 8921SOL     OW27661   1.323   3.050   0.914
 8921SOL    HW127662   1.377   2.978   0.956
 8921SOL    HW227663   1.244   3.011   0.868
 8922SOL     OW27664   3.455   0.707   3.605
 8922SOL    HW127665   3.425   0.689   3.511
 8922SOL    HW227666   3.548   0.672   3.617
 8923SOL     OW27667   1.868   2.321   4.966
 8923SOL    HW127668   1.882   2.374   5.049
 8923SOL    HW227669   1.820   2.377   4.898
 8924SOL     OW27670   4.914   5.160   4.657
 8924SOL    HW127671   4.999   5.203   4.627
 8924SOL    HW227672   4.934   5.069   4.695
 8925SOL     OW27673   1.298   0.784   3.644
 8925SOL    HW127674   1.323   0.809   3.551
 8925SOL    HW227675   1.304   0.864   3.704
 8926SOL     OW27676   6.702   2.881   5.306
 8926SOL    HW127677   6.781   2.911   5.360
 8926SOL    HW227678   6.666   2.796   5.343
 8927SOL     OW27679   6.646   1.694   6.315
 8927SOL    HW127680   6.653   1.700   6.216
 8927SOL    HW227681   6.564   1.642   6.339
 8928SOL     OW27682   2.052   6.558   5.151
 8928SOL    HW127683   1.957   6.573   5.124
 8928SOL    HW227684   2.102   6.518   5.074
 8929SOL     OW27685   0.229   2.087   4.535
 8929SOL    HW127686   0.156   2.076   4.602
 8929SOL    HW227687   0.277   2.173   4.552
 8930SOL     OW27688   1.694   4.651   3.694
 8930SOL    HW127689   1.635   4.630   3.772
 8930SOL    HW227690   1.721   4.566   3.648
 8931SOL     OW27691   3.736   2.867   1.196
 8931SOL    HW127692   3.738   2.768   1.180
 8931SOL    HW227693   3.788   2.889   1.278
 8932SOL     OW27694   6.873   2.700   2.950
 8932SOL    HW127695   6.801   2.747   2.899
 8932SOL    HW227696   6.857   2.602   2.947
 8933SOL     OW27697   3.936   2.007   5.995
 8933SOL    HW127698   3.991   1.988   6.077
 8933SOL    HW227699   3.872   2.082   6.014
 8934SOL     OW27700   2.630   5.677   4.423
 8934SOL    HW127701   2.717   5.633   4.400
 8934SOL    HW227702   2.577   5.616   4.482
 8935SOL     OW27703   6.857   4.880   1.088
 8935SOL    HW127704   6.764   4.849   1.108
 8935SOL    HW227705   6.918   4.851   1.162
 8936SOL     OW27706   1.955   2.969   0.849
 8936SOL    HW127707   1.945   2.893   0.914
 8936SOL    HW227708   2.041   3.017   0.867
 8937SOL     OW27709   0.359   6.662   5.606
 8937SOL    HW127710   0.286   6.701   5.551
 8937SOL    HW227711   0.338   6.675   5.703
 8938SOL     OW27712   6.624   5.434   1.302
 8938SOL    HW127713   6.595   5.344   1.270
 8938SOL    HW227714   6.634   5.434   1.401
 8939SOL     OW27715   4.862   2.114   4.754
 8939SOL    HW127716   4.941   2.138   4.699
 8939SOL    HW227717   4.803   2.194   4.765
 8940SOL     OW27718   6.299   0.927   3.977
 8940SOL    HW127719   6.368   0.904   4.045
 8940SOL    HW227720   6.300   1.025   3.959
 8941SOL     OW27721   5.386   2.247   5.944
 8941SOL    HW127722   5.441   2.260   5.862
 8941SOL    HW227723   5.300   2.202   5.919
 8942SOL     OW27724   0.317   2.296   5.311
 8942SOL    HW127725   0.311   2.201   5.343
 8942SOL    HW227726   0.291   2.299   5.214
 8943SOL     OW27727   4.744   3.163   1.143
 8943SOL    HW127728   4.835   3.132   1.170
 8943SOL    HW227729   4.679   3.142   1.217
 8944SOL     OW27730   4.391   5.926   0.528
 8944SOL    HW127731   4.473   5.869   0.530
 8944SOL    HW227732   4.378   5.968   0.618
 8945SOL     OW27733   2.375   0.773   4.684
 8945SOL    HW127734   2.389   0.696   4.746
 8945SOL    HW227735   2.321   0.843   4.730
 8946SOL     OW27736   3.506   1.708   5.064
 8946SOL    HW127737   3.589   1.744   5.020
 8946SOL    HW227738   3.485   1.763   5.145
 8947SOL     OW27739   3.681   3.534   5.758
 8947SOL    HW127740   3.695   3.559   5.663
 8947SOL    HW227741   3.595   3.484   5.767
 8948SOL     OW27742   5.482   4.692   3.420
 8948SOL    HW127743   5.568   4.735   3.448
 8948SOL    HW227744   5.432   4.754   3.359
 8949SOL     OW27745   1.403   6.940   6.890
 8949SOL    HW127746   1.437   6.863   6.944
 8949SOL    HW227747   1.471   6.965   6.821
 8950SOL     OW27748   4.940   3.182   5.283
 8950SOL    HW127749   4.894   3.095   5.265
 8950SOL    HW227750   4.921   3.212   5.376
 8951SOL     OW27751   1.548   3.174   5.391
 8951SOL    HW127752   1.593   3.085   5.386
 8951SOL    HW227753   1.551   3.218   5.301
 8952SOL     OW27754   1.499   1.162   3.344
 8952SOL    HW127755   1.538   1.116   3.264
 8952SOL    HW227756   1.452   1.246   3.315
 8953SOL     OW27757   1.610   3.347   0.341
 8953SOL    HW127758   1.539   3.414   0.318
 8953SOL    HW227759   1.700   3.388   0.328
 8954SOL     OW27760   1.109   5.898   6.280
 8954SOL    HW127761   1.047   5.922   6.206
 8954SOL    HW227762   1.182   5.839   6.245
 8955SOL     OW27763   6.863   4.431   3.518
 8955SOL    HW127764   6.764   4.426   3.532
 8955SOL    HW227765   6.885   4.505   3.455
 8956SOL     OW27766   0.650   1.146   6.263
 8956SOL    HW127767   0.555   1.152   6.232
 8956SOL    HW227768   0.667   1.216   6.333
 8957SOL     OW27769   3.053   4.793   1.880
 8957SOL    HW127770   2.990   4.740   1.936
 8957SOL    HW227771   3.147   4.764   1.900
 8958SOL     OW27772   1.690   6.840   4.012
 8958SOL    HW127773   1.749   6.781   3.958
 8958SOL    HW227774   1.703   6.821   4.109
 8959SOL     OW27775   1.354   4.775   0.760
 8959SOL    HW127776   1.380   4.796   0.665
 8959SOL    HW227777   1.355   4.860   0.813
 8960SOL     OW27778   3.869   5.662   1.932
 8960SOL    HW127779   3.958   5.625   1.957
 8960SOL    HW227780   3.799   5.592   1.944
 8961SOL     OW27781   1.199   2.157   4.197
 8961SOL    HW127782   1.208   2.082   4.263
 8961SOL    HW227783   1.289   2.186   4.167
 8962SOL     OW27784   6.132   0.677   3.705
 8962SOL    HW127785   6.075   0.648   3.629
 8962SOL    HW227786   6.186   0.757   3.678
 8963SOL     OW27787   5.437   0.368   4.433
 8963SOL    HW127788   5.486   0.356   4.519
 8963SOL    HW227789   5.475   0.446   4.383
 8964SOL     OW27790   4.885   4.964   2.291
 8964SOL    HW127791   4.972   4.916   2.279
 8964SOL    HW227792   4.814   4.921   2.236
 8965SOL     OW27793   1.216   4.975   1.716
 8965SOL    HW127794   1.204   4.891   1.770
 8965SOL    HW227795   1.311   4.982   1.686
 8966SOL     OW27796   1.941   2.243   6.167
 8966SOL    HW127797   1.873   2.195   6.223
 8966SOL    HW227798   1.996   2.303   6.226
 8967SOL     OW27799   3.942   0.367   0.656
 8967SOL    HW127800   3.842   0.378   0.661
 8967SOL    HW227801   3.986   0.434   0.715
 8968SOL     OW27802   5.233   6.458   1.292
 8968SOL    HW127803   5.161   6.516   1.254
 8968SOL    HW227804   5.193   6.390   1.353
 8969SOL     OW27805   5.824   0.775   3.794
 8969SOL    HW127806   5.899   0.821   3.843
 8969SOL    HW227807   5.849   0.679   3.778
 8970SOL     OW27808   3.626   2.317   1.309
 8970SOL    HW127809   3.669   2.402   1.340
 8970SOL    HW227810   3.688   2.270   1.246
 8971SOL     OW27811   3.753   5.884   2.385
 8971SOL    HW127812   3.835   5.940   2.376
 8971SOL    HW227813   3.761   5.803   2.326
 8972SOL     OW27814   5.636   6.257   5.947
 8972SOL    HW127815   5.735   6.268   5.939
 8972SOL    HW227816   5.614   6.218   6.036
 8973SOL     OW27817   1.757   4.866   0.712
 8973SOL    HW127818   1.772   4.861   0.811
 8973SOL    HW227819   1.670   4.913   0.694
 8974SOL     OW27820   0.792   4.088   6.143
 8974SOL    HW127821   0.767   4.147   6.220
 8974SOL    HW227822   0.839   4.007   6.177
 8975SOL     OW27823   2.844   0.100   0.926
 8975SOL    HW127824   2.936   0.114   0.889
 8975SOL    HW227825   2.786   0.061   0.854
 8976SOL     OW27826   1.894   5.400   4.490
 8976SOL    HW127827   1.797   5.426   4.485
 8976SOL    HW227828   1.931   5.393   4.398
 8977SOL     OW27829   5.918   1.275   5.459
 8977SOL    HW127830   5.892   1.324   5.542
 8977SOL    HW227831   5.990   1.209   5.481
 8978SOL     OW27832   5.944   6.080   0.375
 8978SOL    HW127833   6.032   6.063   0.331
 8978SOL    HW227834   5.953   6.155   0.441
 8979SOL     OW27835   1.937   4.137   4.873
 8979SOL    HW127836   2.025   4.123   4.828
 8979SOL    HW227837   1.951   4.143   4.972
 8980SOL     OW27838   3.287   3.314   4.844
 8980SOL    HW127839   3.343   3.285   4.766
 8980SOL    HW227840   3.269   3.412   4.837
 8981SOL     OW27841   3.508   1.242   4.904
 8981SOL    HW127842   3.459   1.285   4.828
 8981SOL    HW227843   3.467   1.154   4.925
 8982SOL     OW27844   2.601   3.627   0.941
 8982SOL    HW127845   2.693   3.645   0.976
 8982SOL    HW227846   2.600   3.541   0.891
 8983SOL     OW27847   3.654   5.330   6.939
 8983SOL    HW127848   3.609   5.392   6.875
 8983SOL    HW227849   3.587   5.265   6.976
 8984SOL     OW27850   2.385   5.707   3.568
 8984SOL    HW127851   2.417   5.800   3.551
 8984SOL    HW227852   2.464   5.647   3.585
 8985SOL     OW27853   3.380   2.577   0.629
 8985SOL    HW127854   3.472   2.564   0.594
 8985SOL    HW227855   3.379   2.652   0.696
 8986SOL     OW27856   3.529   4.882   2.960
 8986SOL    HW127857   3.569   4.957   3.012
 8986SOL    HW227858   3.439   4.860   2.997
 8987SOL     OW27859   5.270   5.839   3.059
 8987SOL    HW127860   5.220   5.752   3.054
 8987SOL    HW227861   5.313   5.847   3.148
 8988SOL     OW27862   0.680   5.724   3.588
 8988SOL    HW127863   0.620   5.645   3.581
 8988SOL    HW227864   0.627   5.806   3.608
 8989SOL     OW27865   4.785   2.916   6.438
 8989SOL    HW127866   4.814   2.859   6.361
 8989SOL    HW227867   4.814   3.011   6.421
 8990SOL     OW27868   0.849   4.698   4.010
 8990SOL    HW127869   0.903   4.716   3.927
 8990SOL    HW227870   0.907   4.651   4.077
 8991SOL     OW27871   1.568   2.277   4.701
 8991SOL    HW127872   1.494   2.328   4.657
 8991SOL    HW227873   1.639   2.341   4.731
 8992SOL     OW27874   5.755   2.212   6.753
 8992SOL    HW127875   5.765   2.272   6.832
 8992SOL    HW227876   5.670   2.233   6.705
 8993SOL     OW27877   3.845   3.207   6.191
 8993SOL    HW127878   3.783   3.171   6.261
 8993SOL    HW227879   3.807   3.290   6.151
 8994SOL     OW27880   2.074   4.546   4.722
 8994SOL    HW127881   2.126   4.606   4.661
 8994SOL    HW227882   2.117   4.455   4.724
 8995SOL     OW27883   0.081   1.634   1.913
 8995SOL    HW127884   0.150   1.569   1.883
 8995SOL    HW227885   0.115   1.727   1.900
 8996SOL     OW27886   5.314   3.838   6.898
 8996SOL    HW127887   5.410   3.835   6.868
 8996SOL    HW227888   5.298   3.922   6.949
 8997SOL     OW27889   4.760   0.563   5.166
 8997SOL    HW127890   4.689   0.604   5.223
 8997SOL    HW227891   4.742   0.465   5.157
 8998SOL     OW27892   6.314   3.802   4.024
 8998SOL    HW127893   6.396   3.817   4.079
 8998SOL    HW227894   6.268   3.890   4.008
 8999SOL     OW27895   4.584   6.900   5.939
 8999SOL    HW127896   4.510   6.964   5.958
 8999SOL    HW227897   4.549   6.824   5.884
 9000SOL     OW27898   1.490   3.902   1.460
 9000SOL    HW127899   1.431   3.972   1.419
 9000SOL    HW227900   1.467   3.893   1.557
 9001SOL     OW27901   0.416   4.801   2.028
 9001SOL    HW127902   0.499   4.856   2.040
 9001SOL    HW227903   0.395   4.754   2.114
 9002SOL     OW27904   1.138   4.341   5.380
 9002SOL    HW127905   1.177   4.405   5.314
 9002SOL    HW227906   1.076   4.278   5.333
 9003SOL     OW27907   5.330   2.787   1.334
 9003SOL    HW127908   5.327   2.689   1.313
 9003SOL    HW227909   5.242   2.828   1.313
 9004SOL     OW27910   4.269   4.865   0.849
 9004SOL    HW127911   4.322   4.945   0.821
 9004SOL    HW227912   4.308   4.783   0.808
 9005SOL     OW27913   5.467   1.096   5.821
 9005SOL    HW127914   5.479   1.185   5.864
 9005SOL    HW227915   5.501   1.098   5.728
 9006SOL     OW27916   3.094   0.157   0.805
 9006SOL    HW127917   3.160   0.177   0.877
 9006SOL    HW227918   3.134   0.091   0.741
 9007SOL     OW27919   2.568   1.101   2.685
 9007SOL    HW127920   2.614   1.133   2.768
 9007SOL    HW227921   2.478   1.064   2.709
 9008SOL     OW27922   0.369   5.203   3.020
 9008SOL    HW127923   0.393   5.153   2.937
 9008SOL    HW227924   0.453   5.234   3.066
 9009SOL     OW27925   3.497   5.229   1.039
 9009SOL    HW127926   3.487   5.318   0.994
 9009SOL    HW227927   3.590   5.195   1.026
 9010SOL     OW27928   1.762   6.866   4.277
 9010SOL    HW127929   1.794   6.960   4.263
 9010SOL    HW227930   1.841   6.804   4.280
 9011SOL     OW27931   4.087   0.725   1.937
 9011SOL    HW127932   4.031   0.747   2.018
 9011SOL    HW227933   4.094   0.807   1.879
 9012SOL     OW27934   2.371   5.767   0.646
 9012SOL    HW127935   2.367   5.758   0.745
 9012SOL    HW227936   2.358   5.677   0.604
 9013SOL     OW27937   1.151   6.970   4.455
 9013SOL    HW127938   1.186   6.894   4.509
 9013SOL    HW227939   1.077   6.938   4.395
 9014SOL     OW27940   6.217   3.131   1.854
 9014SOL    HW127941   6.300   3.126   1.798
 9014SOL    HW227942   6.167   3.045   1.845
 9015SOL     OW27943   4.938   2.532   1.185
 9015SOL    HW127944   4.970   2.438   1.168
 9015SOL    HW227945   4.853   2.548   1.134
 9016SOL     OW27946   5.902   4.985   6.681
 9016SOL    HW127947   5.877   4.917   6.612
 9016SOL    HW227948   5.822   5.006   6.737
 9017SOL     OW27949   3.740   1.105   4.792
 9017SOL    HW127950   3.797   1.082   4.870
 9017SOL    HW227951   3.659   1.154   4.824
 9018SOL     OW27952   3.923   3.532   6.574
 9018SOL    HW127953   3.980   3.467   6.524
 9018SOL    HW227954   3.960   3.544   6.666
 9019SOL     OW27955   1.302   3.569   2.859
 9019SOL    HW127956   1.249   3.527   2.786
 9019SOL    HW227957   1.343   3.655   2.826
 9020SOL     OW27958   6.650   5.251   1.541
 9020SOL    HW127959   6.741   5.279   1.572
 9020SOL    HW227960   6.588   5.247   1.619
 9021SOL     OW27961   6.891   0.338   4.227
 9021SOL    HW127962   6.814   0.325   4.289
 9021SOL    HW227963   6.858   0.338   4.132
 9022SOL     OW27964   3.784   2.514   6.849
 9022SOL    HW127965   3.771   2.499   6.947
 9022SOL    HW227966   3.790   2.426   6.802
 9023SOL     OW27967   3.945   3.076   1.157
 9023SOL    HW127968   3.875   3.018   1.115
 9023SOL    HW227969   3.902   3.157   1.197
 9024SOL     OW27970   0.880   4.912   5.748
 9024SOL    HW127971   0.843   4.959   5.828
 9024SOL    HW227972   0.933   4.833   5.778
 9025SOL     OW27973   0.483   5.491   0.692
 9025SOL    HW127974   0.485   5.549   0.773
 9025SOL    HW227975   0.474   5.549   0.611
 9026SOL     OW27976   4.026   1.506   0.554
 9026SOL    HW127977   4.029   1.407   0.566
 9026SOL    HW227978   3.986   1.527   0.464
 9027SOL     OW27979   1.175   3.841   3.646
 9027SOL    HW127980   1.099   3.854   3.710
 9027SOL    HW227981   1.260   3.828   3.697
 9028SOL     OW27982   3.526   3.247   4.977
 9028SOL    HW127983   3.436   3.253   4.932
 9028SOL    HW227984   3.580   3.328   4.955
 9029SOL     OW27985   4.456   0.803   4.713
 9029SOL    HW127986   4.484   0.725   4.767
 9029SOL    HW227987   4.458   0.886   4.769
 9030SOL     OW27988   2.325   2.502   3.946
 9030SOL    HW127989   2.237   2.531   3.984
 9030SOL    HW227990   2.372   2.581   3.907
 9031SOL     OW27991   4.393   0.660   4.409
 9031SOL    HW127992   4.401   0.741   4.351
 9031SOL    HW227993   4.441   0.677   4.496
 9032SOL     OW27994   4.659   3.726   1.165
 9032SOL    HW127995   4.600   3.658   1.209
 9032SOL    HW227996   4.735   3.749   1.226
 9033SOL     OW27997   0.556   5.219   2.285
 9033SOL    HW127998   0.618   5.297   2.287
 9033SOL    HW227999   0.481   5.237   2.222
 9034SOL     OW28000   3.475   5.946   5.148
 9034SOL    HW128001   3.432   6.035   5.164
 9034SOL    HW228002   3.572   5.958   5.129
 9035SOL     OW28003   1.928   5.827   0.148
 9035SOL    HW128004   1.933   5.912   0.200
 9035SOL    HW228005   1.836   5.788   0.155
 9036SOL     OW28006   1.460   3.593   5.120
 9036SOL    HW128007   1.546   3.543   5.129
 9036SOL    HW228008   1.419   3.604   5.211
 9037SOL     OW28009   0.803   2.833   4.194
 9037SOL    HW128010   0.791   2.820   4.292
 9037SOL    HW228011   0.747   2.910   4.163
 9038SOL     OW28012   4.786   3.218   6.354
 9038SOL    HW128013   4.751   3.259   6.438
 9038SOL    HW228014   4.780   3.284   6.279
 9039SOL     OW28015   3.441   4.725   6.664
 9039SOL    HW128016   3.480   4.719   6.572
 9039SOL    HW228017   3.343   4.705   6.661
 9040SOL     OW28018   2.494   1.968   1.873
 9040SOL    HW128019   2.588   2.004   1.872
 9040SOL    HW228020   2.496   1.869   1.871
 9041SOL     OW28021   0.733   2.173   1.204
 9041SOL    HW128022   0.706   2.183   1.108
 9041SOL    HW228023   0.826   2.208   1.216
 9042SOL     OW28024   3.748   5.997   5.092
 9042SOL    HW128025   3.846   6.008   5.108
 9042SOL    HW228026   3.729   6.011   4.994
 9043SOL     OW28027   2.350   1.439   6.978
 9043SOL    HW128028   2.369   1.410   6.884
 9043SOL    HW228029   2.395   1.526   6.996
 9044SOL     OW28030   0.825   0.710   0.259
 9044SOL    HW128031   0.747   0.685   0.316
 9044SOL    HW228032   0.792   0.739   0.169
 9045SOL     OW28033   4.357   0.552   3.378
 9045SOL    HW128034   4.338   0.456   3.398
 9045SOL    HW228035   4.274   0.596   3.342
 9046SOL     OW28036   4.128   3.387   2.441
 9046SOL    HW128037   4.206   3.444   2.467
 9046SOL    HW228038   4.123   3.308   2.502
 9047SOL     OW28039   1.663   4.407   5.433
 9047SOL    HW128040   1.594   4.431   5.364
 9047SOL    HW228041   1.617   4.375   5.516
 9048SOL     OW28042   5.973   2.158   6.325
 9048SOL    HW128043   5.940   2.210   6.404
 9048SOL    HW228044   5.972   2.215   6.244
 9049SOL     OW28045   3.321   6.231   6.171
 9049SOL    HW128046   3.259   6.170   6.219
 9049SOL    HW228047   3.404   6.245   6.225
 9050SOL     OW28048   0.597   4.227   1.673
 9050SOL    HW128049   0.568   4.159   1.605
 9050SOL    HW228050   0.693   4.213   1.696
 9051SOL     OW28051   2.589   1.141   1.334
 9051SOL    HW128052   2.667   1.093   1.374
 9051SOL    HW228053   2.621   1.201   1.261
 9052SOL     OW28054   1.909   2.920   4.369
 9052SOL    HW128055   1.901   2.926   4.468
 9052SOL    HW228056   1.996   2.960   4.340
 9053SOL     OW28057   2.169   1.331   1.122
 9053SOL    HW128058   2.236   1.376   1.063
 9053SOL    HW228059   2.077   1.364   1.099
 9054SOL     OW28060   2.929   5.635   3.820
 9054SOL    HW128061   3.015   5.640   3.871
 9054SOL    HW228062   2.852   5.652   3.882
 9055SOL     OW28063   6.723   4.084   4.726
 9055SOL    HW128064   6.805   4.075   4.782
 9055SOL    HW228065   6.642   4.070   4.783
 9056SOL     OW28066   6.371   2.315   2.684
 9056SOL    HW128067   6.404   2.352   2.771
 9056SOL    HW228068   6.435   2.246   2.651
 9057SOL     OW28069   4.890   1.751   4.319
 9057SOL    HW128070   4.858   1.730   4.226
 9057SOL    HW228071   4.883   1.850   4.335
 9058SOL     OW28072   1.526   0.480   6.318
 9058SOL    HW128073   1.578   0.478   6.404
 9058SOL    HW228074   1.444   0.424   6.328
 9059SOL     OW28075   1.765   2.301   2.387
 9059SOL    HW128076   1.802   2.390   2.414
 9059SOL    HW228077   1.840   2.241   2.359
 9060SOL     OW28078   5.221   3.132   4.610
 9060SOL    HW128079   5.179   3.071   4.543
 9060SOL    HW228080   5.271   3.078   4.677
 9061SOL     OW28081   4.566   5.557   2.314
 9061SOL    HW128082   4.567   5.575   2.413
 9061SOL    HW228083   4.548   5.643   2.265
 9062SOL     OW28084   1.522   5.381   1.696
 9062SOL    HW128085   1.434   5.427   1.707
 9062SOL    HW228086   1.574   5.388   1.782
 9063SOL     OW28087   2.677   1.671   3.704
 9063SOL    HW128088   2.708   1.629   3.789
 9063SOL    HW228089   2.677   1.603   3.631
 9064SOL     OW28090   6.537   3.613   0.171
 9064SOL    HW128091   6.543   3.520   0.208
 9064SOL    HW228092   6.521   3.608   0.073
 9065SOL     OW28093   3.101   0.789   0.303
 9065SOL    HW128094   3.119   0.701   0.346
 9065SOL    HW228095   3.008   0.789   0.264
 9066SOL     OW28096   5.266   6.995   0.123
 9066SOL    HW128097   5.176   0.014   0.103
 9066SOL    HW228098   5.336   0.033   0.078
 9067SOL     OW28099   1.585   6.757   3.292
 9067SOL    HW128100   1.643   6.678   3.315
 9067SOL    HW228101   1.574   6.815   3.373
 9068SOL     OW28102   1.394   6.076   5.725
 9068SOL    HW128103   1.351   5.990   5.701
 9068SOL    HW228104   1.326   6.139   5.763
 9069SOL     OW28105   1.755   2.711   5.902
 9069SOL    HW128106   1.722   2.777   5.834
 9069SOL    HW228107   1.814   2.644   5.857
 9070SOL     OW28108   1.656   3.923   4.453
 9070SOL    HW128109   1.566   3.963   4.469
 9070SOL    HW228110   1.722   3.963   4.518
 9071SOL     OW28111   6.404   6.589   6.954
 9071SOL    HW128112   6.353   6.552   6.877
 9071SOL    HW228113   6.472   6.655   6.920
 9072SOL     OW28114   6.737   3.722   0.743
 9072SOL    HW128115   6.692   3.758   0.825
 9072SOL    HW228116   6.671   3.720   0.667
 9073SOL     OW28117   2.230   0.891   2.015
 9073SOL    HW128118   2.268   0.924   2.102
 9073SOL    HW228119   2.303   0.882   1.948
 9074SOL     OW28120   1.148   6.848   2.899
 9074SOL    HW128121   1.150   6.940   2.937
 9074SOL    HW228122   1.083   6.792   2.951
 9075SOL     OW28123   6.558   0.846   2.124
 9075SOL    HW128124   6.553   0.751   2.156
 9075SOL    HW228125   6.485   0.864   2.059
 9076SOL     OW28126   6.785   1.051   5.697
 9076SOL    HW128127   6.809   1.030   5.602
 9076SOL    HW228128   6.846   1.002   5.759
 9077SOL     OW28129   5.334   6.629   2.032
 9077SOL    HW128130   5.327   6.728   2.038
 9077SOL    HW228131   5.283   6.597   1.952
 9078SOL     OW28132   3.967   3.386   4.567
 9078SOL    HW128133   4.022   3.303   4.560
 9078SOL    HW228134   4.011   3.450   4.630
 9079SOL     OW28135   3.470   6.528   4.736
 9079SOL    HW128136   3.554   6.490   4.774
 9079SOL    HW228137   3.404   6.455   4.722
 9080SOL     OW28138   5.513   2.566   0.121
 9080SOL    HW128139   5.443   2.637   0.122
 9080SOL    HW228140   5.603   2.608   0.118
 9081SOL     OW28141   5.568   6.450   1.916
 9081SOL    HW128142   5.577   6.368   1.972
 9081SOL    HW228143   5.513   6.518   1.965
 9082SOL     OW28144   3.151   0.984   3.918
 9082SOL    HW128145   3.165   0.995   3.819
 9082SOL    HW228146   3.157   0.887   3.942
 9083SOL     OW28147   4.967   4.367   5.414
 9083SOL    HW128148   5.021   4.419   5.347
 9083SOL    HW228149   4.975   4.410   5.504
 9084SOL     OW28150   3.087   3.920   3.240
 9084SOL    HW128151   3.105   3.974   3.157
 9084SOL    HW228152   3.112   3.974   3.320
 9085SOL     OW28153   2.188   2.170   1.308
 9085SOL    HW128154   2.213   2.141   1.400
 9085SOL    HW228155   2.271   2.190   1.256
 9086SOL     OW28156   0.779   3.802   1.289
 9086SOL    HW128157   0.767   3.759   1.378
 9086SOL    HW228158   0.702   3.777   1.230
 9087SOL     OW28159   4.944   3.836   2.290
 9087SOL    HW128160   5.035   3.829   2.331
 9087SOL    HW228161   4.926   3.754   2.235
 9088SOL     OW28162   6.639   0.498   6.345
 9088SOL    HW128163   6.716   0.491   6.408
 9088SOL    HW228164   6.567   0.553   6.388
 9089SOL     OW28165   4.464   0.176   5.953
 9089SOL    HW128166   4.366   0.191   5.949
 9089SOL    HW228167   4.508   0.224   5.877
 9090SOL     OW28168   5.588   0.551   4.283
 9090SOL    HW128169   5.542   0.628   4.326
 9090SOL    HW228170   5.585   0.561   4.184
 9091SOL     OW28171   3.096   3.701   6.892
 9091SOL    HW128172   3.112   3.641   6.970
 9091SOL    HW228173   3.003   3.739   6.898
 9092SOL     OW28174   0.048   1.822   0.173
 9092SOL    HW128175   0.014   1.889   0.238
 9092SOL    HW228176   0.143   1.844   0.149
 9093SOL     OW28177   1.584   6.963   5.216
 9093SOL    HW128178   1.553   6.928   5.128
 9093SOL    HW228179   1.614   0.040   5.206
 9094SOL     OW28180   0.545   3.469   1.965
 9094SOL    HW128181   0.578   3.549   1.914
 9094SOL    HW228182   0.611   3.446   2.037
 9095SOL     OW28183   5.698   6.206   5.190
 9095SOL    HW128184   5.772   6.164   5.244
 9095SOL    HW228185   5.711   6.184   5.093
 9096SOL     OW28186   6.322   5.591   2.855
 9096SOL    HW128187   6.233   5.566   2.816
 9096SOL    HW228188   6.339   5.688   2.838
 9097SOL     OW28189   0.966   3.079   5.693
 9097SOL    HW128190   0.898   3.085   5.767
 9097SOL    HW228191   1.043   3.024   5.724
 9098SOL     OW28192   2.097   3.423   4.449
 9098SOL    HW128193   2.120   3.360   4.523
 9098SOL    HW228194   1.998   3.435   4.444
 9099SOL     OW28195   2.025   3.335   0.029
 9099SOL    HW128196   2.053   3.335   6.951
 9099SOL    HW228197   2.018   3.241   0.062
 9100SOL     OW28198   1.171   4.586   2.923
 9100SOL    HW128199   1.188   4.670   2.975
 9100SOL    HW228200   1.139   4.514   2.984
 9101SOL     OW28201   1.933   1.331   1.918
 9101SOL    HW128202   1.916   1.311   1.821
 9101SOL    HW228203   1.992   1.260   1.956
 9102SOL     OW28204   4.598   5.828   2.355
 9102SOL    HW128205   4.622   5.839   2.259
 9102SOL    HW228206   4.645   5.898   2.410
 9103SOL     OW28207   6.366   1.762   0.446
 9103SOL    HW128208   6.287   1.823   0.444
 9103SOL    HW228209   6.373   1.720   0.537
 9104SOL     OW28210   6.364   0.714   0.142
 9104SOL    HW128211   6.302   0.787   0.171
 9104SOL    HW228212   6.311   0.630   0.127
 9105SOL     OW28213   2.143   0.574   6.259
 9105SOL    HW128214   2.107   0.639   6.191
 9105SOL    HW228215   2.233   0.542   6.231
 9106SOL     OW28216   1.546   4.721   6.928
 9106SOL    HW128217   1.503   4.809   6.905
 9106SOL    HW228218   1.645   4.730   6.923
 9107SOL     OW28219   2.345   1.139   0.440
 9107SOL    HW128220   2.361   1.207   0.368
 9107SOL    HW228221   2.258   1.158   0.485
 9108SOL     OW28222   5.796   5.188   6.022
 9108SOL    HW128223   5.819   5.249   5.946
 9108SOL    HW228224   5.863   5.114   6.026
 9109SOL     OW28225   5.144   2.896   2.431
 9109SOL    HW128226   5.055   2.887   2.387
 9109SOL    HW228227   5.217   2.893   2.362
 9110SOL     OW28228   1.266   5.553   4.371
 9110SOL    HW128229   1.335   5.522   4.305
 9110SOL    HW228230   1.180   5.570   4.324
 9111SOL     OW28231   4.554   3.177   5.360
 9111SOL    HW128232   4.567   3.103   5.295
 9111SOL    HW228233   4.548   3.139   5.453
 9112SOL     OW28234   1.465   5.322   2.120
 9112SOL    HW128235   1.460   5.387   2.196
 9112SOL    HW228236   1.514   5.240   2.148
 9113SOL     OW28237   4.760   2.113   3.443
 9113SOL    HW128238   4.789   2.018   3.448
 9113SOL    HW228239   4.808   2.159   3.368
 9114SOL     OW28240   1.346   6.211   4.898
 9114SOL    HW128241   1.246   6.201   4.898
 9114SOL    HW228242   1.377   6.229   4.804
 9115SOL     OW28243   5.512   4.602   4.178
 9115SOL    HW128244   5.539   4.506   4.185
 9115SOL    HW228245   5.470   4.618   4.089
 9116SOL     OW28246   0.578   6.810   3.677
 9116SOL    HW128247   0.570   6.896   3.625
 9116SOL    HW228248   0.629   6.827   3.761
 9117SOL     OW28249   3.901   0.723   6.839
 9117SOL    HW128250   3.977   0.677   6.885
 9117SOL    HW228251   3.931   0.813   6.808
 9118SOL     OW28252   6.284   4.346   1.200
 9118SOL    HW128253   6.305   4.278   1.270
 9118SOL    HW228254   6.201   4.320   1.152
 9119SOL     OW28255   3.485   0.634   0.555
 9119SOL    HW128256   3.395   0.591   0.555
 9119SOL    HW228257   3.555   0.563   0.546
 9120SOL     OW28258   5.888   3.013   5.261
 9120SOL    HW128259   5.819   3.034   5.191
 9120SOL    HW228260   5.870   2.922   5.298
 9121SOL     OW28261   3.348   0.081   5.027
 9121SOL    HW128262   3.300   0.157   5.072
 9121SOL    HW228263   3.333   7.015   5.079
 9122SOL     OW28264   2.487   4.462   2.298
 9122SOL    HW128265   2.545   4.495   2.372
 9122SOL    HW228266   2.535   4.469   2.211
 9123SOL     OW28267   1.224   0.625   4.148
 9123SOL    HW128268   1.316   0.602   4.178
 9123SOL    HW228269   1.205   0.721   4.168
 9124SOL     OW28270   3.051   5.541   1.517
 9124SOL    HW128271   2.995   5.477   1.465
 9124SOL    HW228272   3.059   5.627   1.467
 9125SOL     OW28273   4.695   6.767   0.920
 9125SOL    HW128274   4.755   6.752   0.842
 9125SOL    HW228275   4.600   6.765   0.890
 9126SOL     OW28276   3.655   4.372   0.075
 9126SOL    HW128277   3.693   4.457   0.040
 9126SOL    HW228278   3.676   4.364   0.173
 9127SOL     OW28279   6.918   3.917   5.819
 9127SOL    HW128280   6.939   3.828   5.777
 9127SOL    HW228281   7.003   3.965   5.840
 9128SOL     OW28282   5.646   3.409   5.379
 9128SOL    HW128283   5.632   3.507   5.396
 9128SOL    HW228284   5.557   3.365   5.367
 9129SOL     OW28285   1.607   2.269   0.452
 9129SOL    HW128286   1.706   2.262   0.461
 9129SOL    HW228287   1.567   2.289   0.542
 9130SOL     OW28288   2.685   3.892   5.275
 9130SOL    HW128289   2.609   3.933   5.223
 9130SOL    HW228290   2.733   3.964   5.326
 9131SOL     OW28291   5.631   3.007   0.892
 9131SOL    HW128292   5.558   3.006   0.960
 9131SOL    HW228293   5.610   2.942   0.819
 9132SOL     OW28294   0.179   4.526   3.824
 9132SOL    HW128295   0.138   4.456   3.883
 9132SOL    HW228296   0.243   4.483   3.761
 9133SOL     OW28297   4.574   1.108   0.740
 9133SOL    HW128298   4.576   1.056   0.655
 9133SOL    HW228299   4.665   1.148   0.757
 9134SOL     OW28300   4.168   5.221   0.787
 9134SOL    HW128301   4.208   5.206   0.877
 9134SOL    HW228302   4.127   5.312   0.784
 9135SOL     OW28303   0.214   6.929   2.940
 9135SOL    HW128304   0.207   6.992   3.017
 9135SOL    HW228305   0.255   6.843   2.971
 9136SOL     OW28306   6.245   4.580   6.804
 9136SOL    HW128307   6.249   4.509   6.734
 9136SOL    HW228308   6.323   4.642   6.792
 9137SOL     OW28309   5.111   6.386   6.408
 9137SOL    HW128310   5.044   6.457   6.386
 9137SOL    HW228311   5.064   6.304   6.441
 9138SOL     OW28312   3.309   3.411   1.149
 9138SOL    HW128313   3.307   3.325   1.097
 9138SOL    HW228314   3.231   3.468   1.123
 9139SOL     OW28315   6.449   0.241   1.114
 9139SOL    HW128316   6.477   0.165   1.055
 9139SOL    HW228317   6.488   0.326   1.080
 9140SOL     OW28318   1.092   4.322   2.991
 9140SOL    HW128319   0.995   4.336   3.011
 9140SOL    HW228320   1.101   4.255   2.917
 9141SOL     OW28321   6.499   5.961   5.506
 9141SOL    HW128322   6.536   5.898   5.439
 9141SOL    HW228323   6.501   6.054   5.470
 9142SOL     OW28324   1.183   4.447   3.812
 9142SOL    HW128325   1.182   4.422   3.715
 9142SOL    HW228326   1.095   4.488   3.836
 9143SOL     OW28327   0.110   3.852   2.540
 9143SOL    HW128328   0.151   3.770   2.580
 9143SOL    HW228329   0.021   3.869   2.583
 9144SOL     OW28330   2.404   4.297   5.657
 9144SOL    HW128331   2.353   4.225   5.611
 9144SOL    HW228332   2.482   4.325   5.600
 9145SOL     OW28333   1.413   6.419   5.829
 9145SOL    HW128334   1.338   6.396   5.891
 9145SOL    HW228335   1.376   6.454   5.743
 9146SOL     OW28336   6.245   2.804   2.909
 9146SOL    HW128337   6.167   2.774   2.964
 9146SOL    HW228338   6.243   2.904   2.900
 9147SOL     OW28339   4.152   0.285   4.352
 9147SOL    HW128340   4.244   0.246   4.356
 9147SOL    HW228341   4.090   0.232   4.410
 9148SOL     OW28342   6.045   6.499   1.812
 9148SOL    HW128343   5.962   6.515   1.866
 9148SOL    HW228344   6.026   6.429   1.743
 9149SOL     OW28345   0.343   3.632   2.270
 9149SOL    HW128346   0.290   3.615   2.187
 9149SOL    HW228347   0.319   3.565   2.340
 9150SOL     OW28348   2.733   2.514   1.048
 9150SOL    HW128349   2.658   2.580   1.048
 9150SOL    HW228350   2.787   2.527   1.131
 9151SOL     OW28351   1.962   3.126   3.895
 9151SOL    HW128352   1.887   3.094   3.953
 9151SOL    HW228353   1.953   3.086   3.804
 9152SOL     OW28354   2.316   4.567   3.180
 9152SOL    HW128355   2.315   4.468   3.171
 9152SOL    HW228356   2.233   4.605   3.140
 9153SOL     OW28357   6.491   4.121   0.196
 9153SOL    HW128358   6.579   4.092   0.157
 9153SOL    HW228359   6.433   4.041   0.209
 9154SOL     OW28360   5.878   4.809   2.656
 9154SOL    HW128361   5.927   4.801   2.569
 9154SOL    HW228362   5.797   4.866   2.643
 9155SOL     OW28363   1.178   6.376   2.435
 9155SOL    HW128364   1.146   6.433   2.359
 9155SOL    HW228365   1.252   6.317   2.403
 9156SOL     OW28366   6.884   3.931   6.890
 9156SOL    HW128367   6.823   3.926   6.811
 9156SOL    HW228368   6.970   3.974   6.862
 9157SOL     OW28369   1.969   5.286   6.126
 9157SOL    HW128370   1.979   5.193   6.090
 9157SOL    HW228371   1.872   5.312   6.124
 9158SOL     OW28372   6.668   3.122   4.791
 9158SOL    HW128373   6.690   3.213   4.825
 9158SOL    HW228374   6.574   3.099   4.816
 9159SOL     OW28375   3.648   1.418   4.033
 9159SOL    HW128376   3.607   1.364   3.960
 9159SOL    HW228377   3.600   1.506   4.040
 9160SOL     OW28378   7.008   4.522   1.097
 9160SOL    HW128379   0.042   4.538   1.013
 9160SOL    HW228380   6.991   4.609   1.143
 9161SOL     OW28381   6.575   4.553   1.665
 9161SOL    HW128382   6.650   4.556   1.599
 9161SOL    HW228383   6.517   4.474   1.646
 9162SOL     OW28384   4.343   1.669   1.573
 9162SOL    HW128385   4.336   1.629   1.481
 9162SOL    HW228386   4.435   1.652   1.609
 9163SOL     OW28387   1.525   2.479   3.369
 9163SOL    HW128388   1.498   2.384   3.354
 9163SOL    HW228389   1.558   2.519   3.283
 9164SOL     OW28390   2.966   6.953   0.225
 9164SOL    HW128391   3.028   7.002   0.287
 9164SOL    HW228392   2.985   6.855   0.230
 9165SOL     OW28393   5.117   1.698   6.262
 9165SOL    HW128394   5.165   1.785   6.274
 9165SOL    HW228395   5.106   1.653   6.350
 9166SOL     OW28396   5.360   5.861   1.619
 9166SOL    HW128397   5.343   5.954   1.587
 9166SOL    HW228398   5.386   5.803   1.542
 9167SOL     OW28399   1.711   1.603   4.532
 9167SOL    HW128400   1.715   1.647   4.622
 9167SOL    HW228401   1.647   1.526   4.535
 9168SOL     OW28402   6.678   6.050   4.492
 9168SOL    HW128403   6.663   6.089   4.401
 9168SOL    HW228404   6.606   5.984   4.512
 9169SOL     OW28405   6.768   5.700   0.750
 9169SOL    HW128406   6.830   5.709   0.672
 9169SOL    HW228407   6.686   5.755   0.733
 9170SOL     OW28408   1.675   1.415   6.122
 9170SOL    HW128409   1.601   1.348   6.120
 9170SOL    HW228410   1.662   1.482   6.048
 9171SOL     OW28411   3.329   4.773   0.166
 9171SOL    HW128412   3.298   4.831   0.091
 9171SOL    HW228413   3.295   4.679   0.152
 9172SOL     OW28414   4.679   1.542   3.758
 9172SOL    HW128415   4.647   1.501   3.843
 9172SOL    HW228416   4.769   1.505   3.735
 9173SOL     OW28417   5.739   3.126   5.046
 9173SOL    HW128418   5.772   3.219   5.062
 9173SOL    HW228419   5.676   3.126   4.969
 9174SOL     OW28420   0.709   4.517   0.163
 9174SOL    HW128421   0.777   4.581   0.129
 9174SOL    HW228422   0.637   4.567   0.211
 9175SOL     OW28423   2.279   0.449   7.005
 9175SOL    HW128424   2.372   0.469   6.973
 9175SOL    HW228425   2.238   0.380   6.946
 9176SOL     OW28426   1.667   1.468   2.602
 9176SOL    HW128427   1.711   1.402   2.664
 9176SOL    HW228428   1.603   1.525   2.654
 9177SOL     OW28429   0.512   4.137   3.829
 9177SOL    HW128430   0.587   4.123   3.895
 9177SOL    HW228431   0.551   4.145   3.737
 9178SOL     OW28432   2.179   5.984   0.617
 9178SOL    HW128433   2.151   6.047   0.545
 9178SOL    HW228434   2.254   5.927   0.585
 9179SOL     OW28435   3.285   5.495   4.667
 9179SOL    HW128436   3.356   5.434   4.631
 9179SOL    HW228437   3.258   5.465   4.758
 9180SOL     OW28438   6.643   0.658   5.181
 9180SOL    HW128439   6.721   0.715   5.208
 9180SOL    HW228440   6.624   0.672   5.084
 9181SOL     OW28441   2.797   1.866   3.538
 9181SOL    HW128442   2.720   1.924   3.511
 9181SOL    HW228443   2.771   1.811   3.617
 9182SOL     OW28444   1.205   1.098   2.785
 9182SOL    HW128445   1.209   1.197   2.775
 9182SOL    HW228446   1.281   1.055   2.736
 9183SOL     OW28447   0.625   2.005   6.312
 9183SOL    HW128448   0.716   2.047   6.308
 9183SOL    HW228449   0.612   1.947   6.231
 9184SOL     OW28450   3.883   3.246   0.340
 9184SOL    HW128451   3.983   3.250   0.331
 9184SOL    HW228452   3.853   3.151   0.339
 9185SOL     OW28453   1.216   0.914   6.916
 9185SOL    HW128454   1.124   0.891   6.885
 9185SOL    HW228455   1.221   1.011   6.940
 9186SOL     OW28456   5.608   0.975   6.008
 9186SOL    HW128457   5.560   1.011   5.929
 9186SOL    HW228458   5.607   1.042   6.082
 9187SOL     OW28459   5.644   2.175   0.511
 9187SOL    HW128460   5.577   2.210   0.445
 9187SOL    HW228461   5.628   2.077   0.526
 9188SOL     OW28462   1.606   0.361   1.950
 9188SOL    HW128463   1.694   0.339   1.908
 9188SOL    HW228464   1.574   0.449   1.914
 9189SOL     OW28465   3.922   1.486   4.686
 9189SOL    HW128466   3.984   1.439   4.749
 9189SOL    HW228467   3.906   1.428   4.605
 9190SOL     OW28468   6.692   2.162   5.535
 9190SOL    HW128469   6.741   2.204   5.611
 9190SOL    HW228470   6.613   2.218   5.512
 9191SOL     OW28471   5.517   6.304   0.738
 9191SOL    HW128472   5.549   6.381   0.794
 9191SOL    HW228473   5.487   6.337   0.649
 9192SOL     OW28474   5.805   4.649   4.552
 9192SOL    HW128475   5.717   4.689   4.525
 9192SOL    HW228476   5.799   4.615   4.646
 9193SOL     OW28477   3.604   2.833   3.929
 9193SOL    HW128478   3.692   2.786   3.936
 9193SOL    HW228479   3.561   2.836   4.019
 9194SOL     OW28480   3.159   5.761   2.581
 9194SOL    HW128481   3.101   5.837   2.611
 9194SOL    HW228482   3.151   5.685   2.645
 9195SOL     OW28483   6.627   3.318   3.097
 9195SOL    HW128484   6.536   3.317   3.055
 9195SOL    HW228485   6.680   3.241   3.062
 9196SOL     OW28486   4.466   0.266   3.826
 9196SOL    HW128487   4.374   0.245   3.856
 9196SOL    HW228488   4.531   0.203   3.868
 9197SOL     OW28489   3.211   3.342   6.222
 9197SOL    HW128490   3.156   3.415   6.262
 9197SOL    HW228491   3.262   3.378   6.144
 9198SOL     OW28492   5.240   2.576   4.939
 9198SOL    HW128493   5.167   2.636   4.972
 9198SOL    HW228494   5.254   2.591   4.841
 9199SOL     OW28495   1.418   3.462   6.423
 9199SOL    HW128496   1.428   3.543   6.366
 9199SOL    HW228497   1.502   3.407   6.418
 9200SOL     OW28498   6.218   6.631   0.699
 9200SOL    HW128499   6.307   6.602   0.733
 9200SOL    HW228500   6.168   6.679   0.771
 9201SOL     OW28501   1.736   4.146   3.212
 9201SOL    HW128502   1.836   4.154   3.211
 9201SOL    HW228503   1.710   4.066   3.265
 9202SOL     OW28504   3.153   5.377   3.887
 9202SOL    HW128505   3.166   5.325   3.972
 9202SOL    HW228506   3.154   5.475   3.907
 9203SOL     OW28507   4.934   0.645   6.384
 9203SOL    HW128508   4.918   0.558   6.431
 9203SOL    HW228509   4.945   0.718   6.451
 9204SOL     OW28510   4.689   4.252   1.712
 9204SOL    HW128511   4.696   4.349   1.687
 9204SOL    HW228512   4.604   4.235   1.761
 9205SOL     OW28513   4.860   3.119   2.638
 9205SOL    HW128514   4.826   3.095   2.729
 9205SOL    HW228515   4.877   3.036   2.585
 9206SOL     OW28516   0.500   6.764   3.260
 9206SOL    HW128517   0.405   6.794   3.251
 9206SOL    HW228518   0.558   6.841   3.285
 9207SOL     OW28519   4.252   6.371   6.941
 9207SOL    HW128520   4.321   6.417   6.885
 9207SOL    HW228521   4.285   6.282   6.970
 9208SOL     OW28522   4.544   4.890   2.522
 9208SOL    HW128523   4.608   4.962   2.549
 9208SOL    HW228524   4.488   4.923   2.446
 9209SOL     OW28525   4.004   0.706   2.919
 9209SOL    HW128526   4.047   0.622   2.952
 9209SOL    HW228527   3.964   0.690   2.829
 9210SOL     OW28528   1.323   0.084   0.717
 9210SOL    HW128529   1.265   0.129   0.649
 9210SOL    HW228530   1.302   7.004   0.719
 9211SOL     OW28531   4.771   1.622   6.360
 9211SOL    HW128532   4.703   1.554   6.390
 9211SOL    HW228533   4.858   1.576   6.342
 9212SOL     OW28534   5.927   3.502   4.723
 9212SOL    HW128535   5.964   3.430   4.781
 9212SOL    HW228536   5.998   3.536   4.662
 9213SOL     OW28537   6.554   0.005   2.446
 9213SOL    HW128538   6.556   0.078   2.514
 9213SOL    HW228539   6.648   6.998   2.422
 9214SOL     OW28540   1.811   2.555   5.410
 9214SOL    HW128541   1.853   2.487   5.470
 9214SOL    HW228542   1.720   2.577   5.444
 9215SOL     OW28543   0.683   2.837   2.792
 9215SOL    HW128544   0.647   2.894   2.718
 9215SOL    HW228545   0.608   2.793   2.841
 9216SOL     OW28546   2.614   5.689   4.882
 9216SOL    HW128547   2.675   5.656   4.809
 9216SOL    HW228548   2.660   5.681   4.970
 9217SOL     OW28549   4.543   1.149   5.878
 9217SOL    HW128550   4.461   1.091   5.873
 9217SOL    HW228551   4.524   1.228   5.936
 9218SOL     OW28552   6.124   5.337   6.722
 9218SOL    HW128553   6.079   5.343   6.811
 9218SOL    HW228554   6.064   5.289   6.658
 9219SOL     OW28555   3.752   2.774   5.535
 9219SOL    HW128556   3.796   2.723   5.462
 9219SOL    HW228557   3.805   2.765   5.619
 9220SOL     OW28558   1.164   6.375   3.897
 9220SOL    HW128559   1.168   6.446   3.827
 9220SOL    HW228560   1.117   6.295   3.861
 9221SOL     OW28561   2.324   1.550   0.994
 9221SOL    HW128562   2.386   1.628   0.993
 9221SOL    HW228563   2.355   1.482   0.927
 9222SOL     OW28564   1.737   3.076   4.062
 9222SOL    HW128565   1.727   2.984   4.024
 9222SOL    HW228566   1.655   3.130   4.042
 9223SOL     OW28567   0.505   3.155   4.910
 9223SOL    HW128568   0.575   3.134   4.843
 9223SOL    HW228569   0.472   3.071   4.953
 9224SOL     OW28570   2.214   4.270   3.575
 9224SOL    HW128571   2.307   4.306   3.589
 9224SOL    HW228572   2.148   4.345   3.580
 9225SOL     OW28573   5.181   6.007   6.679
 9225SOL    HW128574   5.147   5.953   6.601
 9225SOL    HW228575   5.237   6.082   6.645
 9226SOL     OW28576   0.724   1.025   0.852
 9226SOL    HW128577   0.730   0.935   0.808
 9226SOL    HW228578   0.775   1.024   0.938
 9227SOL     OW28579   2.484   4.694   0.668
 9227SOL    HW128580   2.427   4.676   0.588
 9227SOL    HW228581   2.580   4.688   0.642
 9228SOL     OW28582   3.424   3.126   5.464
 9228SOL    HW128583   3.343   3.095   5.513
 9228SOL    HW228584   3.424   3.226   5.458
 9229SOL     OW28585   0.027   4.986   0.253
 9229SOL    HW128586   0.070   4.975   0.342
 9229SOL    HW228587   6.946   4.976   0.262
 9230SOL     OW28588   4.273   1.562   5.149
 9230SOL    HW128589   4.344   1.550   5.219
 9230SOL    HW228590   4.227   1.474   5.133
 9231SOL     OW28591   6.795   5.516   3.639
 9231SOL    HW128592   6.777   5.424   3.674
 9231SOL    HW228593   6.842   5.510   3.551
 9232SOL     OW28594   1.341   5.014   2.620
 9232SOL    HW128595   1.436   5.033   2.643
 9232SOL    HW228596   1.293   5.100   2.600
 9233SOL     OW28597   0.879   6.646   6.825
 9233SOL    HW128598   0.946   6.713   6.856
 9233SOL    HW228599   0.848   6.591   6.903
 9234SOL     OW28600   2.053   4.060   0.616
 9234SOL    HW128601   2.123   4.047   0.546
 9234SOL    HW228602   2.090   4.114   0.691
 9235SOL     OW28603   2.104   2.215   3.478
 9235SOL    HW128604   2.110   2.161   3.395
 9235SOL    HW228605   2.180   2.280   3.482
 9236SOL     OW28606   2.869   3.729   6.540
 9236SOL    HW128607   2.878   3.773   6.450
 9236SOL    HW228608   2.954   3.680   6.561
 9237SOL     OW28609   5.417   4.827   3.182
 9237SOL    HW128610   5.480   4.755   3.152
 9237SOL    HW228611   5.468   4.913   3.193
 9238SOL     OW28612   1.733   2.624   5.002
 9238SOL    HW128613   1.653   2.618   5.062
 9238SOL    HW228614   1.814   2.594   5.051
 9239SOL     OW28615   1.424   4.881   0.177
 9239SOL    HW128616   1.491   4.819   0.218
 9239SOL    HW228617   1.462   4.919   0.092
 9240SOL     OW28618   4.257   2.180   2.792
 9240SOL    HW128619   4.319   2.238   2.844
 9240SOL    HW228620   4.165   2.186   2.831
 9241SOL     OW28621   5.983   6.382   1.309
 9241SOL    HW128622   5.954   6.291   1.282
 9241SOL    HW228623   6.056   6.375   1.377
 9242SOL     OW28624   1.232   2.663   0.394
 9242SOL    HW128625   1.172   2.583   0.394
 9242SOL    HW228626   1.179   2.744   0.421
 9243SOL     OW28627   1.077   0.847   0.253
 9243SOL    HW128628   1.141   0.884   0.321
 9243SOL    HW228629   0.991   0.824   0.299
 9244SOL     OW28630   3.253   6.545   5.426
 9244SOL    HW128631   3.223   6.496   5.507
 9244SOL    HW228632   3.346   6.580   5.439
 9245SOL     OW28633   1.467   4.847   3.674
 9245SOL    HW128634   1.422   4.768   3.715
 9245SOL    HW228635   1.559   4.821   3.646
 9246SOL     OW28636   6.534   0.202   6.275
 9246SOL    HW128637   6.442   0.207   6.238
 9246SOL    HW228638   6.566   0.294   6.298
 9247SOL     OW28639   3.844   6.771   2.975
 9247SOL    HW128640   3.841   6.675   2.946
 9247SOL    HW228641   3.753   6.800   3.004
 9248SOL     OW28642   2.507   1.423   6.449
 9248SOL    HW128643   2.602   1.453   6.455
 9248SOL    HW228644   2.446   1.502   6.449
 9249SOL     OW28645   3.595   5.838   0.981
 9249SOL    HW128646   3.611   5.934   1.003
 9249SOL    HW228647   3.674   5.783   1.010
 9250SOL     OW28648   0.614   2.839   3.821
 9250SOL    HW128649   0.633   2.800   3.730
 9250SOL    HW228650   0.631   2.770   3.891
 9251SOL     OW28651   2.807   2.745   1.367
 9251SOL    HW128652   2.819   2.661   1.420
 9251SOL    HW228653   2.895   2.774   1.328
 9252SOL     OW28654   5.045   1.882   5.592
 9252SOL    HW128655   5.077   1.805   5.536
 9252SOL    HW228656   5.118   1.950   5.598
 9253SOL     OW28657   1.062   5.158   5.333
 9253SOL    HW128658   1.007   5.075   5.336
 9253SOL    HW228659   1.027   5.220   5.263
 9254SOL     OW28660   0.259   4.693   3.034
 9254SOL    HW128661   0.348   4.719   2.996
 9254SOL    HW228662   0.194   4.767   3.019
 9255SOL     OW28663   6.964   4.585   0.705
 9255SOL    HW128664   0.012   4.513   0.727
 9255SOL    HW228665   6.885   4.544   0.658
 9256SOL     OW28666   2.324   6.172   1.898
 9256SOL    HW128667   2.293   6.212   1.984
 9256SOL    HW228668   2.424   6.166   1.898
 9257SOL     OW28669   6.593   5.931   4.033
 9257SOL    HW128670   6.680   5.937   3.983
 9257SOL    HW228671   6.579   5.837   4.064
 9258SOL     OW28672   3.732   5.031   1.211
 9258SOL    HW128673   3.825   5.050   1.241
 9258SOL    HW228674   3.734   4.976   1.128
 9259SOL     OW28675   1.894   1.521   0.133
 9259SOL    HW128676   1.970   1.528   0.069
 9259SOL    HW228677   1.842   1.437   0.116
 9260SOL     OW28678   6.051   3.946   5.128
 9260SOL    HW128679   6.032   3.852   5.154
 9260SOL    HW228680   5.992   3.973   5.052
 9261SOL     OW28681   3.744   2.459   1.665
 9261SOL    HW128682   3.844   2.467   1.658
 9261SOL    HW228683   3.721   2.397   1.741
 9262SOL     OW28684   6.159   5.833   4.818
 9262SOL    HW128685   6.203   5.910   4.771
 9262SOL    HW228686   6.156   5.852   4.917
 9263SOL     OW28687   1.943   4.166   4.122
 9263SOL    HW128688   1.858   4.114   4.131
 9263SOL    HW228689   2.018   4.114   4.161
 9264SOL     OW28690   4.333   4.330   0.021
 9264SOL    HW128691   4.304   4.404   0.081
 9264SOL    HW228692   4.390   4.366   6.965
 9265SOL     OW28693   6.199   2.157   0.364
 9265SOL    HW128694   6.151   2.242   0.389
 9265SOL    HW228695   6.165   2.082   0.421
 9266SOL     OW28696   1.221   4.602   1.372
 9266SOL    HW128697   1.244   4.693   1.407
 9266SOL    HW228698   1.295   4.569   1.314
 9267SOL     OW28699   6.181   0.983   4.535
 9267SOL    HW128700   6.171   0.997   4.633
 9267SOL    HW228701   6.091   0.991   4.491
 9268SOL     OW28702   0.762   0.391   1.961
 9268SOL    HW128703   0.823   0.350   2.028
 9268SOL    HW228704   0.672   0.406   2.003
 9269SOL     OW28705   4.010   1.159   0.298
 9269SOL    HW128706   4.095   1.175   0.247
 9269SOL    HW228707   4.022   1.187   0.393
 9270SOL     OW28708   2.150   0.140   6.351
 9270SOL    HW128709   2.083   0.066   6.359
 9270SOL    HW228710   2.108   0.219   6.308
 9271SOL     OW28711   1.287   6.611   4.814
 9271SOL    HW128712   1.379   6.574   4.804
 9271SOL    HW228713   1.247   6.578   4.900
 9272SOL     OW28714   6.530   6.483   6.042
 9272SOL    HW128715   6.537   6.491   5.943
 9272SOL    HW228716   6.493   6.568   6.081
 9273SOL     OW28717   4.933   4.718   4.086
 9273SOL    HW128718   4.851   4.673   4.053
 9273SOL    HW228719   5.013   4.680   4.040
 9274SOL     OW28720   0.556   2.638   0.507
 9274SOL    HW128721   0.477   2.681   0.464
 9274SOL    HW228722   0.551   2.539   0.492
 9275SOL     OW28723   0.048   0.688   0.097
 9275SOL    HW128724   0.013   0.768   0.146
 9275SOL    HW228725   0.137   0.710   0.058
 9276SOL     OW28726   2.508   5.294   0.425
 9276SOL    HW128727   2.587   5.298   0.364
 9276SOL    HW228728   2.468   5.202   0.423
 9277SOL     OW28729   5.056   5.766   1.680
 9277SOL    HW128730   5.014   5.722   1.601
 9277SOL    HW228731   5.154   5.780   1.663
 9278SOL     OW28732   1.192   0.440   5.359
 9278SOL    HW128733   1.146   0.520   5.321
 9278SOL    HW228734   1.125   0.368   5.376
 9279SOL     OW28735   4.440   5.999   1.437
 9279SOL    HW128736   4.460   5.977   1.532
 9279SOL    HW228737   4.343   5.984   1.418
 9280SOL     OW28738   1.483   6.775   2.443
 9280SOL    HW128739   1.405   6.714   2.450
 9280SOL    HW228740   1.494   6.805   2.348
 9281SOL     OW28741   2.527   5.441   0.108
 9281SOL    HW128742   2.483   5.449   0.019
 9281SOL    HW228743   2.601   5.507   0.115
 9282SOL     OW28744   2.754   6.589   4.860
 9282SOL    HW128745   2.814   6.628   4.930
 9282SOL    HW228746   2.662   6.627   4.870
 9283SOL     OW28747   4.116   6.217   0.685
 9283SOL    HW128748   4.074   6.306   0.705
 9283SOL    HW228749   4.210   6.231   0.654
 9284SOL     OW28750   3.321   3.839   4.940
 9284SOL    HW128751   3.392   3.800   4.882
 9284SOL    HW228752   3.280   3.767   4.996
 9285SOL     OW28753   0.596   5.076   2.898
 9285SOL    HW128754   0.539   5.021   2.837
 9285SOL    HW228755   0.692   5.067   2.871
 9286SOL     OW28756   4.441   6.389   1.539
 9286SOL    HW128757   4.377   6.460   1.509
 9286SOL    HW228758   4.493   6.356   1.461
 9287SOL     OW28759   3.621   4.637   6.111
 9287SOL    HW128760   3.679   4.563   6.143
 9287SOL    HW228761   3.603   4.625   6.013
 9288SOL     OW28762   3.541   2.015   2.592
 9288SOL    HW128763   3.489   2.082   2.538
 9288SOL    HW228764   3.493   1.997   2.678
 9289SOL     OW28765   4.913   6.386   0.499
 9289SOL    HW128766   4.923   6.481   0.470
 9289SOL    HW228767   4.817   6.359   0.493
 9290SOL     OW28768   4.433   0.921   3.955
 9290SOL    HW128769   4.403   0.995   3.896
 9290SOL    HW228770   4.457   0.841   3.899
 9291SOL     OW28771   1.078   4.977   6.250
 9291SOL    HW128772   1.054   4.885   6.282
 9291SOL    HW228773   1.110   4.973   6.155
 9292SOL     OW28774   1.080   1.232   6.407
 9292SOL    HW128775   1.044   1.198   6.494
 9292SOL    HW228776   1.074   1.159   6.338
 9293SOL     OW28777   4.945   2.435   4.784
 9293SOL    HW128778   4.931   2.468   4.877
 9293SOL    HW228779   4.956   2.512   4.722
 9294SOL     OW28780   4.588   1.120   7.000
 9294SOL    HW128781   4.496   1.081   6.991
 9294SOL    HW228782   4.607   1.181   6.923
 9295SOL     OW28783   0.682   1.319   5.239
 9295SOL    HW128784   0.586   1.306   5.264
 9295SOL    HW228785   0.687   1.364   5.150
 9296SOL     OW28786   1.621   4.626   0.195
 9296SOL    HW128787   1.662   4.628   0.103
 9296SOL    HW228788   1.523   4.606   0.187
 9297SOL     OW28789   5.664   5.826   2.472
 9297SOL    HW128790   5.747   5.879   2.489
 9297SOL    HW228791   5.688   5.730   2.458
 9298SOL     OW28792   1.703   5.173   6.833
 9298SOL    HW128793   1.754   5.259   6.843
 9298SOL    HW228794   1.642   5.179   6.754
 9299SOL     OW28795   1.888   2.846   4.659
 9299SOL    HW128796   1.805   2.899   4.645
 9299SOL    HW228797   1.938   2.882   4.738
 9300SOL     OW28798   1.395   5.252   5.166
 9300SOL    HW128799   1.454   5.324   5.129
 9300SOL    HW228800   1.346   5.288   5.246
 9301SOL     OW28801   0.588   4.544   4.790
 9301SOL    HW128802   0.642   4.462   4.812
 9301SOL    HW228803   0.553   4.536   4.697
 9302SOL     OW28804   2.170   3.598   5.339
 9302SOL    HW128805   2.139   3.629   5.249
 9302SOL    HW228806   2.246   3.655   5.370
 9303SOL     OW28807   2.439   4.376   0.891
 9303SOL    HW128808   2.520   4.429   0.867
 9303SOL    HW228809   2.425   4.378   0.990
 9304SOL     OW28810   4.174   5.362   0.177
 9304SOL    HW128811   4.094   5.372   0.118
 9304SOL    HW228812   4.161   5.283   0.237
 9305SOL     OW28813   1.953   1.933   1.600
 9305SOL    HW128814   2.039   1.884   1.615
 9305SOL    HW228815   1.877   1.879   1.635
 9306SOL     OW28816   6.383   5.663   4.836
 9306SOL    HW128817   6.319   5.738   4.852
 9306SOL    HW228818   6.434   5.680   4.752
 9307SOL     OW28819   2.559   2.965   1.709
 9307SOL    HW128820   2.526   2.908   1.783
 9307SOL    HW228821   2.486   3.029   1.681
 9308SOL     OW28822   2.147   3.745   2.158
 9308SOL    HW128823   2.112   3.698   2.239
 9308SOL    HW228824   2.182   3.677   2.093
 9309SOL     OW28825   4.827   5.415   6.282
 9309SOL    HW128826   4.827   5.511   6.311
 9309SOL    HW228827   4.895   5.402   6.210
 9310SOL     OW28828   6.193   6.052   0.254
 9310SOL    HW128829   6.279   6.063   0.304
 9310SOL    HW228830   6.198   5.970   0.197
 9311SOL     OW28831   4.605   3.682   1.680
 9311SOL    HW128832   4.634   3.776   1.697
 9311SOL    HW228833   4.513   3.682   1.640
 9312SOL     OW28834   0.497   2.881   2.576
 9312SOL    HW128835   0.407   2.924   2.578
 9312SOL    HW228836   0.486   2.782   2.564
 9313SOL     OW28837   0.330   0.755   2.245
 9313SOL    HW128838   0.241   0.767   2.288
 9313SOL    HW228839   0.319   0.712   2.155
 9314SOL     OW28840   5.211   3.690   0.858
 9314SOL    HW128841   5.180   3.598   0.835
 9314SOL    HW228842   5.233   3.694   0.956
 9315SOL     OW28843   5.136   0.352   6.018
 9315SOL    HW128844   5.215   0.405   5.987
 9315SOL    HW228845   5.052   0.394   5.984
 9316SOL     OW28846   4.480   0.294   5.492
 9316SOL    HW128847   4.563   0.297   5.436
 9316SOL    HW228848   4.456   0.199   5.510
 9317SOL     OW28849   3.712   6.592   3.210
 9317SOL    HW128850   3.619   6.577   3.177
 9317SOL    HW228851   3.753   6.505   3.236
 9318SOL     OW28852   4.531   6.199   1.744
 9318SOL    HW128853   4.500   6.269   1.680
 9318SOL    HW228854   4.488   6.111   1.722
 9319SOL     OW28855   2.458   3.313   0.150
 9319SOL    HW128856   2.443   3.373   0.072
 9319SOL    HW228857   2.407   3.229   0.139
 9320SOL     OW28858   6.619   6.321   6.833
 9320SOL    HW128859   6.590   6.355   6.922
 9320SOL    HW228860   6.635   6.398   6.771
 9321SOL     OW28861   0.545   3.424   4.896
 9321SOL    HW128862   0.543   3.327   4.918
 9321SOL    HW228863   0.563   3.477   4.979
 9322SOL     OW28864   5.763   3.231   6.440
 9322SOL    HW128865   5.810   3.252   6.525
 9322SOL    HW228866   5.733   3.136   6.441
 9323SOL     OW28867   1.243   2.109   5.394
 9323SOL    HW128868   1.313   2.157   5.446
 9323SOL    HW228869   1.276   2.018   5.368
 9324SOL     OW28870   0.893   4.482   1.721
 9324SOL    HW128871   0.840   4.542   1.660
 9324SOL    HW228872   0.878   4.510   1.816
 9325SOL     OW28873   0.870   4.591   3.464
 9325SOL    HW128874   0.870   4.493   3.441
 9325SOL    HW228875   0.820   4.605   3.549
 9326SOL     OW28876   4.599   4.734   1.844
 9326SOL    HW128877   4.687   4.718   1.890
 9326SOL    HW228878   4.559   4.646   1.818
 9327SOL     OW28879   3.894   0.958   3.589
 9327SOL    HW128880   3.986   0.994   3.603
 9327SOL    HW228881   3.858   0.925   3.677
 9328SOL     OW28882   2.555   6.821   4.120
 9328SOL    HW128883   2.636   6.842   4.174
 9328SOL    HW228884   2.506   6.906   4.098
 9329SOL     OW28885   0.309   5.450   6.655
 9329SOL    HW128886   0.267   5.383   6.715
 9329SOL    HW228887   0.243   5.521   6.632
 9330SOL     OW28888   6.722   6.143   6.236
 9330SOL    HW128889   6.679   6.125   6.147
 9330SOL    HW228890   6.817   6.114   6.233
 9331SOL     OW28891   1.869   3.555   4.746
 9331SOL    HW128892   1.888   3.546   4.649
 9331SOL    HW228893   1.909   3.639   4.781
 9332SOL     OW28894   4.687   6.194   1.096
 9332SOL    HW128895   4.777   6.151   1.098
 9332SOL    HW228896   4.619   6.128   1.064
 9333SOL     OW28897   4.198   4.035   0.883
 9333SOL    HW128898   4.158   3.944   0.878
 9333SOL    HW228899   4.190   4.080   0.793
 9334SOL     OW28900   5.866   6.030   5.899
 9334SOL    HW128901   5.949   5.990   5.860
 9334SOL    HW228902   5.892   6.101   5.964
 9335SOL     OW28903   1.053   3.652   1.629
 9335SOL    HW128904   1.053   3.751   1.639
 9335SOL    HW228905   1.147   3.620   1.611
 9336SOL     OW28906   5.733   6.864   5.161
 9336SOL    HW128907   5.811   6.880   5.101
 9336SOL    HW228908   5.688   6.779   5.134
 9337SOL     OW28909   2.444   0.504   6.678
 9337SOL    HW128910   2.504   0.584   6.681
 9337SOL    HW228911   2.467   0.443   6.754
 9338SOL     OW28912   5.416   6.426   0.510
 9338SOL    HW128913   5.473   6.371   0.449
 9338SOL    HW228914   5.357   6.486   0.456
 9339SOL     OW28915   6.169   3.613   5.536
 9339SOL    HW128916   6.116   3.554   5.475
 9339SOL    HW228917   6.136   3.707   5.528
 9340SOL     OW28918   3.953   5.910   1.521
 9340SOL    HW128919   3.889   5.985   1.503
 9340SOL    HW228920   4.015   5.901   1.443
 9341SOL     OW28921   5.115   4.217   0.154
 9341SOL    HW128922   5.050   4.147   0.183
 9341SOL    HW228923   5.095   4.244   0.059
 9342SOL     OW28924   3.047   0.515   4.240
 9342SOL    HW128925   3.022   0.609   4.219
 9342SOL    HW228926   2.986   0.453   4.191
 9343SOL     OW28927   4.593   4.102   1.426
 9343SOL    HW128928   4.678   4.130   1.382
 9343SOL    HW228929   4.590   4.002   1.432
 9344SOL     OW28930   6.262   5.974   5.295
 9344SOL    HW128931   6.171   6.009   5.316
 9344SOL    HW228932   6.324   5.994   5.371
 9345SOL     OW28933   0.651   5.959   0.519
 9345SOL    HW128934   0.573   6.013   0.487
 9345SOL    HW228935   0.647   5.949   0.618
 9346SOL     OW28936   6.047   5.623   0.889
 9346SOL    HW128937   6.080   5.699   0.945
 9346SOL    HW228938   5.974   5.655   0.829
 9347SOL     OW28939   3.641   5.620   0.644
 9347SOL    HW128940   3.593   5.703   0.669
 9347SOL    HW228941   3.686   5.633   0.556
 9348SOL     OW28942   3.031   5.877   1.910
 9348SOL    HW128943   3.069   5.890   2.002
 9348SOL    HW228944   3.104   5.877   1.843
 9349SOL     OW28945   6.317   5.728   1.856
 9349SOL    HW128946   6.247   5.661   1.831
 9349SOL    HW228947   6.397   5.680   1.893
 9350SOL     OW28948   6.834   0.394   5.945
 9350SOL    HW128949   6.737   0.388   5.969
 9350SOL    HW228950   6.847   0.462   5.873
 9351SOL     OW28951   3.263   1.871   6.261
 9351SOL    HW128952   3.343   1.877   6.321
 9351SOL    HW228953   3.253   1.777   6.229
 9352SOL     OW28954   3.498   2.453   5.890
 9352SOL    HW128955   3.520   2.546   5.918
 9352SOL    HW228956   3.421   2.454   5.826
 9353SOL     OW28957   0.717   3.054   1.506
 9353SOL    HW128958   0.653   3.122   1.472
 9353SOL    HW228959   0.781   3.097   1.569
 9354SOL     OW28960   5.014   2.163   1.587
 9354SOL    HW128961   4.988   2.252   1.624
 9354SOL    HW228962   4.977   2.154   1.494
 9355SOL     OW28963   0.095   0.439   3.241
 9355SOL    HW128964   0.027   0.449   3.313
 9355SOL    HW228965   0.094   0.521   3.183
 9356SOL     OW28966   4.328   4.762   2.630
 9356SOL    HW128967   4.357   4.672   2.662
 9356SOL    HW228968   4.404   4.809   2.585
 9357SOL     OW28969   3.585   2.507   1.098
 9357SOL    HW128970   3.523   2.574   1.139
 9357SOL    HW228971   3.580   2.421   1.149
 9358SOL     OW28972   6.376   4.474   2.220
 9358SOL    HW128973   6.415   4.565   2.226
 9358SOL    HW228974   6.416   4.416   2.291
 9359SOL     OW28975   6.491   3.864   5.917
 9359SOL    HW128976   6.538   3.884   5.831
 9359SOL    HW228977   6.515   3.933   5.985
 9360SOL     OW28978   2.318   0.977   0.220
 9360SOL    HW128979   2.296   1.051   0.283
 9360SOL    HW228980   2.313   0.889   0.269
 9361SOL     OW28981   2.792   6.821   2.317
 9361SOL    HW128982   2.816   6.886   2.389
 9361SOL    HW228983   2.823   6.857   2.229
 9362SOL     OW28984   2.349   1.035   2.801
 9362SOL    HW128985   2.328   1.065   2.894
 9362SOL    HW228986   2.272   1.057   2.741
 9363SOL     OW28987   3.329   5.686   2.349
 9363SOL    HW128988   3.415   5.717   2.389
 9363SOL    HW228989   3.253   5.709   2.410
 9364SOL     OW28990   4.318   4.211   0.290
 9364SOL    HW128991   4.351   4.305   0.277
 9364SOL    HW228992   4.390   4.147   0.265
 9365SOL     OW28993   2.883   1.957   4.495
 9365SOL    HW128994   2.938   2.040   4.507
 9365SOL    HW228995   2.942   1.877   4.499
 9366SOL     OW28996   2.919   1.775   0.958
 9366SOL    HW128997   3.019   1.769   0.959
 9366SOL    HW228998   2.881   1.695   0.911
 9367SOL     OW28999   6.904   5.735   3.080
 9367SOL    HW129000   6.823   5.738   3.139
 9367SOL    HW229001   6.967   5.807   3.107
 9368SOL     OW29002   2.857   1.865   1.867
 9368SOL    HW129003   2.835   1.906   1.956
 9368SOL    HW229004   2.921   1.925   1.818
 9369SOL     OW29005   6.979   2.026   4.698
 9369SOL    HW129006   6.983   1.977   4.611
 9369SOL    HW229007   6.926   2.110   4.686
 9370SOL     OW29008   5.923   1.030   2.862
 9370SOL    HW129009   5.973   0.976   2.795
 9370SOL    HW229010   5.860   1.092   2.815
 9371SOL     OW29011   0.492   6.214   0.524
 9371SOL    HW129012   0.452   6.251   0.441
 9371SOL    HW229013   0.574   6.266   0.547
 9372SOL     OW29014   5.975   6.437   4.298
 9372SOL    HW129015   6.014   6.528   4.316
 9372SOL    HW229016   6.029   6.368   4.346
 9373SOL     OW29017   3.592   1.678   3.668
 9373SOL    HW129018   3.572   1.768   3.631
 9373SOL    HW229019   3.659   1.687   3.742
 9374SOL     OW29020   5.110   3.251   0.237
 9374SOL    HW129021   5.056   3.169   0.221
 9374SOL    HW229022   5.196   3.244   0.185
 9375SOL     OW29023   0.273   1.299   3.446
 9375SOL    HW129024   0.348   1.348   3.402
 9375SOL    HW229025   0.311   1.231   3.508
 9376SOL     OW29026   2.464   3.618   1.531
 9376SOL    HW129027   2.434   3.648   1.621
 9376SOL    HW229028   2.447   3.519   1.522
 9377SOL     OW29029   6.259   5.506   3.792
 9377SOL    HW129030   6.231   5.567   3.866
 9377SOL    HW229031   6.216   5.535   3.707
 9378SOL     OW29032   2.378   0.008   0.533
 9378SOL    HW129033   2.423   0.067   0.466
 9378SOL    HW229034   2.282   0.034   0.541
 9379SOL     OW29035   4.784   4.896   4.247
 9379SOL    HW129036   4.712   4.835   4.215
 9379SOL    HW229037   4.871   4.846   4.249
 9380SOL     OW29038   5.911   0.287   5.363
 9380SOL    HW129039   5.865   0.200   5.345
 9380SOL    HW229040   5.843   0.359   5.375
 9381SOL     OW29041   2.138   1.603   5.609
 9381SOL    HW129042   2.217   1.583   5.667
 9381SOL    HW229043   2.169   1.615   5.514
 9382SOL     OW29044   4.520   2.203   2.510
 9382SOL    HW129045   4.530   2.231   2.415
 9382SOL    HW229046   4.438   2.245   2.549
 9383SOL     OW29047   4.092   6.589   4.351
 9383SOL    HW129048   4.006   6.539   4.364
 9383SOL    HW229049   4.106   6.652   4.427
 9384SOL     OW29050   5.059   6.218   2.526
 9384SOL    HW129051   5.047   6.263   2.437
 9384SOL    HW229052   4.991   6.145   2.536
 9385SOL     OW29053   3.658   1.253   3.154
 9385SOL    HW129054   3.574   1.221   3.200
 9385SOL    HW229055   3.723   1.283   3.223
 9386SOL     OW29056   2.770   6.701   5.494
 9386SOL    HW129057   2.707   6.647   5.437
 9386SOL    HW229058   2.845   6.642   5.524
 9387SOL     OW29059   3.280   6.520   0.569
 9387SOL    HW129060   3.304   6.432   0.529
 9387SOL    HW229061   3.288   6.515   0.669
 9388SOL     OW29062   0.335   0.802   2.925
 9388SOL    HW129063   0.413   0.821   2.986
 9388SOL    HW229064   0.303   0.888   2.886
 9389SOL     OW29065   2.661   0.894   5.825
 9389SOL    HW129066   2.636   0.986   5.856
 9389SOL    HW229067   2.585   0.832   5.840
 9390SOL     OW29068   2.640   5.281   2.110
 9390SOL    HW129069   2.562   5.341   2.093
 9390SOL    HW229070   2.685   5.309   2.195
 9391SOL     OW29071   0.423   1.210   5.420
 9391SOL    HW129072   0.418   1.111   5.429
 9391SOL    HW229073   0.479   1.248   5.494
 9392SOL     OW29074   1.750   5.929   4.987
 9392SOL    HW129075   1.669   5.915   5.044
 9392SOL    HW229076   1.732   6.001   4.921
 9393SOL     OW29077   3.502   2.156   5.270
 9393SOL    HW129078   3.503   2.113   5.181
 9393SOL    HW229079   3.407   2.163   5.302
 9394SOL     OW29080   5.998   2.929   2.618
 9394SOL    HW129081   6.032   3.022   2.612
 9394SOL    HW229082   5.903   2.930   2.651
 9395SOL     OW29083   2.358   3.379   0.971
 9395SOL    HW129084   2.313   3.388   0.882
 9395SOL    HW229085   2.301   3.421   1.041
 9396SOL     OW29086   6.087   6.889   5.971
 9396SOL    HW129087   6.003   6.891   6.026
 9396SOL    HW229088   6.073   6.941   5.887
 9397SOL     OW29089   2.667   6.760   0.696
 9397SOL    HW129090   2.655   6.857   0.718
 9397SOL    HW229091   2.580   6.713   0.704
 9398SOL     OW29092   2.782   1.571   6.429
 9398SOL    HW129093   2.804   1.506   6.356
 9398SOL    HW229094   2.708   1.632   6.398
 9399SOL     OW29095   6.970   0.876   5.798
 9399SOL    HW129096   0.048   0.888   5.825
 9399SOL    HW229097   6.965   0.811   5.722
 9400SOL     OW29098   5.563   3.415   2.272
 9400SOL    HW129099   5.613   3.350   2.215
 9400SOL    HW229100   5.618   3.497   2.285
 9401SOL     OW29101   2.930   6.240   3.414
 9401SOL    HW129102   3.017   6.281   3.389
 9401SOL    HW229103   2.937   6.140   3.408
 9402SOL     OW29104   2.340   5.075   6.294
 9402SOL    HW129105   2.256   5.056   6.345
 9402SOL    HW229106   2.400   5.133   6.350
 9403SOL     OW29107   5.260   1.513   3.831
 9403SOL    HW129108   5.233   1.523   3.926
 9403SOL    HW229109   5.342   1.568   3.813
 9404SOL     OW29110   1.479   5.002   6.904
 9404SOL    HW129111   1.525   5.078   6.951
 9404SOL    HW229112   1.496   5.009   6.805
 9405SOL     OW29113   6.187   7.014   0.916
 9405SOL    HW129114   6.151   0.069   0.973
 9405SOL    HW229115   6.216   0.033   0.828
 9406SOL     OW29116   0.160   1.213   4.836
 9406SOL    HW129117   0.252   1.175   4.827
 9406SOL    HW229118   0.093   1.149   4.798
 9407SOL     OW29119   3.028   5.794   2.984
 9407SOL    HW129120   2.968   5.869   3.010
 9407SOL    HW229121   3.056   5.744   3.066
 9408SOL     OW29122   3.832   1.754   6.208
 9408SOL    HW129123   3.766   1.793   6.144
 9408SOL    HW229124   3.794   1.757   6.300
 9409SOL     OW29125   5.747   3.578   4.072
 9409SOL    HW129126   5.725   3.487   4.034
 9409SOL    HW229127   5.841   3.601   4.049
 9410SOL     OW29128   4.443   6.230   2.661
 9410SOL    HW129129   4.504   6.296   2.707
 9410SOL    HW229130   4.354   6.231   2.706
 9411SOL     OW29131   4.229   5.688   0.593
 9411SOL    HW129132   4.297   5.757   0.570
 9411SOL    HW229133   4.239   5.610   0.531
 9412SOL     OW29134   0.018   2.611   1.343
 9412SOL    HW129135   6.966   2.557   1.391
 9412SOL    HW229136   0.045   2.564   1.260
 9413SOL     OW29137   4.002   6.023   5.173
 9413SOL    HW129138   4.033   6.118   5.163
 9413SOL    HW229139   4.023   5.990   5.265
 9414SOL     OW29140   3.305   1.410   2.166
 9414SOL    HW129141   3.379   1.367   2.217
 9414SOL    HW229142   3.338   1.494   2.123
 9415SOL     OW29143   2.090   6.531   2.736
 9415SOL    HW129144   2.062   6.621   2.769
 9415SOL    HW229145   2.009   6.478   2.711
 9416SOL     OW29146   1.334   1.925   1.999
 9416SOL    HW129147   1.354   1.921   1.901
 9416SOL    HW229148   1.383   1.852   2.046
 9417SOL     OW29149   2.351   5.462   5.807
 9417SOL    HW129150   2.299   5.378   5.824
 9417SOL    HW229151   2.295   5.542   5.829
 9418SOL     OW29152   2.309   4.782   1.165
 9418SOL    HW129153   2.215   4.818   1.160
 9418SOL    HW229154   2.373   4.852   1.132
 9419SOL     OW29155   3.050   6.481   4.811
 9419SOL    HW129156   3.012   6.554   4.754
 9419SOL    HW229157   3.124   6.435   4.761
 9420SOL     OW29158   6.806   1.033   4.978
 9420SOL    HW129159   6.867   1.068   5.049
 9420SOL    HW229160   6.853   1.034   4.890
 9421SOL     OW29161   0.574   4.078   5.566
 9421SOL    HW129162   0.485   4.120   5.549
 9421SOL    HW229163   0.646   4.147   5.554
 9422SOL     OW29164   5.440   0.236   2.039
 9422SOL    HW129165   5.533   0.265   2.061
 9422SOL    HW229166   5.385   0.316   2.012
 9423SOL     OW29167   3.769   0.821   3.867
 9423SOL    HW129168   3.789   0.834   3.964
 9423SOL    HW229169   3.792   0.728   3.841
 9424SOL     OW29170   4.005   6.942   4.774
 9424SOL    HW129171   4.045   7.004   4.706
 9424SOL    HW229172   3.906   6.952   4.774
 9425SOL     OW29173   1.228   3.774   5.096
 9425SOL    HW129174   1.244   3.857   5.042
 9425SOL    HW229175   1.301   3.707   5.077
 9426SOL     OW29176   3.227   0.579   6.816
 9426SOL    HW129177   3.185   0.518   6.748
 9426SOL    HW229178   3.321   0.598   6.790
 9427SOL     OW29179   2.708   5.009   5.199
 9427SOL    HW129180   2.753   4.971   5.280
 9427SOL    HW229181   2.727   5.107   5.193
 9428SOL     OW29182   6.049   0.300   3.290
 9428SOL    HW129183   6.094   0.301   3.201
 9428SOL    HW229184   5.961   0.254   3.283
 9429SOL     OW29185   0.860   4.094   2.258
 9429SOL    HW129186   0.762   4.078   2.246
 9429SOL    HW229187   0.908   4.006   2.262
 9430SOL     OW29188   6.887   6.314   1.800
 9430SOL    HW129189   6.954   6.296   1.872
 9430SOL    HW229190   6.935   6.346   1.719
 9431SOL     OW29191   6.889   3.972   0.622
 9431SOL    HW129192   6.829   3.903   0.663
 9431SOL    HW229193   6.842   4.014   0.545
 9432SOL     OW29194   5.936   0.151   2.865
 9432SOL    HW129195   5.977   0.060   2.862
 9432SOL    HW229196   5.903   0.176   2.775
 9433SOL     OW29197   3.430   4.656   5.294
 9433SOL    HW129198   3.411   4.752   5.270
 9433SOL    HW229199   3.345   4.604   5.291
 9434SOL     OW29200   5.544   4.605   2.742
 9434SOL    HW129201   5.524   4.684   2.683
 9434SOL    HW229202   5.563   4.637   2.835
 9435SOL     OW29203   1.535   1.396   4.509
 9435SOL    HW129204   1.515   1.349   4.594
 9435SOL    HW229205   1.476   1.361   4.436
 9436SOL     OW29206   2.287   3.544   0.310
 9436SOL    HW129207   2.343   3.598   0.373
 9436SOL    HW229208   2.331   3.456   0.292
 9437SOL     OW29209   1.910   5.092   3.692
 9437SOL    HW129210   1.934   5.184   3.660
 9437SOL    HW229211   1.929   5.085   3.790
 9438SOL     OW29212   0.608   6.541   2.097
 9438SOL    HW129213   0.543   6.490   2.041
 9438SOL    HW229214   0.680   6.479   2.129
 9439SOL     OW29215   0.266   2.758   2.275
 9439SOL    HW129216   0.354   2.761   2.227
 9439SOL    HW229217   0.244   2.663   2.295
 9440SOL     OW29218   4.811   6.219   5.698
 9440SOL    HW129219   4.882   6.188   5.761
 9440SOL    HW229220   4.802   6.154   5.622
 9441SOL     OW29221   2.030   5.109   5.244
 9441SOL    HW129222   2.044   5.038   5.313
 9441SOL    HW229223   2.019   5.067   5.154
 9442SOL     OW29224   6.768   2.686   0.339
 9442SOL    HW129225   6.819   2.716   0.420
 9442SOL    HW229226   6.763   2.587   0.337
 9443SOL     OW29227   1.791   4.205   0.835
 9443SOL    HW129228   1.775   4.107   0.833
 9443SOL    HW229229   1.889   4.223   0.822
 9444SOL     OW29230   0.355   3.203   0.052
 9444SOL    HW129231   0.343   3.286   0.106
 9444SOL    HW229232   0.354   3.124   0.112
 9445SOL     OW29233   5.659   4.024   2.201
 9445SOL    HW129234   5.732   3.979   2.253
 9445SOL    HW229235   5.574   3.973   2.212
 9446SOL     OW29236   6.203   6.344   1.972
 9446SOL    HW129237   6.189   6.400   2.054
 9446SOL    HW229238   6.156   6.385   1.894
 9447SOL     OW29239   5.335   3.816   1.981
 9447SOL    HW129240   5.315   3.719   1.968
 9447SOL    HW229241   5.261   3.871   1.943
 9448SOL     OW29242   6.015   6.324   0.592
 9448SOL    HW129243   5.985   6.373   0.674
 9448SOL    HW229244   6.050   6.390   0.525
 9449SOL     OW29245   5.765   5.354   5.806
 9449SOL    HW129246   5.759   5.363   5.707
 9449SOL    HW229247   5.674   5.365   5.846
 9450SOL     OW29248   3.168   4.887   4.463
 9450SOL    HW129249   3.260   4.857   4.437
 9450SOL    HW229250   3.164   4.896   4.563
 9451SOL     OW29251   4.193   5.542   6.634
 9451SOL    HW129252   4.107   5.575   6.673
 9451SOL    HW229253   4.193   5.558   6.535
 9452SOL     OW29254   2.035   4.049   1.578
 9452SOL    HW129255   2.124   4.043   1.532
 9452SOL    HW229256   1.980   4.120   1.536
 9453SOL     OW29257   2.474   5.372   2.644
 9453SOL    HW129258   2.391   5.410   2.605
 9453SOL    HW229259   2.456   5.280   2.680
 9454SOL     OW29260   1.425   3.951   5.718
 9454SOL    HW129261   1.512   3.949   5.668
 9454SOL    HW229262   1.429   3.885   5.793
 9455SOL     OW29263   3.351   0.857   2.713
 9455SOL    HW129264   3.308   0.779   2.758
 9455SOL    HW229265   3.387   0.829   2.624
 9456SOL     OW29266   1.097   3.533   0.886
 9456SOL    HW129267   1.086   3.477   0.804
 9456SOL    HW229268   1.165   3.604   0.869
 9457SOL     OW29269   1.778   3.148   0.214
 9457SOL    HW129270   1.712   3.214   0.251
 9457SOL    HW229271   1.746   3.055   0.231
 9458SOL     OW29272   6.880   5.407   5.374
 9458SOL    HW129273   6.972   5.390   5.338
 9458SOL    HW229274   6.884   5.475   5.447
 9459SOL     OW29275   6.458   5.550   1.620
 9459SOL    HW129276   6.406   5.621   1.667
 9459SOL    HW229277   6.413   5.527   1.534
 9460SOL     OW29278   0.821   1.755   4.995
 9460SOL    HW129279   0.726   1.738   4.969
 9460SOL    HW229280   0.864   1.816   4.928
 9461SOL     OW29281   0.993   0.879   3.440
 9461SOL    HW129282   0.918   0.814   3.435
 9461SOL    HW229283   0.958   0.972   3.427
 9462SOL     OW29284   0.973   3.250   2.114
 9462SOL    HW129285   1.055   3.300   2.142
 9462SOL    HW229286   0.956   3.175   2.179
 9463SOL     OW29287   6.218   1.299   0.071
 9463SOL    HW129288   6.208   1.328   6.994
 9463SOL    HW229289   6.245   1.378   0.127
 9464SOL     OW29290   5.849   6.961   6.176
 9464SOL    HW129291   5.831   6.965   6.274
 9464SOL    HW229292   5.846   6.865   6.145
 9465SOL     OW29293   6.448   0.422   3.615
 9465SOL    HW129294   6.436   0.389   3.708
 9465SOL    HW229295   6.465   0.345   3.554
 9466SOL     OW29296   2.413   3.008   5.909
 9466SOL    HW129297   2.431   3.079   5.842
 9466SOL    HW229298   2.447   2.920   5.874
 9467SOL     OW29299   1.958   2.495   2.235
 9467SOL    HW129300   2.051   2.530   2.229
 9467SOL    HW229301   1.905   2.550   2.299
 9468SOL     OW29302   6.758   2.753   5.670
 9468SOL    HW129303   6.751   2.771   5.768
 9468SOL    HW229304   6.674   2.708   5.638
 9469SOL     OW29305   6.507   5.777   2.227
 9469SOL    HW129306   6.496   5.876   2.215
 9469SOL    HW229307   6.419   5.736   2.248
 9470SOL     OW29308   5.030   3.593   0.520
 9470SOL    HW129309   4.989   3.526   0.459
 9470SOL    HW229310   4.960   3.630   0.582
 9471SOL     OW29311   0.028   2.219   5.972
 9471SOL    HW129312   6.983   2.224   6.050
 9471SOL    HW229313   0.069   2.309   5.958
 9472SOL     OW29314   6.125   4.429   5.019
 9472SOL    HW129315   6.141   4.333   4.995
 9472SOL    HW229316   6.186   4.486   4.964
 9473SOL     OW29317   2.722   5.779   5.880
 9473SOL    HW129318   2.801   5.837   5.860
 9473SOL    HW229319   2.747   5.711   5.949
 9474SOL     OW29320   4.687   4.838   2.123
 9474SOL    HW129321   4.730   4.751   2.145
 9474SOL    HW229322   4.608   4.823   2.064
 9475SOL     OW29323   3.191   3.753   1.327
 9475SOL    HW129324   3.160   3.846   1.346
 9475SOL    HW229325   3.273   3.756   1.270
 9476SOL     OW29326   4.070   3.459   5.204
 9476SOL    HW129327   4.049   3.485   5.298
 9476SOL    HW229328   4.125   3.376   5.204
 9477SOL     OW29329   1.017   2.571   0.830
 9477SOL    HW129330   0.928   2.581   0.786
 9477SOL    HW229331   1.008   2.514   0.911
 9478SOL     OW29332   5.924   4.770   5.501
 9478SOL    HW129333   5.846   4.709   5.511
 9478SOL    HW229334   5.970   4.752   5.414
 9479SOL     OW29335   5.988   5.748   6.567
 9479SOL    HW129336   5.976   5.720   6.662
 9479SOL    HW229337   6.075   5.712   6.533
 9480SOL     OW29338   5.303   4.489   0.085
 9480SOL    HW129339   5.211   4.526   0.072
 9480SOL    HW229340   5.334   4.446   0.000
 9481SOL     OW29341   0.180   4.212   1.523
 9481SOL    HW129342   0.111   4.281   1.504
 9481SOL    HW229343   0.194   4.205   1.622
 9482SOL     OW29344   4.764   0.774   2.076
 9482SOL    HW129345   4.709   0.705   2.123
 9482SOL    HW229346   4.730   0.865   2.098
 9483SOL     OW29347   1.811   1.782   0.870
 9483SOL    HW129348   1.847   1.846   0.801
 9483SOL    HW229349   1.811   1.827   0.959
 9484SOL     OW29350   5.926   1.280   3.893
 9484SOL    HW129351   5.866   1.294   3.814
 9484SOL    HW229352   5.940   1.182   3.907
 9485SOL     OW29353   1.202   1.236   3.123
 9485SOL    HW129354   1.234   1.211   3.215
 9485SOL    HW229355   1.239   1.171   3.057
 9486SOL     OW29356   2.555   5.653   0.990
 9486SOL    HW129357   2.594   5.707   1.065
 9486SOL    HW229358   2.596   5.683   0.904
 9487SOL     OW29359   3.084   3.873   3.582
 9487SOL    HW129360   3.156   3.809   3.555
 9487SOL    HW229361   3.020   3.826   3.643
 9488SOL     OW29362   2.052   6.448   1.196
 9488SOL    HW129363   2.049   6.497   1.109
 9488SOL    HW229364   1.959   6.433   1.230
 9489SOL     OW29365   4.097   4.574   1.275
 9489SOL    HW129366   4.041   4.503   1.317
 9489SOL    HW229367   4.067   4.590   1.181
 9490SOL     OW29368   5.449   0.936   0.990
 9490SOL    HW129369   5.422   0.937   1.086
 9490SOL    HW229370   5.463   1.030   0.958
 9491SOL     OW29371   6.320   5.338   4.138
 9491SOL    HW129372   6.222   5.341   4.117
 9491SOL    HW229373   6.372   5.379   4.063
 9492SOL     OW29374   3.268   3.851   1.981
 9492SOL    HW129375   3.175   3.882   2.002
 9492SOL    HW229376   3.331   3.928   1.989
 9493SOL     OW29377   4.570   5.873   3.154
 9493SOL    HW129378   4.550   5.920   3.068
 9493SOL    HW229379   4.616   5.936   3.216
 9494SOL     OW29380   5.262   3.377   6.902
 9494SOL    HW129381   5.220   3.343   6.818
 9494SOL    HW229382   5.205   3.450   6.941
 9495SOL     OW29383   6.365   1.810   4.810
 9495SOL    HW129384   6.284   1.830   4.755
 9495SOL    HW229385   6.362   1.864   4.894
 9496SOL     OW29386   5.740   4.071   0.178
 9496SOL    HW129387   5.708   4.162   0.153
 9496SOL    HW229388   5.833   4.058   0.145
 9497SOL     OW29389   5.289   4.866   0.581
 9497SOL    HW129390   5.389   4.861   0.589
 9497SOL    HW229391   5.264   4.954   0.541
 9498SOL     OW29392   3.609   6.840   5.290
 9498SOL    HW129393   3.690   6.891   5.318
 9498SOL    HW229394   3.593   6.854   5.192
 9499SOL     OW29395   2.964   3.440   5.321
 9499SOL    HW129396   2.948   3.371   5.250
 9499SOL    HW229397   3.062   3.460   5.327
 9500SOL     OW29398   4.156   5.986   1.768
 9500SOL    HW129399   4.154   6.012   1.865
 9500SOL    HW229400   4.108   6.056   1.715
 9501SOL     OW29401   3.499   1.844   4.638
 9501SOL    HW129402   3.568   1.773   4.618
 9501SOL    HW229403   3.453   1.822   4.724
 9502SOL     OW29404   6.253   2.101   5.254
 9502SOL    HW129405   6.231   2.007   5.280
 9502SOL    HW229406   6.280   2.104   5.158
 9503SOL     OW29407   0.352   0.143   1.924
 9503SOL    HW129408   0.325   0.234   1.954
 9503SOL    HW229409   0.271   0.091   1.897
 9504SOL     OW29410   0.095   2.704   0.531
 9504SOL    HW129411   0.159   2.652   0.586
 9504SOL    HW229412   0.145   2.753   0.460
 9505SOL     OW29413   6.329   3.568   2.937
 9505SOL    HW129414   6.265   3.522   2.875
 9505SOL    HW229415   6.390   3.500   2.978
 9506SOL     OW29416   0.138   3.448   6.965
 9506SOL    HW129417   0.089   3.524   7.008
 9506SOL    HW229418   0.207   3.413   0.010
 9507SOL     OW29419   1.355   1.655   3.856
 9507SOL    HW129420   1.441   1.608   3.838
 9507SOL    HW229421   1.316   1.686   3.769
 9508SOL     OW29422   5.796   1.751   0.484
 9508SOL    HW129423   5.868   1.694   0.525
 9508SOL    HW229424   5.825   1.781   0.393
 9509SOL     OW29425   2.036   6.300   5.513
 9509SOL    HW129426   2.031   6.203   5.490
 9509SOL    HW229427   2.040   6.311   5.613
 9510SOL     OW29428   0.204   4.280   2.561
 9510SOL    HW129429   0.145   4.265   2.482
 9510SOL    HW229430   0.149   4.291   2.643
 9511SOL     OW29431   0.482   2.622   6.932
 9511SOL    HW129432   0.433   2.678   6.866
 9511SOL    HW229433   0.576   2.654   6.942
 9512SOL     OW29434   0.832   1.879   3.965
 9512SOL    HW129435   0.903   1.948   3.978
 9512SOL    HW229436   0.745   1.924   3.946
 9513SOL     OW29437   2.040   3.620   3.674
 9513SOL    HW129438   2.081   3.672   3.599
 9513SOL    HW229439   2.075   3.526   3.671
 9514SOL     OW29440   2.111   3.357   6.788
 9514SOL    HW129441   2.164   3.275   6.769
 9514SOL    HW229442   2.103   3.411   6.704
 9515SOL     OW29443   1.206   6.342   5.984
 9515SOL    HW129444   1.157   6.411   6.038
 9515SOL    HW229445   1.151   6.318   5.904
 9516SOL     OW29446   5.219   3.715   4.030
 9516SOL    HW129447   5.132   3.762   4.022
 9516SOL    HW229448   5.210   3.637   4.093
 9517SOL     OW29449   0.882   5.103   1.376
 9517SOL    HW129450   0.914   5.145   1.461
 9517SOL    HW229451   0.817   5.030   1.397
 9518SOL     OW29452   0.768   2.731   6.022
 9518SOL    HW129453   0.866   2.738   6.004
 9518SOL    HW229454   0.743   2.635   6.034
 9519SOL     OW29455   3.181   3.410   2.745
 9519SOL    HW129456   3.172   3.470   2.665
 9519SOL    HW229457   3.199   3.317   2.715
 9520SOL     OW29458   0.100   0.770   5.367
 9520SOL    HW129459   0.154   0.711   5.306
 9520SOL    HW229460   0.160   0.811   5.435
 9521SOL     OW29461   3.548   6.803   1.254
 9521SOL    HW129462   3.636   6.821   1.210
 9521SOL    HW229463   3.486   6.880   1.236
 9522SOL     OW29464   3.993   5.414   1.119
 9522SOL    HW129465   4.033   5.324   1.137
 9522SOL    HW229466   3.970   5.421   1.021
 9523SOL     OW29467   2.607   4.940   4.749
 9523SOL    HW129468   2.626   4.849   4.786
 9523SOL    HW229469   2.572   4.999   4.821
 9524SOL     OW29470   1.441   4.019   1.027
 9524SOL    HW129471   1.393   4.092   1.077
 9524SOL    HW229472   1.395   4.004   0.939
 9525SOL     OW29473   2.205   2.239   5.562
 9525SOL    HW129474   2.255   2.229   5.476
 9525SOL    HW229475   2.245   2.179   5.631
 9526SOL     OW29476   5.381   5.131   6.757
 9526SOL    HW129477   5.436   5.049   6.773
 9526SOL    HW229478   5.314   5.141   6.830
 9527SOL     OW29479   3.223   6.737   3.722
 9527SOL    HW129480   3.272   6.817   3.757
 9527SOL    HW229481   3.226   6.664   3.789
 9528SOL     OW29482   6.674   1.462   1.287
 9528SOL    HW129483   6.702   1.487   1.195
 9528SOL    HW229484   6.716   1.375   1.313
 9529SOL     OW29485   6.627   1.997   1.659
 9529SOL    HW129486   6.536   2.035   1.646
 9529SOL    HW229487   6.651   1.999   1.756
 9530SOL     OW29488   0.448   5.342   4.341
 9530SOL    HW129489   0.532   5.392   4.367
 9530SOL    HW229490   0.447   5.328   4.242
 9531SOL     OW29491   4.405   4.644   3.503
 9531SOL    HW129492   4.422   4.627   3.600
 9531SOL    HW229493   4.465   4.585   3.448
 9532SOL     OW29494   6.153   5.553   2.111
 9532SOL    HW129495   6.056   5.530   2.103
 9532SOL    HW229496   6.207   5.489   2.055
 9533SOL     OW29497   1.663   5.707   4.132
 9533SOL    HW129498   1.601   5.780   4.103
 9533SOL    HW229499   1.631   5.620   4.095
 9534SOL     OW29500   5.717   4.999   4.422
 9534SOL    HW129501   5.739   4.960   4.333
 9534SOL    HW229502   5.667   4.931   4.477
 9535SOL     OW29503   1.497   1.734   6.057
 9535SOL    HW129504   1.501   1.738   5.958
 9535SOL    HW229505   1.417   1.786   6.089
 9536SOL     OW29506   3.726   3.727   5.037
 9536SOL    HW129507   3.822   3.724   5.006
 9536SOL    HW229508   3.703   3.640   5.079
 9537SOL     OW29509   1.815   1.625   3.771
 9537SOL    HW129510   1.813   1.644   3.869
 9537SOL    HW229511   1.910   1.609   3.743
 9538SOL     OW29512   3.572   0.728   4.531
 9538SOL    HW129513   3.655   0.760   4.486
 9538SOL    HW229514   3.493   0.743   4.471
 9539SOL     OW29515   3.852   2.996   3.355
 9539SOL    HW129516   3.759   2.959   3.355
 9539SOL    HW229517   3.889   2.993   3.447
 9540SOL     OW29518   4.457   5.319   4.102
 9540SOL    HW129519   4.394   5.286   4.031
 9540SOL    HW229520   4.522   5.383   4.062
 9541SOL     OW29521   1.311   0.117   5.032
 9541SOL    HW129522   1.336   0.206   5.070
 9541SOL    HW229523   1.274   0.129   4.940
 9542SOL     OW29524   5.751   4.967   4.121
 9542SOL    HW129525   5.714   4.874   4.131
 9542SOL    HW229526   5.850   4.963   4.117
 9543SOL     OW29527   3.320   0.426   6.255
 9543SOL    HW129528   3.347   0.343   6.304
 9543SOL    HW229529   3.252   0.403   6.185
 9544SOL     OW29530   5.245   4.147   3.374
 9544SOL    HW129531   5.324   4.086   3.385
 9544SOL    HW229532   5.278   4.241   3.365
 9545SOL     OW29533   1.176   4.479   1.757
 9545SOL    HW129534   1.203   4.426   1.837
 9545SOL    HW229535   1.077   4.473   1.745
 9546SOL     OW29536   3.427   1.224   5.639
 9546SOL    HW129537   3.365   1.196   5.566
 9546SOL    HW229538   3.450   1.321   5.628
 9547SOL     OW29539   3.408   5.877   4.489
 9547SOL    HW129540   3.492   5.877   4.543
 9547SOL    HW229541   3.420   5.935   4.408
 9548SOL     OW29542   1.126   5.073   5.835
 9548SOL    HW129543   1.036   5.064   5.791
 9548SOL    HW229544   1.137   5.166   5.868
 9549SOL     OW29545   3.825   2.018   2.700
 9549SOL    HW129546   3.799   2.013   2.604
 9549SOL    HW229547   3.785   1.942   2.751
 9550SOL     OW29548   5.670   3.007   1.525
 9550SOL    HW129549   5.601   3.075   1.499
 9550SOL    HW229550   5.667   2.931   1.460
 9551SOL     OW29551   6.511   2.199   5.883
 9551SOL    HW129552   6.570   2.232   5.957
 9551SOL    HW229553   6.499   2.100   5.892
 9552SOL     OW29554   2.613   0.977   6.669
 9552SOL    HW129555   2.652   1.066   6.693
 9552SOL    HW229556   2.519   0.972   6.702
 9553SOL     OW29557   5.278   2.407   0.715
 9553SOL    HW129558   5.195   2.403   0.659
 9553SOL    HW229559   5.295   2.501   0.743
 9554SOL     OW29560   2.701   6.511   3.937
 9554SOL    HW129561   2.718   6.416   3.910
 9554SOL    HW229562   2.687   6.515   4.036
 9555SOL     OW29563   6.421   1.434   3.429
 9555SOL    HW129564   6.483   1.438   3.507
 9555SOL    HW229565   6.471   1.401   3.349
 9556SOL     OW29566   1.422   4.498   1.206
 9556SOL    HW129567   1.507   4.462   1.244
 9556SOL    HW229568   1.441   4.572   1.142
 9557SOL     OW29569   4.992   6.864   1.784
 9557SOL    HW129570   5.049   6.830   1.859
 9557SOL    HW229571   4.901   6.885   1.818
 9558SOL     OW29572   6.084   6.528   6.019
 9558SOL    HW129573   6.165   6.584   6.003
 9558SOL    HW229574   6.067   6.522   6.118
 9559SOL     OW29575   1.605   3.969   6.599
 9559SOL    HW129576   1.655   3.890   6.635
 9559SOL    HW229577   1.516   3.940   6.564
 9560SOL     OW29578   3.550   0.410   2.048
 9560SOL    HW129579   3.460   0.407   2.003
 9560SOL    HW229580   3.593   0.499   2.031
 9561SOL     OW29581   0.660   6.994   0.960
 9561SOL    HW129582   0.565   6.965   0.957
 9561SOL    HW229583   0.678   0.026   1.045
 9562SOL     OW29584   2.506   5.902   4.450
 9562SOL    HW129585   2.563   5.827   4.416
 9562SOL    HW229586   2.565   5.978   4.478
 9563SOL     OW29587   0.498   6.555   0.060
 9563SOL    HW129588   0.563   6.478   0.064
 9563SOL    HW229589   0.494   6.600   0.150
 9564SOL     OW29590   0.789   0.679   1.259
 9564SOL    HW129591   0.758   0.773   1.241
 9564SOL    HW229592   0.888   0.675   1.251
 9565SOL     OW29593   2.823   0.948   4.171
 9565SOL    HW129594   2.735   0.899   4.173
 9565SOL    HW229595   2.811   1.038   4.212
 9566SOL     OW29596   2.946   6.308   0.526
 9566SOL    HW129597   2.876   6.251   0.484
 9566SOL    HW229598   3.019   6.326   0.459
 9567SOL     OW29599   6.929   4.883   0.496
 9567SOL    HW129600   6.865   4.959   0.494
 9567SOL    HW229601   6.889   4.804   0.448
 9568SOL     OW29602   3.790   2.039   0.169
 9568SOL    HW129603   3.764   1.980   0.093
 9568SOL    HW229604   3.709   2.089   0.201
 9569SOL     OW29605   6.377   0.880   2.356
 9569SOL    HW129606   6.464   0.884   2.307
 9569SOL    HW229607   6.301   0.887   2.292
 9570SOL     OW29608   0.510   2.945   0.651
 9570SOL    HW129609   0.453   2.908   0.725
 9570SOL    HW229610   0.536   2.871   0.589
 9571SOL     OW29611   2.639   2.828   6.218
 9571SOL    HW129612   2.694   2.875   6.149
 9571SOL    HW229613   2.656   2.729   6.212
 9572SOL     OW29614   2.145   3.995   3.518
 9572SOL    HW129615   2.167   4.088   3.487
 9572SOL    HW229616   2.135   3.994   3.617
 9573SOL     OW29617   6.626   0.832   5.722
 9573SOL    HW129618   6.692   0.907   5.715
 9573SOL    HW229619   6.620   0.784   5.634
 9574SOL     OW29620   3.844   2.977   1.420
 9574SOL    HW129621   3.922   2.941   1.470
 9574SOL    HW229622   3.820   3.068   1.456
 9575SOL     OW29623   5.931   0.142   2.584
 9575SOL    HW129624   5.885   0.198   2.516
 9575SOL    HW229625   6.030   0.155   2.579
 9576SOL     OW29626   1.131   1.259   0.353
 9576SOL    HW129627   1.098   1.320   0.280
 9576SOL    HW229628   1.224   1.230   0.333
 9577SOL     OW29629   7.014   6.193   0.206
 9577SOL    HW129630   0.053   6.175   0.126
 9577SOL    HW229631   6.919   6.201   0.178
 9578SOL     OW29632   0.987   2.779   2.600
 9578SOL    HW129633   0.900   2.813   2.566
 9578SOL    HW229634   1.051   2.855   2.613
 9579SOL     OW29635   6.167   0.317   2.088
 9579SOL    HW129636   6.098   0.281   2.151
 9579SOL    HW229637   6.163   0.267   2.002
 9580SOL     OW29638   4.844   4.137   1.342
 9580SOL    HW129639   4.830   4.207   1.272
 9580SOL    HW229640   4.888   4.179   1.422
 9581SOL     OW29641   0.006   0.945   6.797
 9581SOL    HW129642   0.065   0.881   6.746
 9581SOL    HW229643   6.953   0.894   6.844
 9582SOL     OW29644   3.750   6.106   4.399
 9582SOL    HW129645   3.698   6.160   4.465
 9582SOL    HW229646   3.702   6.020   4.382
 9583SOL     OW29647   3.283   4.336   1.411
 9583SOL    HW129648   3.259   4.334   1.508
 9583SOL    HW229649   3.267   4.428   1.375
 9584SOL     OW29650   1.946   5.060   4.970
 9584SOL    HW129651   1.919   5.156   4.966
 9584SOL    HW229652   2.014   5.041   4.899
 9585SOL     OW29653   5.108   6.291   1.470
 9585SOL    HW129654   5.146   6.209   1.428
 9585SOL    HW229655   5.014   6.273   1.499
 9586SOL     OW29656   4.788   4.945   1.485
 9586SOL    HW129657   4.701   4.896   1.474
 9586SOL    HW229658   4.863   4.881   1.472
 9587SOL     OW29659   2.055   6.742   2.134
 9587SOL    HW129660   1.993   6.821   2.137
 9587SOL    HW229661   2.072   6.716   2.039
 9588SOL     OW29662   6.659   5.981   0.905
 9588SOL    HW129663   6.708   6.068   0.907
 9588SOL    HW229664   6.650   5.946   0.998
 9589SOL     OW29665   1.877   3.774   6.421
 9589SOL    HW129666   1.937   3.843   6.462
 9589SOL    HW229667   1.812   3.741   6.490
 9590SOL     OW29668   6.115   2.301   1.907
 9590SOL    HW129669   6.095   2.216   1.857
 9590SOL    HW229670   6.169   2.280   1.988
 9591SOL     OW29671   3.231   6.767   5.815
 9591SOL    HW129672   3.299   6.830   5.777
 9591SOL    HW229673   3.277   6.698   5.871
 9592SOL     OW29674   3.179   4.584   6.492
 9592SOL    HW129675   3.099   4.569   6.435
 9592SOL    HW229676   3.243   4.507   6.480
 9593SOL     OW29677   1.558   1.217   5.812
 9593SOL    HW129678   1.528   1.228   5.907
 9593SOL    HW229679   1.658   1.215   5.809
 9594SOL     OW29680   2.501   6.348   4.191
 9594SOL    HW129681   2.538   6.406   4.264
 9594SOL    HW229682   2.408   6.376   4.170
 9595SOL     OW29683   0.356   3.145   3.199
 9595SOL    HW129684   0.305   3.230   3.213
 9595SOL    HW229685   0.323   3.099   3.116
 9596SOL     OW29686   0.980   5.210   0.455
 9596SOL    HW129687   1.002   5.236   0.549
 9596SOL    HW229688   0.897   5.257   0.425
 9597SOL     OW29689   0.817   4.285   1.326
 9597SOL    HW129690   0.766   4.276   1.411
 9597SOL    HW229691   0.912   4.309   1.346
 9598SOL     OW29692   2.011   3.901   2.704
 9598SOL    HW129693   2.045   3.995   2.710
 9598SOL    HW229694   2.067   3.850   2.639
 9599SOL     OW29695   3.511   6.646   4.340
 9599SOL    HW129696   3.425   6.595   4.336
 9599SOL    HW229697   3.509   6.708   4.419
 9600SOL     OW29698   3.103   6.850   0.831
 9600SOL    HW129699   3.153   6.911   0.892
 9600SOL    HW229700   3.110   6.884   0.737
 9601SOL     OW29701   6.063   4.341   1.025
 9601SOL    HW129702   6.028   4.293   0.944
 9601SOL    HW229703   5.995   4.335   1.099
 9602SOL     OW29704   4.613   4.629   5.852
 9602SOL    HW129705   4.610   4.546   5.908
 9602SOL    HW229706   4.648   4.607   5.762
 9603SOL     OW29707   5.538   6.189   6.494
 9603SOL    HW129708   5.511   6.125   6.565
 9603SOL    HW229709   5.565   6.276   6.536
 9604SOL     OW29710   4.487   0.514   1.844
 9604SOL    HW129711   4.440   0.560   1.920
 9604SOL    HW229712   4.586   0.519   1.859
 9605SOL     OW29713   0.124   5.101   3.134
 9605SOL    HW129714   0.220   5.104   3.106
 9605SOL    HW229715   0.103   5.011   3.172
 9606SOL     OW29716   1.766   0.815   7.011
 9606SOL    HW129717   1.741   0.880   0.064
 9606SOL    HW229718   1.687   0.759   6.987
 9607SOL     OW29719   3.191   1.734   6.823
 9607SOL    HW129720   3.102   1.736   6.870
 9607SOL    HW229721   3.183   1.778   6.734
 9608SOL     OW29722   7.007   4.608   2.866
 9608SOL    HW129723   7.015   4.708   2.865
 9608SOL    HW229724   7.010   4.575   2.961
 9609SOL     OW29725   4.235   2.874   6.819
 9609SOL    HW129726   4.259   2.786   6.779
 9609SOL    HW229727   4.143   2.868   6.860
 9610SOL     OW29728   1.865   4.964   2.711
 9610SOL    HW129729   1.951   5.009   2.735
 9610SOL    HW229730   1.885   4.874   2.672
 9611SOL     OW29731   1.466   6.734   0.554
 9611SOL    HW129732   1.562   6.706   0.553
 9611SOL    HW229733   1.408   6.653   0.543
 9612SOL     OW29734   0.290   3.392   1.672
 9612SOL    HW129735   0.234   3.327   1.621
 9612SOL    HW229736   0.362   3.427   1.613
 9613SOL     OW29737   5.742   6.398   3.551
 9613SOL    HW129738   5.715   6.333   3.480
 9613SOL    HW229739   5.822   6.363   3.599
 9614SOL     OW29740   3.616   1.830   2.307
 9614SOL    HW129741   3.524   1.795   2.287
 9614SOL    HW229742   3.609   1.928   2.328
 9615SOL     OW29743   2.956   2.046   1.431
 9615SOL    HW129744   2.886   2.064   1.362
 9615SOL    HW229745   2.913   2.010   1.514
 9616SOL     OW29746   3.562   3.521   1.070
 9616SOL    HW129747   3.465   3.496   1.062
 9616SOL    HW229748   3.571   3.620   1.066
 9617SOL     OW29749   2.200   3.142   3.521
 9617SOL    HW129750   2.102   3.124   3.512
 9617SOL    HW229751   2.244   3.065   3.569
 9618SOL     OW29752   3.226   0.352   1.085
 9618SOL    HW129753   3.131   0.322   1.091
 9618SOL    HW229754   3.246   0.416   1.159
 9619SOL     OW29755   1.874   0.280   5.507
 9619SOL    HW129756   1.868   0.380   5.509
 9619SOL    HW229757   1.831   0.242   5.589
 9620SOL     OW29758   4.375   0.503   4.774
 9620SOL    HW129759   4.299   0.568   4.768
 9620SOL    HW229760   4.346   0.421   4.824
 9621SOL     OW29761   1.499   2.783   2.097
 9621SOL    HW129762   1.428   2.805   2.030
 9621SOL    HW229763   1.507   2.684   2.105
 9622SOL     OW29764   6.415   1.531   0.611
 9622SOL    HW129765   6.445   1.551   0.704
 9622SOL    HW229766   6.444   1.439   0.586
 9623SOL     OW29767   2.177   2.985   6.707
 9623SOL    HW129768   2.219   3.068   6.745
 9623SOL    HW229769   2.248   2.925   6.670
 9624SOL     OW29770   6.222   3.826   2.946
 9624SOL    HW129771   6.295   3.890   2.919
 9624SOL    HW229772   6.259   3.733   2.949
 9625SOL     OW29773   5.480   5.607   6.939
 9625SOL    HW129774   5.478   5.673   6.864
 9625SOL    HW229775   5.485   5.656   0.008
 9626SOL     OW29776   3.912   5.178   0.711
 9626SOL    HW129777   4.006   5.187   0.742
 9626SOL    HW229778   3.859   5.128   0.780
 9627SOL     OW29779   1.345   6.143   6.451
 9627SOL    HW129780   1.373   6.179   6.541
 9627SOL    HW229781   1.261   6.090   6.462
 9628SOL     OW29782   4.943   5.257   0.953
 9628SOL    HW129783   4.972   5.168   0.918
 9628SOL    HW229784   5.017   5.324   0.938
 9629SOL     OW29785   2.134   0.710   1.707
 9629SOL    HW129786   2.193   0.786   1.732
 9629SOL    HW229787   2.187   0.625   1.705
 9630SOL     OW29788   5.935   6.591   4.995
 9630SOL    HW129789   5.858   6.649   5.023
 9630SOL    HW229790   5.904   6.525   4.927
 9631SOL     OW29791   6.287   0.316   6.192
 9631SOL    HW129792   6.246   0.255   6.124
 9631SOL    HW229793   6.233   0.315   6.276
 9632SOL     OW29794   1.163   6.433   2.713
 9632SOL    HW129795   1.182   6.406   2.619
 9632SOL    HW229796   1.168   6.353   2.773
 9633SOL     OW29797   5.668   4.933   6.843
 9633SOL    HW129798   5.600   4.887   6.786
 9633SOL    HW229799   5.651   4.912   6.939
 9634SOL     OW29800   1.479   6.500   4.006
 9634SOL    HW129801   1.427   6.533   4.085
 9634SOL    HW229802   1.454   6.553   3.925
 9635SOL     OW29803   2.469   5.357   5.026
 9635SOL    HW129804   2.415   5.426   5.073
 9635SOL    HW229805   2.437   5.350   4.931
 9636SOL     OW29806   4.313   1.727   5.554
 9636SOL    HW129807   4.380   1.769   5.493
 9636SOL    HW229808   4.221   1.757   5.529
 9637SOL     OW29809   2.228   2.323   6.503
 9637SOL    HW129810   2.142   2.279   6.528
 9637SOL    HW229811   2.303   2.284   6.557
 9638SOL     OW29812   6.436   3.602   5.545
 9638SOL    HW129813   6.340   3.618   5.568
 9638SOL    HW229814   6.480   3.552   5.620
 9639SOL     OW29815   4.098   1.948   2.344
 9639SOL    HW129816   4.067   1.886   2.271
 9639SOL    HW229817   4.105   1.898   2.430
 9640SOL     OW29818   2.400   2.766   3.488
 9640SOL    HW129819   2.395   2.683   3.432
 9640SOL    HW229820   2.460   2.832   3.444
 9641SOL     OW29821   4.708   0.000   0.367
 9641SOL    HW129822   4.653   0.076   0.332
 9641SOL    HW229823   4.691   7.007   0.465
 9642SOL     OW29824   2.586   0.099   4.490
 9642SOL    HW129825   2.550   0.063   4.576
 9642SOL    HW229826   2.628   0.188   4.505
 9643SOL     OW29827   5.444   3.957   3.466
 9643SOL    HW129828   5.542   3.977   3.458
 9643SOL    HW229829   5.416   3.898   3.390
 9644SOL     OW29830   1.263   2.985   6.267
 9644SOL    HW129831   1.238   2.891   6.246
 9644SOL    HW229832   1.302   2.990   6.359
 9645SOL     OW29833   3.176   5.125   5.458
 9645SOL    HW129834   3.263   5.173   5.470
 9645SOL    HW229835   3.154   5.120   5.361
 9646SOL     OW29836   4.369   5.009   2.844
 9646SOL    HW129837   4.322   4.947   2.781
 9646SOL    HW229838   4.453   4.966   2.877
 9647SOL     OW29839   6.383   3.603   1.439
 9647SOL    HW129840   6.379   3.517   1.491
 9647SOL    HW229841   6.471   3.609   1.392
 9648SOL     OW29842   4.107   1.694   1.042
 9648SOL    HW129843   4.122   1.722   0.948
 9648SOL    HW229844   4.059   1.767   1.092
 9649SOL     OW29845   3.007   6.405   6.788
 9649SOL    HW129846   3.046   6.314   6.778
 9649SOL    HW229847   2.958   6.430   6.705
 9650SOL     OW29848   6.958   5.765   2.804
 9650SOL    HW129849   6.927   5.731   2.892
 9650SOL    HW229850   6.990   5.688   2.748
 9651SOL     OW29851   0.503   1.770   5.810
 9651SOL    HW129852   0.563   1.703   5.853
 9651SOL    HW229853   0.408   1.739   5.813
 9652SOL     OW29854   1.076   4.926   2.180
 9652SOL    HW129855   1.039   5.014   2.210
 9652SOL    HW229856   1.174   4.936   2.163
 9653SOL     OW29857   4.452   4.722   4.587
 9653SOL    HW129858   4.468   4.657   4.661
 9653SOL    HW229859   4.389   4.682   4.521
 9654SOL     OW29860   2.492   2.392   1.738
 9654SOL    HW129861   2.496   2.377   1.639
 9654SOL    HW229862   2.581   2.373   1.779
 9655SOL     OW29863   0.020   1.783   6.178
 9655SOL    HW129864   6.986   1.766   6.261
 9655SOL    HW229865   0.108   1.825   6.202
 9656SOL     OW29866   3.054   0.074   2.590
 9656SOL    HW129867   3.144   0.040   2.617
 9656SOL    HW229868   3.044   0.066   2.491
 9657SOL     OW29869   5.762   0.750   4.569
 9657SOL    HW129870   5.848   0.698   4.571
 9657SOL    HW229871   5.781   0.845   4.546
 9658SOL     OW29872   6.234   2.794   2.457
 9658SOL    HW129873   6.168   2.856   2.499
 9658SOL    HW229874   6.249   2.715   2.518
 9659SOL     OW29875   0.412   4.773   0.336
 9659SOL    HW129876   0.491   4.738   0.387
 9659SOL    HW229877   0.328   4.735   0.375
 9660SOL     OW29878   0.743   5.717   0.891
 9660SOL    HW129879   0.773   5.729   0.796
 9660SOL    HW229880   0.822   5.697   0.949
 9661SOL     OW29881   4.503   0.076   0.760
 9661SOL    HW129882   4.405   0.093   0.753
 9661SOL    HW229883   4.551   0.162   0.778
 9662SOL     OW29884   5.838   1.931   4.876
 9662SOL    HW129885   5.784   1.847   4.882
 9662SOL    HW229886   5.776   2.009   4.872
 9663SOL     OW29887   2.008   5.207   3.217
 9663SOL    HW129888   2.035   5.298   3.185
 9663SOL    HW229889   1.928   5.214   3.276
 9664SOL     OW29890   4.432   6.463   2.868
 9664SOL    HW129891   4.354   6.464   2.807
 9664SOL    HW229892   4.410   6.513   2.952
 9665SOL     OW29893   5.752   4.622   4.836
 9665SOL    HW129894   5.753   4.720   4.854
 9665SOL    HW229895   5.774   4.572   4.920
 9666SOL     OW29896   5.779   4.623   2.071
 9666SOL    HW129897   5.879   4.620   2.064
 9666SOL    HW229898   5.743   4.687   2.003
 9667SOL     OW29899   3.691   3.524   3.795
 9667SOL    HW129900   3.685   3.425   3.783
 9667SOL    HW229901   3.647   3.550   3.880
 9668SOL     OW29902   0.038   1.160   5.584
 9668SOL    HW129903   0.084   1.215   5.515
 9668SOL    HW229904   6.987   1.102   5.541
 9669SOL     OW29905   0.585   0.721   0.384
 9669SOL    HW129906   0.511   0.763   0.330
 9669SOL    HW229907   0.552   0.635   0.424
 9670SOL     OW29908   5.078   4.342   6.267
 9670SOL    HW129909   5.017   4.419   6.287
 9670SOL    HW229910   5.109   4.301   6.353
 9671SOL     OW29911   0.135   5.385   5.277
 9671SOL    HW129912   0.124   5.320   5.201
 9671SOL    HW229913   0.177   5.338   5.354
 9672SOL     OW29914   1.116   6.276   4.590
 9672SOL    HW129915   1.072   6.187   4.601
 9672SOL    HW229916   1.078   6.341   4.655
 9673SOL     OW29917   3.615   3.984   6.612
 9673SOL    HW129918   3.532   4.039   6.615
 9673SOL    HW229919   3.658   3.982   6.702
 9674SOL     OW29920   3.248   6.179   1.554
 9674SOL    HW129921   3.255   6.113   1.629
 9674SOL    HW229922   3.232   6.130   1.469
 9675SOL     OW29923   6.603   1.720   2.304
 9675SOL    HW129924   6.530   1.740   2.239
 9675SOL    HW229925   6.626   1.623   2.299
 9676SOL     OW29926   1.011   3.547   5.004
 9676SOL    HW129927   0.974   3.603   4.930
 9676SOL    HW229928   1.070   3.475   4.966
 9677SOL     OW29929   2.116   4.332   6.006
 9677SOL    HW129930   2.074   4.371   6.088
 9677SOL    HW229931   2.048   4.281   5.954
 9678SOL     OW29932   3.852   4.001   3.269
 9678SOL    HW129933   3.772   3.999   3.328
 9678SOL    HW229934   3.929   3.957   3.316
 9679SOL     OW29935   1.626   2.375   1.870
 9679SOL    HW129936   1.531   2.401   1.856
 9679SOL    HW229937   1.661   2.421   1.952
 9680SOL     OW29938   5.912   6.102   3.267
 9680SOL    HW129939   5.950   6.194   3.260
 9680SOL    HW229940   5.838   6.102   3.335
 9681SOL     OW29941   1.863   0.893   1.559
 9681SOL    HW129942   1.919   0.814   1.531
 9681SOL    HW229943   1.902   0.935   1.640
 9682SOL     OW29944   5.673   4.910   3.493
 9682SOL    HW129945   5.754   4.853   3.507
 9682SOL    HW229946   5.683   4.996   3.543
 9683SOL     OW29947   3.833   5.289   0.251
 9683SOL    HW129948   3.882   5.360   0.302
 9683SOL    HW229949   3.847   5.304   0.153
 9684SOL     OW29950   0.572   3.689   5.117
 9684SOL    HW129951   0.640   3.617   5.134
 9684SOL    HW229952   0.536   3.722   5.205
 9685SOL     OW29953   1.887   2.784   1.041
 9685SOL    HW129954   1.947   2.796   1.120
 9685SOL    HW229955   1.794   2.808   1.067
 9686SOL     OW29956   6.818   0.605   1.526
 9686SOL    HW129957   6.791   0.539   1.596
 9686SOL    HW229958   6.754   0.602   1.450
 9687SOL     OW29959   2.349   1.395   3.146
 9687SOL    HW129960   2.288   1.436   3.215
 9687SOL    HW229961   2.400   1.467   3.100
 9688SOL     OW29962   0.085   1.917   2.995
 9688SOL    HW129963   0.062   1.828   3.034
 9688SOL    HW229964   0.163   1.956   3.044
 9689SOL     OW29965   2.860   6.184   6.581
 9689SOL    HW129966   2.884   6.156   6.488
 9689SOL    HW229967   2.765   6.160   6.599
 9690SOL     OW29968   5.815   4.877   0.379
 9690SOL    HW129969   5.816   4.876   0.279
 9690SOL    HW229970   5.852   4.790   0.414
 9691SOL     OW29971   1.874   5.236   2.002
 9691SOL    HW129972   1.963   5.239   2.049
 9691SOL    HW229973   1.846   5.141   1.990
 9692SOL     OW29974   2.855   5.215   1.914
 9692SOL    HW129975   2.909   5.267   1.848
 9692SOL    HW229976   2.782   5.273   1.951
 9693SOL     OW29977   0.013   5.954   1.638
 9693SOL    HW129978   6.975   5.933   1.558
 9693SOL    HW229979   0.088   5.888   1.645
 9694SOL     OW29980   1.476   2.561   0.366
 9694SOL    HW129981   1.398   2.610   0.403
 9694SOL    HW229982   1.536   2.532   0.440
 9695SOL     OW29983   6.318   3.829   1.050
 9695SOL    HW129984   6.314   3.862   1.145
 9695SOL    HW229985   6.233   3.779   1.029
 9696SOL     OW29986   3.889   2.739   1.718
 9696SOL    HW129987   3.883   2.814   1.785
 9696SOL    HW229988   3.817   2.673   1.736
 9697SOL     OW29989   0.631   4.760   6.879
 9697SOL    HW129990   0.703   4.773   6.948
 9697SOL    HW229991   0.660   4.692   6.812
 9698SOL     OW29992   6.013   0.846   5.209
 9698SOL    HW129993   6.019   0.751   5.240
 9698SOL    HW229994   5.922   0.864   5.172
 9699SOL     OW29995   1.115   3.536   6.563
 9699SOL    HW129996   1.151   3.615   6.614
 9699SOL    HW229997   1.015   3.540   6.562
 9700SOL     OW29998   3.259   4.745   5.841
 9700SOL    HW129999   3.298   4.753   5.932
 9700SOL    HW230000   3.232   4.836   5.808
 9701SOL     OW30001   4.068   5.373   4.727
 9701SOL    HW130002   4.109   5.404   4.813
 9701SOL    HW230003   4.086   5.275   4.715
 9702SOL     OW30004   5.143   1.335   0.881
 9702SOL    HW130005   5.113   1.241   0.870
 9702SOL    HW230006   5.228   1.337   0.934
 9703SOL     OW30007   3.009   5.877   4.530
 9703SOL    HW130008   3.104   5.850   4.548
 9703SOL    HW230009   2.983   5.846   4.439
 9704SOL     OW30010   3.450   6.743   2.715
 9704SOL    HW130011   3.384   6.680   2.757
 9704SOL    HW230012   3.492   6.698   2.635
 9705SOL     OW30013   3.874   4.528   0.800
 9705SOL    HW130014   3.787   4.574   0.819
 9705SOL    HW230015   3.893   4.531   0.702
 9706SOL     OW30016   6.300   2.847   2.004
 9706SOL    HW130017   6.211   2.821   1.966
 9706SOL    HW230018   6.366   2.859   1.930
 9707SOL     OW30019   1.099   4.016   2.506
 9707SOL    HW130020   1.078   3.982   2.598
 9707SOL    HW230021   1.069   3.949   2.438
 9708SOL     OW30022   2.196   1.818   3.898
 9708SOL    HW130023   2.290   1.844   3.874
 9708SOL    HW230024   2.152   1.893   3.946
 9709SOL     OW30025   1.182   5.954   3.409
 9709SOL    HW130026   1.280   5.944   3.390
 9709SOL    HW230027   1.165   5.938   3.506
 9710SOL     OW30028   0.141   1.428   3.191
 9710SOL    HW130029   0.084   1.395   3.266
 9710SOL    HW230030   0.176   1.350   3.139
 9711SOL     OW30031   1.760   3.297   5.916
 9711SOL    HW130032   1.835   3.319   5.854
 9711SOL    HW230033   1.727   3.380   5.960
 9712SOL     OW30034   5.397   1.901   4.525
 9712SOL    HW130035   5.473   1.906   4.460
 9712SOL    HW230036   5.315   1.939   4.484
 9713SOL     OW30037   0.665   4.838   3.621
 9713SOL    HW130038   0.592   4.834   3.553
 9713SOL    HW230039   0.677   4.748   3.662
 9714SOL     OW30040   2.037   2.185   1.641
 9714SOL    HW130041   2.070   2.176   1.735
 9714SOL    HW230042   2.009   2.096   1.607
 9715SOL     OW30043   5.314   5.224   5.014
 9715SOL    HW130044   5.321   5.260   4.921
 9715SOL    HW230045   5.388   5.159   5.030
 9716SOL     OW30046   4.200   1.882   6.414
 9716SOL    HW130047   4.147   1.958   6.376
 9716SOL    HW230048   4.182   1.875   6.512
 9717SOL     OW30049   5.375   5.745   3.888
 9717SOL    HW130050   5.462   5.792   3.904
 9717SOL    HW230051   5.355   5.685   3.966
 9718SOL     OW30052   3.941   3.343   1.254
 9718SOL    HW130053   3.992   3.294   1.325
 9718SOL    HW230054   3.888   3.417   1.296
 9719SOL     OW30055   0.373   2.812   6.740
 9719SOL    HW130056   0.463   2.793   6.700
 9719SOL    HW230057   0.301   2.786   6.676
 9720SOL     OW30058   0.289   6.004   2.362
 9720SOL    HW130059   0.353   5.992   2.286
 9720SOL    HW230060   0.340   6.019   2.446
 9721SOL     OW30061   0.039   3.888   2.232
 9721SOL    HW130062   0.039   3.790   2.211
 9721SOL    HW230063   0.010   3.902   2.327
 9722SOL     OW30064   0.495   0.710   3.482
 9722SOL    HW130065   0.483   0.693   3.384
 9722SOL    HW230066   0.416   0.673   3.531
 9723SOL     OW30067   0.532   0.394   3.401
 9723SOL    HW130068   0.566   0.453   3.474
 9723SOL    HW230069   0.432   0.396   3.400
 9724SOL     OW30070   3.084   2.529   1.750
 9724SOL    HW130071   3.009   2.535   1.815
 9724SOL    HW230072   3.128   2.439   1.758
 9725SOL     OW30073   5.174   3.463   6.263
 9725SOL    HW130074   5.266   3.486   6.230
 9725SOL    HW230075   5.157   3.512   6.348
 9726SOL     OW30076   5.066   0.021   4.388
 9726SOL    HW130077   5.091   7.002   4.299
 9726SOL    HW230078   5.077   0.120   4.388
 9727SOL     OW30079   0.648   2.846   5.776
 9727SOL    HW130080   0.613   2.934   5.808
 9727SOL    HW230081   0.735   2.827   5.821
 9728SOL     OW30082   1.996   6.172   6.387
 9728SOL    HW130083   1.946   6.244   6.339
 9728SOL    HW230084   2.023   6.101   6.322
 9729SOL     OW30085   1.019   4.380   3.354
 9729SOL    HW130086   0.967   4.335   3.282
 9729SOL    HW230087   1.067   4.460   3.315
 9730SOL     OW30088   6.773   3.319   2.672
 9730SOL    HW130089   6.719   3.261   2.734
 9730SOL    HW230090   6.818   3.391   2.725
 9731SOL     OW30091   3.683   5.387   0.796
 9731SOL    HW130092   3.648   5.463   0.741
 9731SOL    HW230093   3.632   5.303   0.773
 9732SOL     OW30094   7.008   6.063   2.878
 9732SOL    HW130095   6.978   5.968   2.887
 9732SOL    HW230096   6.950   6.111   2.813
 9733SOL     OW30097   5.215   4.723   4.780
 9733SOL    HW130098   5.188   4.687   4.690
 9733SOL    HW230099   5.314   4.709   4.793
 9734SOL     OW30100   5.230   2.205   3.997
 9734SOL    HW130101   5.227   2.128   3.933
 9734SOL    HW230102   5.317   2.254   3.986
 9735SOL     OW30103   2.284   5.333   1.807
 9735SOL    HW130104   2.352   5.380   1.863
 9735SOL    HW230105   2.195   5.377   1.817
 9736SOL     OW30106   5.142   1.446   7.006
 9736SOL    HW130107   5.238   1.426   0.011
 9736SOL    HW230108   5.107   1.514   0.052
 9737SOL     OW30109   4.089   2.180   4.918
 9737SOL    HW130110   4.147   2.248   4.963
 9737SOL    HW230111   4.145   2.121   4.860
 9738SOL     OW30112   1.786   1.072   3.041
 9738SOL    HW130113   1.791   1.144   2.972
 9738SOL    HW230114   1.691   1.054   3.064
 9739SOL     OW30115   6.763   5.255   1.984
 9739SOL    HW130116   6.676   5.225   2.023
 9739SOL    HW230117   6.834   5.189   2.007
 9740SOL     OW30118   6.489   4.064   2.690
 9740SOL    HW130119   6.466   4.000   2.617
 9740SOL    HW230120   6.407   4.085   2.743
 9741SOL     OW30121   4.290   1.564   2.278
 9741SOL    HW130122   4.328   1.630   2.344
 9741SOL    HW230123   4.352   1.556   2.200
 9742SOL     OW30124   5.463   0.687   3.303
 9742SOL    HW130125   5.380   0.631   3.302
 9742SOL    HW230126   5.442   0.778   3.267
 9743SOL     OW30127   1.960   3.332   5.740
 9743SOL    HW130128   2.003   3.407   5.789
 9743SOL    HW230129   2.012   3.312   5.656
 9744SOL     OW30130   2.014   1.061   1.991
 9744SOL    HW130131   2.090   0.997   2.004
 9744SOL    HW230132   1.941   1.039   2.055
 9745SOL     OW30133   0.639   2.262   5.054
 9745SOL    HW130134   0.714   2.217   5.101
 9745SOL    HW230135   0.617   2.213   4.970
 9746SOL     OW30136   5.400   0.668   5.285
 9746SOL    HW130137   5.334   0.691   5.214
 9746SOL    HW230138   5.493   0.672   5.248
 9747SOL     OW30139   1.142   0.904   0.680
 9747SOL    HW130140   1.053   0.950   0.683
 9747SOL    HW230141   1.185   0.921   0.592
 9748SOL     OW30142   1.476   5.920   4.126
 9748SOL    HW130143   1.495   6.000   4.181
 9748SOL    HW230144   1.377   5.907   4.119
 9749SOL     OW30145   1.511   3.709   4.862
 9749SOL    HW130146   1.431   3.687   4.806
 9749SOL    HW230147   1.507   3.658   4.948
 9750SOL     OW30148   5.113   4.991   3.485
 9750SOL    HW130149   5.138   4.990   3.388
 9750SOL    HW230150   5.124   4.899   3.523
 9751SOL     OW30151   1.552   2.079   0.754
 9751SOL    HW130152   1.564   2.172   0.720
 9751SOL    HW230153   1.603   2.068   0.839
 9752SOL     OW30154   4.019   0.820   5.756
 9752SOL    HW130155   4.068   0.757   5.696
 9752SOL    HW230156   3.927   0.835   5.721
 9753SOL     OW30157   6.538   5.511   5.406
 9753SOL    HW130158   6.595   5.591   5.386
 9753SOL    HW230159   6.468   5.501   5.335
 9754SOL     OW30160   1.407   1.640   0.055
 9754SOL    HW130161   1.415   1.608   6.978
 9754SOL    HW230162   1.495   1.679   0.083
 9755SOL     OW30163   4.063   3.878   4.793
 9755SOL    HW130164   4.053   3.857   4.696
 9755SOL    HW230165   4.103   3.970   4.803
 9756SOL     OW30166   5.746   3.252   0.115
 9756SOL    HW130167   5.755   3.295   0.205
 9756SOL    HW230168   5.655   3.272   0.078
 9757SOL     OW30169   5.646   2.654   3.672
 9757SOL    HW130170   5.694   2.663   3.759
 9757SOL    HW230171   5.589   2.734   3.656
 9758SOL     OW30172   2.404   0.718   0.032
 9758SOL    HW130173   2.353   0.731   6.965
 9758SOL    HW230174   2.372   0.783   0.101
 9759SOL     OW30175   2.573   6.025   1.437
 9759SOL    HW130176   2.599   5.978   1.353
 9759SOL    HW230177   2.573   6.123   1.422
 9760SOL     OW30178   5.384   4.887   5.850
 9760SOL    HW130179   5.463   4.827   5.835
 9760SOL    HW230180   5.374   4.950   5.773
 9761SOL     OW30181   5.239   5.271   1.831
 9761SOL    HW130182   5.247   5.369   1.815
 9761SOL    HW230183   5.200   5.256   1.922
 9762SOL     OW30184   2.716   2.070   5.211
 9762SOL    HW130185   2.798   2.124   5.195
 9762SOL    HW230186   2.715   2.037   5.305
 9763SOL     OW30187   3.561   1.227   1.714
 9763SOL    HW130188   3.549   1.268   1.804
 9763SOL    HW230189   3.473   1.192   1.681
 9764SOL     OW30190   1.551   2.476   2.935
 9764SOL    HW130191   1.563   2.497   2.838
 9764SOL    HW230192   1.454   2.458   2.954
 9765SOL     OW30193   0.294   1.945   6.007
 9765SOL    HW130194   0.269   1.972   6.100
 9765SOL    HW230195   0.350   1.862   6.010
 9766SOL     OW30196   2.932   0.660   2.954
 9766SOL    HW130197   2.930   0.561   2.971
 9766SOL    HW230198   2.846   0.688   2.913
 9767SOL     OW30199   5.211   0.763   5.083
 9767SOL    HW130200   5.112   0.750   5.072
 9767SOL    HW230201   5.251   0.787   4.995
 9768SOL     OW30202   4.735   1.996   2.347
 9768SOL    HW130203   4.695   2.008   2.437
 9768SOL    HW230204   4.806   2.065   2.333
 9769SOL     OW30205   1.268   2.053   1.346
 9769SOL    HW130206   1.333   2.106   1.401
 9769SOL    HW230207   1.276   2.080   1.250
 9770SOL     OW30208   5.320   5.154   6.002
 9770SOL    HW130209   5.330   5.054   6.002
 9770SOL    HW230210   5.307   5.186   6.096
 9771SOL     OW30211   4.440   5.304   6.175
 9771SOL    HW130212   4.481   5.371   6.237
 9771SOL    HW230213   4.373   5.249   6.225
 9772SOL     OW30214   6.912   0.344   2.338
 9772SOL    HW130215   6.964   0.429   2.347
 9772SOL    HW230216   6.942   0.278   2.408
 9773SOL     OW30217   5.748   5.457   3.513
 9773SOL    HW130218   5.767   5.555   3.511
 9773SOL    HW230219   5.649   5.443   3.519
 9774SOL     OW30220   6.020   5.033   4.128
 9774SOL    HW130221   6.059   5.081   4.049
 9774SOL    HW230222   6.053   5.076   4.213
 9775SOL     OW30223   1.650   2.559   4.380
 9775SOL    HW130224   1.582   2.496   4.417
 9775SOL    HW230225   1.729   2.563   4.442
 9776SOL     OW30226   6.556   5.746   4.649
 9776SOL    HW130227   6.638   5.703   4.612
 9776SOL    HW230228   6.507   5.792   4.575
 9777SOL     OW30229   5.322   4.248   5.834
 9777SOL    HW130230   5.243   4.218   5.888
 9777SOL    HW230231   5.381   4.170   5.814
 9778SOL     OW30232   4.978   6.544   2.747
 9778SOL    HW130233   4.893   6.594   2.763
 9778SOL    HW230234   4.993   6.535   2.648
 9779SOL     OW30235   3.071   1.280   5.464
 9779SOL    HW130236   3.001   1.248   5.528
 9779SOL    HW230237   3.026   1.327   5.388
 9780SOL     OW30238   2.627   3.384   0.788
 9780SOL    HW130239   2.642   3.350   0.695
 9780SOL    HW230240   2.611   3.307   0.850
 9781SOL     OW30241   2.636   4.743   5.205
 9781SOL    HW130242   2.621   4.839   5.184
 9781SOL    HW230243   2.707   4.706   5.144
 9782SOL     OW30244   6.226   0.358   1.677
 9782SOL    HW130245   6.283   0.310   1.744
 9782SOL    HW230246   6.161   0.417   1.725
 9783SOL     OW30247   5.940   1.955   2.300
 9783SOL    HW130248   5.920   1.868   2.256
 9783SOL    HW230249   5.947   1.941   2.399
 9784SOL     OW30250   4.536   1.439   3.170
 9784SOL    HW130251   4.459   1.378   3.192
 9784SOL    HW230252   4.503   1.533   3.164
 9785SOL     OW30253   0.005   2.903   2.563
 9785SOL    HW130254   6.987   2.840   2.494
 9785SOL    HW230255   0.093   2.939   2.532
 9786SOL     OW30256   2.311   5.467   5.506
 9786SOL    HW130257   2.283   5.378   5.468
 9786SOL    HW230258   2.333   5.456   5.602
 9787SOL     OW30259   4.893   4.016   1.931
 9787SOL    HW130260   4.985   4.004   1.892
 9787SOL    HW230261   4.889   4.104   1.980
 9788SOL     OW30262   6.353   0.556   4.764
 9788SOL    HW130263   6.447   0.572   4.735
 9788SOL    HW230264   6.332   0.616   4.841
 9789SOL     OW30265   2.422   5.573   5.249
 9789SOL    HW130266   2.404   5.559   5.347
 9789SOL    HW230267   2.520   5.587   5.235
 9790SOL     OW30268   5.640   1.878   4.373
 9790SOL    HW130269   5.605   1.844   4.286
 9790SOL    HW230270   5.727   1.832   4.394
 9791SOL     OW30271   1.135   1.231   1.746
 9791SOL    HW130272   1.208   1.276   1.694
 9791SOL    HW230273   1.172   1.154   1.797
 9792SOL     OW30274   4.343   4.572   1.167
 9792SOL    HW130275   4.261   4.604   1.215
 9792SOL    HW230276   4.420   4.630   1.192
 9793SOL     OW30277   5.737   5.685   2.029
 9793SOL    HW130278   5.722   5.730   2.117
 9793SOL    HW230279   5.807   5.735   1.978
 9794SOL     OW30280   5.126   3.009   6.350
 9794SOL    HW130281   5.118   2.910   6.343
 9794SOL    HW230282   5.050   3.052   6.302
 9795SOL     OW30283   1.682   3.322   3.600
 9795SOL    HW130284   1.742   3.340   3.522
 9795SOL    HW230285   1.726   3.353   3.684
 9796SOL     OW30286   2.728   5.280   0.274
 9796SOL    HW130287   2.827   5.268   0.281
 9796SOL    HW230288   2.696   5.246   0.186
 9797SOL     OW30289   4.757   3.379   6.136
 9797SOL    HW130290   4.771   3.472   6.171
 9797SOL    HW230291   4.795   3.371   6.044
 9798SOL     OW30292   2.975   0.949   1.078
 9798SOL    HW130293   2.959   1.020   1.146
 9798SOL    HW230294   3.072   0.946   1.054
 9799SOL     OW30295   2.865   3.486   2.555
 9799SOL    HW130296   2.946   3.539   2.531
 9799SOL    HW230297   2.859   3.476   2.654
 9800SOL     OW30298   4.451   5.545   6.755
 9800SOL    HW130299   4.372   5.565   6.697
 9800SOL    HW230300   4.426   5.477   6.824
 9801SOL     OW30301   3.680   6.036   6.857
 9801SOL    HW130302   3.650   6.112   6.800
 9801SOL    HW230303   3.761   6.063   6.909
 9802SOL     OW30304   0.381   3.497   1.069
 9802SOL    HW130305   0.320   3.513   1.146
 9802SOL    HW230306   0.333   3.447   0.998
 9803SOL     OW30307   5.985   0.556   6.709
 9803SOL    HW130308   5.895   0.599   6.711
 9803SOL    HW230309   6.055   0.625   6.727
 9804SOL     OW30310   6.117   5.338   4.604
 9804SOL    HW130311   6.170   5.380   4.531
 9804SOL    HW230312   6.141   5.380   4.691
 9805SOL     OW30313   1.779   5.436   6.909
 9805SOL    HW130314   1.827   5.443   6.821
 9805SOL    HW230315   1.831   5.486   6.978
 9806SOL     OW30316   0.234   2.497   2.456
 9806SOL    HW130317   0.175   2.561   2.506
 9806SOL    HW230318   0.184   2.413   2.438
 9807SOL     OW30319   3.947   2.251   0.047
 9807SOL    HW130320   3.911   2.178   0.106
 9807SOL    HW230321   3.873   2.313   0.022
 9808SOL     OW30322   0.120   1.839   4.330
 9808SOL    HW130323   0.031   1.859   4.371
 9808SOL    HW230324   0.152   1.750   4.362
 9809SOL     OW30325   0.207   1.607   4.412
 9809SOL    HW130326   0.165   1.541   4.474
 9809SOL    HW230327   0.304   1.585   4.401
 9810SOL     OW30328   3.158   0.980   3.266
 9810SOL    HW130329   3.062   1.008   3.256
 9810SOL    HW230330   3.186   0.927   3.187
 9811SOL     OW30331   6.815   6.654   2.964
 9811SOL    HW130332   6.718   6.632   2.975
 9811SOL    HW230333   6.827   6.753   2.964
 9812SOL     OW30334   4.929   2.512   6.146
 9812SOL    HW130335   4.881   2.481   6.228
 9812SOL    HW230336   4.990   2.440   6.114
 9813SOL     OW30337   6.911   4.662   0.331
 9813SOL    HW130338   7.004   4.662   0.293
 9813SOL    HW230339   6.846   4.632   0.261
 9814SOL     OW30340   0.122   6.818   6.040
 9814SOL    HW130341   0.173   6.844   6.122
 9814SOL    HW230342   0.055   6.748   6.063
 9815SOL     OW30343   5.607   3.435   1.797
 9815SOL    HW130344   5.676   3.383   1.847
 9815SOL    HW230345   5.637   3.529   1.785
 9816SOL     OW30346   6.301   0.231   6.847
 9816SOL    HW130347   6.346   0.168   6.910
 9816SOL    HW230348   6.310   0.324   6.881
 9817SOL     OW30349   3.048   6.098   0.243
 9817SOL    HW130350   3.117   6.063   0.180
 9817SOL    HW230351   2.996   6.171   0.198
 9818SOL     OW30352   0.898   6.907   3.637
 9818SOL    HW130353   0.816   6.965   3.645
 9818SOL    HW230354   0.969   6.942   3.699
 9819SOL     OW30355   6.377   3.748   5.107
 9819SOL    HW130356   6.358   3.843   5.133
 9819SOL    HW230357   6.317   3.722   5.032
 9820SOL     OW30358   3.495   1.966   6.394
 9820SOL    HW130359   3.464   2.008   6.479
 9820SOL    HW230360   3.592   1.985   6.380
 9821SOL     OW30361   4.569   2.618   1.724
 9821SOL    HW130362   4.622   2.702   1.737
 9821SOL    HW230363   4.544   2.610   1.627
 9822SOL     OW30364   3.341   6.280   5.135
 9822SOL    HW130365   3.274   6.233   5.078
 9822SOL    HW230366   3.338   6.241   5.228
 9823SOL     OW30367   1.631   0.492   3.304
 9823SOL    HW130368   1.715   0.460   3.348
 9823SOL    HW230369   1.565   0.417   3.298
 9824SOL     OW30370   0.890   5.998   5.155
 9824SOL    HW130371   0.807   5.993   5.210
 9824SOL    HW230372   0.967   6.022   5.214
 9825SOL     OW30373   5.419   5.979   6.305
 9825SOL    HW130374   5.331   6.012   6.270
 9825SOL    HW230375   5.468   6.056   6.347
 9826SOL     OW30376   2.410   6.744   5.710
 9826SOL    HW130377   2.322   6.777   5.744
 9826SOL    HW230378   2.419   6.646   5.729
 9827SOL     OW30379   1.640   5.685   1.864
 9827SOL    HW130380   1.698   5.720   1.791
 9827SOL    HW230381   1.658   5.588   1.878
 9828SOL     OW30382   3.503   2.115   5.016
 9828SOL    HW130383   3.569   2.140   4.945
 9828SOL    HW230384   3.417   2.088   4.973
 9829SOL     OW30385   4.729   5.512   5.112
 9829SOL    HW130386   4.789   5.438   5.144
 9829SOL    HW230387   4.734   5.519   5.013
 9830SOL     OW30388   6.112   2.325   2.365
 9830SOL    HW130389   6.149   2.297   2.453
 9830SOL    HW230390   6.154   2.412   2.337
 9831SOL     OW30391   0.533   3.953   2.061
 9831SOL    HW130392   0.467   3.931   2.133
 9831SOL    HW230393   0.496   3.925   1.972
 9832SOL     OW30394   4.538   4.551   4.787
 9832SOL    HW130395   4.464   4.529   4.851
 9832SOL    HW230396   4.563   4.468   4.736
 9833SOL     OW30397   3.299   4.115   4.053
 9833SOL    HW130398   3.394   4.133   4.027
 9833SOL    HW230399   3.246   4.093   3.972
 9834SOL     OW30400   2.109   5.600   5.355
 9834SOL    HW130401   2.163   5.564   5.432
 9834SOL    HW230402   2.134   5.551   5.272
 9835SOL     OW30403   3.442   4.178   4.281
 9835SOL    HW130404   3.373   4.176   4.209
 9835SOL    HW230405   3.400   4.159   4.369
 9836SOL     OW30406   0.278   3.754   5.579
 9836SOL    HW130407   0.295   3.767   5.677
 9836SOL    HW230408   0.344   3.689   5.543
 9837SOL     OW30409   5.450   2.209   2.777
 9837SOL    HW130410   5.473   2.189   2.681
 9837SOL    HW230411   5.369   2.157   2.803
 9838SOL     OW30412   1.107   6.833   1.703
 9838SOL    HW130413   1.024   6.868   1.746
 9838SOL    HW230414   1.093   6.738   1.675
 9839SOL     OW30415   4.402   0.848   2.753
 9839SOL    HW130416   4.471   0.791   2.709
 9839SOL    HW230417   4.426   0.858   2.850
 9840SOL     OW30418   6.090   1.169   0.260
 9840SOL    HW130419   5.992   1.151   0.253
 9840SOL    HW230420   6.120   1.222   0.181
 9841SOL     OW30421   0.237   6.367   4.098
 9841SOL    HW130422   0.305   6.337   4.031
 9841SOL    HW230423   0.283   6.398   4.181
 9842SOL     OW30424   2.675   2.142   6.452
 9842SOL    HW130425   2.583   2.106   6.433
 9842SOL    HW230426   2.669   2.240   6.469
 9843SOL     OW30427   0.695   0.104   1.216
 9843SOL    HW130428   0.667   0.190   1.258
 9843SOL    HW230429   0.764   0.060   1.274
 9844SOL     OW30430   5.076   6.863   4.150
 9844SOL    HW130431   5.084   6.769   4.184
 9844SOL    HW230432   5.154   6.883   4.090
 9845SOL     OW30433   1.897   3.585   1.523
 9845SOL    HW130434   1.831   3.514   1.501
 9845SOL    HW230435   1.850   3.662   1.566
 9846SOL     OW30436   5.522   1.946   0.831
 9846SOL    HW130437   5.437   1.950   0.779
 9846SOL    HW230438   5.568   2.035   0.828
 9847SOL     OW30439   4.066   3.909   0.230
 9847SOL    HW130440   4.072   3.902   0.329
 9847SOL    HW230441   4.066   4.005   0.203
 9848SOL     OW30442   3.529   3.679   5.251
 9848SOL    HW130443   3.601   3.747   5.240
 9848SOL    HW230444   3.440   3.720   5.232
 9849SOL     OW30445   0.964   1.288   4.694
 9849SOL    HW130446   0.866   1.291   4.677
 9849SOL    HW230447   0.983   1.310   4.789
 9850SOL     OW30448   0.863   0.516   4.578
 9850SOL    HW130449   0.929   0.446   4.606
 9850SOL    HW230450   0.910   0.586   4.525
 9851SOL     OW30451   3.821   4.874   4.394
 9851SOL    HW130452   3.916   4.849   4.414
 9851SOL    HW230453   3.776   4.800   4.344
 9852SOL     OW30454   2.074   0.845   0.547
 9852SOL    HW130455   2.161   0.836   0.596
 9852SOL    HW230456   2.091   0.867   0.451
 9853SOL     OW30457   6.698   4.502   3.887
 9853SOL    HW130458   6.669   4.475   3.796
 9853SOL    HW230459   6.623   4.549   3.934
 9854SOL     OW30460   0.882   5.352   6.052
 9854SOL    HW130461   0.796   5.403   6.048
 9854SOL    HW230462   0.865   5.256   6.032
 9855SOL     OW30463   1.717   4.481   1.554
 9855SOL    HW130464   1.771   4.436   1.626
 9855SOL    HW230465   1.661   4.413   1.507
 9856SOL     OW30466   5.698   4.030   3.401
 9856SOL    HW130467   5.731   3.991   3.315
 9856SOL    HW230468   5.715   4.128   3.402
 9857SOL     OW30469   3.771   0.877   4.407
 9857SOL    HW130470   3.785   0.964   4.454
 9857SOL    HW230471   3.859   0.829   4.399
 9858SOL     OW30472   6.811   6.591   2.207
 9858SOL    HW130473   6.740   6.529   2.174
 9858SOL    HW230474   6.851   6.553   2.291
 9859SOL     OW30475   6.852   5.917   3.446
 9859SOL    HW130476   6.916   5.991   3.430
 9859SOL    HW230477   6.900   5.838   3.483
 9860SOL     OW30478   1.294   3.248   4.555
 9860SOL    HW130479   1.329   3.316   4.491
 9860SOL    HW230480   1.195   3.240   4.544
 9861SOL     OW30481   3.494   1.434   4.306
 9861SOL    HW130482   3.527   1.529   4.300
 9861SOL    HW230483   3.465   1.404   4.215
 9862SOL     OW30484   1.269   5.057   0.747
 9862SOL    HW130485   1.182   5.063   0.794
 9862SOL    HW230486   1.256   5.013   0.658
 9863SOL     OW30487   3.597   6.255   0.614
 9863SOL    HW130488   3.525   6.186   0.606
 9863SOL    HW230489   3.686   6.210   0.622
 9864SOL     OW30490   2.637   5.631   5.484
 9864SOL    HW130491   2.679   5.653   5.396
 9864SOL    HW230492   2.645   5.710   5.545
 9865SOL     OW30493   0.406   6.080   5.604
 9865SOL    HW130494   0.398   6.157   5.540
 9865SOL    HW230495   0.314   6.046   5.626
 9866SOL     OW30496   6.077   5.085   4.722
 9866SOL    HW130497   6.084   5.158   4.654
 9866SOL    HW230498   6.064   5.126   4.813
 9867SOL     OW30499   4.739   2.229   2.037
 9867SOL    HW130500   4.806   2.157   2.021
 9867SOL    HW230501   4.767   2.313   1.990
 9868SOL     OW30502   1.950   4.129   3.405
 9868SOL    HW130503   1.856   4.097   3.390
 9868SOL    HW230504   2.000   4.060   3.458
 9869SOL     OW30505   6.709   2.445   0.415
 9869SOL    HW130506   6.722   2.347   0.428
 9869SOL    HW230507   6.737   2.493   0.498
 9870SOL     OW30508   2.876   1.076   2.579
 9870SOL    HW130509   2.854   1.124   2.494
 9870SOL    HW230510   2.795   1.073   2.637
 9871SOL     OW30511   7.007   4.202   4.955
 9871SOL    HW130512   0.081   4.191   4.917
 9871SOL    HW230513   6.955   4.117   4.944
 9872SOL     OW30514   1.364   4.939   5.692
 9872SOL    HW130515   1.282   4.962   5.745
 9872SOL    HW230516   1.336   4.900   5.604
 9873SOL     OW30517   1.102   1.310   5.988
 9873SOL    HW130518   1.130   1.402   6.015
 9873SOL    HW230519   1.180   1.247   6.000
 9874SOL     OW30520   0.681   2.595   4.657
 9874SOL    HW130521   0.681   2.678   4.712
 9874SOL    HW230522   0.772   2.581   4.618
 9875SOL     OW30523   6.550   5.179   0.569
 9875SOL    HW130524   6.633   5.129   0.547
 9875SOL    HW230525   6.562   5.276   0.546
 9876SOL     OW30526   1.445   6.584   3.540
 9876SOL    HW130527   1.526   6.616   3.590
 9876SOL    HW230528   1.470   6.503   3.487
 9877SOL     OW30529   0.624   5.766   4.856
 9877SOL    HW130530   0.553   5.767   4.927
 9877SOL    HW230531   0.628   5.676   4.814
 9878SOL     OW30532   2.319   2.636   6.917
 9878SOL    HW130533   2.394   2.599   6.862
 9878SOL    HW230534   2.252   2.565   6.935
 9879SOL     OW30535   6.676   5.132   6.352
 9879SOL    HW130536   6.736   5.054   6.332
 9879SOL    HW230537   6.596   5.128   6.293
 9880SOL     OW30538   2.839   1.406   6.843
 9880SOL    HW130539   2.786   1.328   6.812
 9880SOL    HW230540   2.824   1.421   6.941
 9881SOL     OW30541   5.815   0.391   4.205
 9881SOL    HW130542   5.850   0.472   4.158
 9881SOL    HW230543   5.738   0.418   4.263
 9882SOL     OW30544   3.303   2.868   5.099
 9882SOL    HW130545   3.312   2.781   5.147
 9882SOL    HW230546   3.367   2.934   5.137
 9883SOL     OW30547   2.410   6.901   1.720
 9883SOL    HW130548   2.357   6.826   1.680
 9883SOL    HW230549   2.360   6.939   1.798
 9884SOL     OW30550   2.714   3.715   5.616
 9884SOL    HW130551   2.718   3.693   5.519
 9884SOL    HW230552   2.777   3.655   5.666
 9885SOL     OW30553   5.735   2.652   4.345
 9885SOL    HW130554   5.740   2.553   4.353
 9885SOL    HW230555   5.783   2.695   4.422
 9886SOL     OW30556   4.129   6.083   0.941
 9886SOL    HW130557   4.127   6.113   0.846
 9886SOL    HW230558   4.054   6.125   0.991
 9887SOL     OW30559   3.254   0.089   6.587
 9887SOL    HW130560   3.244   0.149   6.666
 9887SOL    HW230561   3.328   0.024   6.604
 9888SOL     OW30562   5.923   5.923   2.561
 9888SOL    HW130563   6.001   5.870   2.529
 9888SOL    HW230564   5.941   5.956   2.654
 9889SOL     OW30565   6.949   5.500   3.416
 9889SOL    HW130566   6.912   5.424   3.362
 9889SOL    HW230567   0.025   5.518   3.388
 9890SOL     OW30568   0.049   4.037   2.000
 9890SOL    HW130569   0.094   4.121   2.027
 9890SOL    HW230570   0.045   3.974   2.077
 9891SOL     OW30571   5.896   5.181   0.979
 9891SOL    HW130572   5.805   5.152   1.008
 9891SOL    HW230573   5.950   5.100   0.952
 9892SOL     OW30574   2.137   4.678   4.180
 9892SOL    HW130575   2.179   4.595   4.143
 9892SOL    HW230576   2.205   4.729   4.232
 9893SOL     OW30577   5.083   5.233   3.825
 9893SOL    HW130578   5.058   5.328   3.848
 9893SOL    HW230579   5.042   5.209   3.737
 9894SOL     OW30580   4.379   3.371   6.123
 9894SOL    HW130581   4.401   3.468   6.139
 9894SOL    HW230582   4.280   3.361   6.111
 9895SOL     OW30583   5.303   2.177   6.555
 9895SOL    HW130584   5.250   2.239   6.498
 9895SOL    HW230585   5.400   2.187   6.534
 9896SOL     OW30586   4.372   4.066   0.545
 9896SOL    HW130587   4.368   3.973   0.508
 9896SOL    HW230588   4.336   4.130   0.477
 9897SOL     OW30589   6.248   2.026   3.678
 9897SOL    HW130590   6.317   2.080   3.629
 9897SOL    HW230591   6.192   1.976   3.612
 9898SOL     OW30592   1.178   4.785   5.483
 9898SOL    HW130593   1.241   4.832   5.419
 9898SOL    HW230594   1.089   4.830   5.480
 9899SOL     OW30595   5.271   5.537   1.788
 9899SOL    HW130596   5.338   5.524   1.714
 9899SOL    HW230597   5.291   5.621   1.837
 9900SOL     OW30598   1.444   3.431   3.715
 9900SOL    HW130599   1.530   3.390   3.684
 9900SOL    HW230600   1.386   3.451   3.636
 9901SOL     OW30601   3.270   2.233   5.382
 9901SOL    HW130602   3.240   2.303   5.318
 9901SOL    HW230603   3.202   2.224   5.455
 9902SOL     OW30604   4.764   3.824   0.085
 9902SOL    HW130605   4.707   3.779   0.016
 9902SOL    HW230606   4.842   3.765   0.108
 9903SOL     OW30607   3.839   1.713   1.825
 9903SOL    HW130608   3.825   1.810   1.842
 9903SOL    HW230609   3.757   1.674   1.783
 9904SOL     OW30610   6.519   1.024   1.872
 9904SOL    HW130611   6.533   1.087   1.948
 9904SOL    HW230612   6.490   1.076   1.791
 9905SOL     OW30613   1.142   6.927   5.038
 9905SOL    HW130614   1.165   6.844   5.089
 9905SOL    HW230615   1.211   6.997   5.057
 9906SOL     OW30616   2.847   3.080   6.338
 9906SOL    HW130617   2.798   3.069   6.252
 9906SOL    HW230618   2.830   3.172   6.375
 9907SOL     OW30619   2.190   6.499   2.982
 9907SOL    HW130620   2.235   6.588   2.973
 9907SOL    HW230621   2.152   6.472   2.894
 9908SOL     OW30622   1.440   3.487   5.764
 9908SOL    HW130623   1.466   3.521   5.854
 9908SOL    HW230624   1.375   3.411   5.774
 9909SOL     OW30625   3.967   6.988   2.843
 9909SOL    HW130626   3.893   6.928   2.873
 9909SOL    HW230627   4.055   6.946   2.867
 9910SOL     OW30628   0.070   3.887   1.358
 9910SOL    HW130629   0.087   3.986   1.359
 9910SOL    HW230630   0.080   3.852   1.265
 9911SOL     OW30631   3.443   5.292   3.158
 9911SOL    HW130632   3.456   5.367   3.093
 9911SOL    HW230633   3.347   5.289   3.187
 9912SOL     OW30634   4.960   0.352   1.506
 9912SOL    HW130635   4.889   0.317   1.568
 9912SOL    HW230636   4.930   0.440   1.469
 9913SOL     OW30637   4.779   2.042   2.834
 9913SOL    HW130638   4.762   2.075   2.927
 9913SOL    HW230639   4.822   1.952   2.839
 9914SOL     OW30640   1.701   6.748   4.942
 9914SOL    HW130641   1.643   6.811   4.993
 9914SOL    HW230642   1.744   6.795   4.866
 9915SOL     OW30643   5.229   3.836   4.556
 9915SOL    HW130644   5.267   3.925   4.579
 9915SOL    HW230645   5.143   3.823   4.606
 9916SOL     OW30646   2.240   2.946   1.827
 9916SOL    HW130647   2.141   2.956   1.841
 9916SOL    HW230648   2.267   2.993   1.743
 9917SOL     OW30649   2.708   3.327   5.857
 9917SOL    HW130650   2.636   3.306   5.791
 9917SOL    HW230651   2.776   3.387   5.815
 9918SOL     OW30652   1.657   1.514   5.837
 9918SOL    HW130653   1.658   1.613   5.830
 9918SOL    HW230654   1.750   1.481   5.853
 9919SOL     OW30655   0.423   5.382   3.405
 9919SOL    HW130656   0.400   5.294   3.446
 9919SOL    HW230657   0.344   5.415   3.351
 9920SOL     OW30658   4.347   0.145   1.340
 9920SOL    HW130659   4.333   0.244   1.346
 9920SOL    HW230660   4.438   0.122   1.374
 9921SOL     OW30661   5.438   0.349   3.299
 9921SOL    HW130662   5.430   0.333   3.201
 9921SOL    HW230663   5.533   0.370   3.323
 9922SOL     OW30664   4.448   3.631   0.920
 9922SOL    HW130665   4.518   3.602   0.984
 9922SOL    HW230666   4.478   3.715   0.874
 9923SOL     OW30667   6.398   2.285   6.808
 9923SOL    HW130668   6.310   2.241   6.826
 9923SOL    HW230669   6.421   2.346   6.884
 9924SOL     OW30670   6.691   0.670   3.438
 9924SOL    HW130671   6.741   0.753   3.413
 9924SOL    HW230672   6.593   0.687   3.432
 9925SOL     OW30673   2.409   2.589   4.977
 9925SOL    HW130674   2.339   2.558   5.042
 9925SOL    HW230675   2.370   2.658   4.916
 9926SOL     OW30676   1.454   1.070   0.896
 9926SOL    HW130677   1.441   1.154   0.949
 9926SOL    HW230678   1.544   1.071   0.853
 9927SOL     OW30679   0.735   2.493   2.651
 9927SOL    HW130680   0.819   2.503   2.596
 9927SOL    HW230681   0.756   2.512   2.747
 9928SOL     OW30682   0.200   3.399   3.264
 9928SOL    HW130683   0.186   3.460   3.342
 9928SOL    HW230684   0.112   3.357   3.239
 9929SOL     OW30685   2.450   4.175   0.035
 9929SOL    HW130686   2.491   4.139   0.119
 9929SOL    HW230687   2.492   4.131   6.974
 9930SOL     OW30688   0.028   6.342   6.371
 9930SOL    HW130689   0.059   6.263   6.319
 9930SOL    HW230690   0.090   6.359   6.447
 9931SOL     OW30691   1.641   5.551   5.689
 9931SOL    HW130692   1.543   5.572   5.694
 9931SOL    HW230693   1.661   5.469   5.743
 9932SOL     OW30694   1.406   2.054   0.365
 9932SOL    HW130695   1.458   2.138   0.354
 9932SOL    HW230696   1.456   1.990   0.423
 9933SOL     OW30697   1.080   2.377   4.072
 9933SOL    HW130698   1.088   2.468   4.112
 9933SOL    HW230699   1.131   2.311   4.129
 9934SOL     OW30700   3.743   0.858   5.705
 9934SOL    HW130701   3.728   0.773   5.757
 9934SOL    HW230702   3.665   0.919   5.720
 9935SOL     OW30703   2.768   2.131   1.233
 9935SOL    HW130704   2.677   2.104   1.264
 9935SOL    HW230705   2.761   2.180   1.146
 9936SOL     OW30706   6.000   6.489   6.300
 9936SOL    HW130707   6.043   6.413   6.350
 9936SOL    HW230708   5.978   6.563   6.364
 9937SOL     OW30709   0.509   0.371   3.715
 9937SOL    HW130710   0.589   0.409   3.668
 9937SOL    HW230711   0.451   0.324   3.649
 9938SOL     OW30712   6.501   1.528   3.914
 9938SOL    HW130713   6.534   1.615   3.877
 9938SOL    HW230714   6.494   1.536   4.014
 9939SOL     OW30715   3.170   4.785   1.301
 9939SOL    HW130716   3.082   4.803   1.258
 9939SOL    HW230717   3.158   4.771   1.399
 9940SOL     OW30718   0.587   1.119   3.412
 9940SOL    HW130719   0.499   1.096   3.453
 9940SOL    HW230720   0.580   1.206   3.363
 9941SOL     OW30721   5.160   4.673   6.537
 9941SOL    HW130722   5.103   4.748   6.501
 9941SOL    HW230723   5.246   4.669   6.486
 9942SOL     OW30724   4.718   5.146   3.116
 9942SOL    HW130725   4.628   5.130   3.156
 9942SOL    HW230726   4.710   5.154   3.017
 9943SOL     OW30727   2.558   4.135   6.797
 9943SOL    HW130728   2.643   4.085   6.786
 9943SOL    HW230729   2.513   4.145   6.708
 9944SOL     OW30730   0.592   4.936   6.486
 9944SOL    HW130731   0.549   4.978   6.406
 9944SOL    HW230732   0.654   5.002   6.528
 9945SOL     OW30733   6.161   3.164   6.545
 9945SOL    HW130734   6.113   3.155   6.632
 9945SOL    HW230735   6.190   3.259   6.532
 9946SOL     OW30736   5.377   1.729   2.070
 9946SOL    HW130737   5.308   1.659   2.053
 9946SOL    HW230738   5.365   1.766   2.161
 9947SOL     OW30739   1.276   1.879   3.496
 9947SOL    HW130740   1.340   1.841   3.429
 9947SOL    HW230741   1.274   1.821   3.577
 9948SOL     OW30742   6.371   6.872   4.546
 9948SOL    HW130743   6.410   6.853   4.636
 9948SOL    HW230744   6.292   6.933   4.555
 9949SOL     OW30745   5.674   5.066   3.887
 9949SOL    HW130746   5.762   5.067   3.841
 9949SOL    HW230747   5.688   5.062   3.986
 9950SOL     OW30748   6.410   4.266   5.337
 9950SOL    HW130749   6.360   4.346   5.304
 9950SOL    HW230750   6.436   4.280   5.432
 9951SOL     OW30751   0.555   2.450   2.968
 9951SOL    HW130752   0.581   2.372   3.025
 9951SOL    HW230753   0.636   2.486   2.923
 9952SOL     OW30754   0.555   5.034   2.057
 9952SOL    HW130755   0.496   5.087   2.118
 9952SOL    HW230756   0.628   5.092   2.022
 9953SOL     OW30757   6.004   2.492   3.279
 9953SOL    HW130758   6.067   2.496   3.357
 9953SOL    HW230759   5.910   2.497   3.312
 9954SOL     OW30760   3.690   1.784   5.961
 9954SOL    HW130761   3.707   1.698   5.913
 9954SOL    HW230762   3.761   1.850   5.938
 9955SOL     OW30763   6.366   4.188   0.715
 9955SOL    HW130764   6.288   4.201   0.653
 9955SOL    HW230765   6.436   4.132   0.670
 9956SOL     OW30766   2.131   3.666   3.178
 9956SOL    HW130767   2.174   3.692   3.092
 9956SOL    HW230768   2.043   3.622   3.159
 9957SOL     OW30769   4.722   6.990   0.641
 9957SOL    HW130770   4.762   6.900   0.660
 9957SOL    HW230771   4.649   7.009   0.706
 9958SOL     OW30772   5.463   5.177   0.183
 9958SOL    HW130773   5.392   5.114   0.215
 9958SOL    HW230774   5.422   5.244   0.121
 9959SOL     OW30775   4.503   3.924   0.781
 9959SOL    HW130776   4.535   3.973   0.863
 9959SOL    HW230777   4.460   3.989   0.718
 9960SOL     OW30778   0.730   1.004   0.131
 9960SOL    HW130779   0.749   0.934   0.063
 9960SOL    HW230780   0.648   0.979   0.183
 9961SOL     OW30781   2.891   4.818   1.199
 9961SOL    HW130782   2.808   4.858   1.237
 9961SOL    HW230783   2.935   4.882   1.136
 9962SOL     OW30784   3.399   6.923   1.627
 9962SOL    HW130785   3.384   0.002   1.606
 9962SOL    HW230786   3.317   6.871   1.605
 9963SOL     OW30787   0.768   1.422   6.252
 9963SOL    HW130788   0.743   1.387   6.342
 9963SOL    HW230789   0.796   1.517   6.259
 9964SOL     OW30790   4.357   4.131   6.076
 9964SOL    HW130791   4.305   4.140   5.991
 9964SOL    HW230792   4.303   4.080   6.143
 9965SOL     OW30793   2.858   5.644   4.733
 9965SOL    HW130794   2.867   5.729   4.681
 9965SOL    HW230795   2.932   5.638   4.799
 9966SOL     OW30796   4.111   5.045   2.738
 9966SOL    HW130797   4.110   5.010   2.644
 9966SOL    HW230798   4.132   5.143   2.737
 9967SOL     OW30799   0.487   0.468   2.971
 9967SOL    HW130800   0.585   0.484   2.965
 9967SOL    HW230801   0.469   0.395   3.037
 9968SOL     OW30802   3.671   6.593   0.232
 9968SOL    HW130803   3.667   6.535   0.314
 9968SOL    HW230804   3.641   6.685   0.255
 9969SOL     OW30805   1.905   5.169   3.984
 9969SOL    HW130806   1.865   5.151   4.074
 9969SOL    HW230807   1.949   5.259   3.984
 9970SOL     OW30808   6.184   3.728   1.608
 9970SOL    HW130809   6.235   3.683   1.534
 9970SOL    HW230810   6.100   3.768   1.571
 9971SOL     OW30811   0.727   4.320   2.677
 9971SOL    HW130812   0.650   4.364   2.723
 9971SOL    HW230813   0.762   4.380   2.605
 9972SOL     OW30814   3.233   3.336   6.896
 9972SOL    HW130815   3.206   3.289   6.980
 9972SOL    HW230816   3.163   3.322   6.826
 9973SOL     OW30817   3.271   1.842   3.809
 9973SOL    HW130818   3.182   1.798   3.796
 9973SOL    HW230819   3.324   1.836   3.725
 9974SOL     OW30820   0.939   2.844   2.883
 9974SOL    HW130821   0.983   2.771   2.831
 9974SOL    HW230822   0.843   2.852   2.854
 9975SOL     OW30823   1.804   4.988   6.993
 9975SOL    HW130824   1.741   5.040   6.936
 9975SOL    HW230825   1.818   4.897   6.954
 9976SOL     OW30826   3.204   3.906   6.219
 9976SOL    HW130827   3.265   3.933   6.293
 9976SOL    HW230828   3.233   3.952   6.134
 9977SOL     OW30829   5.469   6.233   5.362
 9977SOL    HW130830   5.401   6.162   5.377
 9977SOL    HW230831   5.536   6.203   5.294
 9978SOL     OW30832   0.809   3.240   6.431
 9978SOL    HW130833   0.871   3.185   6.374
 9978SOL    HW230834   0.838   3.235   6.526
 9979SOL     OW30835   4.281   3.270   5.288
 9979SOL    HW130836   4.359   3.208   5.293
 9979SOL    HW230837   4.314   3.364   5.282
 9980SOL     OW30838   1.979   1.104   0.837
 9980SOL    HW130839   2.074   1.074   0.827
 9980SOL    HW230840   1.950   1.090   0.931
 9981SOL     OW30841   0.350   2.849   1.756
 9981SOL    HW130842   0.402   2.924   1.797
 9981SOL    HW230843   0.400   2.763   1.770
 9982SOL     OW30844   2.298   2.195   5.308
 9982SOL    HW130845   2.390   2.202   5.268
 9982SOL    HW230846   2.230   2.226   5.241
 9983SOL     OW30847   0.674   2.866   1.704
 9983SOL    HW130848   0.692   2.936   1.635
 9983SOL    HW230849   0.617   2.794   1.664
 9984SOL     OW30850   0.169   6.038   1.161
 9984SOL    HW130851   0.265   6.012   1.170
 9984SOL    HW230852   0.163   6.135   1.137
 9985SOL     OW30853   4.088   5.244   0.413
 9985SOL    HW130854   4.056   5.334   0.442
 9985SOL    HW230855   4.017   5.176   0.433
 9986SOL     OW30856   5.263   4.583   0.561
 9986SOL    HW130857   5.251   4.677   0.595
 9986SOL    HW230858   5.305   4.527   0.632
 9987SOL     OW30859   5.131   2.972   1.557
 9987SOL    HW130860   5.074   2.892   1.573
 9987SOL    HW230861   5.075   3.055   1.566
 9988SOL     OW30862   5.350   6.492   4.478
 9988SOL    HW130863   5.445   6.459   4.484
 9988SOL    HW230864   5.321   6.527   4.567
 9989SOL     OW30865   6.358   5.118   2.538
 9989SOL    HW130866   6.292   5.064   2.486
 9989SOL    HW230867   6.449   5.107   2.498
 9990SOL     OW30868   0.323   7.004   3.832
 9990SOL    HW130869   0.354   0.033   3.749
 9990SOL    HW230870   0.272   6.921   3.807
 9991SOL     OW30871   1.574   4.362   3.903
 9991SOL    HW130872   1.528   4.273   3.910
 9991SOL    HW230873   1.672   4.349   3.915
 9992SOL     OW30874   3.468   4.832   0.898
 9992SOL    HW130875   3.388   4.870   0.852
 9992SOL    HW230876   3.445   4.811   0.993
 9993SOL     OW30877   3.914   0.180   4.519
 9993SOL    HW130878   3.981   0.110   4.495
 9993SOL    HW230879   3.826   0.156   4.478
 9994SOL     OW30880   6.612   4.965   4.423
 9994SOL    HW130881   6.691   4.951   4.362
 9994SOL    HW230882   6.628   4.918   4.510
 9995SOL     OW30883   2.947   0.616   5.319
 9995SOL    HW130884   2.996   0.561   5.251
 9995SOL    HW230885   2.907   0.697   5.274
 9996SOL     OW30886   1.893   3.438   0.932
 9996SOL    HW130887   1.858   3.434   1.025
 9996SOL    HW230888   1.961   3.366   0.917
 9997SOL     OW30889   6.168   3.106   3.831
 9997SOL    HW130890   6.175   3.197   3.790
 9997SOL    HW230891   6.216   3.040   3.773
 9998SOL     OW30892   5.020   4.130   2.701
 9998SOL    HW130893   4.979   4.151   2.612
 9998SOL    HW230894   4.950   4.129   2.772
 9999SOL     OW30895   0.752   6.215   4.089
 9999SOL    HW130896   0.764   6.313   4.075
 9999SOL    HW230897   0.829   6.165   4.050
10000SOL     OW30898   5.559   1.792   1.693
10000SOL    HW130899   5.558   1.831   1.785
10000SOL    HW230900   5.471   1.750   1.673
10001SOL     OW30901   3.904   6.251   2.542
10001SOL    HW130902   3.909   6.168   2.597
10001SOL    HW230903   3.985   6.308   2.560
10002SOL     OW30904   2.945   0.986   1.818
10002SOL    HW130905   2.991   1.071   1.843
10002SOL    HW230906   3.007   0.929   1.764
10003SOL     OW30907   1.392   0.989   3.793
10003SOL    HW130908   1.456   1.033   3.730
10003SOL    HW230909   1.345   1.058   3.848
10004SOL     OW30910   6.574   4.526   5.028
10004SOL    HW130911   6.637   4.455   5.059
10004SOL    HW230912   6.604   4.614   5.063
10005SOL     OW30913   1.976   5.577   3.352
10005SOL    HW130914   2.018   5.545   3.267
10005SOL    HW230915   2.030   5.548   3.430
10006SOL     OW30916   5.237   0.532   5.600
10006SOL    HW130917   5.219   0.435   5.617
10006SOL    HW230918   5.200   0.558   5.511
10007SOL     OW30919   1.394   5.476   4.755
10007SOL    HW130920   1.340   5.464   4.839
10007SOL    HW230921   1.332   5.491   4.678
10008SOL     OW30922   4.447   1.766   5.789
10008SOL    HW130923   4.488   1.857   5.797
10008SOL    HW230924   4.413   1.752   5.696
10009SOL     OW30925   0.940   3.806   2.047
10009SOL    HW130926   0.861   3.768   1.998
10009SOL    HW230927   1.003   3.732   2.071
10010SOL     OW30928   2.231   4.865   6.914
10010SOL    HW130929   2.314   4.809   6.906
10010SOL    HW230930   2.160   4.827   6.855
10011SOL     OW30931   1.275   3.310   0.461
10011SOL    HW130932   1.335   3.363   0.520
10011SOL    HW230933   1.304   3.214   0.461
10012SOL     OW30934   5.024   1.348   2.076
10012SOL    HW130935   4.966   1.279   2.032
10012SOL    HW230936   5.100   1.302   2.122
10013SOL     OW30937   0.976   6.012   4.566
10013SOL    HW130938   0.960   5.920   4.600
10013SOL    HW230939   0.894   6.068   4.582
10014SOL     OW30940   0.780   6.933   3.262
10014SOL    HW130941   0.841   6.880   3.321
10014SOL    HW230942   0.782   0.011   3.290
10015SOL     OW30943   3.925   4.356   5.714
10015SOL    HW130944   3.840   4.401   5.685
10015SOL    HW230945   4.002   4.393   5.662
10016SOL     OW30946   2.305   6.664   3.253
10016SOL    HW130947   2.245   6.622   3.320
10016SOL    HW230948   2.291   6.763   3.252
10017SOL     OW30949   2.490   1.621   3.048
10017SOL    HW130950   2.535   1.708   3.030
10017SOL    HW230951   2.469   1.575   2.962
10018SOL     OW30952   6.132   2.767   6.203
10018SOL    HW130953   6.088   2.747   6.290
10018SOL    HW230954   6.088   2.846   6.161
10019SOL     OW30955   0.723   1.642   2.595
10019SOL    HW130956   0.626   1.660   2.582
10019SOL    HW230957   0.740   1.544   2.588
10020SOL     OW30958   6.544   0.511   1.796
10020SOL    HW130959   6.544   0.611   1.792
10020SOL    HW230960   6.501   0.480   1.880
10021SOL     OW30961   1.660   4.059   2.095
10021SOL    HW130962   1.672   3.969   2.136
10021SOL    HW230963   1.597   4.113   2.151
10022SOL     OW30964   2.738   6.193   0.375
10022SOL    HW130965   2.688   6.179   0.289
10022SOL    HW230966   2.676   6.231   0.444
10023SOL     OW30967   2.289   0.186   5.821
10023SOL    HW130968   2.284   0.203   5.919
10023SOL    HW230969   2.384   0.168   5.795
10024SOL     OW30970   1.864   4.473   3.129
10024SOL    HW130971   1.789   4.505   3.071
10024SOL    HW230972   1.827   4.440   3.216
10025SOL     OW30973   1.180   4.199   1.599
10025SOL    HW130974   1.270   4.218   1.640
10025SOL    HW230975   1.108   4.235   1.658
10026SOL     OW30976   5.159   1.390   3.601
10026SOL    HW130977   5.209   1.422   3.681
10026SOL    HW230978   5.178   1.451   3.524
10027SOL     OW30979   1.980   2.039   5.716
10027SOL    HW130980   2.056   2.086   5.762
10027SOL    HW230981   1.899   2.097   5.717
10028SOL     OW30982   4.260   0.718   1.487
10028SOL    HW130983   4.177   0.772   1.494
10028SOL    HW230984   4.319   0.757   1.416
10029SOL     OW30985   0.228   3.237   5.306
10029SOL    HW130986   0.184   3.246   5.395
10029SOL    HW230987   0.210   3.147   5.269
10030SOL     OW30988   2.657   6.772   4.589
10030SOL    HW130989   2.629   6.785   4.684
10030SOL    HW230990   2.577   6.773   4.530
10031SOL     OW30991   3.586   5.232   3.874
10031SOL    HW130992   3.671   5.266   3.915
10031SOL    HW230993   3.603   5.143   3.831
10032SOL     OW30994   2.950   5.900   5.004
10032SOL    HW130995   2.885   5.917   5.078
10032SOL    HW230996   2.913   5.936   4.918
10033SOL     OW30997   4.010   1.599   3.192
10033SOL    HW130998   3.921   1.555   3.208
10033SOL    HW230999   4.001   1.667   3.120
10034SOL     OW31000   2.514   0.638   3.352
10034SOL    HW131001   2.437   0.619   3.291
10034SOL    HW231002   2.562   0.553   3.373
10035SOL     OW31003   6.068   2.939   1.500
10035SOL    HW131004   6.013   2.958   1.581
10035SOL    HW231005   6.055   2.843   1.473
10036SOL     OW31006   6.120   0.767   6.817
10036SOL    HW131007   6.214   0.798   6.832
10036SOL    HW231008   6.069   0.774   6.903
10037SOL     OW31009   6.152   6.930   6.763
10037SOL    HW131010   6.247   6.914   6.734
10037SOL    HW231011   6.109   6.995   6.702
10038SOL     OW31012   4.403   0.177   6.903
10038SOL    HW131013   4.466   0.152   6.830
10038SOL    HW231014   4.456   0.211   6.981
10039SOL     OW31015   5.362   5.213   3.884
10039SOL    HW131016   5.269   5.240   3.859
10039SOL    HW231017   5.367   5.113   3.887
10040SOL     OW31018   3.783   0.319   0.334
10040SOL    HW131019   3.727   0.322   0.251
10040SOL    HW231020   3.847   0.396   0.333
10041SOL     OW31021   0.041   4.806   5.533
10041SOL    HW131022   6.985   4.741   5.520
10041SOL    HW231023   0.129   4.760   5.518
10042SOL     OW31024   0.779   0.917   5.167
10042SOL    HW131025   0.815   0.836   5.122
10042SOL    HW231026   0.680   0.909   5.175
10043SOL     OW31027   1.976   1.150   3.210
10043SOL    HW131028   1.932   1.088   3.145
10043SOL    HW231029   1.924   1.235   3.216
10044SOL     OW31030   1.999   0.964   5.159
10044SOL    HW131031   1.963   0.964   5.066
10044SOL    HW231032   2.009   1.059   5.190
10045SOL     OW31033   4.562   6.928   4.452
10045SOL    HW131034   4.655   6.935   4.416
10045SOL    HW231035   4.514   6.852   4.407
10046SOL     OW31036   6.993   2.521   1.765
10046SOL    HW131037   0.042   2.594   1.781
10046SOL    HW231038   6.922   2.526   1.835
10047SOL     OW31039   6.530   1.338   4.933
10047SOL    HW131040   6.562   1.340   5.028
10047SOL    HW231041   6.465   1.262   4.922
10048SOL     OW31042   3.608   1.700   1.646
10048SOL    HW131043   3.554   1.768   1.696
10048SOL    HW231044   3.548   1.650   1.584
10049SOL     OW31045   2.171   0.864   6.665
10049SOL    HW131046   2.198   0.771   6.642
10049SOL    HW231047   2.231   0.900   6.737
10050SOL     OW31048   5.233   2.637   4.676
10050SOL    HW131049   5.283   2.722   4.693
10050SOL    HW231050   5.224   2.623   4.577
10051SOL     OW31051   6.573   2.808   4.306
10051SOL    HW131052   6.494   2.844   4.356
10051SOL    HW231053   6.540   2.756   4.227
10052SOL     OW31054   1.532   3.434   2.010
10052SOL    HW131055   1.458   3.453   1.946
10052SOL    HW231056   1.619   3.428   1.961
10053SOL     OW31057   3.550   5.334   3.440
10053SOL    HW131058   3.616   5.261   3.459
10053SOL    HW231059   3.474   5.297   3.387
10054SOL     OW31060   4.162   5.687   5.980
10054SOL    HW131061   4.094   5.666   6.051
10054SOL    HW231062   4.253   5.690   6.022
10055SOL     OW31063   6.640   2.321   5.147
10055SOL    HW131064   6.634   2.237   5.200
10055SOL    HW231065   6.724   2.320   5.092
10056SOL     OW31066   6.427   5.066   1.454
10056SOL    HW131067   6.446   4.985   1.398
10056SOL    HW231068   6.500   5.133   1.441
10057SOL     OW31069   4.048   2.047   4.488
10057SOL    HW131070   4.062   1.963   4.540
10057SOL    HW231071   4.080   2.125   4.542
10058SOL     OW31072   6.697   5.303   3.773
10058SOL    HW131073   6.664   5.240   3.843
10058SOL    HW231074   6.692   5.260   3.684
10059SOL     OW31075   5.222   0.163   0.784
10059SOL    HW131076   5.124   0.176   0.794
10059SOL    HW231077   5.271   0.224   0.846
10060SOL     OW31078   2.724   2.217   1.928
10060SOL    HW131079   2.737   2.147   1.999
10060SOL    HW231080   2.804   2.277   1.926
10061SOL     OW31081   5.918   0.781   4.249
10061SOL    HW131082   5.882   0.704   4.195
10061SOL    HW231083   5.879   0.866   4.214
10062SOL     OW31084   5.735   5.908   3.614
10062SOL    HW131085   5.820   5.945   3.651
10062SOL    HW231086   5.660   5.926   3.677
10063SOL     OW31087   1.257   3.167   3.752
10063SOL    HW131088   1.342   3.219   3.745
10063SOL    HW231089   1.187   3.211   3.696
10064SOL     OW31090   4.729   5.705   4.504
10064SOL    HW131091   4.779   5.735   4.422
10064SOL    HW231092   4.708   5.607   4.496
10065SOL     OW31093   1.235   6.695   2.273
10065SOL    HW131094   1.169   6.649   2.213
10065SOL    HW231095   1.207   6.684   2.368
10066SOL     OW31096   0.343   0.212   4.291
10066SOL    HW131097   0.420   0.149   4.282
10066SOL    HW231098   0.377   0.304   4.308
10067SOL     OW31099   4.964   4.914   4.766
10067SOL    HW131100   4.866   4.892   4.772
10067SOL    HW231101   5.017   4.829   4.773
10068SOL     OW31102   5.514   2.787   4.319
10068SOL    HW131103   5.598   2.733   4.312
10068SOL    HW231104   5.533   2.875   4.362
10069SOL     OW31105   2.870   0.982   3.892
10069SOL    HW131106   2.969   0.994   3.884
10069SOL    HW231107   2.845   0.974   3.989
10070SOL     OW31108   0.340   6.292   5.001
10070SOL    HW131109   0.269   6.296   5.071
10070SOL    HW231110   0.429   6.303   5.044
10071SOL     OW31111   4.495   5.512   3.855
10071SOL    HW131112   4.536   5.507   3.764
10071SOL    HW231113   4.459   5.605   3.869
10072SOL     OW31114   0.760   6.145   3.717
10072SOL    HW131115   0.688   6.077   3.722
10072SOL    HW231116   0.784   6.162   3.621
10073SOL     OW31117   6.095   4.731   5.307
10073SOL    HW131118   6.169   4.793   5.279
10073SOL    HW231119   6.130   4.664   5.372
10074SOL     OW31120   1.472   6.784   5.941
10074SOL    HW131121   1.524   6.739   5.869
10074SOL    HW231122   1.374   6.767   5.929
10075SOL     OW31123   1.314   2.363   2.981
10075SOL    HW131124   1.262   2.383   3.064
10075SOL    HW231125   1.292   2.271   2.949
10076SOL     OW31126   4.825   0.397   4.540
10076SOL    HW131127   4.771   0.461   4.594
10076SOL    HW231128   4.903   0.445   4.500
10077SOL     OW31129   3.971   2.340   6.395
10077SOL    HW131130   3.986   2.389   6.480
10077SOL    HW231131   3.889   2.376   6.349
10078SOL     OW31132   6.307   6.389   4.615
10078SOL    HW131133   6.282   6.351   4.704
10078SOL    HW231134   6.369   6.467   4.628
10079SOL     OW31135   1.264   2.838   1.550
10079SOL    HW131136   1.238   2.928   1.586
10079SOL    HW231137   1.340   2.848   1.486
10080SOL     OW31138   2.229   2.523   0.615
10080SOL    HW131139   2.213   2.602   0.674
10080SOL    HW231140   2.292   2.549   0.541
10081SOL     OW31141   0.838   0.542   6.409
10081SOL    HW131142   0.746   0.542   6.369
10081SOL    HW231143   0.879   0.633   6.397
10082SOL     OW31144   6.371   2.079   1.634
10082SOL    HW131145   6.302   2.048   1.699
10082SOL    HW231146   6.328   2.131   1.560
10083SOL     OW31147   4.802   1.002   4.001
10083SOL    HW131148   4.733   1.054   3.952
10083SOL    HW231149   4.771   0.984   4.094
10084SOL     OW31150   3.062   0.706   6.160
10084SOL    HW131151   3.047   0.805   6.157
10084SOL    HW231152   3.160   0.688   6.162
10085SOL     OW31153   0.838   4.800   3.031
10085SOL    HW131154   0.817   4.730   2.962
10085SOL    HW231155   0.834   4.890   2.989
10086SOL     OW31156   6.480   4.734   2.235
10086SOL    HW131157   6.488   4.791   2.153
10086SOL    HW231158   6.571   4.720   2.274
10087SOL     OW31159   0.978   1.018   4.404
10087SOL    HW131160   0.994   1.117   4.393
10087SOL    HW231161   0.890   1.003   4.449
10088SOL     OW31162   0.079   6.980   4.941
10088SOL    HW131163   7.016   0.014   4.913
10088SOL    HW231164   0.138   6.964   4.861
10089SOL     OW31165   2.688   1.635   2.742
10089SOL    HW131166   2.690   1.561   2.675
10089SOL    HW231167   2.632   1.710   2.707
10090SOL     OW31168   1.015   4.533   0.619
10090SOL    HW131169   1.002   4.512   0.522
10090SOL    HW231170   0.941   4.494   0.673
10091SOL     OW31171   1.014   3.602   4.647
10091SOL    HW131172   1.013   3.611   4.547
10091SOL    HW231173   0.934   3.550   4.676
10092SOL     OW31174   1.906   3.843   5.391
10092SOL    HW131175   1.871   3.750   5.389
10092SOL    HW231176   1.864   3.897   5.318
10093SOL     OW31177   0.420   5.032   5.070
10093SOL    HW131178   0.383   4.959   5.013
10093SOL    HW231179   0.518   5.040   5.054
10094SOL     OW31180   2.405   0.408   2.587
10094SOL    HW131181   2.402   0.361   2.499
10094SOL    HW231182   2.342   0.362   2.651
10095SOL     OW31183   6.798   1.666   5.611
10095SOL    HW131184   6.783   1.728   5.534
10095SOL    HW231185   6.819   1.574   5.575
10096SOL     OW31186   6.986   5.232   2.905
10096SOL    HW131187   0.013   5.150   2.942
10096SOL    HW231188   6.992   5.306   2.972
10097SOL     OW31189   1.124   1.503   0.804
10097SOL    HW131190   1.100   1.439   0.732
10097SOL    HW231191   1.109   1.597   0.772
10098SOL     OW31192   1.623   5.888   5.802
10098SOL    HW131193   1.552   5.958   5.804
10098SOL    HW231194   1.674   5.895   5.717
10099SOL     OW31195   6.804   3.500   5.583
10099SOL    HW131196   6.759   3.563   5.520
10099SOL    HW231197   6.788   3.406   5.553
10100SOL     OW31198   4.523   0.784   5.048
10100SOL    HW131199   4.551   0.761   5.142
10100SOL    HW231200   4.598   0.765   4.985
10101SOL     OW31201   0.109   4.880   2.407
10101SOL    HW131202   0.075   4.874   2.313
10101SOL    HW231203   0.197   4.834   2.413
10102SOL     OW31204   3.269   1.101   2.330
10102SOL    HW131205   3.351   1.158   2.336
10102SOL    HW231206   3.259   1.068   2.236
10103SOL     OW31207   2.760   1.235   5.195
10103SOL    HW131208   2.829   1.300   5.227
10103SOL    HW231209   2.748   1.243   5.096
10104SOL     OW31210   0.643   4.343   5.635
10104SOL    HW131211   0.731   4.378   5.667
10104SOL    HW231212   0.579   4.338   5.711
10105SOL     OW31213   1.352   1.403   6.430
10105SOL    HW131214   1.451   1.399   6.434
10105SOL    HW231215   1.315   1.311   6.415
10106SOL     OW31216   5.062   5.228   0.678
10106SOL    HW131217   5.064   5.322   0.713
10106SOL    HW231218   5.061   5.164   0.755
10107SOL     OW31219   6.044   0.888   5.739
10107SOL    HW131220   6.131   0.916   5.698
10107SOL    HW231221   5.996   0.826   5.678
10108SOL     OW31222   6.258   6.342   0.198
10108SOL    HW131223   6.275   6.317   0.293
10108SOL    HW231224   6.218   6.264   0.150
10109SOL     OW31225   4.498   6.013   2.921
10109SOL    HW131226   4.420   6.052   2.970
10109SOL    HW231227   4.579   6.071   2.937
10110SOL     OW31228   3.509   6.594   5.424
10110SOL    HW131229   3.524   6.683   5.380
10110SOL    HW231230   3.536   6.521   5.360
10111SOL     OW31231   6.869   3.310   3.819
10111SOL    HW131232   6.776   3.308   3.857
10111SOL    HW231233   6.864   3.331   3.722
10112SOL     OW31234   5.550   3.700   5.518
10112SOL    HW131235   5.531   3.789   5.559
10112SOL    HW231236   5.549   3.708   5.418
10113SOL     OW31237   3.859   1.043   0.037
10113SOL    HW131238   3.865   0.946   0.057
10113SOL    HW231239   3.911   1.094   0.105
10114SOL     OW31240   5.396   1.694   0.476
10114SOL    HW131241   5.361   1.646   0.395
10114SOL    HW231242   5.370   1.643   0.558
10115SOL     OW31243   1.787   2.371   3.462
10115SOL    HW131244   1.733   2.313   3.523
10115SOL    HW231245   1.727   2.412   3.393
10116SOL     OW31246   0.988   6.768   0.778
10116SOL    HW131247   1.035   6.688   0.815
10116SOL    HW231248   1.017   6.850   0.827
10117SOL     OW31249   6.161   0.082   4.820
10117SOL    HW131250   6.205   0.166   4.788
10117SOL    HW231251   6.106   0.103   4.902
10118SOL     OW31252   0.507   4.800   2.883
10118SOL    HW131253   0.599   4.763   2.868
10118SOL    HW231254   0.467   4.827   2.795
10119SOL     OW31255   2.150   0.112   4.457
10119SOL    HW131256   2.187   0.110   4.364
10119SOL    HW231257   2.138   0.018   4.490
10120SOL     OW31258   0.875   3.428   3.814
10120SOL    HW131259   0.862   3.453   3.910
10120SOL    HW231260   0.866   3.329   3.803
10121SOL     OW31261   6.997   4.609   5.166
10121SOL    HW131262   0.059   4.666   5.180
10121SOL    HW231263   6.926   4.661   5.117
10122SOL     OW31264   5.502   3.124   6.869
10122SOL    HW131265   5.525   3.037   6.825
10122SOL    HW231266   5.585   3.180   6.877
10123SOL     OW31267   0.682   6.031   0.829
10123SOL    HW131268   0.609   6.000   0.891
10123SOL    HW231269   0.682   6.131   0.825
10124SOL     OW31270   2.443   4.443   0.104
10124SOL    HW131271   2.422   4.355   0.063
10124SOL    HW231272   2.539   4.466   0.085
10125SOL     OW31273   1.708   0.672   3.109
10125SOL    HW131274   1.808   0.675   3.107
10125SOL    HW231275   1.678   0.602   3.174
10126SOL     OW31276   5.941   5.684   6.829
10126SOL    HW131277   5.905   5.591   6.835
10126SOL    HW231278   5.883   5.746   6.882
10127SOL     OW31279   3.024   5.652   5.577
10127SOL    HW131280   2.967   5.649   5.659
10127SOL    HW231281   3.002   5.575   5.518
10128SOL     OW31282   0.367   1.589   1.171
10128SOL    HW131283   0.351   1.650   1.093
10128SOL    HW231284   0.439   1.627   1.229
10129SOL     OW31285   4.985   2.769   3.807
10129SOL    HW131286   4.968   2.670   3.812
10129SOL    HW231287   4.928   2.815   3.875
10130SOL     OW31288   1.504   5.386   2.872
10130SOL    HW131289   1.530   5.397   2.968
10130SOL    HW231290   1.571   5.329   2.826
10131SOL     OW31291   0.728   2.343   2.414
10131SOL    HW131292   0.813   2.301   2.386
10131SOL    HW231293   0.727   2.354   2.514
10132SOL     OW31294   3.231   6.588   2.855
10132SOL    HW131295   3.218   6.541   2.942
10132SOL    HW231296   3.176   6.672   2.854
10133SOL     OW31297   4.053   6.392   3.150
10133SOL    HW131298   3.981   6.333   3.113
10133SOL    HW231299   4.129   6.335   3.184
10134SOL     OW31300   6.181   0.384   3.976
10134SOL    HW131301   6.171   0.483   3.976
10134SOL    HW231302   6.171   0.348   3.883
10135SOL     OW31303   4.853   3.888   2.573
10135SOL    HW131304   4.804   3.975   2.565
10135SOL    HW231305   4.867   3.849   2.482
10136SOL     OW31306   5.894   0.079   3.313
10136SOL    HW131307   5.869   0.105   3.407
10136SOL    HW231308   5.931   7.005   3.312
10137SOL     OW31309   6.697   5.578   4.265
10137SOL    HW131310   6.745   5.508   4.211
10137SOL    HW231311   6.646   5.534   4.338
10138SOL     OW31312   5.373   2.223   0.545
10138SOL    HW131313   5.357   2.138   0.595
10138SOL    HW231314   5.356   2.301   0.606
10139SOL     OW31315   4.079   3.209   2.745
10139SOL    HW131316   4.000   3.237   2.799
10139SOL    HW231317   4.108   3.118   2.773
10140SOL     OW31318   6.589   6.100   5.988
10140SOL    HW131319   6.584   6.078   5.890
10140SOL    HW231320   6.500   6.088   6.030
10141SOL     OW31321   3.043   2.191   3.986
10141SOL    HW131322   2.955   2.190   4.035
10141SOL    HW231323   3.110   2.239   4.042
10142SOL     OW31324   4.995   6.782   5.417
10142SOL    HW131325   5.063   6.855   5.406
10142SOL    HW231326   5.022   6.721   5.491
10143SOL     OW31327   4.418   0.394   1.165
10143SOL    HW131328   4.512   0.424   1.175
10143SOL    HW231329   4.370   0.404   1.253
10144SOL     OW31330   3.738   5.782   5.633
10144SOL    HW131331   3.681   5.717   5.582
10144SOL    HW231332   3.706   5.875   5.616
10145SOL     OW31333   2.641   5.852   5.636
10145SOL    HW131334   2.641   5.817   5.729
10145SOL    HW231335   2.729   5.897   5.617
10146SOL     OW31336   4.014   5.137   5.123
10146SOL    HW131337   4.104   5.175   5.143
10146SOL    HW231338   4.022   5.040   5.101
10147SOL     OW31339   4.864   4.375   4.656
10147SOL    HW131340   4.819   4.460   4.629
10147SOL    HW231341   4.842   4.354   4.751
10148SOL     OW31342   6.184   5.822   0.049
10148SOL    HW131343   6.139   5.889   7.008
10148SOL    HW231344   6.118   5.753   0.078
10149SOL     OW31345   4.729   1.912   0.336
10149SOL    HW131346   4.694   1.837   0.392
10149SOL    HW231347   4.692   1.999   0.369
10150SOL     OW31348   4.652   4.139   0.933
10150SOL    HW131349   4.719   4.148   0.860
10150SOL    HW231350   4.679   4.195   1.011
10151SOL     OW31351   1.651   0.010   6.435
10151SOL    HW131352   1.564   0.057   6.448
10151SOL    HW231353   1.725   0.076   6.429
10152SOL     OW31354   1.566   5.476   3.971
10152SOL    HW131355   1.631   5.421   3.919
10152SOL    HW231356   1.513   5.533   3.909
10153SOL     OW31357   4.304   6.248   3.689
10153SOL    HW131358   4.260   6.203   3.767
10153SOL    HW231359   4.312   6.182   3.614
10154SOL     OW31360   6.414   6.268   5.784
10154SOL    HW131361   6.314   6.268   5.782
10154SOL    HW231362   6.445   6.242   5.876
10155SOL     OW31363   4.206   1.665   5.903
10155SOL    HW131364   4.199   1.714   5.990
10155SOL    HW231365   4.272   1.711   5.844
10156SOL     OW31366   6.148   6.716   1.991
10156SOL    HW131367   6.191   6.790   1.940
10156SOL    HW231368   6.137   6.636   1.932
10157SOL     OW31369   5.882   2.061   5.800
10157SOL    HW131370   5.838   2.051   5.889
10157SOL    HW231371   5.841   1.997   5.735
10158SOL     OW31372   4.886   4.055   0.197
10158SOL    HW131373   4.833   4.090   0.274
10158SOL    HW231374   4.859   3.960   0.179
10159SOL     OW31375   2.847   3.243   6.084
10159SOL    HW131376   2.784   3.250   6.006
10159SOL    HW231377   2.823   3.313   6.152
10160SOL     OW31378   1.191   4.486   2.686
10160SOL    HW131379   1.172   4.523   2.777
10160SOL    HW231380   1.133   4.405   2.671
10161SOL     OW31381   3.603   4.785   0.484
10161SOL    HW131382   3.630   4.876   0.515
10161SOL    HW231383   3.504   4.773   0.495
10162SOL     OW31384   2.590   3.750   0.279
10162SOL    HW131385   2.689   3.767   0.289
10162SOL    HW231386   2.542   3.838   0.277
10163SOL     OW31387   5.709   4.303   6.363
10163SOL    HW131388   5.618   4.343   6.375
10163SOL    HW231389   5.774   4.375   6.337
10164SOL     OW31390   6.252   2.828   4.919
10164SOL    HW131391   6.286   2.743   4.879
10164SOL    HW231392   6.313   2.904   4.896
10165SOL     OW31393   1.038   2.120   3.689
10165SOL    HW131394   1.042   2.045   3.755
10165SOL    HW231395   1.072   2.204   3.731
10166SOL     OW31396   3.775   0.901   1.814
10166SOL    HW131397   3.822   0.980   1.774
10166SOL    HW231398   3.745   0.922   1.907
10167SOL     OW31399   4.308   1.106   6.906
10167SOL    HW131400   4.259   1.143   6.985
10167SOL    HW231401   4.330   1.180   6.842
10168SOL     OW31402   6.693   3.381   4.806
10168SOL    HW131403   6.664   3.470   4.839
10168SOL    HW231404   6.778   3.390   4.755
10169SOL     OW31405   6.602   4.438   3.658
10169SOL    HW131406   6.581   4.533   3.636
10169SOL    HW231407   6.558   4.378   3.591
10170SOL     OW31408   0.658   4.145   5.931
10170SOL    HW131409   0.712   4.134   6.014
10170SOL    HW231410   0.716   4.178   5.857
10171SOL     OW31411   6.373   3.748   6.674
10171SOL    HW131412   6.421   3.725   6.589
10171SOL    HW231413   6.297   3.809   6.654
10172SOL     OW31414   6.119   0.261   3.035
10172SOL    HW131415   6.205   0.211   3.021
10172SOL    HW231416   6.045   0.213   2.986
10173SOL     OW31417   1.688   2.334   1.073
10173SOL    HW131418   1.631   2.415   1.061
10173SOL    HW231419   1.712   2.325   1.170
10174SOL     OW31420   6.012   4.785   2.063
10174SOL    HW131421   6.103   4.789   2.022
10174SOL    HW231422   5.943   4.802   1.993
10175SOL     OW31423   6.699   2.730   3.721
10175SOL    HW131424   6.746   2.642   3.725
10175SOL    HW231425   6.633   2.729   3.646
10176SOL     OW31426   1.243   3.302   5.716
10176SOL    HW131427   1.261   3.230   5.649
10176SOL    HW231428   1.152   3.341   5.700
10177SOL     OW31429   2.881   0.208   0.142
10177SOL    HW131430   2.978   0.225   0.155
10177SOL    HW231431   2.865   0.110   0.136
10178SOL     OW31432   6.441   3.072   4.905
10178SOL    HW131433   6.374   3.144   4.919
10178SOL    HW231434   6.475   3.041   4.994
10179SOL     OW31435   1.073   1.929   6.246
10179SOL    HW131436   1.043   1.844   6.202
10179SOL    HW231437   0.997   1.993   6.250
10180SOL     OW31438   3.217   5.332   6.254
10180SOL    HW131439   3.195   5.236   6.237
10180SOL    HW231440   3.251   5.374   6.170
10181SOL     OW31441   5.165   3.606   2.315
10181SOL    HW131442   5.093   3.537   2.316
10181SOL    HW231443   5.235   3.582   2.247
10182SOL     OW31444   5.767   1.679   1.537
10182SOL    HW131445   5.700   1.739   1.582
10182SOL    HW231446   5.858   1.699   1.571
10183SOL     OW31447   0.872   2.112   6.284
10183SOL    HW131448   0.832   2.165   6.209
10183SOL    HW231449   0.952   2.161   6.320
10184SOL     OW31450   4.892   1.939   6.085
10184SOL    HW131451   4.905   1.903   5.993
10184SOL    HW231452   4.795   1.931   6.111
10185SOL     OW31453   5.072   6.098   0.818
10185SOL    HW131454   5.152   6.105   0.759
10185SOL    HW231455   5.050   6.001   0.834
10186SOL     OW31456   5.752   3.112   3.426
10186SOL    HW131457   5.674   3.170   3.401
10186SOL    HW231458   5.826   3.169   3.462
10187SOL     OW31459   0.817   2.114   1.979
10187SOL    HW131460   0.912   2.084   1.987
10187SOL    HW231461   0.763   2.042   1.935
10188SOL     OW31462   3.735   6.151   0.244
10188SOL    HW131463   3.825   6.134   0.203
10188SOL    HW231464   3.664   6.141   0.175
10189SOL     OW31465   2.367   0.701   5.620
10189SOL    HW131466   2.396   0.607   5.601
10189SOL    HW231467   2.395   0.727   5.712
10190SOL     OW31468   5.140   2.717   1.122
10190SOL    HW131469   5.226   2.666   1.124
10190SOL    HW231470   5.069   2.666   1.169
10191SOL     OW31471   4.803   4.277   0.027
10191SOL    HW131472   4.800   4.250   6.948
10191SOL    HW231473   4.843   4.203   0.081
10192SOL     OW31474   4.296   0.966   5.068
10192SOL    HW131475   4.324   1.055   5.104
10192SOL    HW231476   4.368   0.899   5.086
10193SOL     OW31477   4.357   4.203   1.567
10193SOL    HW131478   4.441   4.190   1.516
10193SOL    HW231479   4.378   4.207   1.665
10194SOL     OW31480   5.942   5.108   4.981
10194SOL    HW131481   6.027   5.073   5.020
10194SOL    HW231482   5.929   5.202   5.010
10195SOL     OW31483   6.210   4.737   1.461
10195SOL    HW131484   6.161   4.651   1.446
10195SOL    HW231485   6.240   4.774   1.373
10196SOL     OW31486   5.310   1.490   4.823
10196SOL    HW131487   5.310   1.558   4.750
10196SOL    HW231488   5.395   1.498   4.876
10197SOL     OW31489   6.867   1.694   4.633
10197SOL    HW131490   6.890   1.604   4.671
10197SOL    HW231491   6.768   1.709   4.641
10198SOL     OW31492   3.713   0.625   1.961
10198SOL    HW131493   3.760   0.624   1.872
10198SOL    HW231494   3.781   0.621   2.034
10199SOL     OW31495   2.145   2.832   6.197
10199SOL    HW131496   2.046   2.819   6.191
10199SOL    HW231497   2.190   2.743   6.187
10200SOL     OW31498   4.926   2.160   1.312
10200SOL    HW131499   5.000   2.198   1.257
10200SOL    HW231500   4.839   2.172   1.264
10201SOL     OW31501   0.748   4.446   0.771
10201SOL    HW131502   0.668   4.478   0.820
10201SOL    HW231503   0.830   4.488   0.810
10202SOL     OW31504   4.187   2.337   6.072
10202SOL    HW131505   4.207   2.240   6.081
10202SOL    HW231506   4.096   2.348   6.033
10203SOL     OW31507   5.459   2.716   4.016
10203SOL    HW131508   5.398   2.743   3.942
10203SOL    HW231509   5.432   2.763   4.100
10204SOL     OW31510   5.511   6.552   0.059
10204SOL    HW131511   5.566   6.557   6.994
10204SOL    HW231512   5.545   6.480   0.119
10205SOL     OW31513   0.653   1.812   0.284
10205SOL    HW131514   0.607   1.886   0.334
10205SOL    HW231515   0.696   1.750   0.350
10206SOL     OW31516   0.824   1.298   6.006
10206SOL    HW131517   0.819   1.349   6.092
10206SOL    HW231518   0.918   1.298   5.972
10207SOL     OW31519   1.423   1.671   6.330
10207SOL    HW131520   1.374   1.590   6.360
10207SOL    HW231521   1.442   1.664   6.232
10208SOL     OW31522   5.835   5.286   4.218
10208SOL    HW131523   5.805   5.203   4.171
10208SOL    HW231524   5.815   5.278   4.316
10209SOL     OW31525   6.886   0.116   5.853
10209SOL    HW131526   6.979   0.080   5.863
10209SOL    HW231527   6.878   0.201   5.904
10210SOL     OW31528   4.029   6.705   1.041
10210SOL    HW131529   4.010   6.639   1.114
10210SOL    HW231530   4.119   6.745   1.056
10211SOL     OW31531   3.693   6.368   4.802
10211SOL    HW131532   3.746   6.408   4.877
10211SOL    HW231533   3.752   6.308   4.748
10212SOL     OW31534   1.055   7.008   5.309
10212SOL    HW131535   1.037   6.922   5.357
10212SOL    HW231536   1.090   6.987   5.218
10213SOL     OW31537   4.840   2.578   0.869
10213SOL    HW131538   4.767   2.542   0.929
10213SOL    HW231539   4.854   2.675   0.888
10214SOL     OW31540   1.384   1.703   1.553
10214SOL    HW131541   1.409   1.715   1.457
10214SOL    HW231542   1.292   1.666   1.559
10215SOL     OW31543   4.141   3.643   3.327
10215SOL    HW131544   4.155   3.566   3.264
10215SOL    HW231545   4.196   3.721   3.297
10216SOL     OW31546   6.086   0.645   1.695
10216SOL    HW131547   6.024   0.619   1.768
10216SOL    HW231548   6.093   0.745   1.692
10217SOL     OW31549   2.663   0.939   3.722
10217SOL    HW131550   2.567   0.966   3.736
10217SOL    HW231551   2.717   0.969   3.801
10218SOL     OW31552   0.720   2.642   1.568
10218SOL    HW131553   0.693   2.657   1.473
10218SOL    HW231554   0.792   2.707   1.593
10219SOL     OW31555   0.354   1.487   2.084
10219SOL    HW131556   0.399   1.575   2.098
10219SOL    HW231557   0.329   1.477   1.988
10220SOL     OW31558   3.610   3.176   1.202
10220SOL    HW131559   3.644   3.090   1.240
10220SOL    HW231560   3.547   3.218   1.267
10221SOL     OW31561   0.870   5.698   3.199
10221SOL    HW131562   0.941   5.766   3.179
10221SOL    HW231563   0.802   5.698   3.125
10222SOL     OW31564   2.874   3.456   4.597
10222SOL    HW131565   2.784   3.420   4.619
10222SOL    HW231566   2.895   3.439   4.501
10223SOL     OW31567   0.865   5.389   1.049
10223SOL    HW131568   0.808   5.379   0.968
10223SOL    HW231569   0.891   5.485   1.060
10224SOL     OW31570   6.041   3.579   3.676
10224SOL    HW131571   6.045   3.571   3.576
10224SOL    HW231572   5.978   3.511   3.713
10225SOL     OW31573   1.280   4.141   5.810
10225SOL    HW131574   1.334   4.067   5.770
10225SOL    HW231575   1.193   4.104   5.843
10226SOL     OW31576   3.801   2.166   6.688
10226SOL    HW131577   3.879   2.204   6.736
10226SOL    HW231578   3.737   2.126   6.753
10227SOL     OW31579   5.561   4.034   0.868
10227SOL    HW131580   5.587   3.983   0.786
10227SOL    HW231581   5.636   4.095   0.895
10228SOL     OW31582   6.212   0.673   0.389
10228SOL    HW131583   6.187   0.596   0.331
10228SOL    HW231584   6.166   0.755   0.356
10229SOL     OW31585   0.479   3.066   5.298
10229SOL    HW131586   0.408   3.133   5.278
10229SOL    HW231587   0.568   3.102   5.270
10230SOL     OW31588   6.714   5.667   2.402
10230SOL    HW131589   6.724   5.720   2.486
10230SOL    HW231590   6.666   5.722   2.333
10231SOL     OW31591   1.449   6.099   3.655
10231SOL    HW131592   1.398   6.183   3.634
10231SOL    HW231593   1.544   6.111   3.627
10232SOL     OW31594   3.350   0.380   3.254
10232SOL    HW131595   3.273   0.338   3.206
10232SOL    HW231596   3.375   0.324   3.334
10233SOL     OW31597   3.745   4.387   6.147
10233SOL    HW131598   3.831   4.391   6.097
10233SOL    HW231599   3.672   4.359   6.086
10234SOL     OW31600   6.219   0.840   1.321
10234SOL    HW131601   6.227   0.790   1.235
10234SOL    HW231602   6.204   0.774   1.396
10235SOL     OW31603   1.242   1.063   3.328
10235SOL    HW131604   1.191   0.995   3.380
10235SOL    HW231605   1.338   1.061   3.356
10236SOL     OW31606   2.830   6.628   6.978
10236SOL    HW131607   2.790   6.537   6.966
10236SOL    HW231608   2.818   6.681   6.895
10237SOL     OW31609   0.537   3.312   6.897
10237SOL    HW131610   0.486   3.393   6.870
10237SOL    HW231611   0.483   3.258   6.962
10238SOL     OW31612   4.200   4.872   1.153
10238SOL    HW131613   4.102   4.850   1.144
10238SOL    HW231614   4.250   4.836   1.074
10239SOL     OW31615   1.663   3.028   4.640
10239SOL    HW131616   1.640   3.037   4.543
10239SOL    HW231617   1.623   3.105   4.690
10240SOL     OW31618   2.250   0.047   1.479
10240SOL    HW131619   2.177   0.033   1.545
10240SOL    HW231620   2.332   7.017   1.510
10241SOL     OW31621   4.943   2.066   2.031
10241SOL    HW131622   4.934   1.969   2.053
10241SOL    HW231623   4.943   2.119   2.115
10242SOL     OW31624   0.268   2.551   0.739
10242SOL    HW131625   0.194   2.589   0.794
10242SOL    HW231626   0.327   2.495   0.797
10243SOL     OW31627   2.663   4.501   0.842
10243SOL    HW131628   2.751   4.454   0.852
10243SOL    HW231629   2.672   4.595   0.873
10244SOL     OW31630   2.259   3.830   1.438
10244SOL    HW131631   2.340   3.885   1.457
10244SOL    HW231632   2.267   3.741   1.484
10245SOL     OW31633   3.326   4.205   0.443
10245SOL    HW131634   3.333   4.148   0.525
10245SOL    HW231635   3.411   4.199   0.391
10246SOL     OW31636   3.328   3.020   4.486
10246SOL    HW131637   3.302   3.002   4.581
10246SOL    HW231638   3.248   3.055   4.436
10247SOL     OW31639   1.216   3.931   4.839
10247SOL    HW131640   1.264   4.015   4.813
10247SOL    HW231641   1.238   3.858   4.774
10248SOL     OW31642   1.468   0.190   3.690
10248SOL    HW131643   1.408   0.165   3.766
10248SOL    HW231644   1.431   0.151   3.605
10249SOL     OW31645   1.871   4.755   6.876
10249SOL    HW131646   1.845   4.664   6.907
10249SOL    HW231647   1.942   4.746   6.805
10250SOL     OW31648   5.279   3.087   0.048
10250SOL    HW131649   5.318   3.165   7.016
10250SOL    HW231650   5.347   3.051   0.111
10251SOL     OW31651   1.527   0.270   4.013
10251SOL    HW131652   1.590   0.194   4.023
10251SOL    HW231653   1.574   0.348   3.973
10252SOL     OW31654   4.400   3.876   5.702
10252SOL    HW131655   4.303   3.854   5.702
10252SOL    HW231656   4.454   3.792   5.697
10253SOL     OW31657   3.773   6.739   6.847
10253SOL    HW131658   3.805   6.740   6.942
10253SOL    HW231659   3.675   6.719   6.846
10254SOL     OW31660   5.334   1.869   5.021
10254SOL    HW131661   5.391   1.880   4.940
10254SOL    HW231662   5.363   1.934   5.091
10255SOL     OW31663   3.066   5.799   1.431
10255SOL    HW131664   3.002   5.837   1.364
10255SOL    HW231665   3.156   5.790   1.388
10256SOL     OW31666   5.404   0.890   1.719
10256SOL    HW131667   5.434   0.818   1.656
10256SOL    HW231668   5.472   0.963   1.722
10257SOL     OW31669   2.981   5.095   3.222
10257SOL    HW131670   3.005   5.115   3.127
10257SOL    HW231671   2.960   4.997   3.231
10258SOL     OW31672   2.896   1.941   2.655
10258SOL    HW131673   2.902   1.864   2.591
10258SOL    HW231674   2.969   2.007   2.634
10259SOL     OW31675   0.874   4.190   4.284
10259SOL    HW131676   0.826   4.276   4.264
10259SOL    HW231677   0.873   4.174   4.383
10260SOL     OW31678   1.612   1.313   3.721
10260SOL    HW131679   1.563   1.294   3.636
10260SOL    HW231680   1.695   1.257   3.725
10261SOL     OW31681   0.345   3.821   0.434
10261SOL    HW131682   0.304   3.792   0.520
10261SOL    HW231683   0.433   3.776   0.423
10262SOL     OW31684   3.665   0.911   6.689
10262SOL    HW131685   3.755   0.908   6.647
10262SOL    HW231686   3.597   0.874   6.626
10263SOL     OW31687   6.107   1.053   0.879
10263SOL    HW131688   6.054   1.091   0.803
10263SOL    HW231689   6.090   0.955   0.885
10264SOL     OW31690   6.219   5.157   6.917
10264SOL    HW131691   6.128   5.117   6.907
10264SOL    HW231692   6.237   5.218   6.841
10265SOL     OW31693   2.413   2.755   0.498
10265SOL    HW131694   2.509   2.743   0.472
10265SOL    HW231695   2.355   2.715   0.428
10266SOL     OW31696   3.217   3.036   2.890
10266SOL    HW131697   3.253   3.105   2.827
10266SOL    HW231698   3.122   3.059   2.913
10267SOL     OW31699   5.523   0.306   0.596
10267SOL    HW131700   5.474   0.225   0.563
10267SOL    HW231701   5.457   0.380   0.611
10268SOL     OW31702   5.156   0.330   1.302
10268SOL    HW131703   5.099   0.355   1.381
10268SOL    HW231704   5.121   0.377   1.220
10269SOL     OW31705   1.822   2.023   6.307
10269SOL    HW131706   1.859   1.955   6.244
10269SOL    HW231707   1.724   2.005   6.321
10270SOL     OW31708   3.616   6.123   2.319
10270SOL    HW131709   3.660   6.036   2.295
10270SOL    HW231710   3.667   6.199   2.279
10271SOL     OW31711   2.635   2.161   0.763
10271SOL    HW131712   2.724   2.127   0.732
10271SOL    HW231713   2.563   2.099   0.730
10272SOL     OW31714   6.671   0.811   4.439
10272SOL    HW131715   6.653   0.882   4.507
10272SOL    HW231716   6.768   0.785   4.443
10273SOL     OW31717   2.882   5.533   4.314
10273SOL    HW131718   2.981   5.545   4.324
10273SOL    HW231719   2.858   5.437   4.329
10274SOL     OW31720   0.245   4.933   5.660
10274SOL    HW131721   0.322   4.874   5.684
10274SOL    HW231722   0.171   4.878   5.623
10275SOL     OW31723   0.165   0.620   3.011
10275SOL    HW131724   0.173   0.540   2.951
10275SOL    HW231725   0.232   0.689   2.982
10276SOL     OW31726   4.699   5.795   5.134
10276SOL    HW131727   4.785   5.839   5.161
10276SOL    HW231728   4.708   5.696   5.139
10277SOL     OW31729   1.423   6.806   3.977
10277SOL    HW131730   1.516   6.843   3.977
10277SOL    HW231731   1.408   6.756   4.062
10278SOL     OW31732   0.450   0.368   4.882
10278SOL    HW131733   0.498   0.342   4.798
10278SOL    HW231734   0.504   0.436   4.932
10279SOL     OW31735   2.522   5.480   4.574
10279SOL    HW131736   2.538   5.384   4.551
10279SOL    HW231737   2.446   5.487   4.638
10280SOL     OW31738   5.525   3.779   0.980
10280SOL    HW131739   5.441   3.783   1.035
10280SOL    HW231740   5.534   3.863   0.927
10281SOL     OW31741   6.644   2.176   3.523
10281SOL    HW131742   6.619   2.117   3.447
10281SOL    HW231743   6.731   2.221   3.503
10282SOL     OW31744   4.872   3.292   2.846
10282SOL    HW131745   4.833   3.214   2.893
10282SOL    HW231746   4.861   3.280   2.747
10283SOL     OW31747   0.029   3.609   1.136
10283SOL    HW131748   0.025   3.567   1.045
10283SOL    HW231749   6.996   3.695   1.135
10284SOL     OW31750   0.463   2.172   3.873
10284SOL    HW131751   0.367   2.175   3.847
10284SOL    HW231752   0.489   2.257   3.918
10285SOL     OW31753   4.069   6.299   3.546
10285SOL    HW131754   4.000   6.372   3.548
10285SOL    HW231755   4.135   6.315   3.619
10286SOL     OW31756   3.197   1.239   4.068
10286SOL    HW131757   3.155   1.183   3.998
10286SOL    HW231758   3.293   1.213   4.080
10287SOL     OW31759   2.082   6.154   1.754
10287SOL    HW131760   2.168   6.158   1.804
10287SOL    HW231761   2.045   6.246   1.743
10288SOL     OW31762   3.309   6.715   4.892
10288SOL    HW131763   3.216   6.679   4.889
10288SOL    HW231764   3.370   6.656   4.840
10289SOL     OW31765   3.200   6.368   0.311
10289SOL    HW131766   3.187   6.304   0.235
10289SOL    HW231767   3.124   6.433   0.312
10290SOL     OW31768   2.954   3.217   2.462
10290SOL    HW131769   2.935   3.293   2.524
10290SOL    HW231770   2.889   3.219   2.386
10291SOL     OW31771   3.304   0.627   2.877
10291SOL    HW131772   3.358   0.547   2.905
10291SOL    HW231773   3.308   0.696   2.949
10292SOL     OW31774   6.938   0.827   6.438
10292SOL    HW131775   6.909   0.910   6.389
10292SOL    HW231776   0.019   0.830   6.451
10293SOL     OW31777   0.740   3.791   3.994
10293SOL    HW131778   0.702   3.712   3.947
10293SOL    HW231779   0.752   3.769   4.091
10294SOL     OW31780   3.676   2.139   2.896
10294SOL    HW131781   3.689   2.087   2.811
10294SOL    HW231782   3.759   2.132   2.952
10295SOL     OW31783   1.316   2.373   6.440
10295SOL    HW131784   1.387   2.326   6.492
10295SOL    HW231785   1.287   2.454   6.491
10296SOL     OW31786   5.543   1.092   5.568
10296SOL    HW131787   5.489   1.010   5.551
10296SOL    HW231788   5.616   1.098   5.500
10297SOL     OW31789   3.082   2.096   6.723
10297SOL    HW131790   3.019   2.096   6.801
10297SOL    HW231791   3.149   2.169   6.735
10298SOL     OW31792   1.026   4.045   1.948
10298SOL    HW131793   0.986   3.959   1.979
10298SOL    HW231794   1.125   4.044   1.967
10299SOL     OW31795   4.805   6.823   2.289
10299SOL    HW131796   4.865   6.830   2.368
10299SOL    HW231797   4.730   6.889   2.298
10300SOL     OW31798   1.253   4.074   2.125
10300SOL    HW131799   1.221   4.005   2.190
10300SOL    HW231800   1.343   4.107   2.153
10301SOL     OW31801   3.778   1.636   5.544
10301SOL    HW131802   3.767   1.547   5.500
10301SOL    HW231803   3.749   1.708   5.480
10302SOL     OW31804   3.019   6.474   4.396
10302SOL    HW131805   3.008   6.530   4.314
10302SOL    HW231806   2.958   6.508   4.468
10303SOL     OW31807   1.344   6.168   3.991
10303SOL    HW131808   1.404   6.161   3.912
10303SOL    HW231809   1.299   6.257   3.991
10304SOL     OW31810   6.443   0.057   7.013
10304SOL    HW131811   6.357   0.005   7.008
10304SOL    HW231812   6.520   7.012   7.003
10305SOL     OW31813   3.104   3.797   5.802
10305SOL    HW131814   3.162   3.860   5.854
10305SOL    HW231815   3.022   3.845   5.771
10306SOL     OW31816   5.778   6.735   0.872
10306SOL    HW131817   5.755   6.700   0.963
10306SOL    HW231818   5.714   6.807   0.846
10307SOL     OW31819   2.915   1.139   4.774
10307SOL    HW131820   3.009   1.107   4.759
10307SOL    HW231821   2.912   1.239   4.763
10308SOL     OW31822   2.259   4.665   2.768
10308SOL    HW131823   2.172   4.672   2.817
10308SOL    HW231824   2.267   4.574   2.727
10309SOL     OW31825   5.645   0.701   5.540
10309SOL    HW131826   5.574   0.752   5.493
10309SOL    HW231827   5.605   0.646   5.613
10310SOL     OW31828   2.437   3.402   6.865
10310SOL    HW131829   2.346   3.441   6.851
10310SOL    HW231830   2.502   3.447   6.804
10311SOL     OW31831   5.762   5.542   0.061
10311SOL    HW131832   5.717   5.614   0.008
10311SOL    HW231833   5.779   5.462   0.003
10312SOL     OW31834   4.288   0.143   1.695
10312SOL    HW131835   4.311   0.048   1.717
10312SOL    HW231836   4.270   0.193   1.780
10313SOL     OW31837   4.199   5.696   2.986
10313SOL    HW131838   4.196   5.716   2.888
10313SOL    HW231839   4.139   5.618   3.006
10314SOL     OW31840   0.276   0.617   6.930
10314SOL    HW131841   0.330   0.533   6.928
10314SOL    HW231842   0.197   0.607   6.869
10315SOL     OW31843   4.857   6.639   3.568
10315SOL    HW131844   4.914   6.671   3.643
10315SOL    HW231845   4.858   6.707   3.494
10316SOL     OW31846   6.696   1.845   6.089
10316SOL    HW131847   6.764   1.881   6.025
10316SOL    HW231848   6.621   1.803   6.039
10317SOL     OW31849   3.685   6.005   5.886
10317SOL    HW131850   3.733   5.971   5.967
10317SOL    HW231851   3.608   5.944   5.865
10318SOL     OW31852   5.212   0.167   6.563
10318SOL    HW131853   5.152   0.150   6.641
10318SOL    HW231854   5.187   0.104   6.489
10319SOL     OW31855   0.405   4.686   5.726
10319SOL    HW131856   0.504   4.696   5.712
10319SOL    HW231857   0.363   4.655   5.641
10320SOL     OW31858   0.027   0.122   3.684
10320SOL    HW131859   0.114   0.079   3.710
10320SOL    HW231860   0.032   0.220   3.701
10321SOL     OW31861   6.281   2.306   2.123
10321SOL    HW131862   6.273   2.402   2.098
10321SOL    HW231863   6.241   2.291   2.213
10322SOL     OW31864   4.294   4.896   4.689
10322SOL    HW131865   4.370   4.850   4.642
10322SOL    HW231866   4.282   4.854   4.779
10323SOL     OW31867   6.287   4.939   5.288
10323SOL    HW131868   6.285   4.982   5.378
10323SOL    HW231869   6.352   4.863   5.288
10324SOL     OW31870   2.881   3.691   2.370
10324SOL    HW131871   2.800   3.670   2.424
10324SOL    HW231872   2.892   3.622   2.298
10325SOL     OW31873   0.237   5.288   2.702
10325SOL    HW131874   0.309   5.249   2.645
10325SOL    HW231875   0.151   5.241   2.684
10326SOL     OW31876   5.547   3.886   6.792
10326SOL    HW131877   5.565   3.918   6.699
10326SOL    HW231878   5.626   3.903   6.850
10327SOL     OW31879   2.318   3.296   1.340
10327SOL    HW131880   2.274   3.376   1.301
10327SOL    HW231881   2.413   3.317   1.362
10328SOL     OW31882   6.456   3.065   2.215
10328SOL    HW131883   6.358   3.045   2.212
10328SOL    HW231884   6.470   3.159   2.244
10329SOL     OW31885   3.121   0.502   2.713
10329SOL    HW131886   3.127   0.524   2.616
10329SOL    HW231887   3.189   0.555   2.764
10330SOL     OW31888   4.618   0.573   0.882
10330SOL    HW131889   4.642   0.664   0.917
10330SOL    HW231890   4.701   0.523   0.858
10331SOL     OW31891   6.220   6.071   6.587
10331SOL    HW131892   6.250   5.980   6.616
10331SOL    HW231893   6.295   6.117   6.539
10332SOL     OW31894   0.949   0.794   6.512
10332SOL    HW131895   0.888   0.862   6.471
10332SOL    HW231896   1.041   0.832   6.519
10333SOL     OW31897   0.611   5.908   4.418
10333SOL    HW131898   0.563   5.926   4.504
10333SOL    HW231899   0.695   5.961   4.416
10334SOL     OW31900   2.950   0.026   4.199
10334SOL    HW131901   2.956   0.100   4.266
10334SOL    HW231902   3.029   0.030   4.137
10335SOL     OW31903   0.712   4.576   6.706
10335SOL    HW131904   0.650   4.507   6.744
10335SOL    HW231905   0.806   4.542   6.710
10336SOL     OW31906   6.504   6.910   2.040
10336SOL    HW131907   6.507   6.893   1.941
10336SOL    HW231908   6.481   7.005   2.057
10337SOL     OW31909   6.635   5.678   0.271
10337SOL    HW131910   6.630   5.592   0.221
10337SOL    HW231911   6.544   5.720   0.276
10338SOL     OW31912   1.816   6.661   2.451
10338SOL    HW131913   1.776   6.725   2.516
10338SOL    HW231914   1.852   6.712   2.373
10339SOL     OW31915   6.066   3.657   6.415
10339SOL    HW131916   5.995   3.607   6.366
10339SOL    HW231917   6.027   3.742   6.451
10340SOL     OW31918   1.950   2.677   6.327
10340SOL    HW131919   1.897   2.715   6.251
10340SOL    HW231920   1.888   2.646   6.399
10341SOL     OW31921   2.017   3.482   2.179
10341SOL    HW131922   1.938   3.543   2.176
10341SOL    HW231923   2.071   3.494   2.096
10342SOL     OW31924   1.861   0.444   3.487
10342SOL    HW131925   1.938   0.503   3.510
10342SOL    HW231926   1.794   0.446   3.561
10343SOL     OW31927   2.528   5.264   0.686
10343SOL    HW131928   2.516   5.283   0.589
10343SOL    HW231929   2.507   5.167   0.704
10344SOL     OW31930   3.184   4.131   6.940
10344SOL    HW131931   3.087   4.110   6.940
10344SOL    HW231932   3.201   4.214   6.888
10345SOL     OW31933   1.305   3.123   5.501
10345SOL    HW131934   1.309   3.024   5.512
10345SOL    HW231935   1.393   3.157   5.467
10346SOL     OW31936   0.061   5.499   1.620
10346SOL    HW131937   0.010   5.521   1.537
10346SOL    HW231938   0.018   5.422   1.666
10347SOL     OW31939   4.685   1.184   3.395
10347SOL    HW131940   4.752   1.256   3.377
10347SOL    HW231941   4.610   1.221   3.449
10348SOL     OW31942   6.063   2.961   0.578
10348SOL    HW131943   6.163   2.957   0.574
10348SOL    HW231944   6.035   3.049   0.617
10349SOL     OW31945   0.813   0.276   6.583
10349SOL    HW131946   0.875   0.353   6.571
10349SOL    HW231947   0.779   0.245   6.494
10350SOL     OW31948   2.781   6.003   5.208
10350SOL    HW131949   2.738   6.086   5.173
10350SOL    HW231950   2.834   6.024   5.290
10351SOL     OW31951   4.850   5.437   5.732
10351SOL    HW131952   4.810   5.429   5.641
10351SOL    HW231953   4.829   5.528   5.769
10352SOL     OW31954   3.581   1.111   6.240
10352SOL    HW131955   3.585   1.204   6.205
10352SOL    HW231956   3.628   1.049   6.177
10353SOL     OW31957   6.443   2.914   4.537
10353SOL    HW131958   6.449   3.009   4.506
10353SOL    HW231959   6.502   2.901   4.617
10354SOL     OW31960   5.111   0.901   1.256
10354SOL    HW131961   5.209   0.913   1.268
10354SOL    HW231962   5.071   0.986   1.223
10355SOL     OW31963   2.525   6.439   2.463
10355SOL    HW131964   2.429   6.461   2.482
10355SOL    HW231965   2.530   6.357   2.406
10356SOL     OW31966   6.634   3.844   5.677
10356SOL    HW131967   6.709   3.903   5.706
10356SOL    HW231968   6.671   3.766   5.626
10357SOL     OW31969   2.334   1.992   6.138
10357SOL    HW131970   2.378   1.945   6.062
10357SOL    HW231971   2.236   2.003   6.119
10358SOL     OW31972   0.052   2.918   2.834
10358SOL    HW131973   0.021   2.830   2.871
10358SOL    HW231974   0.034   2.920   2.736
10359SOL     OW31975   0.223   1.569   1.572
10359SOL    HW131976   0.322   1.583   1.579
10359SOL    HW231977   0.182   1.644   1.520
10360SOL     OW31978   4.961   5.733   3.055
10360SOL    HW131979   4.904   5.651   3.050
10360SOL    HW231980   4.972   5.771   2.963
10361SOL     OW31981   2.953   5.942   2.605
10361SOL    HW131982   2.883   5.871   2.602
10361SOL    HW231983   2.915   6.028   2.570
10362SOL     OW31984   2.298   4.962   5.071
10362SOL    HW131985   2.369   5.032   5.067
10362SOL    HW231986   2.254   4.954   4.981
10363SOL     OW31987   5.509   0.332   3.009
10363SOL    HW131988   5.558   0.282   2.938
10363SOL    HW231989   5.554   0.421   3.024
10364SOL     OW31990   2.420   3.942   1.231
10364SOL    HW131991   2.349   3.874   1.246
10364SOL    HW231992   2.443   3.946   1.133
10365SOL     OW31993   4.342   5.369   6.946
10365SOL    HW131994   4.271   5.321   6.895
10365SOL    HW231995   4.304   5.405   0.013
10366SOL     OW31996   2.504   6.509   3.760
10366SOL    HW131997   2.585   6.539   3.809
10366SOL    HW231998   2.475   6.581   3.696
10367SOL     OW31999   6.236   2.258   2.951
10367SOL    HW132000   6.137   2.271   2.961
10367SOL    HW232001   6.269   2.200   3.026
10368SOL     OW32002   2.343   0.997   2.288
10368SOL    HW132003   2.306   0.917   2.335
10368SOL    HW232004   2.432   1.021   2.327
10369SOL     OW32005   3.683   1.773   1.028
10369SOL    HW132006   3.744   1.762   1.106
10369SOL    HW232007   3.667   1.871   1.012
10370SOL     OW32008   3.954   1.048   5.260
10370SOL    HW132009   4.006   0.995   5.327
10370SOL    HW232010   3.956   1.002   5.172
10371SOL     OW32011   4.377   6.116   4.908
10371SOL    HW132012   4.287   6.107   4.950
10371SOL    HW232013   4.370   6.093   4.811
10372SOL     OW32014   2.345   0.851   4.387
10372SOL    HW132015   2.424   0.839   4.327
10372SOL    HW232016   2.359   0.798   4.471
10373SOL     OW32017   1.184   6.742   4.587
10373SOL    HW132018   1.227   6.693   4.663
10373SOL    HW232019   1.084   6.742   4.600
10374SOL     OW32020   3.218   1.655   3.204
10374SOL    HW132021   3.225   1.678   3.301
10374SOL    HW232022   3.202   1.739   3.152
10375SOL     OW32023   5.586   2.228   1.095
10375SOL    HW132024   5.624   2.244   1.004
10375SOL    HW232025   5.618   2.140   1.130
10376SOL     OW32026   0.423   1.307   3.896
10376SOL    HW132027   0.351   1.367   3.929
10376SOL    HW232028   0.385   1.217   3.876
10377SOL     OW32029   0.295   0.537   4.123
10377SOL    HW132030   0.360   0.606   4.155
10377SOL    HW232031   0.346   0.459   4.087
10378SOL     OW32032   6.325   0.548   6.025
10378SOL    HW132033   6.301   0.489   6.102
10378SOL    HW232034   6.253   0.543   5.955
10379SOL     OW32035   5.143   0.309   4.428
10379SOL    HW132036   5.235   0.328   4.395
10379SOL    HW232037   5.077   0.364   4.376
10380SOL     OW32038   5.674   0.059   2.508
10380SOL    HW132039   5.773   0.068   2.502
10380SOL    HW232040   5.649   6.980   2.496
10381SOL     OW32041   4.642   5.192   6.036
10381SOL    HW132042   4.575   5.248   6.084
10381SOL    HW232043   4.644   5.217   5.939
10382SOL     OW32044   2.269   5.663   6.179
10382SOL    HW132045   2.299   5.571   6.156
10382SOL    HW232046   2.345   5.714   6.219
10383SOL     OW32047   0.663   2.473   1.049
10383SOL    HW132048   0.742   2.505   1.100
10383SOL    HW232049   0.600   2.549   1.034
10384SOL     OW32050   6.649   6.606   0.271
10384SOL    HW132051   6.620   6.528   0.327
10384SOL    HW232052   6.722   6.655   0.318
10385SOL     OW32053   6.171   1.059   6.030
10385SOL    HW132054   6.188   1.130   6.099
10385SOL    HW232055   6.075   1.029   6.037
10386SOL     OW32056   6.730   2.586   5.241
10386SOL    HW132057   6.825   2.563   5.219
10386SOL    HW232058   6.670   2.511   5.213
10387SOL     OW32059   1.870   2.888   2.989
10387SOL    HW132060   1.916   2.959   3.042
10387SOL    HW232061   1.893   2.798   3.027
10388SOL     OW32062   1.640   4.903   3.195
10388SOL    HW132063   1.663   4.848   3.275
10388SOL    HW232064   1.716   4.965   3.174
10389SOL     OW32065   1.057   4.778   3.840
10389SOL    HW132066   1.057   4.862   3.785
10389SOL    HW232067   1.131   4.781   3.906
10390SOL     OW32068   0.980   3.013   3.136
10390SOL    HW132069   0.997   2.955   3.057
10390SOL    HW232070   1.065   3.056   3.165
10391SOL     OW32071   2.311   6.384   6.725
10391SOL    HW132072   2.277   6.358   6.634
10391SOL    HW232073   2.365   6.467   6.718
10392SOL     OW32074   6.284   5.072   0.494
10392SOL    HW132075   6.384   5.081   0.488
10392SOL    HW232076   6.250   5.122   0.574
10393SOL     OW32077   0.641   1.112   4.230
10393SOL    HW132078   0.717   1.150   4.177
10393SOL    HW232079   0.671   1.027   4.273
10394SOL     OW32080   2.469   6.500   0.195
10394SOL    HW132081   2.532   6.477   0.121
10394SOL    HW232082   2.438   6.595   0.185
10395SOL     OW32083   0.079   0.445   4.509
10395SOL    HW132084   0.117   0.471   4.420
10395SOL    HW232085   0.076   0.345   4.515
10396SOL     OW32086   0.851   0.221   4.292
10396SOL    HW132087   0.844   0.257   4.199
10396SOL    HW232088   0.921   0.272   4.342
10397SOL     OW32089   3.647   1.109   3.497
10397SOL    HW132090   3.720   1.047   3.525
10397SOL    HW232091   3.578   1.059   3.445
10398SOL     OW32092   6.007   2.599   1.773
10398SOL    HW132093   5.941   2.533   1.809
10398SOL    HW232094   5.988   2.617   1.677
10399SOL     OW32095   5.332   2.318   5.002
10399SOL    HW132096   5.297   2.406   4.969
10399SOL    HW232097   5.384   2.274   4.928
10400SOL     OW32098   2.507   5.309   2.354
10400SOL    HW132099   2.520   5.407   2.339
10400SOL    HW232100   2.543   5.285   2.444
10401SOL     OW32101   0.689   6.062   1.864
10401SOL    HW132102   0.664   6.049   1.768
10401SOL    HW232103   0.686   5.973   1.911
10402SOL     OW32104   0.847   3.402   4.781
10402SOL    HW132105   0.913   3.331   4.805
10402SOL    HW232106   0.764   3.390   4.835
10403SOL     OW32107   5.653   1.428   1.614
10403SOL    HW132108   5.700   1.369   1.549
10403SOL    HW232109   5.657   1.523   1.582
10404SOL     OW32110   0.486   6.883   4.146
10404SOL    HW132111   0.467   6.890   4.244
10404SOL    HW232112   0.416   6.827   4.102
10405SOL     OW32113   1.676   6.307   5.911
10405SOL    HW132114   1.608   6.354   5.855
10405SOL    HW232115   1.629   6.245   5.974
10406SOL     OW32116   2.483   4.015   6.021
10406SOL    HW132117   2.468   4.103   6.068
10406SOL    HW232118   2.427   4.011   5.939
10407SOL     OW32119   1.049   2.481   6.810
10407SOL    HW132120   1.098   2.396   6.791
10407SOL    HW232121   1.076   2.516   6.900
10408SOL     OW32122   4.633   5.028   3.527
10408SOL    HW132123   4.728   5.026   3.496
10408SOL    HW232124   4.572   5.021   3.449
10409SOL     OW32125   0.332   4.467   2.399
10409SOL    HW132126   0.417   4.451   2.349
10409SOL    HW232127   0.317   4.394   2.465
10410SOL     OW32128   4.682   0.485   1.193
10410SOL    HW132129   4.753   0.433   1.146
10410SOL    HW232130   4.685   0.580   1.162
10411SOL     OW32131   2.518   4.652   2.965
10411SOL    HW132132   2.502   4.725   3.031
10411SOL    HW232133   2.444   4.652   2.897
10412SOL     OW32134   1.194   2.207   0.255
10412SOL    HW132135   1.243   2.293   0.240
10412SOL    HW232136   1.259   2.135   0.280
10413SOL     OW32137   6.861   2.696   6.727
10413SOL    HW132138   6.851   2.788   6.691
10413SOL    HW232139   6.933   2.695   6.797
10414SOL     OW32140   5.674   6.241   6.235
10414SOL    HW132141   5.756   6.183   6.235
10414SOL    HW232142   5.626   6.229   6.322
10415SOL     OW32143   0.424   6.256   3.916
10415SOL    HW132144   0.398   6.165   3.882
10415SOL    HW232145   0.524   6.265   3.913
10416SOL     OW32146   5.800   1.496   5.010
10416SOL    HW132147   5.898   1.517   5.003
10416SOL    HW232148   5.788   1.398   5.024
10417SOL     OW32149   3.941   4.854   3.631
10417SOL    HW132150   3.910   4.834   3.538
10417SOL    HW232151   4.020   4.915   3.627
10418SOL     OW32152   6.562   3.965   6.904
10418SOL    HW132153   6.630   3.949   6.976
10418SOL    HW232154   6.593   3.925   6.818
10419SOL     OW32155   3.205   1.148   4.664
10419SOL    HW132156   3.238   1.235   4.702
10419SOL    HW232157   3.281   1.084   4.656
10420SOL     OW32158   6.834   3.637   3.646
10420SOL    HW132159   6.856   3.719   3.594
10420SOL    HW232160   6.864   3.647   3.741
10421SOL     OW32161   1.186   4.435   4.394
10421SOL    HW132162   1.098   4.464   4.432
10421SOL    HW232163   1.241   4.515   4.374
10422SOL     OW32164   6.444   3.340   4.685
10422SOL    HW132165   6.540   3.339   4.713
10422SOL    HW232166   6.388   3.373   4.761
10423SOL     OW32167   3.480   4.913   3.997
10423SOL    HW132168   3.400   4.932   4.053
10423SOL    HW232169   3.455   4.917   3.900
10424SOL     OW32170   3.303   1.240   0.388
10424SOL    HW132171   3.375   1.223   0.455
10424SOL    HW232172   3.226   1.179   0.405
10425SOL     OW32173   1.903   1.410   0.749
10425SOL    HW132174   1.900   1.314   0.723
10425SOL    HW232175   1.810   1.445   0.762
10426SOL     OW32176   6.158   1.968   6.421
10426SOL    HW132177   6.237   1.976   6.360
10426SOL    HW232178   6.083   2.023   6.385
10427SOL     OW32179   5.644   6.716   4.185
10427SOL    HW132180   5.552   6.681   4.168
10427SOL    HW232181   5.669   6.698   4.280
10428SOL     OW32182   2.014   0.767   4.090
10428SOL    HW132183   2.016   0.799   3.996
10428SOL    HW232184   1.926   0.792   4.132
10429SOL     OW32185   0.968   2.987   2.243
10429SOL    HW132186   0.987   2.900   2.197
10429SOL    HW232187   0.877   3.019   2.219
10430SOL     OW32188   2.704   0.444   3.445
10430SOL    HW132189   2.774   0.482   3.385
10430SOL    HW232190   2.717   0.478   3.538
10431SOL     OW32191   3.151   0.764   3.443
10431SOL    HW132192   3.125   0.774   3.539
10431SOL    HW232193   3.150   0.853   3.399
10432SOL     OW32194   0.737   5.376   5.777
10432SOL    HW132195   0.723   5.289   5.730
10432SOL    HW232196   0.831   5.407   5.764
10433SOL     OW32197   2.257   7.015   2.852
10433SOL    HW132198   2.323   6.996   2.780
10433SOL    HW232199   2.302   7.009   2.941
10434SOL     OW32200   4.349   6.737   5.537
10434SOL    HW132201   4.265   6.691   5.568
10434SOL    HW232202   4.419   6.728   5.608
10435SOL     OW32203   2.313   1.957   6.968
10435SOL    HW132204   2.213   1.955   6.963
10435SOL    HW232205   2.341   2.031   0.011
10436SOL     OW32206   6.255   3.602   4.858
10436SOL    HW132207   6.213   3.596   4.767
10436SOL    HW232208   6.280   3.511   4.890
10437SOL     OW32209   5.254   6.138   4.931
10437SOL    HW132210   5.340   6.093   4.907
10437SOL    HW232211   5.236   6.125   5.029
10438SOL     OW32212   6.637   6.082   6.692
10438SOL    HW132213   6.624   6.171   6.735
10438SOL    HW232214   6.570   6.017   6.729
10439SOL     OW32215   6.788   6.448   5.151
10439SOL    HW132216   6.846   6.498   5.087
10439SOL    HW232217   6.740   6.375   5.102
10440SOL     OW32218   6.842   2.178   0.253
10440SOL    HW132219   6.885   2.115   0.318
10440SOL    HW232220   6.810   2.127   0.174
10441SOL     OW32221   3.905   1.814   0.775
10441SOL    HW132222   3.971   1.743   0.751
10441SOL    HW232223   3.817   1.773   0.796
10442SOL     OW32224   2.646   1.409   5.922
10442SOL    HW132225   2.581   1.410   5.999
10442SOL    HW232226   2.629   1.329   5.865
10443SOL     OW32227   0.095   1.689   3.178
10443SOL    HW132228   0.185   1.708   3.216
10443SOL    HW232229   0.075   1.591   3.186
10444SOL     OW32230   3.717   5.841   4.158
10444SOL    HW132231   3.706   5.745   4.183
10444SOL    HW232232   3.813   5.868   4.171
10445SOL     OW32233   1.384   4.032   2.881
10445SOL    HW132234   1.412   3.971   2.954
10445SOL    HW232235   1.379   3.981   2.795
10446SOL     OW32236   1.543   4.117   5.943
10446SOL    HW132237   1.491   4.129   5.859
10446SOL    HW232238   1.599   4.034   5.936
10447SOL     OW32239   0.258   2.269   2.760
10447SOL    HW132240   0.190   2.208   2.718
10447SOL    HW232241   0.310   2.315   2.688
10448SOL     OW32242   2.352   5.956   2.990
10448SOL    HW132243   2.403   5.914   2.915
10448SOL    HW232244   2.366   6.055   2.989
10449SOL     OW32245   4.248   5.249   5.177
10449SOL    HW132246   4.329   5.202   5.211
10449SOL    HW232247   4.260   5.348   5.188
10450SOL     OW32248   0.223   0.869   5.878
10450SOL    HW132249   0.255   0.928   5.952
10450SOL    HW232250   0.249   0.774   5.897
10451SOL     OW32251   2.685   0.866   3.333
10451SOL    HW132252   2.612   0.799   3.348
10451SOL    HW232253   2.647   0.958   3.343
10452SOL     OW32254   0.103   3.539   4.501
10452SOL    HW132255   0.085   3.440   4.494
10452SOL    HW232256   0.018   3.589   4.489
10453SOL     OW32257   3.966   5.621   3.467
10453SOL    HW132258   3.991   5.525   3.473
10453SOL    HW232259   3.872   5.630   3.433
10454SOL     OW32260   0.095   0.390   6.003
10454SOL    HW132261   0.133   0.462   6.062
10454SOL    HW232262   7.015   0.383   6.019
10455SOL     OW32263   5.978   6.294   3.668
10455SOL    HW132264   5.985   6.287   3.767
10455SOL    HW232265   6.038   6.368   3.635
10456SOL     OW32266   0.937   4.967   0.177
10456SOL    HW132267   0.954   5.038   0.245
10456SOL    HW232268   1.022   4.917   0.158
10457SOL     OW32269   3.654   2.711   6.722
10457SOL    HW132270   3.586   2.764   6.773
10457SOL    HW232271   3.694   2.642   6.783
10458SOL     OW32272   6.780   5.868   6.205
10458SOL    HW132273   6.753   5.782   6.161
10458SOL    HW232274   6.749   5.867   6.300
10459SOL     OW32275   0.248   5.449   6.997
10459SOL    HW132276   0.266   5.363   6.950
10459SOL    HW232277   0.323   5.469   0.042
10460SOL     OW32278   0.763   2.268   0.632
10460SOL    HW132279   0.667   2.241   0.623
10460SOL    HW232280   0.822   2.190   0.612
10461SOL     OW32281   6.759   5.192   5.462
10461SOL    HW132282   6.795   5.275   5.420
10461SOL    HW232283   6.798   5.180   5.553
10462SOL     OW32284   4.413   2.178   0.756
10462SOL    HW132285   4.416   2.146   0.662
10462SOL    HW232286   4.342   2.248   0.765
10463SOL     OW32287   4.902   2.775   6.209
10463SOL    HW132288   4.912   2.676   6.196
10463SOL    HW232289   4.938   2.823   6.129
10464SOL     OW32290   6.647   5.036   2.472
10464SOL    HW132291   6.718   5.055   2.540
10464SOL    HW232292   6.688   5.035   2.381
10465SOL     OW32293   5.167   4.586   1.955
10465SOL    HW132294   5.214   4.600   2.042
10465SOL    HW232295   5.094   4.520   1.967
10466SOL     OW32296   5.981   5.021   6.945
10466SOL    HW132297   5.996   5.013   0.025
10466SOL    HW232298   5.916   4.951   6.915
10467SOL     OW32299   1.822   2.624   6.821
10467SOL    HW132300   1.879   2.700   6.853
10467SOL    HW232301   1.726   2.646   6.838
10468SOL     OW32302   2.823   5.239   3.773
10468SOL    HW132303   2.895   5.184   3.732
10468SOL    HW232304   2.748   5.179   3.801
10469SOL     OW32305   6.340   1.262   4.601
10469SOL    HW132306   6.325   1.344   4.546
10469SOL    HW232307   6.281   1.189   4.568
10470SOL     OW32308   2.456   2.677   3.738
10470SOL    HW132309   2.458   2.711   3.643
10470SOL    HW232310   2.394   2.599   3.744
10471SOL     OW32311   3.520   6.875   0.041
10471SOL    HW132312   3.521   6.778   0.018
10471SOL    HW232313   3.466   6.925   6.992
10472SOL     OW32314   3.062   5.250   6.991
10472SOL    HW132315   2.975   5.229   0.020
10472SOL    HW232316   3.135   5.257   0.042
10473SOL     OW32317   5.212   5.151   6.949
10473SOL    HW132318   5.274   5.222   6.984
10473SOL    HW232319   5.189   5.088   0.005
10474SOL     OW32320   4.860   1.139   3.654
10474SOL    HW132321   4.851   1.197   3.573
10474SOL    HW232322   4.957   1.124   3.674
10475SOL     OW32323   1.085   6.825   1.129
10475SOL    HW132324   1.016   6.781   1.187
10475SOL    HW232325   1.169   6.771   1.131
10476SOL     OW32326   3.488   5.857   6.889
10476SOL    HW132327   3.561   5.925   6.881
10476SOL    HW232328   3.477   5.832   6.985
10477SOL     OW32329   6.362   5.778   3.560
10477SOL    HW132330   6.438   5.824   3.604
10477SOL    HW232331   6.395   5.696   3.512
10478SOL     OW32332   5.727   0.689   6.975
10478SOL    HW132333   5.726   0.657   6.880
10478SOL    HW232334   5.821   0.700   7.006
10479SOL     OW32335   0.762   2.408   2.101
10479SOL    HW132336   0.747   2.402   2.003
10479SOL    HW232337   0.696   2.351   2.149
10480SOL     OW32338   1.841   0.225   2.589
10480SOL    HW132339   1.822   0.212   2.492
10480SOL    HW232340   1.904   0.302   2.601
10481SOL     OW32341   6.993   0.989   2.787
10481SOL    HW132342   6.951   0.938   2.862
10481SOL    HW232343   0.058   1.035   2.820
10482SOL     OW32344   5.324   4.025   4.259
10482SOL    HW132345   5.283   4.115   4.272
10482SOL    HW232346   5.337   4.007   4.162
10483SOL     OW32347   6.306   5.648   0.599
10483SOL    HW132348   6.264   5.728   0.641
10483SOL    HW232349   6.279   5.642   0.503
10484SOL     OW32350   6.218   1.082   2.141
10484SOL    HW132351   6.238   0.985   2.152
10484SOL    HW232352   6.197   1.101   2.045
10485SOL     OW32353   5.401   3.285   5.355
10485SOL    HW132354   5.354   3.325   5.434
10485SOL    HW232355   5.336   3.266   5.283
10486SOL     OW32356   5.566   2.861   1.725
10486SOL    HW132357   5.609   2.921   1.657
10486SOL    HW232358   5.471   2.843   1.699
10487SOL     OW32359   6.257   6.885   1.811
10487SOL    HW132360   6.172   6.904   1.763
10487SOL    HW232361   6.329   6.863   1.744
10488SOL     OW32362   2.521   2.470   6.238
10488SOL    HW132363   2.534   2.390   6.179
10488SOL    HW232364   2.609   2.515   6.253
10489SOL     OW32365   0.567   5.852   6.105
10489SOL    HW132366   0.660   5.885   6.088
10489SOL    HW232367   0.522   5.834   6.018
10490SOL     OW32368   6.929   1.224   3.578
10490SOL    HW132369   6.958   1.204   3.484
10490SOL    HW232370   6.829   1.224   3.583
10491SOL     OW32371   1.568   4.756   5.786
10491SOL    HW132372   1.526   4.667   5.800
10491SOL    HW232373   1.497   4.825   5.772
10492SOL     OW32374   4.972   3.390   5.108
10492SOL    HW132375   4.942   3.312   5.163
10492SOL    HW232376   4.898   3.455   5.099
10493SOL     OW32377   3.545   1.022   1.364
10493SOL    HW132378   3.565   0.949   1.298
10493SOL    HW232379   3.622   1.030   1.428
10494SOL     OW32380   5.953   1.761   4.384
10494SOL    HW132381   5.925   1.753   4.480
10494SOL    HW232382   5.976   1.670   4.349
10495SOL     OW32383   1.317   6.507   0.560
10495SOL    HW132384   1.265   6.433   0.601
10495SOL    HW232385   1.354   6.478   0.472
10496SOL     OW32386   0.095   6.848   6.321
10496SOL    HW132387   0.181   6.800   6.336
10496SOL    HW232388   0.074   6.905   6.401
10497SOL     OW32389   1.244   0.895   1.124
10497SOL    HW132390   1.336   0.911   1.159
10497SOL    HW232391   1.249   0.868   1.028
10498SOL     OW32392   2.216   6.478   6.249
10498SOL    HW132393   2.227   6.574   6.271
10498SOL    HW232394   2.120   6.459   6.229
10499SOL     OW32395   3.219   6.027   3.308
10499SOL    HW132396   3.128   5.999   3.340
10499SOL    HW232397   3.277   5.947   3.298
10500SOL     OW32398   1.244   1.830   6.072
10500SOL    HW132399   1.245   1.872   5.982
10500SOL    HW232400   1.203   1.894   6.138
10501SOL     OW32401   1.763   3.816   2.758
10501SOL    HW132402   1.847   3.867   2.743
10501SOL    HW232403   1.741   3.763   2.676
10502SOL     OW32404   3.298   6.340   6.637
10502SOL    HW132405   3.388   6.324   6.678
10502SOL    HW232406   3.247   6.254   6.633
10503SOL     OW32407   3.228   2.889   0.118
10503SOL    HW132408   3.150   2.897   0.181
10503SOL    HW232409   3.226   2.965   0.053
10504SOL     OW32410   2.968   3.270   1.006
10504SOL    HW132411   3.039   3.213   1.046
10504SOL    HW232412   2.988   3.367   1.025
10505SOL     OW32413   6.686   5.869   1.751
10505SOL    HW132414   6.715   5.906   1.662
10505SOL    HW232415   6.733   5.918   1.824
10506SOL     OW32416   0.587   3.806   5.978
10506SOL    HW132417   0.603   3.904   5.993
10506SOL    HW232418   0.613   3.755   6.060
10507SOL     OW32419   1.127   0.535   6.195
10507SOL    HW132420   1.027   0.543   6.193
10507SOL    HW232421   1.166   0.622   6.227
10508SOL     OW32422   5.741   4.515   3.320
10508SOL    HW132423   5.721   4.586   3.388
10508SOL    HW232424   5.680   4.527   3.241
10509SOL     OW32425   1.021   6.861   6.575
10509SOL    HW132426   1.117   6.838   6.561
10509SOL    HW232427   1.013   6.956   6.603
10510SOL     OW32428   6.184   5.561   6.947
10510SOL    HW132429   6.279   5.589   6.932
10510SOL    HW232430   6.123   5.613   6.887
10511SOL     OW32431   4.481   2.774   0.638
10511SOL    HW132432   4.423   2.733   0.567
10511SOL    HW232433   4.466   2.726   0.724
10512SOL     OW32434   4.199   0.236   5.988
10512SOL    HW132435   4.155   0.179   5.919
10512SOL    HW232436   4.147   0.321   6.000
10513SOL     OW32437   0.634   2.414   6.391
10513SOL    HW132438   0.579   2.478   6.444
10513SOL    HW232439   0.730   2.421   6.419
10514SOL     OW32440   0.085   4.401   0.298
10514SOL    HW132441   0.070   4.458   0.217
10514SOL    HW232442   0.180   4.368   0.299
10515SOL     OW32443   6.589   1.776   3.450
10515SOL    HW132444   6.501   1.743   3.485
10515SOL    HW232445   6.627   1.708   3.387
10516SOL     OW32446   4.240   1.154   5.794
10516SOL    HW132447   4.276   1.246   5.810
10516SOL    HW232448   4.140   1.155   5.804
10517SOL     OW32449   6.447   1.777   2.096
10517SOL    HW132450   6.456   1.768   1.997
10517SOL    HW232451   6.350   1.785   2.120
10518SOL     OW32452   0.969   6.353   0.788
10518SOL    HW132453   0.876   6.348   0.824
10518SOL    HW232454   1.013   6.437   0.818
10519SOL     OW32455   3.105   3.143   6.068
10519SOL    HW132456   3.141   3.195   6.145
10519SOL    HW232457   3.006   3.159   6.060
10520SOL     OW32458   3.388   2.662   0.180
10520SOL    HW132459   3.330   2.613   0.244
10520SOL    HW232460   3.333   2.731   0.132
10521SOL     OW32461   6.572   5.939   1.181
10521SOL    HW132462   6.576   5.846   1.218
10521SOL    HW232463   6.569   6.005   1.256
10522SOL     OW32464   6.733   0.606   0.702
10522SOL    HW132465   6.793   0.662   0.645
10522SOL    HW232466   6.648   0.586   0.653
10523SOL     OW32467   0.305   5.625   5.757
10523SOL    HW132468   0.346   5.627   5.848
10523SOL    HW232469   0.206   5.639   5.766
10524SOL     OW32470   2.214   0.493   4.600
10524SOL    HW132471   2.194   0.569   4.539
10524SOL    HW232472   2.246   0.528   4.688
10525SOL     OW32473   1.934   6.206   5.061
10525SOL    HW132474   2.021   6.248   5.088
10525SOL    HW232475   1.879   6.189   5.143
10526SOL     OW32476   6.910   1.151   2.291
10526SOL    HW132477   6.903   1.120   2.386
10526SOL    HW232478   6.966   1.233   2.286
10527SOL     OW32479   0.603   2.934   4.649
10527SOL    HW132480   0.520   2.886   4.680
10527SOL    HW232481   0.656   2.964   4.728
10528SOL     OW32482   7.015   5.258   5.013
10528SOL    HW132483   6.955   5.179   5.016
10528SOL    HW232484   0.033   5.270   4.920
10529SOL     OW32485   6.525   0.088   3.743
10529SOL    HW132486   6.615   0.069   3.704
10529SOL    HW232487   6.461   0.111   3.670
10530SOL     OW32488   2.938   2.183   6.067
10530SOL    HW132489   3.002   2.121   6.113
10530SOL    HW232490   2.846   2.172   6.105
10531SOL     OW32491   1.829   3.452   4.449
10531SOL    HW132492   1.780   3.534   4.418
10531SOL    HW232493   1.831   3.384   4.375
10532SOL     OW32494   4.198   2.574   6.198
10532SOL    HW132495   4.274   2.637   6.183
10532SOL    HW232496   4.222   2.484   6.162
10533SOL     OW32497   2.937   1.122   5.649
10533SOL    HW132498   2.878   1.139   5.728
10533SOL    HW232499   2.926   1.027   5.620
10534SOL     OW32500   0.524   5.592   0.411
10534SOL    HW132501   0.455   5.657   0.381
10534SOL    HW232502   0.615   5.625   0.386
10535SOL     OW32503   0.526   1.412   2.446
10535SOL    HW132504   0.543   1.389   2.350
10535SOL    HW232505   0.440   1.463   2.452
10536SOL     OW32506   4.506   0.678   2.489
10536SOL    HW132507   4.514   0.637   2.399
10536SOL    HW232508   4.580   0.744   2.503
10537SOL     OW32509   2.359   5.193   2.147
10537SOL    HW132510   2.420   5.210   2.224
10537SOL    HW232511   2.411   5.153   2.071
10538SOL     OW32512   4.072   4.178   0.183
10538SOL    HW132513   4.077   4.227   0.096
10538SOL    HW232514   4.160   4.184   0.230
10539SOL     OW32515   0.550   3.302   6.301
10539SOL    HW132516   0.542   3.265   6.208
10539SOL    HW232517   0.635   3.269   6.343
10540SOL     OW32518   1.830   0.214   6.419
10540SOL    HW132519   1.884   0.272   6.359
10540SOL    HW232520   1.807   0.264   6.503
10541SOL     OW32521   3.929   3.613   0.031
10541SOL    HW132522   3.984   3.542   0.074
10541SOL    HW232523   3.988   3.680   7.004
10542SOL     OW32524   0.238   2.567   0.176
10542SOL    HW132525   0.160   2.508   0.193
10542SOL    HW232526   0.314   2.513   0.141
10543SOL     OW32527   0.431   1.687   5.454
10543SOL    HW132528   0.428   1.777   5.498
10543SOL    HW232529   0.360   1.681   5.385
10544SOL     OW32530   2.594   1.891   2.559
10544SOL    HW132531   2.550   1.895   2.648
10544SOL    HW232532   2.678   1.944   2.561
10545SOL     OW32533   6.773   0.514   2.645
10545SOL    HW132534   6.831   0.595   2.636
10545SOL    HW232535   6.830   0.434   2.667
10546SOL     OW32536   2.475   0.078   4.239
10546SOL    HW132537   2.506   0.094   4.332
10546SOL    HW232538   2.378   0.102   4.232
10547SOL     OW32539   4.556   1.422   1.392
10547SOL    HW132540   4.467   1.466   1.382
10547SOL    HW232541   4.554   1.357   1.468
10548SOL     OW32542   5.082   4.074   4.665
10548SOL    HW132543   5.109   4.004   4.731
10548SOL    HW232544   5.088   4.164   4.708
10549SOL     OW32545   1.053   0.598   2.128
10549SOL    HW132546   1.070   0.644   2.040
10549SOL    HW232547   1.028   0.503   2.111
10550SOL     OW32548   5.624   0.374   3.805
10550SOL    HW132549   5.536   0.367   3.758
10550SOL    HW232550   5.652   0.284   3.838
10551SOL     OW32551   1.189   1.860   5.807
10551SOL    HW132552   1.090   1.847   5.801
10551SOL    HW232553   1.235   1.790   5.751
10552SOL     OW32554   3.316   2.471   5.634
10552SOL    HW132555   3.281   2.555   5.675
10552SOL    HW232556   3.324   2.483   5.535
10553SOL     OW32557   0.553   5.723   0.118
10553SOL    HW132558   0.458   5.737   0.090
10553SOL    HW232559   0.583   5.633   0.087
10554SOL     OW32560   6.850   4.644   6.952
10554SOL    HW132561   6.785   4.638   0.011
10554SOL    HW232562   6.810   4.699   6.879
10555SOL     OW32563   3.295   1.407   2.520
10555SOL    HW132564   3.360   1.341   2.482
10555SOL    HW232565   3.334   1.449   2.602
10556SOL     OW32566   1.929   3.207   5.322
10556SOL    HW132567   1.922   3.123   5.375
10556SOL    HW232568   1.850   3.215   5.261
10557SOL     OW32569   6.965   3.013   3.261
10557SOL    HW132570   6.976   2.918   3.231
10557SOL    HW232571   6.975   3.018   3.360
10558SOL     OW32572   4.660   6.412   5.374
10558SOL    HW132573   4.712   6.332   5.343
10558SOL    HW232574   4.571   6.414   5.328
10559SOL     OW32575   4.790   1.881   0.879
10559SOL    HW132576   4.711   1.906   0.823
10559SOL    HW232577   4.763   1.878   0.975
10560SOL     OW32578   1.520   3.963   4.972
10560SOL    HW132579   1.536   3.880   4.918
10560SOL    HW232580   1.457   4.023   4.924
10561SOL     OW32581   2.035   4.737   6.677
10561SOL    HW132582   2.062   4.795   6.600
10561SOL    HW232583   1.979   4.661   6.644
10562SOL     OW32584   4.374   1.200   0.475
10562SOL    HW132585   4.298   1.167   0.531
10562SOL    HW232586   4.459   1.158   0.505
10563SOL     OW32587   1.897   1.967   5.443
10563SOL    HW132588   1.960   1.974   5.521
10563SOL    HW232589   1.908   2.047   5.384
10564SOL     OW32590   5.523   1.338   1.336
10564SOL    HW132591   5.498   1.434   1.321
10564SOL    HW232592   5.614   1.321   1.298
10565SOL     OW32593   5.894   1.222   5.186
10565SOL    HW132594   5.977   1.180   5.150
10565SOL    HW232595   5.912   1.258   5.278
10566SOL     OW32596   3.640   4.059   6.136
10566SOL    HW132597   3.730   4.100   6.121
10566SOL    HW232598   3.622   3.990   6.066
10567SOL     OW32599   1.759   3.526   4.103
10567SOL    HW132600   1.835   3.464   4.086
10567SOL    HW232601   1.794   3.615   4.133
10568SOL     OW32602   5.273   0.913   2.235
10568SOL    HW132603   5.338   0.845   2.267
10568SOL    HW232604   5.277   0.995   2.293
10569SOL     OW32605   5.960   2.844   3.684
10569SOL    HW132606   5.877   2.892   3.710
10569SOL    HW232607   6.031   2.910   3.659
10570SOL     OW32608   1.877   4.711   2.601
10570SOL    HW132609   1.955   4.710   2.538
10570SOL    HW232610   1.793   4.728   2.549
10571SOL     OW32611   6.452   6.033   2.875
10571SOL    HW132612   6.388   5.961   2.903
10571SOL    HW232613   6.475   6.021   2.779
10572SOL     OW32614   5.686   3.652   2.302
10572SOL    HW132615   5.778   3.692   2.299
10572SOL    HW232616   5.618   3.722   2.282
10573SOL     OW32617   6.285   5.551   4.408
10573SOL    HW132618   6.241   5.604   4.481
10573SOL    HW232619   6.238   5.567   4.322
10574SOL     OW32620   0.603   1.836   3.506
10574SOL    HW132621   0.577   1.930   3.482
10574SOL    HW232622   0.561   1.811   3.593
10575SOL     OW32623   1.072   0.661   5.229
10575SOL    HW132624   1.051   0.701   5.140
10575SOL    HW232625   1.039   0.722   5.301
10576SOL     OW32626   1.833   5.698   4.494
10576SOL    HW132627   1.862   5.603   4.481
10576SOL    HW232628   1.906   5.760   4.467
10577SOL     OW32629   2.069   3.192   6.020
10577SOL    HW132630   2.107   3.100   6.010
10577SOL    HW232631   1.976   3.185   6.056
10578SOL     OW32632   5.721   0.116   5.273
10578SOL    HW132633   5.701   0.025   5.235
10578SOL    HW232634   5.693   0.118   5.369
10579SOL     OW32635   4.605   1.697   0.461
10579SOL    HW132636   4.571   1.673   0.552
10579SOL    HW232637   4.630   1.614   0.411
10580SOL     OW32638   6.846   6.205   6.969
10580SOL    HW132639   6.913   6.279   6.982
10580SOL    HW232640   6.776   6.235   6.905
10581SOL     OW32641   5.355   0.686   3.675
10581SOL    HW132642   5.283   0.670   3.607
10581SOL    HW232643   5.391   0.598   3.706
10582SOL     OW32644   3.838   5.075   6.536
10582SOL    HW132645   3.892   5.024   6.469
10582SOL    HW232646   3.887   5.157   6.564
10583SOL     OW32647   3.610   0.848   0.280
10583SOL    HW132648   3.560   0.932   0.259
10583SOL    HW232649   3.556   0.769   0.252
10584SOL     OW32650   5.436   6.648   1.212
10584SOL    HW132651   5.406   6.556   1.239
10584SOL    HW232652   5.376   6.716   1.255
10585SOL     OW32653   0.932   3.074   6.258
10585SOL    HW132654   0.875   2.995   6.282
10585SOL    HW232655   1.008   3.044   6.200
10586SOL     OW32656   2.455   5.877   5.932
10586SOL    HW132657   2.400   5.799   5.960
10586SOL    HW232658   2.549   5.847   5.915
10587SOL     OW32659   6.366   3.569   0.472
10587SOL    HW132660   6.343   3.523   0.386
10587SOL    HW232661   6.282   3.602   0.515
10588SOL     OW32662   1.188   4.854   2.998
10588SOL    HW132663   1.131   4.889   3.073
10588SOL    HW232664   1.269   4.911   2.989
10589SOL     OW32665   5.534   2.201   4.277
10589SOL    HW132666   5.564   2.233   4.187
10589SOL    HW232667   5.610   2.206   4.341
10590SOL     OW32668   1.183   0.339   3.697
10590SOL    HW132669   1.152   0.293   3.780
10590SOL    HW232670   1.274   0.378   3.712
10591SOL     OW32671   1.043   1.765   6.814
10591SOL    HW132672   1.119   1.814   6.858
10591SOL    HW232673   1.079   1.695   6.753
10592SOL     OW32674   6.314   1.464   0.353
10592SOL    HW132675   6.322   1.477   0.452
10592SOL    HW232676   6.234   1.513   0.319
10593SOL     OW32677   2.045   5.375   1.536
10593SOL    HW132678   1.969   5.380   1.471
10593SOL    HW232679   2.042   5.455   1.597
10594SOL     OW32680   6.053   1.483   4.036
10594SOL    HW132681   6.019   1.404   3.985
10594SOL    HW232682   5.981   1.551   4.045
10595SOL     OW32683   3.808   6.464   6.308
10595SOL    HW132684   3.837   6.430   6.397
10595SOL    HW232685   3.708   6.459   6.301
10596SOL     OW32686   4.037   6.735   2.657
10596SOL    HW132687   4.103   6.714   2.730
10596SOL    HW232688   3.945   6.712   2.688
10597SOL     OW32689   2.142   0.710   4.922
10597SOL    HW132690   2.161   0.805   4.900
10597SOL    HW232691   2.082   0.706   5.002
10598SOL     OW32692   2.213   2.301   6.919
10598SOL    HW132693   2.272   2.273   6.995
10598SOL    HW232694   2.173   2.219   6.876
10599SOL     OW32695   5.966   0.792   0.012
10599SOL    HW132696   5.917   0.876   7.007
10599SOL    HW232697   5.959   0.776   0.110
10600SOL     OW32698   2.542   2.808   5.749
10600SOL    HW132699   2.452   2.786   5.712
10600SOL    HW232700   2.586   2.878   5.692
10601SOL     OW32701   2.694   6.468   6.265
10601SOL    HW132702   2.669   6.527   6.189
10601SOL    HW232703   2.619   6.404   6.284
10602SOL     OW32704   4.739   1.638   1.338
10602SOL    HW132705   4.829   1.594   1.342
10602SOL    HW232706   4.668   1.571   1.359
10603SOL     OW32707   2.159   5.410   4.011
10603SOL    HW132708   2.086   5.471   3.981
10603SOL    HW232709   2.201   5.365   3.932
10604SOL     OW32710   6.565   3.885   4.132
10604SOL    HW132711   6.584   3.906   4.228
10604SOL    HW232712   6.638   3.921   4.074
10605SOL     OW32713   1.069   5.269   6.696
10605SOL    HW132714   1.162   5.260   6.733
10605SOL    HW232715   1.067   5.230   6.604
10606SOL     OW32716   0.321   0.283   1.516
10606SOL    HW132717   0.351   0.299   1.422
10606SOL    HW232718   0.387   0.223   1.562
10607SOL     OW32719   5.033   4.529   6.726
10607SOL    HW132720   5.082   4.576   6.653
10607SOL    HW232721   4.936   4.524   6.703
10608SOL     OW32722   5.711   1.567   4.312
10608SOL    HW132723   5.648   1.584   4.388
10608SOL    HW232724   5.661   1.528   4.235
10609SOL     OW32725   3.969   6.480   0.675
10609SOL    HW132726   3.930   6.528   0.596
10609SOL    HW232727   4.055   6.523   0.701
10610SOL     OW32728   1.406   3.183   5.877
10610SOL    HW132729   1.328   3.227   5.833
10610SOL    HW232730   1.455   3.249   5.934
10611SOL     OW32731   5.592   2.528   6.010
10611SOL    HW132732   5.504   2.535   5.964
10611SOL    HW232733   5.639   2.617   6.006
10612SOL     OW32734   2.305   0.286   6.716
10612SOL    HW132735   2.344   0.368   6.672
10612SOL    HW232736   2.320   0.207   6.656
10613SOL     OW32737   0.291   6.654   5.892
10613SOL    HW132738   0.208   6.701   5.923
10613SOL    HW232739   0.296   6.563   5.934
10614SOL     OW32740   6.159   1.150   4.203
10614SOL    HW132741   6.159   1.054   4.233
10614SOL    HW232742   6.188   1.155   4.107
10615SOL     OW32743   4.998   5.463   4.924
10615SOL    HW132744   5.008   5.366   4.946
10615SOL    HW232745   5.014   5.518   5.007
10616SOL     OW32746   3.281   6.157   6.888
10616SOL    HW132747   3.253   6.089   6.956
10616SOL    HW232748   3.222   6.148   6.807
10617SOL     OW32749   2.317   2.037   0.731
10617SOL    HW132750   2.241   2.055   0.794
10617SOL    HW232751   2.299   2.082   0.643
10618SOL     OW32752   5.913   3.049   0.084
10618SOL    HW132753   5.915   3.014   0.178
10618SOL    HW232754   5.851   3.128   0.080
10619SOL     OW32755   1.230   4.256   3.970
10619SOL    HW132756   1.215   4.328   3.903
10619SOL    HW232757   1.287   4.184   3.930
10620SOL     OW32758   1.498   6.164   4.664
10620SOL    HW132759   1.461   6.082   4.620
10620SOL    HW232760   1.591   6.180   4.631
10621SOL     OW32761   1.835   6.110   0.252
10621SOL    HW132762   1.754   6.060   0.280
10621SOL    HW232763   1.807   6.197   0.211
10622SOL     OW32764   3.768   0.470   1.502
10622SOL    HW132765   3.828   0.488   1.580
10622SOL    HW232766   3.819   0.484   1.417
10623SOL     OW32767   6.183   2.173   3.930
10623SOL    HW132768   6.150   2.149   3.838
10623SOL    HW232769   6.253   2.244   3.923
10624SOL     OW32770   1.688   0.810   4.456
10624SOL    HW132771   1.656   0.800   4.550
10624SOL    HW232772   1.610   0.807   4.393
10625SOL     OW32773   0.762   3.174   6.954
10625SOL    HW132774   0.801   3.201   0.024
10625SOL    HW232775   0.683   3.232   6.933
10626SOL     OW32776   0.682   1.678   2.089
10626SOL    HW132777   0.676   1.619   2.009
10626SOL    HW232778   0.746   1.639   2.155
10627SOL     OW32779   6.522   6.375   3.073
10627SOL    HW132780   6.482   6.385   3.164
10627SOL    HW232781   6.528   6.465   3.029
10628SOL     OW32782   6.277   5.780   5.548
10628SOL    HW132783   6.255   5.796   5.644
10628SOL    HW232784   6.352   5.840   5.521
10629SOL     OW32785   2.787   5.140   5.769
10629SOL    HW132786   2.884   5.122   5.755
10629SOL    HW232787   2.752   5.193   5.692
10630SOL     OW32788   6.062   1.684   3.364
10630SOL    HW132789   6.151   1.687   3.319
10630SOL    HW232790   6.000   1.750   3.321
10631SOL     OW32791   0.689   6.878   3.926
10631SOL    HW132792   0.628   6.860   4.003
10631SOL    HW232793   0.784   6.865   3.955
10632SOL     OW32794   6.581   1.712   4.640
10632SOL    HW132795   6.507   1.708   4.707
10632SOL    HW232796   6.563   1.646   4.567
10633SOL     OW32797   2.594   5.710   1.475
10633SOL    HW132798   2.630   5.748   1.561
10633SOL    HW232799   2.500   5.679   1.489
10634SOL     OW32800   3.581   6.122   1.036
10634SOL    HW132801   3.538   6.180   0.967
10634SOL    HW232802   3.538   6.137   1.125
10635SOL     OW32803   2.424   0.465   1.333
10635SOL    HW132804   2.413   0.412   1.417
10635SOL    HW232805   2.351   0.442   1.269
10636SOL     OW32806   0.768   1.938   1.372
10636SOL    HW132807   0.867   1.925   1.378
10636SOL    HW232808   0.748   2.005   1.301
10637SOL     OW32809   3.321   4.155   4.529
10637SOL    HW132810   3.381   4.133   4.607
10637SOL    HW232811   3.228   4.128   4.551
10638SOL     OW32812   6.773   6.466   4.820
10638SOL    HW132813   6.836   6.390   4.836
10638SOL    HW232814   6.755   6.476   4.722
10639SOL     OW32815   1.641   0.999   5.118
10639SOL    HW132816   1.667   0.937   5.193
10639SOL    HW232817   1.657   1.093   5.147
10640SOL     OW32818   5.256   1.621   0.235
10640SOL    HW132819   5.161   1.596   0.221
10640SOL    HW232820   5.311   1.585   0.159
10641SOL     OW32821   5.792   1.593   6.874
10641SOL    HW132822   5.877   1.638   6.845
10641SOL    HW232823   5.777   1.610   6.971
10642SOL     OW32824   0.458   2.613   1.784
10642SOL    HW132825   0.556   2.598   1.797
10642SOL    HW232826   0.424   2.551   1.713
10643SOL     OW32827   2.609   3.408   5.358
10643SOL    HW132828   2.668   3.357   5.295
10643SOL    HW232829   2.654   3.493   5.385
10644SOL     OW32830   4.388   1.648   3.891
10644SOL    HW132831   4.473   1.600   3.912
10644SOL    HW232832   4.400   1.704   3.810
10645SOL     OW32833   2.288   0.106   4.940
10645SOL    HW132834   2.301   0.138   4.846
10645SOL    HW232835   2.214   0.038   4.942
10646SOL     OW32836   1.423   3.360   6.091
10646SOL    HW132837   1.343   3.309   6.121
10646SOL    HW232838   1.487   3.370   6.167
10647SOL     OW32839   6.815   5.122   0.485
10647SOL    HW132840   6.851   5.214   0.469
10647SOL    HW232841   6.808   5.074   0.397
10648SOL     OW32842   4.730   2.729   6.998
10648SOL    HW132843   4.702   2.702   0.072
10648SOL    HW232844   4.670   2.801   6.964
10649SOL     OW32845   6.815   5.135   5.727
10649SOL    HW132846   6.827   5.067   5.799
10649SOL    HW232847   6.723   5.172   5.730
10650SOL     OW32848   2.664   6.252   3.854
10650SOL    HW132849   2.635   6.162   3.887
10650SOL    HW232850   2.636   6.262   3.758
10651SOL     OW32851   4.950   6.553   5.983
10651SOL    HW132852   4.918   6.647   5.975
10651SOL    HW232853   5.050   6.552   5.983
10652SOL     OW32854   3.775   0.540   6.101
10652SOL    HW132855   3.826   0.455   6.118
10652SOL    HW232856   3.681   0.517   6.075
10653SOL     OW32857   5.465   4.313   4.329
10653SOL    HW132858   5.559   4.297   4.358
10653SOL    HW232859   5.404   4.248   4.375
10654SOL     OW32860   4.147   1.181   0.770
10654SOL    HW132861   4.145   1.230   0.857
10654SOL    HW232862   4.223   1.116   0.770
10655SOL     OW32863   2.921   5.907   1.215
10655SOL    HW132864   2.899   6.002   1.238
10655SOL    HW232865   2.941   5.899   1.118
10656SOL     OW32866   6.243   2.529   0.020
10656SOL    HW132867   6.325   2.571   0.059
10656SOL    HW232868   6.173   2.519   0.090
10657SOL     OW32869   5.968   0.974   1.183
10657SOL    HW132870   6.034   0.899   1.187
10657SOL    HW232871   5.893   0.955   1.246
10658SOL     OW32872   0.399   5.015   4.345
10658SOL    HW132873   0.314   4.998   4.395
10658SOL    HW232874   0.425   5.111   4.355
10659SOL     OW32875   6.200   0.316   0.516
10659SOL    HW132876   6.128   0.289   0.452
10659SOL    HW232877   6.206   0.416   0.519
10660SOL     OW32878   4.720   5.232   5.493
10660SOL    HW132879   4.713   5.165   5.418
10660SOL    HW232880   4.689   5.322   5.460
10661SOL     OW32881   0.315   6.715   2.523
10661SOL    HW132882   0.322   6.664   2.608
10661SOL    HW232883   0.349   6.659   2.447
10662SOL     OW32884   6.006   1.619   0.619
10662SOL    HW132885   6.045   1.551   0.556
10662SOL    HW232886   6.032   1.597   0.713
10663SOL     OW32887   6.904   0.206   0.035
10663SOL    HW132888   6.840   0.165   0.101
10663SOL    HW232889   6.928   0.298   0.064
10664SOL     OW32890   1.963   5.564   0.125
10664SOL    HW132891   1.949   5.519   0.213
10664SOL    HW232892   1.949   5.662   0.134
10665SOL     OW32893   6.478   1.624   0.860
10665SOL    HW132894   6.441   1.547   0.911
10665SOL    HW232895   6.484   1.704   0.920
10666SOL     OW32896   2.057   6.617   0.291
10666SOL    HW132897   2.058   6.614   0.191
10666SOL    HW232898   2.149   6.602   0.327
10667SOL     OW32899   3.121   2.005   5.892
10667SOL    HW132900   3.051   1.955   5.945
10667SOL    HW232901   3.080   2.087   5.852
10668SOL     OW32902   1.635   1.440   6.441
10668SOL    HW132903   1.636   1.417   6.343
10668SOL    HW232904   1.728   1.435   6.477
10669SOL     OW32905   1.528   0.094   0.078
10669SOL    HW132906   1.472   0.040   0.015
10669SOL    HW232907   1.561   0.176   0.032
10670SOL     OW32908   6.321   4.449   5.991
10670SOL    HW132909   6.308   4.424   5.896
10670SOL    HW232910   6.407   4.500   6.001
10671SOL     OW32911   2.194   1.438   3.430
10671SOL    HW132912   2.142   1.521   3.412
10671SOL    HW232913   2.222   1.437   3.526
10672SOL     OW32914   6.939   3.006   1.378
10672SOL    HW132915   6.978   2.984   1.467
10672SOL    HW232916   6.940   2.924   1.320
10673SOL     OW32917   2.715   3.018   5.379
10673SOL    HW132918   2.631   3.030   5.325
10673SOL    HW232919   2.691   2.999   5.474
10674SOL     OW32920   3.794   3.230   1.511
10674SOL    HW132921   3.700   3.250   1.536
10674SOL    HW232922   3.844   3.316   1.499
10675SOL     OW32923   0.047   0.471   5.520
10675SOL    HW132924   0.090   0.399   5.465
10675SOL    HW232925   6.966   0.455   5.525
10676SOL     OW32926   6.212   6.761   6.447
10676SOL    HW132927   6.272   6.724   6.518
10676SOL    HW232928   6.227   6.859   6.438
10677SOL     OW32929   0.263   0.470   0.882
10677SOL    HW132930   0.277   0.519   0.795
10677SOL    HW232931   0.172   0.428   0.883
10678SOL     OW32932   2.141   6.207   2.777
10678SOL    HW132933   2.085   6.249   2.705
10678SOL    HW232934   2.236   6.201   2.746
10679SOL     OW32935   5.185   5.100   4.699
10679SOL    HW132936   5.105   5.041   4.710
10679SOL    HW232937   5.251   5.081   4.771
10680SOL     OW32938   1.370   2.727   2.664
10680SOL    HW132939   1.327   2.790   2.599
10680SOL    HW232940   1.404   2.778   2.743
10681SOL     OW32941   6.960   1.696   5.907
10681SOL    HW132942   6.990   1.760   5.977
10681SOL    HW232943   6.873   1.654   5.935
10682SOL     OW32944   6.892   1.852   3.181
10682SOL    HW132945   6.954   1.780   3.211
10682SOL    HW232946   6.945   1.924   3.135
10683SOL     OW32947   1.716   1.669   4.790
10683SOL    HW132948   1.619   1.693   4.803
10683SOL    HW232949   1.769   1.753   4.780
10684SOL     OW32950   5.925   4.360   6.944
10684SOL    HW132951   5.911   4.412   0.011
10684SOL    HW232952   6.022   4.334   6.937
10685SOL     OW32953   0.004   3.108   3.037
10685SOL    HW132954   0.027   3.023   2.990
10685SOL    HW232955   7.009   3.090   3.134
10686SOL     OW32956   3.451   5.434   0.265
10686SOL    HW132957   3.528   5.490   0.235
10686SOL    HW232958   3.439   5.443   0.363
10687SOL     OW32959   0.519   4.861   3.155
10687SOL    HW132960   0.576   4.782   3.177
10687SOL    HW232961   0.504   4.865   3.056
10688SOL     OW32962   6.520   5.149   2.050
10688SOL    HW132963   6.556   5.056   2.040
10688SOL    HW232964   6.422   5.148   2.034
10689SOL     OW32965   0.717   1.324   2.859
10689SOL    HW132966   0.740   1.321   2.762
10689SOL    HW232967   0.776   1.260   2.909
10690SOL     OW32968   4.217   4.916   1.887
10690SOL    HW132969   4.119   4.911   1.910
10690SOL    HW232970   4.256   4.824   1.889
10691SOL     OW32971   6.848   1.340   1.615
10691SOL    HW132972   6.904   1.352   1.533
10691SOL    HW232973   6.868   1.251   1.656
10692SOL     OW32974   3.650   6.196   3.587
10692SOL    HW132975   3.645   6.116   3.527
10692SOL    HW232976   3.560   6.241   3.588
10693SOL     OW32977   6.685   1.672   1.899
10693SOL    HW132978   6.754   1.649   1.831
10693SOL    HW232979   6.659   1.590   1.950
10694SOL     OW32980   3.872   6.650   0.463
10694SOL    HW132981   3.954   6.665   0.407
10694SOL    HW232982   3.829   6.564   0.436
10695SOL     OW32983   0.188   3.151   4.150
10695SOL    HW132984   0.180   3.150   4.050
10695SOL    HW232985   0.098   3.132   4.191
10696SOL     OW32986   0.064   6.270   1.996
10696SOL    HW132987   0.118   6.328   2.057
10696SOL    HW232988   0.090   6.175   2.009
10697SOL     OW32989   2.602   5.542   3.551
10697SOL    HW132990   2.617   5.444   3.534
10697SOL    HW232991   2.690   5.588   3.562
10698SOL     OW32992   2.695   6.527   3.318
10698SOL    HW132993   2.615   6.468   3.326
10698SOL    HW232994   2.674   6.604   3.258
10699SOL     OW32995   2.653   2.408   2.575
10699SOL    HW132996   2.722   2.381   2.643
10699SOL    HW232997   2.665   2.355   2.491
10700SOL     OW32998   6.807   6.788   1.174
10700SOL    HW132999   6.878   6.850   1.207
10700SOL    HW233000   6.721   6.807   1.223
10701SOL     OW33001   2.836   6.144   0.948
10701SOL    HW133002   2.881   6.219   0.901
10701SOL    HW233003   2.783   6.090   0.882
10702SOL     OW33004   6.359   3.303   1.478
10702SOL    HW133005   6.411   3.264   1.402
10702SOL    HW233006   6.373   3.248   1.560
10703SOL     OW33007   3.992   3.850   3.456
10703SOL    HW133008   4.038   3.763   3.440
10703SOL    HW233009   3.905   3.834   3.502
10704SOL     OW33010   5.259   6.903   2.008
10704SOL    HW133011   5.175   6.855   2.035
10704SOL    HW233012   5.265   6.990   2.057
10705SOL     OW33013   0.351   2.648   6.297
10705SOL    HW133014   0.401   2.660   6.383
10705SOL    HW233015   0.333   2.738   6.256
10706SOL     OW33016   3.407   1.086   2.078
10706SOL    HW133017   3.460   1.020   2.131
10706SOL    HW233018   3.468   1.154   2.037
10707SOL     OW33019   5.851   0.190   6.089
10707SOL    HW133020   5.837   0.098   6.126
10707SOL    HW233021   5.845   0.187   5.989
10708SOL     OW33022   5.328   1.421   1.076
10708SOL    HW133023   5.397   1.462   1.135
10708SOL    HW233024   5.260   1.490   1.051
10709SOL     OW33025   6.886   5.908   5.887
10709SOL    HW133026   6.917   5.974   5.956
10709SOL    HW233027   6.793   5.931   5.858
10710SOL     OW33028   5.930   5.250   3.415
10710SOL    HW133029   6.011   5.306   3.395
10710SOL    HW233030   5.851   5.309   3.431
10711SOL     OW33031   1.681   6.320   3.981
10711SOL    HW133032   1.732   6.373   4.050
10711SOL    HW233033   1.602   6.373   3.951
10712SOL     OW33034   3.318   1.359   4.759
10712SOL    HW133035   3.306   1.405   4.847
10712SOL    HW233036   3.325   1.427   4.686
10713SOL     OW33037   0.838   6.285   1.187
10713SOL    HW133038   0.740   6.271   1.202
10713SOL    HW233039   0.880   6.199   1.158
10714SOL     OW33040   0.107   5.015   5.861
10714SOL    HW133041   0.165   4.987   5.783
10714SOL    HW233042   0.051   4.937   5.890
10715SOL     OW33043   5.835   1.325   4.243
10715SOL    HW133044   5.852   1.286   4.153
10715SOL    HW233045   5.798   1.417   4.233
10716SOL     OW33046   6.025   0.149   3.736
10716SOL    HW133047   6.022   0.053   3.708
10716SOL    HW233048   5.999   0.157   3.832
10717SOL     OW33049   6.987   6.995   1.252
10717SOL    HW133050   0.038   0.050   1.260
10717SOL    HW233051   6.932   6.993   1.335
10718SOL     OW33052   0.059   4.699   6.810
10718SOL    HW133053   0.134   4.721   6.872
10718SOL    HW233054   6.994   4.681   6.863
10719SOL     OW33055   5.250   0.429   2.169
10719SOL    HW133056   5.288   0.451   2.259
10719SOL    HW233057   5.276   0.499   2.103
10720SOL     OW33058   0.411   3.593   6.871
10720SOL    HW133059   0.384   3.640   6.955
10720SOL    HW233060   0.331   3.576   6.815
10721SOL     OW33061   4.767   2.513   4.023
10721SOL    HW133062   4.697   2.574   3.985
10721SOL    HW233063   4.835   2.494   3.952
10722SOL     OW33064   0.324   4.323   0.258
10722SOL    HW133065   0.361   4.231   0.250
10722SOL    HW233066   0.322   4.366   0.168
10723SOL     OW33067   6.514   4.392   0.111
10723SOL    HW133068   6.506   4.311   0.169
10723SOL    HW233069   6.444   4.458   0.137
10724SOL     OW33070   3.347   6.525   5.899
10724SOL    HW133071   3.291   6.477   5.966
10724SOL    HW233072   3.407   6.460   5.853
10725SOL     OW33073   6.629   6.188   4.726
10725SOL    HW133074   6.640   6.272   4.674
10725SOL    HW233075   6.685   6.116   4.686
10726SOL     OW33076   5.487   0.527   4.011
10726SOL    HW133077   5.500   0.626   4.021
10726SOL    HW233078   5.545   0.492   3.937
10727SOL     OW33079   2.406   5.928   6.550
10727SOL    HW133080   2.308   5.915   6.566
10727SOL    HW233081   2.458   5.865   6.608
10728SOL     OW33082   5.068   5.692   3.331
10728SOL    HW133083   5.057   5.693   3.232
10728SOL    HW233084   5.164   5.678   3.355
10729SOL     OW33085   6.196   2.996   3.586
10729SOL    HW133086   6.186   3.077   3.528
10729SOL    HW233087   6.275   2.943   3.556
10730SOL     OW33088   2.026   5.926   2.784
10730SOL    HW133089   2.058   6.021   2.785
10730SOL    HW233090   2.096   5.868   2.825
10731SOL     OW33091   4.708   6.480   6.535
10731SOL    HW133092   4.659   6.397   6.506
10731SOL    HW233093   4.775   6.505   6.465
10732SOL     OW33094   6.154   5.918   3.212
10732SOL    HW133095   6.071   5.972   3.223
10732SOL    HW233096   6.228   5.960   3.264
10733SOL     OW33097   0.462   0.926   6.126
10733SOL    HW133098   0.419   1.004   6.079
10733SOL    HW233099   0.415   0.842   6.100
10734SOL     OW33100   1.511   1.314   5.003
10734SOL    HW133101   1.493   1.281   4.910
10734SOL    HW233102   1.463   1.401   5.017
10735SOL     OW33103   0.735   5.429   2.253
10735SOL    HW133104   0.795   5.369   2.199
10735SOL    HW233105   0.785   5.513   2.277
10736SOL     OW33106   5.737   6.532   3.823
10736SOL    HW133107   5.789   6.511   3.906
10736SOL    HW233108   5.701   6.448   3.784
10737SOL     OW33109   6.081   1.582   2.097
10737SOL    HW133110   5.982   1.575   2.098
10737SOL    HW233111   6.107   1.679   2.097
10738SOL     OW33112   3.544   1.309   1.988
10738SOL    HW133113   3.628   1.327   2.038
10738SOL    HW233114   3.487   1.391   1.988
10739SOL     OW33115   5.293   2.558   3.677
10739SOL    HW133116   5.379   2.563   3.628
10739SOL    HW233117   5.268   2.649   3.710
10740SOL     OW33118   2.015   7.013   6.066
10740SOL    HW133119   2.100   6.960   6.061
10740SOL    HW233120   1.937   6.950   6.068
10741SOL     OW33121   2.643   2.074   3.456
10741SOL    HW133122   2.717   2.139   3.438
10741SOL    HW233123   2.586   2.109   3.530
10742SOL     OW33124   6.509   6.399   2.548
10742SOL    HW133125   6.513   6.379   2.646
10742SOL    HW233126   6.445   6.337   2.503
10743SOL     OW33127   3.241   0.985   5.769
10743SOL    HW133128   3.216   1.080   5.785
10743SOL    HW233129   3.265   0.973   5.672
10744SOL     OW33130   2.238   0.875   1.143
10744SOL    HW133131   2.272   0.783   1.163
10744SOL    HW233132   2.143   0.870   1.113
10745SOL     OW33133   1.276   4.561   2.077
10745SOL    HW133134   1.267   4.482   2.017
10745SOL    HW233135   1.200   4.563   2.142
10746SOL     OW33136   2.085   6.294   6.876
10746SOL    HW133137   2.140   6.357   6.821
10746SOL    HW233138   2.132   6.206   6.885
10747SOL     OW33139   6.027   1.296   4.820
10747SOL    HW133140   5.931   1.289   4.794
10747SOL    HW233141   6.039   1.371   4.885
10748SOL     OW33142   3.854   6.140   1.048
10748SOL    HW133143   3.755   6.143   1.038
10748SOL    HW233144   3.881   6.189   1.131
10749SOL     OW33145   5.570   5.068   2.210
10749SOL    HW133146   5.649   5.046   2.267
10749SOL    HW233147   5.490   5.018   2.243
10750SOL     OW33148   4.915   2.505   3.786
10750SOL    HW133149   4.932   2.408   3.802
10750SOL    HW233150   4.872   2.516   3.696
10751SOL     OW33151   0.263   4.651   5.466
10751SOL    HW133152   0.281   4.716   5.392
10751SOL    HW233153   0.258   4.559   5.429
10752SOL     OW33154   6.612   6.429   0.452
10752SOL    HW133155   6.531   6.372   0.469
10752SOL    HW233156   6.677   6.417   0.528
10753SOL     OW33157   4.677   6.688   3.989
10753SOL    HW133158   4.593   6.712   3.939
10753SOL    HW233159   4.657   6.612   4.052
10754SOL     OW33160   0.736   3.804   1.849
10754SOL    HW133161   0.814   3.833   1.794
10754SOL    HW233162   0.714   3.874   1.917
10755SOL     OW33163   6.299   2.920   1.358
10755SOL    HW133164   6.223   2.955   1.413
10755SOL    HW233165   6.264   2.858   1.288
10756SOL     OW33166   0.624   1.626   0.094
10756SOL    HW133167   0.644   1.704   0.153
10756SOL    HW233168   0.595   1.548   0.150
10757SOL     OW33169   0.305   4.141   1.758
10757SOL    HW133170   0.319   4.058   1.812
10757SOL    HW233171   0.392   4.170   1.718
10758SOL     OW33172   0.664   0.486   6.902
10758SOL    HW133173   0.730   0.508   6.830
10758SOL    HW233174   0.572   0.483   6.864
10759SOL     OW33175   2.751   2.011   6.186
10759SOL    HW133176   2.823   1.957   6.141
10759SOL    HW233177   2.771   2.017   6.284
10760SOL     OW33178   1.233   5.331   0.294
10760SOL    HW133179   1.220   5.361   0.388
10760SOL    HW233180   1.237   5.231   0.292
10761SOL     OW33181   0.215   0.912   5.616
10761SOL    HW133182   0.229   0.872   5.706
10761SOL    HW233183   0.176   1.004   5.626
10762SOL     OW33184   2.933   6.057   6.335
10762SOL    HW133185   2.931   6.123   6.260
10762SOL    HW233186   3.028   6.030   6.353
10763SOL     OW33187   5.016   0.009   3.712
10763SOL    HW133188   4.958   6.948   3.735
10763SOL    HW233189   5.005   0.079   3.783
10764SOL     OW33190   4.394   0.892   4.233
10764SOL    HW133191   4.418   0.909   4.137
10764SOL    HW233192   4.314   0.947   4.257
10765SOL     OW33193   6.734   2.260   2.348
10765SOL    HW133194   6.756   2.273   2.251
10765SOL    HW233195   6.788   2.185   2.385
10766SOL     OW33196   1.627   5.593   6.618
10766SOL    HW133197   1.540   5.639   6.601
10766SOL    HW233198   1.677   5.584   6.532
10767SOL     OW33199   1.545   5.081   0.688
10767SOL    HW133200   1.603   5.156   0.720
10767SOL    HW233201   1.457   5.085   0.736
10768SOL     OW33202   5.503   5.963   0.478
10768SOL    HW133203   5.571   5.917   0.536
10768SOL    HW233204   5.430   5.898   0.454
10769SOL     OW33205   3.615   3.001   4.850
10769SOL    HW133206   3.590   3.077   4.910
10769SOL    HW233207   3.665   3.037   4.771
10770SOL     OW33208   5.258   0.219   3.469
10770SOL    HW133209   5.337   0.259   3.422
10770SOL    HW233210   5.290   0.160   3.543
10771SOL     OW33211   4.667   6.060   5.478
10771SOL    HW133212   4.636   6.011   5.559
10771SOL    HW233213   4.607   6.038   5.401
10772SOL     OW33214   5.474   5.498   2.782
10772SOL    HW133215   5.389   5.452   2.758
10772SOL    HW233216   5.469   5.532   2.876
10773SOL     OW33217   6.980   3.493   1.561
10773SOL    HW133218   6.882   3.507   1.551
10773SOL    HW233219   0.007   3.580   1.580
10774SOL     OW33220   0.690   2.869   0.396
10774SOL    HW133221   0.677   2.772   0.418
10774SOL    HW233222   0.788   2.889   0.391
10775SOL     OW33223   1.503   4.295   0.160
10775SOL    HW133224   1.436   4.338   0.221
10775SOL    HW233225   1.591   4.287   0.208
10776SOL     OW33226   0.870   2.619   3.697
10776SOL    HW133227   0.832   2.685   3.632
10776SOL    HW233228   0.823   2.532   3.688
10777SOL     OW33229   3.353   1.609   1.982
10777SOL    HW133230   3.364   1.699   2.025
10777SOL    HW233231   3.310   1.620   1.893
10778SOL     OW33232   6.665   6.953   3.100
10778SOL    HW133233   6.722   0.012   3.071
10778SOL    HW233234   6.572   6.985   3.119
10779SOL     OW33235   5.117   3.888   4.847
10779SOL    HW133236   5.026   3.870   4.885
10779SOL    HW233237   5.163   3.801   4.829
10780SOL     OW33238   1.711   5.611   5.044
10780SOL    HW133239   1.757   5.640   4.960
10780SOL    HW233240   1.751   5.660   5.122
10781SOL     OW33241   6.064   2.334   5.401
10781SOL    HW133242   5.978   2.341   5.350
10781SOL    HW233243   6.105   2.244   5.384
10782SOL     OW33244   1.256   2.556   5.085
10782SOL    HW133245   1.228   2.612   5.007
10782SOL    HW233246   1.232   2.460   5.067
10783SOL     OW33247   1.143   2.427   3.189
10783SOL    HW133248   1.135   2.514   3.140
10783SOL    HW233249   1.137   2.445   3.288
10784SOL     OW33250   3.532   5.786   2.485
10784SOL    HW133251   3.531   5.809   2.582
10784SOL    HW233252   3.599   5.842   2.437
10785SOL     OW33253   1.773   5.575   2.325
10785SOL    HW133254   1.744   5.613   2.413
10785SOL    HW233255   1.751   5.640   2.252
10786SOL     OW33256   4.254   1.328   2.004
10786SOL    HW133257   4.329   1.393   2.017
10786SOL    HW233258   4.167   1.374   2.023
10787SOL     OW33259   4.129   0.472   3.003
10787SOL    HW133260   4.160   0.522   3.084
10787SOL    HW233261   4.137   0.374   3.019
10788SOL     OW33262   1.360   4.379   0.366
10788SOL    HW133263   1.447   4.334   0.386
10788SOL    HW233264   1.368   4.477   0.386
10789SOL     OW33265   6.320   1.517   1.589
10789SOL    HW133266   6.265   1.572   1.653
10789SOL    HW233267   6.415   1.549   1.591
10790SOL     OW33268   0.553   1.644   4.919
10790SOL    HW133269   0.511   1.664   4.831
10790SOL    HW233270   0.485   1.654   4.992
10791SOL     OW33271   1.323   1.832   4.087
10791SOL    HW133272   1.390   1.905   4.102
10791SOL    HW233273   1.358   1.768   4.019
10792SOL     OW33274   3.987   1.757   1.485
10792SOL    HW133275   3.971   1.824   1.557
10792SOL    HW233276   4.075   1.775   1.441
10793SOL     OW33277   4.234   1.959   4.780
10793SOL    HW133278   4.239   1.874   4.727
10793SOL    HW233279   4.327   1.989   4.802
10794SOL     OW33280   4.896   2.285   0.821
10794SOL    HW133281   4.875   2.258   0.727
10794SOL    HW233282   4.859   2.376   0.838
10795SOL     OW33283   6.894   3.890   3.569
10795SOL    HW133284   6.981   3.908   3.613
10795SOL    HW233285   6.824   3.952   3.606
10796SOL     OW33286   0.376   6.698   6.262
10796SOL    HW133287   0.425   6.654   6.337
10796SOL    HW233288   0.418   6.673   6.175
10797SOL     OW33289   4.034   4.279   6.929
10797SOL    HW133290   4.031   4.379   6.936
10797SOL    HW233291   4.108   4.253   6.867
10798SOL     OW33292   2.142   0.109   0.207
10798SOL    HW133293   2.197   0.190   0.224
10798SOL    HW233294   2.187   0.050   0.140
10799SOL     OW33295   2.902   0.989   3.200
10799SOL    HW133296   2.828   0.927   3.224
10799SOL    HW233297   2.912   0.992   3.100
10800SOL     OW33298   1.825   0.223   5.797
10800SOL    HW133299   1.768   0.220   5.879
10800SOL    HW233300   1.876   0.137   5.788
10801SOL     OW33301   2.583   6.839   5.884
10801SOL    HW133302   2.519   6.791   5.824
10801SOL    HW233303   2.672   6.844   5.839
10802SOL     OW33304   0.809   4.953   4.670
10802SOL    HW133305   0.753   4.932   4.589
10802SOL    HW233306   0.813   5.052   4.683
10803SOL     OW33307   0.289   4.199   4.839
10803SOL    HW133308   0.268   4.211   4.742
10803SOL    HW233309   0.346   4.118   4.851
10804SOL     OW33310   4.993   4.947   1.127
10804SOL    HW133311   4.981   5.025   1.188
10804SOL    HW233312   5.048   4.877   1.172
10805SOL     OW33313   4.160   6.423   0.169
10805SOL    HW133314   4.193   6.417   0.075
10805SOL    HW233315   4.092   6.496   0.176
10806SOL     OW33316   5.759   3.848   6.979
10806SOL    HW133317   5.788   3.867   0.054
10806SOL    HW233318   5.839   3.839   6.920
10807SOL     OW33319   5.000   0.349   3.444
10807SOL    HW133320   5.090   0.317   3.475
10807SOL    HW233321   5.012   0.430   3.387
10808SOL     OW33322   6.996   2.881   6.406
10808SOL    HW133323   6.902   2.882   6.440
10808SOL    HW233324   6.995   2.875   6.306
10809SOL     OW33325   2.977   1.439   3.237
10809SOL    HW133326   3.062   1.489   3.221
10809SOL    HW233327   2.973   1.410   3.332
10810SOL     OW33328   0.583   1.761   6.165
10810SOL    HW133329   0.599   1.691   6.096
10810SOL    HW233330   0.659   1.763   6.229
10811SOL     OW33331   4.791   4.785   5.300
10811SOL    HW133332   4.751   4.756   5.388
10811SOL    HW233333   4.891   4.785   5.308
10812SOL     OW33334   6.660   2.027   3.275
10812SOL    HW133335   6.735   1.964   3.253
10812SOL    HW233336   6.603   2.040   3.195
10813SOL     OW33337   2.619   6.051   2.571
10813SOL    HW133338   2.647   5.956   2.574
10813SOL    HW233339   2.520   6.057   2.585
10814SOL     OW33340   1.800   6.544   5.073
10814SOL    HW133341   1.809   6.474   5.002
10814SOL    HW233342   1.752   6.624   5.036
10815SOL     OW33343   5.121   2.446   2.674
10815SOL    HW133344   5.216   2.443   2.644
10815SOL    HW233345   5.081   2.534   2.647
10816SOL     OW33346   2.059   1.817   2.420
10816SOL    HW133347   2.152   1.818   2.457
10816SOL    HW233348   1.998   1.777   2.488
10817SOL     OW33349   5.003   6.810   2.082
10817SOL    HW133350   5.017   6.711   2.081
10817SOL    HW233351   4.915   6.830   2.124
10818SOL     OW33352   4.989   2.905   6.804
10818SOL    HW133353   4.907   2.858   6.771
10818SOL    HW233354   5.067   2.883   6.746
10819SOL     OW33355   0.586   3.478   5.902
10819SOL    HW133356   0.636   3.430   5.829
10819SOL    HW233357   0.650   3.500   5.976
10820SOL     OW33358   0.238   6.894   4.364
10820SOL    HW133359   0.214   6.816   4.306
10820SOL    HW233360   0.155   6.946   4.386
10821SOL     OW33361   6.745   0.048   0.226
10821SOL    HW133362   6.825   0.093   0.265
10821SOL    HW233363   6.728   6.980   0.274
10822SOL     OW33364   1.613   4.882   1.304
10822SOL    HW133365   1.546   4.906   1.234
10822SOL    HW233366   1.685   4.951   1.306
10823SOL     OW33367   1.521   1.347   1.875
10823SOL    HW133368   1.538   1.299   1.789
10823SOL    HW233369   1.572   1.302   1.948
10824SOL     OW33370   5.646   0.237   2.774
10824SOL    HW133371   5.639   0.176   2.695
10824SOL    HW233372   5.658   0.331   2.744
10825SOL     OW33373   3.437   1.618   1.019
10825SOL    HW133374   3.415   1.576   1.107
10825SOL    HW233375   3.531   1.653   1.021
10826SOL     OW33376   6.487   2.939   1.544
10826SOL    HW133377   6.429   2.926   1.464
10826SOL    HW233378   6.550   2.862   1.552
10827SOL     OW33379   0.519   2.605   4.398
10827SOL    HW133380   0.518   2.684   4.336
10827SOL    HW233381   0.573   2.627   4.479
10828SOL     OW33382   1.160   5.977   0.027
10828SOL    HW133383   1.070   5.967   0.071
10828SOL    HW233384   1.222   6.025   0.088
10829SOL     OW33385   2.568   3.341   1.442
10829SOL    HW133386   2.653   3.289   1.433
10829SOL    HW233387   2.543   3.346   1.539
10830SOL     OW33388   4.807   1.761   3.831
10830SOL    HW133389   4.782   1.676   3.785
10830SOL    HW233390   4.755   1.837   3.793
10831SOL     OW33391   5.474   2.480   3.441
10831SOL    HW133392   5.450   2.383   3.456
10831SOL    HW233393   5.560   2.486   3.390
10832SOL     OW33394   0.149   2.306   1.700
10832SOL    HW133395   0.095   2.226   1.676
10832SOL    HW233396   0.089   2.383   1.720
10833SOL     OW33397   3.287   6.496   4.348
10833SOL    HW133398   3.196   6.506   4.388
10833SOL    HW233399   3.317   6.401   4.357
10834SOL     OW33400   0.875   1.168   5.694
10834SOL    HW133401   0.937   1.131   5.624
10834SOL    HW233402   0.893   1.123   5.781
10835SOL     OW33403   6.835   1.844   2.079
10835SOL    HW133404   6.785   1.779   2.023
10835SOL    HW233405   6.803   1.838   2.174
10836SOL     OW33406   1.997   2.170   6.527
10836SOL    HW133407   1.964   2.100   6.464
10836SOL    HW233408   1.945   2.254   6.515
10837SOL     OW33409   0.951   5.732   1.525
10837SOL    HW133410   0.898   5.703   1.446
10837SOL    HW233411   0.989   5.823   1.508
10838SOL     OW33412   6.536   6.667   0.875
10838SOL    HW133413   6.494   6.745   0.921
10838SOL    HW233414   6.529   6.680   0.776
10839SOL     OW33415   2.169   2.077   0.979
10839SOL    HW133416   2.226   2.158   0.989
10839SOL    HW233417   2.205   2.003   1.036
10840SOL     OW33418   3.683   5.108   2.692
10840SOL    HW133419   3.599   5.139   2.738
10840SOL    HW233420   3.727   5.038   2.748
10841SOL     OW33421   4.336   4.604   6.131
10841SOL    HW133422   4.242   4.620   6.099
10841SOL    HW233423   4.383   4.545   6.065
10842SOL     OW33424   6.432   3.160   1.696
10842SOL    HW133425   6.460   3.082   1.639
10842SOL    HW233426   6.500   3.176   1.767
10843SOL     OW33427   0.209   0.959   1.917
10843SOL    HW133428   0.164   0.982   2.004
10843SOL    HW233429   0.140   0.935   1.849
10844SOL     OW33430   3.529   6.443   3.523
10844SOL    HW133431   3.498   6.427   3.617
10844SOL    HW233432   3.624   6.414   3.514
10845SOL     OW33433   2.108   2.942   0.583
10845SOL    HW133434   2.042   2.923   0.656
10845SOL    HW233435   2.201   2.933   0.619
10846SOL     OW33436   3.297   2.137   1.811
10846SOL    HW133437   3.275   2.113   1.906
10846SOL    HW233438   3.344   2.060   1.768
10847SOL     OW33439   4.008   2.644   6.036
10847SOL    HW133440   3.941   2.570   6.028
10847SOL    HW233441   4.088   2.611   6.087
10848SOL     OW33442   1.434   1.487   0.292
10848SOL    HW133443   1.489   1.539   0.357
10848SOL    HW233444   1.412   1.545   0.213
10849SOL     OW33445   2.585   4.944   4.405
10849SOL    HW133446   2.633   4.860   4.428
10849SOL    HW233447   2.489   4.935   4.431
10850SOL     OW33448   5.752   0.479   1.208
10850SOL    HW133449   5.785   0.479   1.113
10850SOL    HW233450   5.657   0.447   1.210
10851SOL     OW33451   4.306   2.295   6.439
10851SOL    HW133452   4.334   2.377   6.489
10851SOL    HW233453   4.245   2.321   6.365
10852SOL     OW33454   0.703   6.589   6.629
10852SOL    HW133455   0.677   6.495   6.653
10852SOL    HW233456   0.788   6.613   6.677
10853SOL     OW33457   2.220   1.610   4.789
10853SOL    HW133458   2.184   1.522   4.819
10853SOL    HW233459   2.208   1.677   4.863
10854SOL     OW33460   0.180   6.600   0.103
10854SOL    HW133461   0.184   6.505   0.134
10854SOL    HW233462   0.265   6.623   0.056
10855SOL     OW33463   1.354   5.994   1.508
10855SOL    HW133464   1.294   6.071   1.486
10855SOL    HW233465   1.445   6.027   1.533
10856SOL     OW33466   6.030   0.309   6.830
10856SOL    HW133467   6.025   0.402   6.794
10856SOL    HW233468   6.126   0.286   6.848
10857SOL     OW33469   5.798   0.191   4.928
10857SOL    HW133470   5.818   0.119   4.861
10857SOL    HW233471   5.707   0.178   4.965
10858SOL     OW33472   2.259   1.619   0.473
10858SOL    HW133473   2.296   1.526   0.475
10858SOL    HW233474   2.201   1.634   0.553
10859SOL     OW33475   0.798   5.199   1.971
10859SOL    HW133476   0.834   5.258   1.899
10859SOL    HW233477   0.874   5.160   2.023
10860SOL     OW33478   5.860   2.780   0.681
10860SOL    HW133479   5.861   2.793   0.780
10860SOL    HW233480   5.919   2.848   0.638
10861SOL     OW33481   3.384   2.869   2.188
10861SOL    HW133482   3.357   2.824   2.274
10861SOL    HW233483   3.483   2.865   2.179
10862SOL     OW33484   3.711   3.056   5.511
10862SOL    HW133485   3.615   3.062   5.540
10862SOL    HW233486   3.737   2.960   5.505
10863SOL     OW33487   2.197   1.689   2.968
10863SOL    HW133488   2.294   1.679   2.944
10863SOL    HW233489   2.142   1.692   2.884
10864SOL     OW33490   3.060   4.885   2.208
10864SOL    HW133491   2.983   4.822   2.195
10864SOL    HW233492   3.122   4.849   2.277
10865SOL     OW33493   3.622   1.359   2.610
10865SOL    HW133494   3.642   1.330   2.703
10865SOL    HW233495   3.628   1.459   2.603
10866SOL     OW33496   6.535   3.689   3.150
10866SOL    HW133497   6.606   3.698   3.220
10866SOL    HW233498   6.576   3.704   3.060
10867SOL     OW33499   4.258   3.508   0.732
10867SOL    HW133500   4.170   3.487   0.776
10867SOL    HW233501   4.327   3.525   0.802
10868SOL     OW33502   1.395   0.875   5.074
10868SOL    HW133503   1.337   0.862   5.155
10868SOL    HW233504   1.468   0.940   5.096
10869NA      NA33505   6.954   1.839   5.709
10870NA      NA33506   4.462   4.566   5.190
10871NA      NA33507   1.545   4.738   3.032
10872NA      NA33508   5.854   3.931   3.576
10873NA      NA33509   3.668   2.143   5.450
10874NA      NA33510   2.248   4.928   0.397
10875NA      NA33511   1.310   5.534   6.979
10876NA      NA33512   3.557   4.250   0.909
10877NA      NA33513   4.267   5.154   0.564
10878NA      NA33514   3.467   1.062   6.429
10879NA      NA33515   5.562   6.933   1.663
10880NA      NA33516   2.134   6.493   5.378
10881NA      NA33517   3.947   5.318   1.691
10882NA      NA33518   3.693   3.525   6.585
   7.01791   7.01791   7.01791
