Generated by trjconv : CNT in water t= 338.00000
33518
    1C        C    1   2.844   2.768   4.749
    1C        C    2   2.903   2.723   4.868
    1C        C    3   2.842   2.775   4.983
    1C        C    4   2.847   2.777   4.258
    1C        C    5   2.898   2.729   4.381
    1C        C    6   2.850   2.777   4.505
    1C        C    7   3.011   2.639   4.624
    1C        C    8   2.896   2.721   4.626
    1C        C    9   3.077   2.605   4.744
    1C        C   10   3.013   2.634   4.867
    1C        C   11   3.186   2.498   4.979
    1C        C   12   3.065   2.569   4.979
    1C        C   13   2.849   2.773   3.771
    1C        C   14   2.902   2.726   3.894
    1C        C   15   2.852   2.780   4.014
    1C        C   16   3.017   2.648   4.139
    1C        C   17   2.905   2.733   4.137
    1C        C   18   3.079   2.615   4.262
    1C        C   19   3.018   2.654   4.383
    1C        C   20   3.211   2.561   4.505
    1C        C   21   3.081   2.615   4.503
    1C        C   22   3.279   2.535   4.626
    1C        C   23   3.209   2.551   4.748
    1C        C   24   3.415   2.485   4.865
    1C        C   25   3.273   2.503   4.866
    1C        C   26   3.490   2.470   4.982
    1C        C   27   2.849   2.769   3.281
    1C        C   28   2.904   2.725   3.404
    1C        C   29   2.850   2.770   3.526
    1C        C   30   3.021   2.648   3.650
    1C        C   31   2.904   2.727   3.649
    1C        C   32   3.078   2.608   3.773
    1C        C   33   3.019   2.646   3.895
    1C        C   34   3.211   2.558   4.019
    1C        C   35   3.080   2.610   4.017
    1C        C   36   3.278   2.539   4.142
    1C        C   37   3.209   2.561   4.263
    1C        C   38   3.419   2.513   4.382
    1C        C   39   3.281   2.542   4.383
    1C        C   40   3.489   2.506   4.504
    1C        C   41   3.417   2.506   4.626
    1C        C   42   3.633   2.485   4.745
    1C        C   43   3.491   2.485   4.744
    1C        C   44   3.707   2.488   4.865
    1C        C   45   3.629   2.472   4.980
    1C        C   46   2.844   2.760   2.797
    1C        C   47   2.899   2.714   2.918
    1C        C   48   2.851   2.770   3.038
    1C        C   49   3.020   2.642   3.161
    1C        C   50   2.904   2.722   3.160
    1C        C   51   3.082   2.606   3.284
    1C        C   52   3.019   2.643   3.405
    1C        C   53   3.210   2.553   3.528
    1C        C   54   3.080   2.609   3.527
    1C        C   55   3.275   2.529   3.651
    1C        C   56   3.207   2.549   3.773
    1C        C   57   3.415   2.509   3.896
    1C        C   58   3.277   2.536   3.895
    1C        C   59   3.488   2.503   4.017
    1C        C   60   3.416   2.509   4.139
    1C        C   61   3.629   2.493   4.263
    1C        C   62   3.488   2.499   4.260
    1C        C   63   3.702   2.506   4.383
    1C        C   64   3.630   2.505   4.504
    1C        C   65   3.839   2.547   4.621
    1C        C   66   3.704   2.504   4.625
    1C        C   67   3.907   2.565   4.743
    1C        C   68   3.843   2.528   4.863
    1C        C   69   4.060   2.581   4.975
    1C        C   70   3.927   2.537   4.975
    1C        C   71   2.820   2.732   2.311
    1C        C   72   2.884   2.690   2.430
    1C        C   73   2.838   2.747   2.550
    1C        C   74   3.010   2.629   2.673
    1C        C   75   2.896   2.713   2.674
    1C        C   76   3.073   2.596   2.795
    1C        C   77   3.013   2.630   2.918
    1C        C   78   3.210   2.546   3.038
    1C        C   79   3.080   2.602   3.040
    1C        C   80   3.275   2.524   3.161
    1C        C   81   3.210   2.547   3.284
    1C        C   82   3.416   2.498   3.408
    1C        C   83   3.277   2.526   3.407
    1C        C   84   3.486   2.497   3.530
    1C        C   85   3.414   2.502   3.652
    1C        C   86   3.627   2.503   3.771
    1C        C   87   3.486   2.496   3.774
    1C        C   88   3.696   2.510   3.894
    1C        C   89   3.629   2.507   4.019
    1C        C   90   3.835   2.549   4.137
    1C        C   91   3.700   2.507   4.141
    1C        C   92   3.905   2.571   4.258
    1C        C   93   3.838   2.544   4.380
    1C        C   94   4.031   2.639   4.497
    1C        C   95   3.909   2.568   4.500
    1C        C   96   4.093   2.673   4.620
    1C        C   97   4.032   2.633   4.740
    1C        C   98   4.190   2.769   4.864
    1C        C   99   4.105   2.654   4.860
    1C        C  100   4.209   2.845   4.980
    1C        C  101   2.820   2.732   2.075
    1C        C  102   2.988   2.591   2.194
    1C        C  103   2.873   2.676   2.192
    1C        C  104   3.063   2.569   2.313
    1C        C  105   3.004   2.616   2.432
    1C        C  106   3.204   2.539   2.553
    1C        C  107   3.071   2.586   2.553
    1C        C  108   3.274   2.518   2.674
    1C        C  109   3.203   2.540   2.794
    1C        C  110   3.412   2.489   2.917
    1C        C  111   3.274   2.521   2.915
    1C        C  112   3.482   2.486   3.039
    1C        C  113   3.414   2.499   3.162
    1C        C  114   3.626   2.500   3.279
    1C        C  115   3.485   2.493   3.285
    1C        C  116   3.695   2.511   3.402
    1C        C  117   3.627   2.500   3.526
    1C        C  118   3.834   2.542   3.650
    1C        C  119   3.697   2.507   3.649
    1C        C  120   3.898   2.570   3.772
    1C        C  121   3.832   2.546   3.895
    1C        C  122   4.027   2.638   4.012
    1C        C  123   3.901   2.574   4.015
    1C        C  124   4.087   2.677   4.134
    1C        C  125   4.027   2.641   4.257
    1C        C  126   4.201   2.769   4.376
    1C        C  127   4.089   2.682   4.376
    1C        C  128   4.247   2.823   4.498
    1C        C  129   4.198   2.768   4.619
    1C        C  130   4.328   2.934   4.740
    1C        C  131   4.242   2.820   4.742
    1C        C  132   4.357   3.003   4.860
    1C        C  133   4.286   2.961   4.973
    1C        C  134   3.169   2.471   2.084
    1C        C  135   3.035   2.511   2.085
    1C        C  136   3.260   2.479   2.190
    1C        C  137   3.198   2.522   2.309
    1C        C  138   3.407   2.482   2.429
    1C        C  139   3.268   2.507   2.431
    1C        C  140   3.482   2.476   2.548
    1C        C  141   3.412   2.489   2.671
    1C        C  142   3.622   2.494   2.793
    1C        C  143   3.481   2.485   2.794
    1C        C  144   3.694   2.501   2.914
    1C        C  145   3.623   2.489   3.036
    1C        C  146   3.833   2.536   3.159
    1C        C  147   3.696   2.504   3.156
    1C        C  148   3.899   2.563   3.281
    1C        C  149   3.832   2.546   3.404
    1C        C  150   4.024   2.633   3.524
    1C        C  151   3.898   2.568   3.527
    1C        C  152   4.085   2.668   3.646
    1C        C  153   4.024   2.636   3.769
    1C        C  154   4.194   2.767   3.888
    1C        C  155   4.085   2.676   3.889
    1C        C  156   4.246   2.817   4.010
    1C        C  157   4.196   2.766   4.132
    1C        C  158   4.343   2.923   4.253
    1C        C  159   4.252   2.815   4.253
    1C        C  160   4.383   2.984   4.374
    1C        C  161   4.331   2.937   4.497
    1C        C  162   4.440   3.117   4.616
    1C        C  163   4.368   2.996   4.619
    1C        C  164   4.469   3.182   4.738
    1C        C  165   4.435   3.121   4.860
    1C        C  166   4.515   3.326   4.975
    1C        C  167   4.473   3.193   4.974
    1C        C  168   3.475   2.435   2.073
    1C        C  169   3.400   2.462   2.189
    1C        C  170   3.618   2.460   2.306
    1C        C  171   3.476   2.460   2.308
    1C        C  172   3.692   2.488   2.424
    1C        C  173   3.623   2.483   2.547
    1C        C  174   3.828   2.534   2.670
    1C        C  175   3.691   2.497   2.669
    1C        C  176   3.895   2.560   2.792
    1C        C  177   3.830   2.540   2.915
    1C        C  178   4.023   2.630   3.034
    1C        C  179   3.899   2.560   3.037
    1C        C  180   4.084   2.666   3.156
    1C        C  181   4.025   2.627   3.278
    1C        C  182   4.190   2.759   3.398
    1C        C  183   4.084   2.666   3.401
    1C        C  184   4.241   2.808   3.520
    1C        C  185   4.195   2.758   3.644
    1C        C  186   4.337   2.920   3.762
    1C        C  187   4.244   2.813   3.765
    1C        C  188   4.379   2.977   3.884
    1C        C  189   4.335   2.926   4.008
    1C        C  190   4.449   3.105   4.128
    1C        C  191   4.379   2.983   4.130
    1C        C  192   4.475   3.173   4.250
    1C        C  193   4.447   3.110   4.373
    1C        C  194   4.510   3.314   4.491
    1C        C  195   4.477   3.177   4.494
    1C        C  196   4.524   3.386   4.612
    1C        C  197   4.512   3.318   4.735
    1C        C  198   4.559   3.533   4.851
    1C        C  199   4.537   3.392   4.854
    1C        C  200   4.588   3.621   4.960
    1C        C  201   3.615   2.421   2.072
    1C        C  202   3.828   2.510   2.183
    1C        C  203   3.692   2.464   2.185
    1C        C  204   3.897   2.542   2.303
    1C        C  205   3.828   2.526   2.425
    1C        C  206   4.020   2.619   2.542
    1C        C  207   3.894   2.555   2.547
    1C        C  208   4.080   2.659   2.664
    1C        C  209   4.022   2.621   2.787
    1C        C  210   4.189   2.753   2.909
    1C        C  211   4.078   2.665   2.909
    1C        C  212   4.245   2.802   3.029
    1C        C  213   4.196   2.752   3.152
    1C        C  214   4.337   2.910   3.272
    1C        C  215   4.244   2.803   3.275
    1C        C  216   4.376   2.970   3.394
    1C        C  217   4.331   2.917   3.517
    1C        C  218   4.436   3.103   3.638
    1C        C  219   4.374   2.977   3.638
    1C        C  220   4.467   3.169   3.760
    1C        C  221   4.447   3.100   3.881
    1C        C  222   4.506   3.304   4.002
    1C        C  223   4.475   3.166   4.003
    1C        C  224   4.516   3.377   4.123
    1C        C  225   4.509   3.310   4.247
    1C        C  226   4.518   3.524   4.366
    1C        C  227   4.517   3.383   4.368
    1C        C  228   4.521   3.597   4.487
    1C        C  229   4.528   3.527   4.609
    1C        C  230   4.507   3.741   4.725
    1C        C  231   4.536   3.602   4.729
    1C        C  232   4.499   3.817   4.844
    1C        C  233   4.547   3.755   4.960
    1C        C  234   4.018   2.611   2.064
    1C        C  235   3.898   2.540   2.066
    1C        C  236   4.085   2.648   2.181
    1C        C  237   4.022   2.611   2.301
    1C        C  238   4.195   2.741   2.422
    1C        C  239   4.084   2.651   2.421
    1C        C  240   4.245   2.792   2.543
    1C        C  241   4.189   2.748   2.665
    1C        C  242   4.327   2.912   2.784
    1C        C  243   4.241   2.800   2.786
    1C        C  244   4.376   2.967   2.904
    1C        C  245   4.335   2.911   3.027
    1C        C  246   4.446   3.091   3.149
    1C        C  247   4.375   2.969   3.150
    1C        C  248   4.466   3.160   3.271
    1C        C  249   4.434   3.098   3.394
    1C        C  250   4.500   3.302   3.514
    1C        C  251   4.461   3.166   3.515
    1C        C  252   4.513   3.372   3.636
    1C        C  253   4.501   3.306   3.761
    1C        C  254   4.522   3.519   3.881
    1C        C  255   4.513   3.378   3.882
    1C        C  256   4.519   3.591   4.002
    1C        C  257   4.523   3.518   4.124
    1C        C  258   4.493   3.732   4.240
    1C        C  259   4.522   3.594   4.243
    1C        C  260   4.474   3.803   4.361
    1C        C  261   4.491   3.735   4.483
    1C        C  262   4.429   3.941   4.602
    1C        C  263   4.478   3.808   4.604
    1C        C  264   4.402   4.009   4.722
    1C        C  265   4.435   3.943   4.843
    1C        C  266   4.326   4.135   4.958
    1C        C  267   4.388   4.011   4.956
    1C        C  268   4.258   2.776   2.062
    1C        C  269   4.199   2.732   2.181
    1C        C  270   4.342   2.895   2.300
    1C        C  271   4.253   2.784   2.300
    1C        C  272   4.379   2.959   2.421
    1C        C  273   4.335   2.901   2.542
    1C        C  274   4.450   3.084   2.661
    1C        C  275   4.373   2.965   2.661
    1C        C  276   4.475   3.152   2.782
    1C        C  277   4.450   3.088   2.905
    1C        C  278   4.508   3.292   3.024
    1C        C  279   4.476   3.155   3.026
    1C        C  280   4.518   3.363   3.146
    1C        C  281   4.499   3.298   3.269
    1C        C  282   4.520   3.511   3.391
    1C        C  283   4.510   3.370   3.390
    1C        C  284   4.517   3.581   3.513
    1C        C  285   4.521   3.513   3.636
    1C        C  286   4.494   3.726   3.754
    1C        C  287   4.518   3.587   3.757
    1C        C  288   4.475   3.796   3.875
    1C        C  289   4.493   3.729   3.999
    1C        C  290   4.426   3.934   4.117
    1C        C  291   4.473   3.801   4.119
    1C        C  292   4.400   4.000   4.239
    1C        C  293   4.430   3.938   4.362
    1C        C  294   4.327   4.128   4.478
    1C        C  295   4.402   4.008   4.481
    1C        C  296   4.285   4.189   4.598
    1C        C  297   4.332   4.133   4.719
    1C        C  298   4.204   4.313   4.839
    1C        C  299   4.288   4.197   4.838
    1C        C  300   4.168   4.397   4.950
    1C        C  301   4.350   2.881   2.062
    1C        C  302   4.468   3.068   2.179
    1C        C  303   4.394   2.945   2.178
    1C        C  304   4.478   3.145   2.298
    1C        C  305   4.452   3.080   2.421
    1C        C  306   4.518   3.285   2.538
    1C        C  307   4.482   3.149   2.540
    1C        C  308   4.524   3.359   2.658
    1C        C  309   4.508   3.289   2.780
    1C        C  310   4.529   3.502   2.902
    1C        C  311   4.521   3.361   2.901
    1C        C  312   4.525   3.576   3.023
    1C        C  313   4.523   3.505   3.145
    1C        C  314   4.488   3.716   3.262
    1C        C  315   4.515   3.577   3.266
    1C        C  316   4.477   3.786   3.384
    1C        C  317   4.493   3.720   3.508
    1C        C  318   4.423   3.922   3.628
    1C        C  319   4.474   3.790   3.629
    1C        C  320   4.395   3.989   3.750
    1C        C  321   4.426   3.928   3.874
    1C        C  322   4.319   4.115   3.992
    1C        C  323   4.395   3.996   3.993
    1C        C  324   4.281   4.174   4.114
    1C        C  325   4.331   4.123   4.237
    1C        C  326   4.181   4.281   4.353
    1C        C  327   4.281   4.181   4.355
    1C        C  328   4.134   4.335   4.474
    1C        C  329   4.192   4.296   4.597
    1C        C  330   4.024   4.430   4.714
    1C        C  331   4.142   4.351   4.717
    1C        C  332   3.969   4.491   4.829
    1C        C  333   4.054   4.477   4.939
    1C        C  334   4.553   3.267   2.061
    1C        C  335   4.536   3.128   2.069
    1C        C  336   4.543   3.350   2.173
    1C        C  337   4.515   3.282   2.293
    1C        C  338   4.526   3.495   2.410
    1C        C  339   4.525   3.354   2.415
    1C        C  340   4.518   3.567   2.532
    1C        C  341   4.528   3.500   2.656
    1C        C  342   4.503   3.710   2.773
    1C        C  343   4.527   3.571   2.779
    1C        C  344   4.482   3.780   2.894
    1C        C  345   4.504   3.715   3.018
    1C        C  346   4.423   3.915   3.139
    1C        C  347   4.473   3.783   3.138
    1C        C  348   4.397   3.981   3.261
    1C        C  349   4.426   3.917   3.384
    1C        C  350   4.320   4.103   3.504
    1C        C  351   4.396   3.984   3.504
    1C        C  352   4.272   4.159   3.625
    1C        C  353   4.322   4.110   3.747
    1C        C  354   4.174   4.265   3.867
    1C        C  355   4.277   4.168   3.868
    1C        C  356   4.123   4.316   3.989
    1C        C  357   4.182   4.275   4.110
    1C        C  358   4.012   4.407   4.230
    1C        C  359   4.131   4.330   4.230
    1C        C  360   3.952   4.442   4.352
    1C        C  361   4.019   4.416   4.474
    1C        C  362   3.831   4.521   4.593
    1C        C  363   3.960   4.465   4.593
    1C        C  364   3.762   4.552   4.712
    1C        C  365   3.840   4.547   4.830
    1C        C  366   3.633   4.596   4.951
    1C        C  367   3.769   4.572   4.949
    1C        C  368   4.514   3.565   2.052
    1C        C  369   4.525   3.490   2.170
    1C        C  370   4.505   3.707   2.287
    1C        C  371   4.521   3.566   2.289
    1C        C  372   4.495   3.780   2.407
    1C        C  373   4.506   3.707   2.528
    1C        C  374   4.431   3.907   2.650
    1C        C  375   4.484   3.775   2.650
    1C        C  376   4.395   3.971   2.771
    1C        C  377   4.426   3.910   2.894
    1C        C  378   4.316   4.094   3.012
    1C        C  379   4.393   3.975   3.015
    1C        C  380   4.273   4.150   3.134
    1C        C  381   4.315   4.097   3.258
    1C        C  382   4.170   4.250   3.375
    1C        C  383   4.273   4.153   3.380
    1C        C  384   4.121   4.302   3.497
    1C        C  385   4.172   4.259   3.621
    1C        C  386   4.008   4.392   3.744
    1C        C  387   4.121   4.307   3.743
    1C        C  388   3.948   4.434   3.865
    1C        C  389   4.007   4.398   3.988
    1C        C  390   3.815   4.490   4.106
    1C        C  391   3.945   4.435   4.109
    1C        C  392   3.751   4.512   4.231
    1C        C  393   3.822   4.498   4.352
    1C        C  394   3.617   4.556   4.476
    1C        C  395   3.756   4.531   4.473
    1C        C  396   3.545   4.569   4.596
    1C        C  397   3.622   4.570   4.715
    1C        C  398   3.414   4.550   4.839
    1C        C  399   3.552   4.577   4.837
    1C        C  400   3.345   4.514   4.956
    1C        C  401   4.509   3.704   2.049
    1C        C  402   4.465   3.917   2.167
    1C        C  403   4.500   3.780   2.166
    1C        C  404   4.417   3.979   2.285
    1C        C  405   4.440   3.910   2.406
    1C        C  406   4.324   4.088   2.524
    1C        C  407   4.404   3.972   2.528
    1C        C  408   4.276   4.145   2.644
    1C        C  409   4.313   4.086   2.767
    1C        C  410   4.178   4.251   2.889
    1C        C  411   4.274   4.147   2.888
    1C        C  412   4.124   4.298   3.010
    1C        C  413   4.178   4.255   3.133
    1C        C  414   4.002   4.380   3.252
    1C        C  415   4.117   4.298   3.253
    1C        C  416   3.943   4.413   3.376
    1C        C  417   4.002   4.379   3.499
    1C        C  418   3.814   4.476   3.621
    1C        C  419   3.944   4.420   3.621
    1C        C  420   3.746   4.505   3.742
    1C        C  421   3.819   4.490   3.863
    1C        C  422   3.611   4.542   3.987
    1C        C  423   3.750   4.516   3.983
    1C        C  424   3.542   4.543   4.110
    1C        C  425   3.612   4.539   4.233
    1C        C  426   3.402   4.549   4.358
    1C        C  427   3.543   4.555   4.355
    1C        C  428   3.332   4.552   4.480
    1C        C  429   3.404   4.563   4.601
    1C        C  430   3.194   4.524   4.724
    1C        C  431   3.334   4.547   4.723
    1C        C  432   3.122   4.495   4.844
    1C        C  433   3.207   4.493   4.955
    1C        C  434   4.393   4.128   2.053
    1C        C  435   4.443   3.998   2.055
    1C        C  436   4.306   4.163   2.161
    1C        C  437   4.334   4.095   2.283
    1C        C  438   4.179   4.244   2.402
    1C        C  439   4.279   4.145   2.403
    1C        C  440   4.125   4.294   2.523
    1C        C  441   4.180   4.249   2.645
    1C        C  442   4.008   4.376   2.765
    1C        C  443   4.125   4.296   2.766
    1C        C  444   3.948   4.417   2.886
    1C        C  445   4.007   4.378   3.008
    1C        C  446   3.811   4.466   3.130
    1C        C  447   3.943   4.415   3.128
    1C        C  448   3.747   4.491   3.254
    1C        C  449   3.812   4.467   3.377
    1C        C  450   3.608   4.525   3.495
    1C        C  451   3.746   4.495   3.499
    1C        C  452   3.540   4.540   3.618
    1C        C  453   3.609   4.539   3.741
    1C        C  454   3.400   4.543   3.866
    1C        C  455   3.541   4.549   3.864
    1C        C  456   3.332   4.530   3.990
    1C        C  457   3.401   4.541   4.112
    1C        C  458   3.195   4.504   4.238
    1C        C  459   3.332   4.537   4.236
    1C        C  460   3.128   4.486   4.361
    1C        C  461   3.195   4.517   4.481
    1C        C  462   3.000   4.433   4.602
    1C        C  463   3.127   4.495   4.603
    1C        C  464   2.931   4.401   4.721
    1C        C  465   2.989   4.443   4.843
    1C        C  466   2.802   4.338   4.958
    1C        C  467   2.907   4.431   4.960
    1C        C  468   4.125   4.288   2.043
    1C        C  469   4.192   4.250   2.159
    1C        C  470   4.003   4.360   2.280
    1C        C  471   4.124   4.287   2.279
    1C        C  472   3.940   4.396   2.401
    1C        C  473   4.004   4.366   2.523
    1C        C  474   3.812   4.463   2.644
    1C        C  475   3.941   4.405   2.644
    1C        C  476   3.747   4.491   2.766
    1C        C  477   3.818   4.470   2.887
    1C        C  478   3.608   4.517   3.011
    1C        C  479   3.747   4.493   3.007
    1C        C  480   3.536   4.532   3.132
    1C        C  481   3.611   4.527   3.252
    1C        C  482   3.397   4.537   3.377
    1C        C  483   3.538   4.535   3.373
    1C        C  484   3.330   4.532   3.501
    1C        C  485   3.399   4.544   3.624
    1C        C  486   3.189   4.510   3.745
    1C        C  487   3.327   4.540   3.746
    1C        C  488   3.125   4.483   3.868
    1C        C  489   3.194   4.499   3.990
    1C        C  490   3.004   4.416   4.118
    1C        C  491   3.131   4.479   4.114
    1C        C  492   2.942   4.384   4.240
    1C        C  493   2.998   4.429   4.362
    1C        C  494   2.830   4.298   4.482
    1C        C  495   2.937   4.392   4.483
    1C        C  496   2.782   4.247   4.605
    1C        C  497   2.822   4.310   4.724
    1C        C  498   2.665   4.166   4.845
    1C        C  499   2.751   4.277   4.843
    1C        C  500   2.599   4.115   4.958
    1C        C  501   4.005   4.358   2.039
    1C        C  502   3.815   4.460   2.155
    1C        C  503   3.939   4.393   2.158
    1C        C  504   3.746   4.480   2.277
    1C        C  505   3.811   4.455   2.399
    1C        C  506   3.606   4.510   2.521
    1C        C  507   3.744   4.478   2.521
    1C        C  508   3.536   4.521   2.644
    1C        C  509   3.607   4.513   2.765
    1C        C  510   3.397   4.524   2.889
    1C        C  511   3.538   4.520   2.888
    1C        C  512   3.324   4.519   3.010
    1C        C  513   3.395   4.529   3.132
    1C        C  514   3.189   4.495   3.255
    1C        C  515   3.326   4.529   3.255
    1C        C  516   3.123   4.474   3.379
    1C        C  517   3.194   4.496   3.499
    1C        C  518   3.001   4.414   3.626
    1C        C  519   3.126   4.478   3.622
    1C        C  520   2.942   4.376   3.749
    1C        C  521   3.004   4.410   3.872
    1C        C  522   2.838   4.283   3.998
    1C        C  523   2.948   4.372   3.996
    1C        C  524   2.787   4.236   4.121
    1C        C  525   2.835   4.291   4.241
    1C        C  526   2.697   4.128   4.364
    1C        C  527   2.783   4.240   4.362
    1C        C  528   2.657   4.071   4.487
    1C        C  529   2.694   4.136   4.606
    1C        C  530   2.588   3.957   4.733
    1C        C  531   2.647   4.087   4.730
    1C        C  532   2.542   3.899   4.855
    1C        C  533   2.530   3.993   4.962
    1C        C  534   3.618   4.555   2.041
    1C        C  535   3.753   4.518   2.044
    1C        C  536   3.534   4.534   2.155
    1C        C  537   3.608   4.513   2.275
    1C        C  538   3.397   4.514   2.404
    1C        C  539   3.538   4.513   2.398
    1C        C  540   3.323   4.508   2.524
    1C        C  541   3.395   4.514   2.646
    1C        C  542   3.188   4.478   2.767
    1C        C  543   3.324   4.514   2.768
    1C        C  544   3.121   4.457   2.890
    1C        C  545   3.188   4.483   3.012
    1C        C  546   2.996   4.398   3.136
    1C        C  547   3.122   4.461   3.135
    1C        C  548   2.941   4.364   3.262
    1C        C  549   2.998   4.409   3.383
    1C        C  550   2.838   4.273   3.507
    1C        C  551   2.941   4.371   3.506
    1C        C  552   2.785   4.229   3.630
    1C        C  553   2.836   4.283   3.750
    1C        C  554   2.704   4.122   3.876
    1C        C  555   2.788   4.235   3.874
    1C        C  556   2.664   4.062   3.997
    1C        C  557   2.706   4.120   4.119
    1C        C  558   2.602   3.939   4.249
    1C        C  559   2.667   4.064   4.242
    1C        C  560   2.561   3.878   4.370
    1C        C  561   2.585   3.949   4.489
    1C        C  562   2.528   3.750   4.615
    1C        C  563   2.562   3.887   4.614
    1C        C  564   2.512   3.682   4.738
    1C        C  565   2.512   3.759   4.857
    1C        C  566   2.521   3.543   4.974
    1C        C  567   2.515   3.682   4.974
    1C        C  568   3.324   4.477   2.042
    1C        C  569   3.394   4.510   2.159
    1C        C  570   3.187   4.471   2.281
    1C        C  571   3.324   4.507   2.283
    1C        C  572   3.118   4.453   2.404
    1C        C  573   3.184   4.485   2.525
    1C        C  574   2.989   4.399   2.648
    1C        C  575   3.117   4.460   2.646
    1C        C  576   2.931   4.364   2.772
    1C        C  577   2.994   4.396   2.894
    1C        C  578   2.825   4.268   3.016
    1C        C  579   2.932   4.360   3.016
    1C        C  580   2.780   4.220   3.141
    1C        C  581   2.832   4.274   3.261
    1C        C  582   2.700   4.112   3.387
    1C        C  583   2.787   4.223   3.385
    1C        C  584   2.662   4.056   3.511
    1C        C  585   2.702   4.115   3.633
    1C        C  586   2.598   3.933   3.757
    1C        C  587   2.667   4.056   3.756
    1C        C  588   2.571   3.870   3.881
    1C        C  589   2.602   3.935   4.002
    1C        C  590   2.533   3.738   4.127
    1C        C  591   2.574   3.874   4.127
    1C        C  592   2.527   3.670   4.250
    1C        C  593   2.530   3.740   4.373
    1C        C  594   2.506   3.533   4.496
    1C        C  595   2.517   3.674   4.496
    1C        C  596   2.506   3.462   4.619
    1C        C  597   2.510   3.540   4.737
    1C        C  598   2.528   3.325   4.860
    1C        C  599   2.524   3.466   4.857
    1C        C  600   2.525   3.246   4.976
    1C        C  601   3.191   4.442   2.043
    1C        C  602   2.983   4.392   2.162
    1C        C  603   3.116   4.445   2.161
    1C        C  604   2.923   4.358   2.286
    1C        C  605   2.990   4.395   2.405
    1C        C  606   2.817   4.272   2.531
    1C        C  607   2.927   4.362   2.527
    1C        C  608   2.768   4.222   2.654
    1C        C  609   2.820   4.276   2.773
    1C        C  610   2.683   4.111   2.897
    1C        C  611   2.769   4.224   2.894
    1C        C  612   2.651   4.050   3.020
    1C        C  613   2.693   4.108   3.142
    1C        C  614   2.588   3.929   3.269
    1C        C  615   2.658   4.052   3.266
    1C        C  616   2.565   3.864   3.392
    1C        C  617   2.597   3.930   3.513
    1C        C  618   2.523   3.733   3.639
    1C        C  619   2.565   3.868   3.636
    1C        C  620   2.509   3.665   3.763
    1C        C  621   2.528   3.735   3.884
    1C        C  622   2.505   3.525   4.009
    1C        C  623   2.516   3.666   4.007
    1C        C  624   2.511   3.455   4.132
    1C        C  625   2.518   3.529   4.252
    1C        C  626   2.537   3.321   4.377
    1C        C  627   2.512   3.460   4.375
    1C        C  628   2.554   3.253   4.499
    1C        C  629   2.529   3.323   4.619
    1C        C  630   2.595   3.118   4.744
    1C        C  631   2.548   3.253   4.740
    1C        C  632   2.614   3.048   4.866
    1C        C  633   2.561   3.111   4.983
    1C        C  634   2.777   4.307   2.058
    1C        C  635   2.890   4.389   2.053
    1C        C  636   2.749   4.228   2.170
    1C        C  637   2.811   4.269   2.290
    1C        C  638   2.676   4.110   2.412
    1C        C  639   2.757   4.225   2.413
    1C        C  640   2.638   4.048   2.533
    1C        C  641   2.682   4.110   2.652
    1C        C  642   2.587   3.922   2.779
    1C        C  643   2.647   4.050   2.775
    1C        C  644   2.560   3.856   2.901
    1C        C  645   2.582   3.927   3.022
    1C        C  646   2.529   3.726   3.148
    1C        C  647   2.561   3.863   3.146
    1C        C  648   2.512   3.659   3.272
    1C        C  649   2.528   3.728   3.394
    1C        C  650   2.504   3.521   3.521
    1C        C  651   2.513   3.662   3.518
    1C        C  652   2.508   3.451   3.644
    1C        C  653   2.498   3.524   3.765
    1C        C  654   2.523   3.314   3.890
    1C        C  655   2.500   3.454   3.887
    1C        C  656   2.535   3.242   4.011
    1C        C  657   2.528   3.315   4.132
    1C        C  658   2.585   3.112   4.258
    1C        C  659   2.546   3.248   4.256
    1C        C  660   2.630   3.055   4.379
    1C        C  661   2.608   3.122   4.502
    1C        C  662   2.715   2.940   4.626
    1C        C  663   2.639   3.058   4.624
    1C        C  664   2.750   2.875   4.747
    1C        C  665   2.697   2.931   4.866
    1C        C  666   2.741   2.870   4.984
    1C        C  667   2.683   4.019   2.059
    1C        C  668   2.685   4.102   2.172
    1C        C  669   2.590   3.910   2.294
    1C        C  670   2.646   4.041   2.293
    1C        C  671   2.557   3.847   2.416
    1C        C  672   2.581   3.919   2.535
    1C        C  673   2.518   3.718   2.662
    1C        C  674   2.559   3.853   2.658
    1C        C  675   2.507   3.649   2.785
    1C        C  676   2.520   3.721   2.906
    1C        C  677   2.504   3.511   3.030
    1C        C  678   2.511   3.652   3.029
    1C        C  679   2.500   3.446   3.155
    1C        C  680   2.497   3.518   3.277
    1C        C  681   2.528   3.310   3.401
    1C        C  682   2.501   3.449   3.400
    1C        C  683   2.553   3.245   3.523
    1C        C  684   2.533   3.312   3.646
    1C        C  685   2.602   3.114   3.769
    1C        C  686   2.547   3.244   3.769
    1C        C  687   2.634   3.055   3.893
    1C        C  688   2.593   3.113   4.015
    1C        C  689   2.709   2.939   4.139
    1C        C  690   2.619   3.047   4.137
    1C        C  691   2.751   2.880   4.261
    1C        C  692   2.706   2.936   4.383
    1C        C  693   2.755   2.881   4.504
    1C        C  694   2.627   3.890   2.057
    1C        C  695   2.529   3.702   2.178
    1C        C  696   2.575   3.836   2.175
    1C        C  697   2.497   3.638   2.300
    1C        C  698   2.513   3.713   2.419
    1C        C  699   2.484   3.505   2.544
    1C        C  700   2.500   3.645   2.542
    1C        C  701   2.495   3.435   2.666
    1C        C  702   2.501   3.508   2.787
    1C        C  703   2.523   3.298   2.911
    1C        C  704   2.503   3.438   2.910
    1C        C  705   2.540   3.232   3.035
    1C        C  706   2.524   3.306   3.155
    1C        C  707   2.600   3.112   3.279
    1C        C  708   2.545   3.241   3.278
    1C        C  709   2.636   3.052   3.402
    1C        C  710   2.608   3.115   3.526
    1C        C  711   2.711   2.931   3.649
    1C        C  712   2.635   3.049   3.648
    1C        C  713   2.757   2.879   3.773
    1C        C  714   2.715   2.939   3.894
    1C        C  715   2.758   2.885   4.018
    1C        C  716   2.449   3.506   2.067
    1C        C  717   2.490   3.639   2.059
    1C        C  718   2.461   3.422   2.182
    1C        C  719   2.474   3.497   2.302
    1C        C  720   2.511   3.292   2.424
    1C        C  721   2.479   3.429   2.425
    1C        C  722   2.538   3.224   2.545
    1C        C  723   2.528   3.298   2.666
    1C        C  724   2.595   3.098   2.790
    1C        C  725   2.542   3.230   2.789
    1C        C  726   2.624   3.038   2.914
    1C        C  727   2.595   3.103   3.036
    1C        C  728   2.710   2.925   3.160
    1C        C  729   2.632   3.044   3.159
    1C        C  730   2.753   2.873   3.283
    1C        C  731   2.714   2.934   3.405
    1C        C  732   2.759   2.878   3.527
    1C        C  733   2.497   3.203   2.068
    1C        C  734   2.488   3.281   2.184
    1C        C  735   2.586   3.088   2.303
    1C        C  736   2.528   3.218   2.305
    1C        C  737   2.620   3.026   2.425
    1C        C  738   2.592   3.094   2.546
    1C        C  739   2.706   2.916   2.669
    1C        C  740   2.627   3.033   2.668
    1C        C  741   2.747   2.863   2.793
    1C        C  742   2.700   2.919   2.914
    1C        C  743   2.750   2.870   3.036
    1C        C  744   2.545   3.073   2.072
    1C        C  745   2.683   2.897   2.186
    1C        C  746   2.611   3.018   2.183
    1C        C  747   2.727   2.841   2.308
    1C        C  748   2.687   2.902   2.429
    1C        C  749   2.746   2.854   2.548
    1C        C  750   2.731   2.840   2.068
    1C        C  751   3.676   2.317   1.987
    1C        O  752   3.705   2.203   2.032
    1C        O  753   3.699   2.334   1.850
    1C        C  754   4.642   3.051   2.000
    1C        O  755   4.621   3.023   1.879
    1C        O  756   4.755   3.014   2.075
    1C        C  757   4.475   4.234   1.991
    1C        O  758   4.521   4.335   2.052
    1C        O  759   4.547   4.199   1.876
    1C        C  760   3.606   4.678   1.960
    1C        O  761   3.607   4.793   2.011
    1C        O  762   3.598   4.679   1.820
    1C        C  763   2.874   4.508   1.967
    1C        O  764   2.918   4.520   1.849
    1C        O  765   2.764   4.593   1.987
    1C        C  766   2.317   3.501   2.000
    1C        O  767   2.312   3.470   1.878
    1C        O  768   2.194   3.523   2.063
    1C        C  769   4.713   3.602   5.036
    1C        O  770   4.735   3.582   5.159
    1C        O  771   4.836   3.623   4.971
    1C        C  772   4.249   4.432   5.069
    1C        O  773   4.218   4.398   5.186
    1C        O  774   4.326   4.549   5.070
    1C        C  775   4.157   2.493   5.044
    1C        O  776   4.210   2.399   4.978
    1C        O  777   4.231   2.541   5.152
    1C        C  778   2.871   4.525   5.068
    1C        O  779   2.797   4.628   5.061
    1C        O  780   2.898   4.501   5.203
    1C        C  781   2.505   3.039   5.100
    1C        O  782   2.382   3.012   5.097
    1C        O  783   2.558   3.068   5.225
    1C        C  784   2.406   3.997   5.043
    1C        O  785   2.289   4.026   5.006
    1C        O  786   2.410   3.960   5.178
    1C        C  787   2.948   2.419   2.008
    1C        O  788   2.886   2.442   1.901
    1C        O  789   2.931   2.287   2.049
    1C        C  790   3.175   2.376   5.063
    1C        O  791   3.136   2.265   5.020
    1C        O  792   3.165   2.380   5.203
    1C        H  793   4.290   3.021   5.061
    1C        H  794   4.193   2.798   5.074
    1C        H  795   4.511   3.135   5.055
    1C        H  796   4.574   3.353   5.060
    1C        H  797   4.577   3.818   5.041
    1C        H  798   4.439   3.983   5.046
    1C        H  799   4.265   4.162   5.042
    1C        H  800   4.043   4.553   5.014
    1C        H  801   3.823   4.624   5.025
    1C        H  802   3.590   4.598   5.049
    1C        H  803   3.397   4.503   5.049
    1C        H  804   3.163   4.485   5.052
    1C        H  805   3.878   2.550   5.070
    1C        H  806   3.680   2.440   5.069
    1C        H  807   2.998   2.542   5.058
    1C        H  808   3.442   2.494   5.075
    1C        H  809   2.865   2.725   5.075
    1C        H  810   2.718   2.907   5.082
    1C        H  811   2.500   3.297   5.066
    1C        H  812   2.473   3.498   5.058
    1C        H  813   2.525   3.725   5.071
    1C        H  814   2.591   4.177   5.045
    1C        H  815   2.779   4.293   5.053
    1C        H  816   2.725   2.896   1.977
    1C        H  817   2.858   2.701   1.980
    1C        H  818   3.200   2.417   1.997
    1C        H  819   3.424   2.401   1.985
    1C        H  820   3.834   2.570   1.986
    1C        H  821   4.058   2.633   1.967
    1C        H  822   4.260   2.707   1.980
    1C        H  823   4.417   2.883   1.979
    1C        H  824   4.518   3.302   1.966
    1C        H  825   4.464   3.515   1.971
    1C        H  826   4.548   3.743   1.958
    1C        H  827   3.820   4.571   1.979
    1C        H  828   3.982   4.413   1.950
    1C        H  829   4.180   4.293   1.951
    1C        H  830   4.407   3.944   1.969
    1C        H  831   2.661   3.823   1.982
    1C        H  832   2.694   4.066   1.964
    1C        H  833   2.712   4.306   1.973
    1C        H  834   3.355   4.522   1.950
    1C        H  835   3.152   4.395   1.955
    1C        H  836   2.499   3.002   2.006
    1C        H  837   2.448   3.237   1.979
    1C        H  838   2.441   3.703   1.988
    2V3OU   H29  839   2.801   3.549   3.700
    2V3OU   C27  840   2.794   3.500   3.800
    2V3OU   H27  841   2.734   3.565   3.869
    2V3OU   H28  842   2.739   3.404   3.790
    2V3OU   O11  843   2.915   3.478   3.874
    2V3OU   C15  844   2.927   3.401   3.988
    2V3OU   C13  845   3.053   3.377   4.046
    2V3OU   C14  846   3.078   3.275   4.138
    2V3OU   C16  847   2.980   3.186   4.181
    2V3OU    H6  848   2.994   3.100   4.250
    2V3OU   C12  849   3.214   3.233   4.177
    2V3OU    O2  850   3.236   3.127   4.240
    2V3OU   C10  851   3.325   3.311   4.123
    2V3OU    C8  852   3.458   3.277   4.148
    2V3OU   O10  853   3.489   3.157   4.203
    2V3OU   H26  854   3.410   3.121   4.246
    2V3OU    C6  855   3.568   3.352   4.094
    2V3OU    C5  856   3.538   3.465   4.020
    2V3OU    C4  857   3.704   3.291   4.095
    2V3OU    H4  858   3.719   3.228   4.187
    2V3OU    H5  859   3.709   3.220   4.007
    2V3OU    C2  860   3.817   3.394   4.085
    2V3OU    O6  861   3.810   3.477   4.201
    2V3OU   H21  862   3.770   3.557   4.164
    2V3OU    C3  863   3.782   3.494   3.975
    2V3OU    H2  864   3.867   3.567   3.966
    2V3OU    H3  865   3.780   3.436   3.879
    2V3OU   C25  866   3.953   3.326   4.067
    2V3OU    O7  867   4.000   3.295   3.958
    2V3OU   C26  868   4.030   3.287   4.192
    2V3OU   H22  869   4.074   3.377   4.242
    2V3OU   H23  870   4.116   3.222   4.164
    2V3OU    O8  871   3.962   3.210   4.289
    2V3OU   H24  872   3.929   3.267   4.361
    2V3OU    C1  873   3.648   3.564   3.994
    2V3OU    H1  874   3.626   3.620   3.898
    2V3OU    O3  875   3.657   3.656   4.102
    2V3OU   C19  876   3.620   3.794   4.101
    2V3OU    H9  877   3.517   3.800   4.057
    2V3OU    O4  878   3.719   3.850   4.018
    2V3OU   C20  879   3.849   3.872   4.072
    2V3OU   H10  880   3.886   3.766   4.077
    2V3OU   C24  881   3.609   3.861   4.239
    2V3OU   H16  882   3.541   3.799   4.302
    2V3OU   H17  883   3.563   3.962   4.223
    2V3OU   C23  884   3.749   3.873   4.299
    2V3OU   H15  885   3.791   3.767   4.310
    2V3OU    N1  886   3.739   3.953   4.419
    2V3OU   H19  887   3.810   3.923   4.484
    2V3OU   H20  888   3.653   3.930   4.464
    2V3OU   C21  889   3.847   3.949   4.204
    2V3OU   H11  890   3.951   3.937   4.245
    2V3OU    O5  891   3.818   4.089   4.204
    2V3OU   H18  892   3.776   4.096   4.291
    2V3OU   C22  893   3.918   3.949   3.960
    2V3OU   H12  894   3.867   4.047   3.945
    2V3OU   H13  895   3.908   3.893   3.864
    2V3OU   H14  896   4.027   3.959   3.985
    2V3OU   C11  897   3.161   3.475   4.025
    2V3OU    O1  898   3.140   3.589   3.978
    2V3OU    C9  899   3.299   3.425   4.041
    2V3OU    C7  900   3.403   3.502   3.991
    2V3OU    O9  901   3.388   3.614   3.911
    2V3OU   H25  902   3.293   3.627   3.923
    2V3OU   C17  903   2.829   3.317   4.043
    2V3OU    H7  904   2.730   3.357   4.019
    2V3OU   C18  905   2.852   3.217   4.137
    2V3OU    H8  906   2.789   3.174   4.216
    3SOL     OW  907   2.979   4.095   5.567
    3SOL    HW1  908   2.890   4.126   5.533
    3SOL    HW2  909   3.025   4.171   5.613
    4SOL     OW  910   6.351   6.887   6.606
    4SOL    HW1  911   6.298   6.832   6.670
    4SOL    HW2  912   6.341   6.984   6.629
    5SOL     OW  913   4.502   1.828   2.778
    5SOL    HW1  914   4.535   1.738   2.751
    5SOL    HW2  915   4.478   1.826   2.875
    6SOL     OW  916   4.958   2.646   3.311
    6SOL    HW1  917   5.030   2.594   3.263
    6SOL    HW2  918   4.873   2.640   3.259
    7SOL     OW  919   0.807   3.951   3.865
    7SOL    HW1  920   0.868   4.000   3.927
    7SOL    HW2  921   0.750   3.887   3.917
    8SOL     OW  922   2.870   2.290   5.516
    8SOL    HW1  923   2.880   2.191   5.527
    8SOL    HW2  924   2.865   2.312   5.418
    9SOL     OW  925   6.383   1.903   5.836
    9SOL    HW1  926   6.419   1.810   5.841
    9SOL    HW2  927   6.427   1.959   5.906
   10SOL     OW  928   3.250   4.882   4.017
   10SOL    HW1  929   3.290   4.829   3.942
   10SOL    HW2  930   3.233   4.976   3.986
   11SOL     OW  931   1.888   1.358   6.815
   11SOL    HW1  932   1.859   1.449   6.842
   11SOL    HW2  933   1.816   1.315   6.761
   12SOL     OW  934   2.721   4.749   4.007
   12SOL    HW1  935   2.674   4.685   3.946
   12SOL    HW2  936   2.813   4.766   3.972
   13SOL     OW  937   3.980   6.148   3.005
   13SOL    HW1  938   3.992   6.238   2.961
   13SOL    HW2  939   3.944   6.160   3.097
   14SOL     OW  940   4.374   3.851   6.469
   14SOL    HW1  941   4.438   3.846   6.546
   14SOL    HW2  942   4.413   3.908   6.397
   15SOL     OW  943   0.698   6.694   6.402
   15SOL    HW1  944   0.705   6.742   6.490
   15SOL    HW2  945   0.789   6.662   6.375
   16SOL     OW  946   6.104   2.656   6.371
   16SOL    HW1  947   6.171   2.727   6.347
   16SOL    HW2  948   6.016   2.699   6.393
   17SOL     OW  949   4.964   0.538   6.563
   17SOL    HW1  950   4.869   0.508   6.565
   17SOL    HW2  951   4.979   0.610   6.631
   18SOL     OW  952   3.946   1.216   4.985
   18SOL    HW1  953   3.924   1.305   4.944
   18SOL    HW2  954   4.035   1.221   5.030
   19SOL     OW  955   0.872   2.340   2.160
   19SOL    HW1  956   0.950   2.292   2.200
   19SOL    HW2  957   0.788   2.288   2.178
   20SOL     OW  958   5.192   1.888   5.225
   20SOL    HW1  959   5.210   1.869   5.128
   20SOL    HW2  960   5.185   1.987   5.239
   21SOL     OW  961   2.772   0.506   3.067
   21SOL    HW1  962   2.771   0.422   3.013
   21SOL    HW2  963   2.862   0.518   3.110
   22SOL     OW  964   0.910   6.357   6.612
   22SOL    HW1  965   0.897   6.414   6.531
   22SOL    HW2  966   1.003   6.321   6.613
   23SOL     OW  967   3.867   5.329   2.192
   23SOL    HW1  968   3.816   5.366   2.269
   23SOL    HW2  969   3.916   5.246   2.220
   24SOL     OW  970   3.475   0.125   2.498
   24SOL    HW1  971   3.495   0.214   2.458
   24SOL    HW2  972   3.545   0.102   2.565
   25SOL     OW  973   2.364   0.034   4.248
   25SOL    HW1  974   2.455   0.051   4.286
   25SOL    HW2  975   2.307   7.012   4.316
   26SOL     OW  976   0.252   2.227   6.974
   26SOL    HW1  977   0.215   2.310   6.930
   26SOL    HW2  978   0.218   2.147   6.926
   27SOL     OW  979   1.632   1.412   1.902
   27SOL    HW1  980   1.540   1.442   1.927
   27SOL    HW2  981   1.698   1.484   1.925
   28SOL     OW  982   0.320   1.294   4.619
   28SOL    HW1  983   0.241   1.236   4.634
   28SOL    HW2  984   0.317   1.332   4.526
   29SOL     OW  985   6.464   0.960   1.256
   29SOL    HW1  986   6.455   0.957   1.355
   29SOL    HW2  987   6.528   1.033   1.231
   30SOL     OW  988   3.831   0.386   5.281
   30SOL    HW1  989   3.736   0.418   5.280
   30SOL    HW2  990   3.832   0.287   5.297
   31SOL     OW  991   0.430   2.334   5.551
   31SOL    HW1  992   0.494   2.272   5.597
   31SOL    HW2  993   0.479   2.417   5.523
   32SOL     OW  994   1.937   1.541   2.250
   32SOL    HW1  995   1.950   1.446   2.280
   32SOL    HW2  996   1.841   1.555   2.226
   33SOL     OW  997   1.043   4.493   5.183
   33SOL    HW1  998   1.034   4.582   5.138
   33SOL    HW2  999   1.139   4.467   5.188
   34SOL     OW 1000   2.265   5.774   4.986
   34SOL    HW1 1001   2.172   5.810   4.974
   34SOL    HW2 1002   2.269   5.681   4.949
   35SOL     OW 1003   4.279   1.784   5.365
   35SOL    HW1 1004   4.301   1.787   5.462
   35SOL    HW2 1005   4.223   1.863   5.340
   36SOL     OW 1006   5.253   1.403   3.537
   36SOL    HW1 1007   5.281   1.449   3.622
   36SOL    HW2 1008   5.259   1.304   3.550
   37SOL     OW 1009   2.013   1.533   4.960
   37SOL    HW1 1010   2.075   1.529   4.882
   37SOL    HW2 1011   1.990   1.628   4.979
   38SOL     OW 1012   2.271   4.023   1.970
   38SOL    HW1 1013   2.232   3.939   2.009
   38SOL    HW2 1014   2.309   4.004   1.879
   39SOL     OW 1015   6.313   4.869   6.029
   39SOL    HW1 1016   6.358   4.805   6.091
   39SOL    HW2 1017   6.291   4.824   5.943
   40SOL     OW 1018   3.586   1.871   6.719
   40SOL    HW1 1019   3.560   1.962   6.686
   40SOL    HW2 1020   3.603   1.811   6.641
   41SOL     OW 1021   6.565   3.311   2.713
   41SOL    HW1 1022   6.589   3.231   2.658
   41SOL    HW2 1023   6.467   3.329   2.706
   42SOL     OW 1024   3.164   6.158   4.478
   42SOL    HW1 1025   3.210   6.124   4.396
   42SOL    HW2 1026   3.065   6.159   4.462
   43SOL     OW 1027   4.210   0.260   5.562
   43SOL    HW1 1028   4.138   0.325   5.587
   43SOL    HW2 1029   4.206   0.180   5.622
   44SOL     OW 1030   5.869   2.639   4.934
   44SOL    HW1 1031   5.938   2.699   4.974
   44SOL    HW2 1032   5.849   2.564   4.997
   45SOL     OW 1033   4.006   5.423   1.219
   45SOL    HW1 1034   3.972   5.471   1.138
   45SOL    HW2 1035   3.989   5.325   1.209
   46SOL     OW 1036   0.587   2.830   4.121
   46SOL    HW1 1037   0.678   2.837   4.162
   46SOL    HW2 1038   0.577   2.741   4.077
   47SOL     OW 1039   4.541   3.795   1.235
   47SOL    HW1 1040   4.620   3.792   1.173
   47SOL    HW2 1041   4.508   3.703   1.251
   48SOL     OW 1042   0.173   2.718   6.172
   48SOL    HW1 1043   0.191   2.661   6.091
   48SOL    HW2 1044   0.216   2.677   6.252
   49SOL     OW 1045   5.566   2.850   1.420
   49SOL    HW1 1046   5.656   2.891   1.408
   49SOL    HW2 1047   5.531   2.870   1.512
   50SOL     OW 1048   6.081   1.488   5.306
   50SOL    HW1 1049   6.048   1.582   5.297
   50SOL    HW2 1050   6.035   1.444   5.383
   51SOL     OW 1051   2.027   6.295   3.090
   51SOL    HW1 1052   2.126   6.280   3.101
   51SOL    HW2 1053   1.984   6.210   3.059
   52SOL     OW 1054   5.191   3.217   1.909
   52SOL    HW1 1055   5.153   3.155   1.841
   52SOL    HW2 1056   5.172   3.182   2.001
   53SOL     OW 1057   5.466   0.168   3.532
   53SOL    HW1 1058   5.511   0.236   3.590
   53SOL    HW2 1059   5.415   0.214   3.460
   54SOL     OW 1060   5.287   0.031   0.259
   54SOL    HW1 1061   5.210   0.064   0.313
   54SOL    HW2 1062   5.262   6.969   0.214
   55SOL     OW 1063   2.458   2.311   5.412
   55SOL    HW1 1064   2.533   2.377   5.410
   55SOL    HW2 1065   2.484   2.233   5.469
   56SOL     OW 1066   1.381   2.004   1.138
   56SOL    HW1 1067   1.452   2.043   1.195
   56SOL    HW2 1068   1.359   2.067   1.063
   57SOL     OW 1069   3.529   1.124   0.293
   57SOL    HW1 1070   3.455   1.108   0.229
   57SOL    HW2 1071   3.607   1.066   0.269
   58SOL     OW 1072   0.514   6.903   5.830
   58SOL    HW1 1073   0.536   6.862   5.742
   58SOL    HW2 1074   0.567   6.858   5.902
   59SOL     OW 1075   6.533   3.538   5.872
   59SOL    HW1 1076   6.500   3.552   5.965
   59SOL    HW2 1077   6.513   3.444   5.844
   60SOL     OW 1078   5.269   2.466   3.974
   60SOL    HW1 1079   5.266   2.379   4.024
   60SOL    HW2 1080   5.190   2.521   4.001
   61SOL     OW 1081   6.922   1.069   4.464
   61SOL    HW1 1082   6.903   0.993   4.402
   61SOL    HW2 1083   6.848   1.136   4.459
   62SOL     OW 1084   1.873   1.060   1.196
   62SOL    HW1 1085   1.957   1.013   1.170
   62SOL    HW2 1086   1.891   1.124   1.270
   63SOL     OW 1087   3.958   0.221   3.765
   63SOL    HW1 1088   4.003   0.137   3.795
   63SOL    HW2 1089   3.861   0.217   3.789
   64SOL     OW 1090   0.452   3.518   6.491
   64SOL    HW1 1091   0.514   3.485   6.421
   64SOL    HW2 1092   0.448   3.618   6.487
   65SOL     OW 1093   1.156   6.075   5.420
   65SOL    HW1 1094   1.149   6.173   5.439
   65SOL    HW2 1095   1.120   6.056   5.328
   66SOL     OW 1096   3.263   6.966   3.135
   66SOL    HW1 1097   3.301   0.032   3.118
   66SOL    HW2 1098   3.335   6.906   3.172
   67SOL     OW 1099   0.267   3.178   6.074
   67SOL    HW1 1100   0.183   3.154   6.121
   67SOL    HW2 1101   0.330   3.221   6.138
   68SOL     OW 1102   0.079   1.378   5.926
   68SOL    HW1 1103   0.144   1.302   5.933
   68SOL    HW2 1104   7.013   1.348   5.955
   69SOL     OW 1105   1.921   3.142   5.882
   69SOL    HW1 1106   1.955   3.228   5.920
   69SOL    HW2 1107   1.912   3.151   5.783
   70SOL     OW 1108   5.571   5.096   4.860
   70SOL    HW1 1109   5.667   5.107   4.885
   70SOL    HW2 1110   5.522   5.045   4.931
   71SOL     OW 1111   4.645   1.747   3.295
   71SOL    HW1 1112   4.689   1.819   3.349
   71SOL    HW2 1113   4.610   1.676   3.356
   72SOL     OW 1114   0.142   1.027   3.135
   72SOL    HW1 1115   0.113   1.067   3.222
   72SOL    HW2 1116   0.062   0.999   3.081
   73SOL     OW 1117   3.077   0.262   0.918
   73SOL    HW1 1118   3.091   0.306   0.830
   73SOL    HW2 1119   2.987   0.288   0.954
   74SOL     OW 1120   2.883   1.266   6.436
   74SOL    HW1 1121   2.903   1.176   6.474
   74SOL    HW2 1122   2.869   1.258   6.337
   75SOL     OW 1123   3.521   1.471   1.591
   75SOL    HW1 1124   3.493   1.391   1.539
   75SOL    HW2 1125   3.443   1.532   1.605
   76SOL     OW 1126   1.872   3.975   6.138
   76SOL    HW1 1127   1.946   3.935   6.192
   76SOL    HW2 1128   1.809   4.023   6.199
   77SOL     OW 1129   1.954   5.861   3.152
   77SOL    HW1 1130   2.016   5.784   3.141
   77SOL    HW2 1131   1.940   5.879   3.250
   78SOL     OW 1132   4.041   1.286   1.153
   78SOL    HW1 1133   4.035   1.232   1.069
   78SOL    HW2 1134   4.052   1.383   1.129
   79SOL     OW 1135   2.603   5.858   1.736
   79SOL    HW1 1136   2.509   5.843   1.706
   79SOL    HW2 1137   2.609   5.945   1.784
   80SOL     OW 1138   4.105   1.798   4.656
   80SOL    HW1 1139   4.134   1.871   4.594
   80SOL    HW2 1140   4.151   1.809   4.744
   81SOL     OW 1141   2.217   6.709   0.901
   81SOL    HW1 1142   2.202   6.620   0.857
   81SOL    HW2 1143   2.140   6.769   0.882
   82SOL     OW 1144   7.010   6.047   1.898
   82SOL    HW1 1145   6.922   6.001   1.888
   82SOL    HW2 1146   0.054   6.000   1.842
   83SOL     OW 1147   0.194   1.823   6.075
   83SOL    HW1 1148   0.287   1.805   6.044
   83SOL    HW2 1149   0.173   1.765   6.154
   84SOL     OW 1150   6.611   4.099   2.888
   84SOL    HW1 1151   6.670   4.120   2.810
   84SOL    HW2 1152   6.590   4.183   2.938
   85SOL     OW 1153   1.380   0.438   3.314
   85SOL    HW1 1154   1.409   0.528   3.347
   85SOL    HW2 1155   1.426   0.367   3.368
   86SOL     OW 1156   6.738   1.207   6.790
   86SOL    HW1 1157   6.695   1.294   6.813
   86SOL    HW2 1158   6.821   1.224   6.737
   87SOL     OW 1159   3.652   4.047   0.866
   87SOL    HW1 1160   3.737   4.064   0.817
   87SOL    HW2 1161   3.641   3.949   0.880
   88SOL     OW 1162   3.086   2.200   6.482
   88SOL    HW1 1163   3.005   2.195   6.423
   88SOL    HW2 1164   3.144   2.276   6.453
   89SOL     OW 1165   3.232   3.678   0.952
   89SOL    HW1 1166   3.329   3.685   0.928
   89SOL    HW2 1167   3.175   3.698   0.872
   90SOL     OW 1168   4.734   4.623   2.539
   90SOL    HW1 1169   4.715   4.529   2.509
   90SOL    HW2 1170   4.652   4.678   2.530
   91SOL     OW 1171   5.814   4.782   6.209
   91SOL    HW1 1172   5.720   4.812   6.193
   91SOL    HW2 1173   5.864   4.785   6.123
   92SOL     OW 1174   5.430   4.004   0.909
   92SOL    HW1 1175   5.353   4.056   0.872
   92SOL    HW2 1176   5.408   3.969   0.999
   93SOL     OW 1177   3.318   3.624   0.475
   93SOL    HW1 1178   3.273   3.646   0.388
   93SOL    HW2 1179   3.411   3.592   0.457
   94SOL     OW 1180   2.513   6.201   0.759
   94SOL    HW1 1181   2.496   6.297   0.781
   94SOL    HW2 1182   2.427   6.157   0.734
   95SOL     OW 1183   1.323   1.105   3.128
   95SOL    HW1 1184   1.315   1.008   3.103
   95SOL    HW2 1185   1.368   1.112   3.217
   96SOL     OW 1186   5.080   5.958   6.838
   96SOL    HW1 1187   5.043   5.909   6.759
   96SOL    HW2 1188   5.060   5.907   6.921
   97SOL     OW 1189   2.210   4.270   5.040
   97SOL    HW1 1190   2.262   4.327   4.977
   97SOL    HW2 1191   2.236   4.174   5.028
   98SOL     OW 1192   1.050   2.168   1.276
   98SOL    HW1 1193   0.962   2.217   1.275
   98SOL    HW2 1194   1.115   2.216   1.217
   99SOL     OW 1195   3.445   3.885   2.701
   99SOL    HW1 1196   3.474   3.790   2.688
   99SOL    HW2 1197   3.523   3.939   2.733
  100SOL     OW 1198   6.770   0.180   4.478
  100SOL    HW1 1199   6.819   0.201   4.394
  100SOL    HW2 1200   6.704   0.108   4.461
  101SOL     OW 1201   0.578   5.447   2.506
  101SOL    HW1 1202   0.527   5.361   2.502
  101SOL    HW2 1203   0.530   5.511   2.565
  102SOL     OW 1204   3.348   5.739   2.582
  102SOL    HW1 1205   3.318   5.831   2.556
  102SOL    HW2 1206   3.386   5.693   2.502
  103SOL     OW 1207   1.737   1.906   2.301
  103SOL    HW1 1208   1.751   1.825   2.358
  103SOL    HW2 1209   1.640   1.928   2.296
  104SOL     OW 1210   1.600   4.976   2.290
  104SOL    HW1 1211   1.585   4.965   2.191
  104SOL    HW2 1212   1.568   4.895   2.338
  105SOL     OW 1213   5.014   1.652   5.833
  105SOL    HW1 1214   5.020   1.732   5.893
  105SOL    HW2 1215   5.104   1.630   5.796
  106SOL     OW 1216   4.511   4.958   2.170
  106SOL    HW1 1217   4.464   4.971   2.258
  106SOL    HW2 1218   4.559   4.870   2.172
  107SOL     OW 1219   6.211   0.629   6.668
  107SOL    HW1 1220   6.227   0.709   6.725
  107SOL    HW2 1221   6.113   0.619   6.650
  108SOL     OW 1222   3.520   6.959   5.676
  108SOL    HW1 1223   3.539   7.000   5.587
  108SOL    HW2 1224   3.446   6.892   5.667
  109SOL     OW 1225   3.027   0.389   2.374
  109SOL    HW1 1226   3.058   0.421   2.284
  109SOL    HW2 1227   3.095   0.326   2.412
  110SOL     OW 1228   2.404   5.204   4.892
  110SOL    HW1 1229   2.306   5.223   4.883
  110SOL    HW2 1230   2.428   5.126   4.835
  111SOL     OW 1231   0.858   1.570   2.939
  111SOL    HW1 1232   0.886   1.664   2.919
  111SOL    HW2 1233   0.813   1.567   3.029
  112SOL     OW 1234   5.018   6.789   6.630
  112SOL    HW1 1235   4.993   6.798   6.534
  112SOL    HW2 1236   4.936   6.785   6.686
  113SOL     OW 1237   0.120   6.081   2.582
  113SOL    HW1 1238   0.179   6.154   2.546
  113SOL    HW2 1239   0.057   6.120   2.649
  114SOL     OW 1240   1.230   5.263   1.993
  114SOL    HW1 1241   1.271   5.175   2.016
  114SOL    HW2 1242   1.302   5.329   1.971
  115SOL     OW 1243   5.949   0.811   3.428
  115SOL    HW1 1244   5.984   0.904   3.436
  115SOL    HW2 1245   5.929   0.791   3.332
  116SOL     OW 1246   0.335   6.126   1.278
  116SOL    HW1 1247   0.275   6.047   1.272
  116SOL    HW2 1248   0.292   6.196   1.335
  117SOL     OW 1249   2.276   0.691   0.181
  117SOL    HW1 1250   2.270   0.687   0.280
  117SOL    HW2 1251   2.371   0.678   0.152
  118SOL     OW 1252   1.566   1.866   3.305
  118SOL    HW1 1253   1.596   1.892   3.397
  118SOL    HW2 1254   1.645   1.856   3.246
  119SOL     OW 1255   0.157   6.961   6.241
  119SOL    HW1 1256   0.250   6.996   6.250
  119SOL    HW2 1257   0.159   6.871   6.198
  120SOL     OW 1258   4.393   0.725   4.498
  120SOL    HW1 1259   4.478   0.768   4.530
  120SOL    HW2 1260   4.377   0.749   4.402
  121SOL     OW 1261   2.026   4.068   0.157
  121SOL    HW1 1262   1.992   4.160   0.177
  121SOL    HW2 1263   1.950   4.010   0.127
  122SOL     OW 1264   1.809   3.438   6.924
  122SOL    HW1 1265   1.795   3.470   7.018
  122SOL    HW2 1266   1.804   3.515   6.861
  123SOL     OW 1267   1.580   0.974   1.975
  123SOL    HW1 1268   1.672   0.957   2.011
  123SOL    HW2 1269   1.523   1.014   2.047
  124SOL     OW 1270   3.133   2.093   0.462
  124SOL    HW1 1271   3.207   2.153   0.491
  124SOL    HW2 1272   3.127   2.015   0.524
  125SOL     OW 1273   3.239   2.628   0.396
  125SOL    HW1 1274   3.165   2.688   0.425
  125SOL    HW2 1275   3.213   2.581   0.312
  126SOL     OW 1276   3.533   3.257   3.305
  126SOL    HW1 1277   3.523   3.306   3.218
  126SOL    HW2 1278   3.630   3.241   3.323
  127SOL     OW 1279   6.537   6.231   6.049
  127SOL    HW1 1280   6.629   6.228   6.088
  127SOL    HW2 1281   6.526   6.314   5.994
  128SOL     OW 1282   5.249   3.429   2.296
  128SOL    HW1 1283   5.334   3.479   2.280
  128SOL    HW2 1284   5.181   3.457   2.228
  129SOL     OW 1285   3.140   4.334   0.895
  129SOL    HW1 1286   3.180   4.299   0.979
  129SOL    HW2 1287   3.178   4.425   0.875
  130SOL     OW 1288   6.413   0.879   4.856
  130SOL    HW1 1289   6.435   0.800   4.915
  130SOL    HW2 1290   6.417   0.851   4.760
  131SOL     OW 1291   6.050   0.912   4.707
  131SOL    HW1 1292   5.984   0.987   4.702
  131SOL    HW2 1293   6.110   0.927   4.786
  132SOL     OW 1294   3.502   3.187   1.322
  132SOL    HW1 1295   3.422   3.201   1.381
  132SOL    HW2 1296   3.526   3.090   1.321
  133SOL     OW 1297   5.222   1.507   3.299
  133SOL    HW1 1298   5.256   1.473   3.387
  133SOL    HW2 1299   5.183   1.598   3.311
  134SOL     OW 1300   0.665   0.405   2.549
  134SOL    HW1 1301   0.680   0.401   2.450
  134SOL    HW2 1302   0.751   0.429   2.595
  135SOL     OW 1303   5.200   3.084   4.188
  135SOL    HW1 1304   5.230   3.147   4.117
  135SOL    HW2 1305   5.280   3.044   4.233
  136SOL     OW 1306   2.632   6.397   4.201
  136SOL    HW1 1307   2.684   6.483   4.197
  136SOL    HW2 1308   2.627   6.358   4.109
  137SOL     OW 1309   4.066   0.922   4.423
  137SOL    HW1 1310   4.012   0.986   4.477
  137SOL    HW2 1311   4.032   0.829   4.437
  138SOL     OW 1312   0.854   4.490   3.170
  138SOL    HW1 1313   0.870   4.577   3.122
  138SOL    HW2 1314   0.772   4.446   3.133
  139SOL     OW 1315   2.480   5.701   6.486
  139SOL    HW1 1316   2.396   5.755   6.478
  139SOL    HW2 1317   2.485   5.635   6.411
  140SOL     OW 1318   1.782   6.306   2.896
  140SOL    HW1 1319   1.805   6.326   2.800
  140SOL    HW2 1320   1.834   6.226   2.926
  141SOL     OW 1321   6.682   2.982   5.739
  141SOL    HW1 1322   6.585   2.969   5.758
  141SOL    HW2 1323   6.694   3.009   5.643
  142SOL     OW 1324   2.379   3.747   1.632
  142SOL    HW1 1325   2.293   3.697   1.622
  142SOL    HW2 1326   2.361   3.844   1.642
  143SOL     OW 1327   5.623   5.535   1.161
  143SOL    HW1 1328   5.647   5.609   1.098
  143SOL    HW2 1329   5.698   5.519   1.225
  144SOL     OW 1330   3.199   4.910   4.287
  144SOL    HW1 1331   3.263   4.935   4.359
  144SOL    HW2 1332   3.248   4.899   4.201
  145SOL     OW 1333   1.363   5.018   2.017
  145SOL    HW1 1334   1.461   5.019   2.037
  145SOL    HW2 1335   1.316   4.967   2.089
  146SOL     OW 1336   5.234   0.855   5.687
  146SOL    HW1 1337   5.156   0.862   5.749
  146SOL    HW2 1338   5.257   0.947   5.653
  147SOL     OW 1339   4.927   1.244   4.837
  147SOL    HW1 1340   4.902   1.239   4.741
  147SOL    HW2 1341   5.025   1.266   4.845
  148SOL     OW 1342   1.123   5.351   1.320
  148SOL    HW1 1343   1.140   5.267   1.269
  148SOL    HW2 1344   1.205   5.375   1.372
  149SOL     OW 1345   3.014   1.858   4.910
  149SOL    HW1 1346   3.020   1.915   4.992
  149SOL    HW2 1347   3.106   1.838   4.876
  150SOL     OW 1348   4.400   0.843   6.061
  150SOL    HW1 1349   4.418   0.937   6.091
  150SOL    HW2 1350   4.463   0.781   6.106
  151SOL     OW 1351   3.901   0.683   1.684
  151SOL    HW1 1352   3.949   0.764   1.717
  151SOL    HW2 1353   3.961   0.603   1.692
  152SOL     OW 1354   6.842   1.521   0.644
  152SOL    HW1 1355   6.816   1.583   0.718
  152SOL    HW2 1356   6.928   1.475   0.668
  153SOL     OW 1357   2.476   0.341   3.529
  153SOL    HW1 1358   2.548   0.334   3.460
  153SOL    HW2 1359   2.501   0.286   3.609
  154SOL     OW 1360   6.695   2.371   6.841
  154SOL    HW1 1361   6.776   2.325   6.876
  154SOL    HW2 1362   6.660   2.434   6.911
  155SOL     OW 1363   0.915   6.957   2.054
  155SOL    HW1 1364   0.976   6.998   2.122
  155SOL    HW2 1365   0.860   0.004   2.010
  156SOL     OW 1366   6.318   1.304   0.292
  156SOL    HW1 1367   6.393   1.337   0.234
  156SOL    HW2 1368   6.323   1.349   0.381
  157SOL     OW 1369   5.847   2.808   6.867
  157SOL    HW1 1370   5.900   2.892   6.857
  157SOL    HW2 1371   5.882   2.755   6.944
  158SOL     OW 1372   1.445   2.443   1.773
  158SOL    HW1 1373   1.387   2.368   1.804
  158SOL    HW2 1374   1.414   2.529   1.814
  159SOL     OW 1375   4.366   4.646   1.106
  159SOL    HW1 1376   4.416   4.689   1.031
  159SOL    HW2 1377   4.279   4.693   1.119
  160SOL     OW 1378   6.572   0.315   1.667
  160SOL    HW1 1379   6.617   0.240   1.618
  160SOL    HW2 1380   6.641   0.370   1.715
  161SOL     OW 1381   1.318   6.717   1.498
  161SOL    HW1 1382   1.390   6.785   1.483
  161SOL    HW2 1383   1.360   6.628   1.516
  162SOL     OW 1384   2.479   6.929   0.221
  162SOL    HW1 1385   2.404   6.865   0.232
  162SOL    HW2 1386   2.566   6.879   0.218
  163SOL     OW 1387   0.632   4.969   3.223
  163SOL    HW1 1388   0.601   5.042   3.161
  163SOL    HW2 1389   0.642   4.884   3.172
  164SOL     OW 1390   0.968   2.194   2.679
  164SOL    HW1 1391   1.033   2.157   2.746
  164SOL    HW2 1392   0.881   2.148   2.689
  165SOL     OW 1393   6.086   5.567   1.374
  165SOL    HW1 1394   6.151   5.560   1.299
  165SOL    HW2 1395   6.034   5.652   1.364
  166SOL     OW 1396   6.629   3.463   1.781
  166SOL    HW1 1397   6.566   3.410   1.725
  166SOL    HW2 1398   6.582   3.541   1.821
  167SOL     OW 1399   5.692   1.527   6.555
  167SOL    HW1 1400   5.736   1.440   6.530
  167SOL    HW2 1401   5.609   1.508   6.608
  168SOL     OW 1402   4.227   2.161   1.513
  168SOL    HW1 1403   4.220   2.157   1.414
  168SOL    HW2 1404   4.170   2.236   1.548
  169SOL     OW 1405   6.015   3.368   6.873
  169SOL    HW1 1406   6.063   3.436   6.816
  169SOL    HW2 1407   5.926   3.405   6.900
  170SOL     OW 1408   0.010   5.577   3.301
  170SOL    HW1 1409   0.006   5.479   3.319
  170SOL    HW2 1410   6.949   5.620   3.329
  171SOL     OW 1411   1.800   3.721   6.757
  171SOL    HW1 1412   1.701   3.732   6.746
  171SOL    HW2 1413   1.835   3.661   6.685
  172SOL     OW 1414   6.488   2.572   2.262
  172SOL    HW1 1415   6.410   2.633   2.272
  172SOL    HW2 1416   6.474   2.513   2.182
  173SOL     OW 1417   6.120   1.596   4.457
  173SOL    HW1 1418   6.187   1.557   4.393
  173SOL    HW2 1419   6.095   1.527   4.525
  174SOL     OW 1420   5.152   4.888   4.680
  174SOL    HW1 1421   5.168   4.792   4.660
  174SOL    HW2 1422   5.056   4.901   4.706
  175SOL     OW 1423   2.887   0.413   1.809
  175SOL    HW1 1424   2.973   0.399   1.759
  175SOL    HW2 1425   2.904   0.470   1.889
  176SOL     OW 1426   4.969   4.476   3.627
  176SOL    HW1 1427   4.877   4.505   3.601
  176SOL    HW2 1428   5.032   4.496   3.551
  177SOL     OW 1429   5.205   2.531   5.277
  177SOL    HW1 1430   5.181   2.603   5.342
  177SOL    HW2 1431   5.188   2.564   5.184
  178SOL     OW 1432   3.356   4.975   4.493
  178SOL    HW1 1433   3.316   4.978   4.585
  178SOL    HW2 1434   3.455   4.987   4.500
  179SOL     OW 1435   4.563   6.615   6.901
  179SOL    HW1 1436   4.625   6.646   6.973
  179SOL    HW2 1437   4.598   6.532   6.859
  180SOL     OW 1438   2.455   6.632   6.979
  180SOL    HW1 1439   2.459   6.567   0.031
  180SOL    HW2 1440   2.369   6.621   6.930
  181SOL     OW 1441   3.629   2.494   5.839
  181SOL    HW1 1442   3.719   2.492   5.882
  181SOL    HW2 1443   3.632   2.446   5.751
  182SOL     OW 1444   4.917   3.001   6.627
  182SOL    HW1 1445   4.843   2.938   6.651
  182SOL    HW2 1446   4.907   3.086   6.677
  183SOL     OW 1447   4.124   2.328   3.779
  183SOL    HW1 1448   4.188   2.379   3.836
  183SOL    HW2 1449   4.141   2.349   3.682
  184SOL     OW 1450   0.645   6.622   3.700
  184SOL    HW1 1451   0.722   6.650   3.758
  184SOL    HW2 1452   0.559   6.636   3.749
  185SOL     OW 1453   0.993   1.610   3.603
  185SOL    HW1 1454   1.064   1.540   3.609
  185SOL    HW2 1455   0.948   1.620   3.692
  186SOL     OW 1456   5.526   6.730   4.216
  186SOL    HW1 1457   5.567   6.677   4.290
  186SOL    HW2 1458   5.495   6.818   4.252
  187SOL     OW 1459   4.495   5.919   2.140
  187SOL    HW1 1460   4.489   5.964   2.051
  187SOL    HW2 1461   4.426   5.846   2.144
  188SOL     OW 1462   0.994   2.315   3.237
  188SOL    HW1 1463   1.014   2.397   3.291
  188SOL    HW2 1464   0.996   2.337   3.140
  189SOL     OW 1465   0.088   4.580   6.440
  189SOL    HW1 1466   0.038   4.494   6.454
  189SOL    HW2 1467   0.043   4.633   6.368
  190SOL     OW 1468   5.731   4.961   7.015
  190SOL    HW1 1469   5.717   5.031   6.945
  190SOL    HW2 1470   5.805   4.989   0.052
  191SOL     OW 1471   6.825   1.475   5.337
  191SOL    HW1 1472   6.745   1.434   5.293
  191SOL    HW2 1473   6.890   1.506   5.266
  192SOL     OW 1474   0.386   4.729   1.464
  192SOL    HW1 1475   0.341   4.716   1.376
  192SOL    HW2 1476   0.467   4.787   1.453
  193SOL     OW 1477   4.932   4.307   5.301
  193SOL    HW1 1478   4.988   4.226   5.285
  193SOL    HW2 1479   4.840   4.278   5.327
  194SOL     OW 1480   4.162   0.253   2.267
  194SOL    HW1 1481   4.129   0.313   2.194
  194SOL    HW2 1482   4.253   0.219   2.243
  195SOL     OW 1483   2.277   0.863   3.890
  195SOL    HW1 1484   2.228   0.948   3.870
  195SOL    HW2 1485   2.274   0.804   3.810
  196SOL     OW 1486   3.357   6.905   0.141
  196SOL    HW1 1487   3.326   6.989   0.185
  196SOL    HW2 1488   3.357   6.831   0.208
  197SOL     OW 1489   3.109   5.797   7.019
  197SOL    HW1 1490   3.146   5.872   0.050
  197SOL    HW2 1491   3.018   5.822   6.986
  198SOL     OW 1492   4.821   6.786   0.837
  198SOL    HW1 1493   4.782   6.867   0.881
  198SOL    HW2 1494   4.808   6.793   0.738
  199SOL     OW 1495   6.549   0.916   2.573
  199SOL    HW1 1496   6.462   0.895   2.529
  199SOL    HW2 1497   6.607   0.834   2.573
  200SOL     OW 1498   0.680   3.896   2.576
  200SOL    HW1 1499   0.713   3.836   2.649
  200SOL    HW2 1500   0.653   3.842   2.497
  201SOL     OW 1501   3.129   6.557   5.991
  201SOL    HW1 1502   3.210   6.501   5.972
  201SOL    HW2 1503   3.059   6.499   6.034
  202SOL     OW 1504   4.826   0.682   5.185
  202SOL    HW1 1505   4.832   0.709   5.281
  202SOL    HW2 1506   4.748   0.621   5.172
  203SOL     OW 1507   4.872   2.415   5.298
  203SOL    HW1 1508   4.844   2.508   5.321
  203SOL    HW2 1509   4.924   2.416   5.212
  204SOL     OW 1510   0.525   0.266   6.597
  204SOL    HW1 1511   0.598   0.328   6.568
  204SOL    HW2 1512   0.467   0.245   6.518
  205SOL     OW 1513   1.016   1.060   1.815
  205SOL    HW1 1514   1.013   0.980   1.756
  205SOL    HW2 1515   1.094   1.052   1.878
  206SOL     OW 1516   0.482   4.831   2.493
  206SOL    HW1 1517   0.439   4.894   2.558
  206SOL    HW2 1518   0.495   4.742   2.536
  207SOL     OW 1519   3.832   0.645   5.373
  207SOL    HW1 1520   3.927   0.678   5.366
  207SOL    HW2 1521   3.831   0.545   5.372
  208SOL     OW 1522   5.173   3.774   5.855
  208SOL    HW1 1523   5.123   3.846   5.807
  208SOL    HW2 1524   5.262   3.762   5.812
  209SOL     OW 1525   1.051   5.598   5.533
  209SOL    HW1 1526   1.030   5.511   5.576
  209SOL    HW2 1527   0.967   5.640   5.498
  210SOL     OW 1528   4.073   2.231   2.683
  210SOL    HW1 1529   4.066   2.329   2.662
  210SOL    HW2 1530   4.017   2.179   2.618
  211SOL     OW 1531   0.934   6.250   3.699
  211SOL    HW1 1532   0.949   6.349   3.693
  211SOL    HW2 1533   0.836   6.231   3.694
  212SOL     OW 1534   1.767   4.336   2.061
  212SOL    HW1 1535   1.728   4.313   2.150
  212SOL    HW2 1536   1.863   4.307   2.057
  213SOL     OW 1537   4.373   1.089   6.883
  213SOL    HW1 1538   4.368   1.173   6.937
  213SOL    HW2 1539   4.420   1.107   6.797
  214SOL     OW 1540   2.526   5.879   2.497
  214SOL    HW1 1541   2.617   5.900   2.460
  214SOL    HW2 1542   2.517   5.920   2.588
  215SOL     OW 1543   3.228   3.897   1.926
  215SOL    HW1 1544   3.133   3.876   1.901
  215SOL    HW2 1545   3.230   3.934   2.019
  216SOL     OW 1546   1.416   6.881   4.688
  216SOL    HW1 1547   1.483   6.810   4.667
  216SOL    HW2 1548   1.396   6.879   4.786
  217SOL     OW 1549   2.230   2.759   4.945
  217SOL    HW1 1550   2.251   2.715   5.033
  217SOL    HW2 1551   2.207   2.855   4.960
  218SOL     OW 1552   1.406   2.323   5.377
  218SOL    HW1 1553   1.451   2.275   5.452
  218SOL    HW2 1554   1.474   2.351   5.310
  219SOL     OW 1555   3.434   4.968   5.935
  219SOL    HW1 1556   3.513   4.937   5.988
  219SOL    HW2 1557   3.438   5.068   5.927
  220SOL     OW 1558   3.440   5.356   0.174
  220SOL    HW1 1559   3.410   5.393   0.086
  220SOL    HW2 1560   3.418   5.421   0.247
  221SOL     OW 1561   6.060   4.274   2.608
  221SOL    HW1 1562   6.048   4.367   2.642
  221SOL    HW2 1563   5.995   4.257   2.534
  222SOL     OW 1564   2.082   5.240   5.669
  222SOL    HW1 1565   2.107   5.312   5.605
  222SOL    HW2 1566   2.097   5.150   5.627
  223SOL     OW 1567   0.401   3.692   0.659
  223SOL    HW1 1568   0.393   3.760   0.586
  223SOL    HW2 1569   0.350   3.609   0.633
  224SOL     OW 1570   3.010   2.201   3.790
  224SOL    HW1 1571   2.923   2.196   3.840
  224SOL    HW2 1572   3.058   2.285   3.815
  225SOL     OW 1573   5.427   1.772   6.263
  225SOL    HW1 1574   5.349   1.778   6.326
  225SOL    HW2 1575   5.394   1.761   6.170
  226SOL     OW 1576   0.325   6.697   6.887
  226SOL    HW1 1577   0.308   6.664   6.979
  226SOL    HW2 1578   0.241   6.734   6.848
  227SOL     OW 1579   0.897   4.532   2.567
  227SOL    HW1 1580   0.978   4.591   2.574
  227SOL    HW2 1581   0.918   4.443   2.606
  228SOL     OW 1582   2.820   0.021   3.880
  228SOL    HW1 1583   2.781   6.975   3.820
  228SOL    HW2 1584   2.747   0.081   3.912
  229SOL     OW 1585   6.084   5.571   0.873
  229SOL    HW1 1586   6.151   5.633   0.915
  229SOL    HW2 1587   6.132   5.501   0.820
  230SOL     OW 1588   3.159   4.910   3.687
  230SOL    HW1 1589   3.152   4.856   3.603
  230SOL    HW2 1590   3.245   4.888   3.733
  231SOL     OW 1591   6.410   2.477   5.603
  231SOL    HW1 1592   6.500   2.518   5.585
  231SOL    HW2 1593   6.388   2.413   5.530
  232SOL     OW 1594   0.350   4.285   6.297
  232SOL    HW1 1595   0.343   4.359   6.231
  232SOL    HW2 1596   0.362   4.323   6.389
  233SOL     OW 1597   2.492   1.323   4.561
  233SOL    HW1 1598   2.511   1.247   4.623
  233SOL    HW2 1599   2.563   1.327   4.491
  234SOL     OW 1600   2.397   5.674   5.342
  234SOL    HW1 1601   2.386   5.684   5.441
  234SOL    HW2 1602   2.473   5.732   5.311
  235SOL     OW 1603   3.467   2.881   2.856
  235SOL    HW1 1604   3.376   2.910   2.886
  235SOL    HW2 1605   3.506   2.818   2.922
  236SOL     OW 1606   5.781   3.446   6.956
  236SOL    HW1 1607   5.756   3.538   6.925
  236SOL    HW2 1608   5.709   3.381   6.931
  237SOL     OW 1609   0.073   6.772   0.416
  237SOL    HW1 1610   0.085   6.688   0.468
  237SOL    HW2 1611   0.157   6.794   0.367
  238SOL     OW 1612   0.007   3.041   0.281
  238SOL    HW1 1613   0.008   3.070   0.376
  238SOL    HW2 1614   6.941   3.059   0.241
  239SOL     OW 1615   6.686   4.532   0.323
  239SOL    HW1 1616   6.707   4.514   0.227
  239SOL    HW2 1617   6.763   4.580   0.365
  240SOL     OW 1618   0.601   3.114   5.146
  240SOL    HW1 1619   0.603   3.047   5.220
  240SOL    HW2 1620   0.518   3.168   5.153
  241SOL     OW 1621   0.637   0.660   3.832
  241SOL    HW1 1622   0.563   0.654   3.898
  241SOL    HW2 1623   0.600   0.681   3.741
  242SOL     OW 1624   1.783   2.625   5.866
  242SOL    HW1 1625   1.851   2.560   5.901
  242SOL    HW2 1626   1.828   2.709   5.837
  243SOL     OW 1627   4.721   0.306   5.676
  243SOL    HW1 1628   4.724   0.206   5.685
  243SOL    HW2 1629   4.748   0.348   5.763
  244SOL     OW 1630   4.780   2.959   4.226
  244SOL    HW1 1631   4.696   2.947   4.278
  244SOL    HW2 1632   4.785   2.891   4.153
  245SOL     OW 1633   6.956   3.136   4.582
  245SOL    HW1 1634   6.945   3.218   4.525
  245SOL    HW2 1635   7.002   3.065   4.528
  246SOL     OW 1636   5.436   3.424   3.899
  246SOL    HW1 1637   5.431   3.326   3.881
  246SOL    HW2 1638   5.524   3.444   3.943
  247SOL     OW 1639   2.666   1.741   2.539
  247SOL    HW1 1640   2.708   1.652   2.521
  247SOL    HW2 1641   2.609   1.735   2.621
  248SOL     OW 1642   4.590   2.515   3.974
  248SOL    HW1 1643   4.651   2.525   3.895
  248SOL    HW2 1644   4.632   2.452   4.040
  249SOL     OW 1645   3.674   0.141   5.066
  249SOL    HW1 1646   3.603   0.133   5.137
  249SOL    HW2 1647   3.683   0.236   5.038
  250SOL     OW 1648   5.321   1.763   5.527
  250SOL    HW1 1649   5.274   1.837   5.575
  250SOL    HW2 1650   5.330   1.788   5.430
  251SOL     OW 1651   4.101   4.079   6.092
  251SOL    HW1 1652   4.161   4.158   6.104
  251SOL    HW2 1653   4.030   4.102   6.024
  252SOL     OW 1654   0.178   1.433   5.665
  252SOL    HW1 1655   0.141   1.446   5.757
  252SOL    HW2 1656   0.150   1.344   5.630
  253SOL     OW 1657   2.491   4.538   6.959
  253SOL    HW1 1658   2.489   4.514   6.862
  253SOL    HW2 1659   2.400   4.526   6.999
  254SOL     OW 1660   6.675   2.511   3.617
  254SOL    HW1 1661   6.638   2.550   3.701
  254SOL    HW2 1662   6.681   2.411   3.627
  255SOL     OW 1663   2.750   1.810   4.231
  255SOL    HW1 1664   2.782   1.879   4.166
  255SOL    HW2 1665   2.795   1.823   4.319
  256SOL     OW 1666   6.652   4.719   6.759
  256SOL    HW1 1667   6.745   4.685   6.773
  256SOL    HW2 1668   6.588   4.664   6.813
  257SOL     OW 1669   3.601   5.184   5.494
  257SOL    HW1 1670   3.598   5.128   5.412
  257SOL    HW2 1671   3.573   5.129   5.573
  258SOL     OW 1672   5.393   3.583   4.884
  258SOL    HW1 1673   5.310   3.628   4.918
  258SOL    HW2 1674   5.473   3.623   4.930
  259SOL     OW 1675   1.812   2.816   2.625
  259SOL    HW1 1676   1.861   2.768   2.552
  259SOL    HW2 1677   1.818   2.762   2.709
  260SOL     OW 1678   4.669   0.004   0.924
  260SOL    HW1 1679   4.628   6.964   0.988
  260SOL    HW2 1680   4.606   0.020   0.848
  261SOL     OW 1681   0.384   3.589   1.136
  261SOL    HW1 1682   0.338   3.500   1.146
  261SOL    HW2 1683   0.443   3.605   1.215
  262SOL     OW 1684   0.958   3.893   2.281
  262SOL    HW1 1685   1.044   3.942   2.293
  262SOL    HW2 1686   0.969   3.799   2.313
  263SOL     OW 1687   0.148   1.794   4.516
  263SOL    HW1 1688   0.079   1.849   4.563
  263SOL    HW2 1689   0.175   1.717   4.574
  264SOL     OW 1690   6.566   4.003   5.900
  264SOL    HW1 1691   6.579   4.094   5.860
  264SOL    HW2 1692   6.492   4.006   5.966
  265SOL     OW 1693   5.277   4.134   3.584
  265SOL    HW1 1694   5.292   4.154   3.487
  265SOL    HW2 1695   5.201   4.070   3.594
  266SOL     OW 1696   3.680   2.857   6.664
  266SOL    HW1 1697   3.666   2.953   6.688
  266SOL    HW2 1698   3.736   2.851   6.581
  267SOL     OW 1699   0.939   3.266   0.193
  267SOL    HW1 1700   0.876   3.284   0.117
  267SOL    HW2 1701   0.928   3.171   0.222
  268SOL     OW 1702   4.898   5.257   5.039
  268SOL    HW1 1703   4.994   5.236   5.057
  268SOL    HW2 1704   4.844   5.172   5.043
  269SOL     OW 1705   1.509   2.324   0.261
  269SOL    HW1 1706   1.511   2.334   0.162
  269SOL    HW2 1707   1.436   2.260   0.286
  270SOL     OW 1708   5.458   1.098   1.894
  270SOL    HW1 1709   5.458   1.198   1.903
  270SOL    HW2 1710   5.547   1.062   1.921
  271SOL     OW 1711   2.377   2.203   1.154
  271SOL    HW1 1712   2.351   2.290   1.197
  271SOL    HW2 1713   2.341   2.128   1.208
  272SOL     OW 1714   3.881   5.642   3.828
  272SOL    HW1 1715   3.863   5.626   3.731
  272SOL    HW2 1716   3.920   5.733   3.840
  273SOL     OW 1717   1.082   5.515   5.228
  273SOL    HW1 1718   1.056   5.420   5.210
  273SOL    HW2 1719   1.062   5.537   5.323
  274SOL     OW 1720   5.145   2.594   3.623
  274SOL    HW1 1721   5.184   2.657   3.690
  274SOL    HW2 1722   5.089   2.526   3.670
  275SOL     OW 1723   1.146   5.790   6.453
  275SOL    HW1 1724   1.136   5.744   6.364
  275SOL    HW2 1725   1.144   5.721   6.526
  276SOL     OW 1726   6.294   5.337   4.301
  276SOL    HW1 1727   6.341   5.401   4.239
  276SOL    HW2 1728   6.280   5.250   4.254
  277SOL     OW 1729   3.096   0.813   6.037
  277SOL    HW1 1730   3.155   0.795   5.958
  277SOL    HW2 1731   3.003   0.833   6.005
  278SOL     OW 1732   5.653   3.599   2.364
  278SOL    HW1 1733   5.663   3.578   2.461
  278SOL    HW2 1734   5.605   3.523   2.319
  279SOL     OW 1735   6.552   3.347   3.931
  279SOL    HW1 1736   6.623   3.292   3.888
  279SOL    HW2 1737   6.555   3.440   3.895
  280SOL     OW 1738   4.902   6.941   3.788
  280SOL    HW1 1739   4.898   6.983   3.697
  280SOL    HW2 1740   4.997   6.913   3.807
  281SOL     OW 1741   3.132   5.182   3.617
  281SOL    HW1 1742   3.128   5.083   3.635
  281SOL    HW2 1743   3.216   5.219   3.656
  282SOL     OW 1744   3.570   2.109   5.329
  282SOL    HW1 1745   3.491   2.086   5.272
  282SOL    HW2 1746   3.547   2.185   5.389
  283SOL     OW 1747   5.959   0.116   5.488
  283SOL    HW1 1748   5.980   0.163   5.402
  283SOL    HW2 1749   5.950   0.182   5.561
  284SOL     OW 1750   1.051   4.466   4.104
  284SOL    HW1 1751   1.070   4.422   4.192
  284SOL    HW2 1752   0.993   4.547   4.120
  285SOL     OW 1753   5.611   6.467   0.368
  285SOL    HW1 1754   5.706   6.434   0.371
  285SOL    HW2 1755   5.549   6.389   0.365
  286SOL     OW 1756   3.865   5.064   5.732
  286SOL    HW1 1757   3.828   5.149   5.770
  286SOL    HW2 1758   3.923   5.086   5.653
  287SOL     OW 1759   1.496   5.484   6.414
  287SOL    HW1 1760   1.432   5.435   6.473
  287SOL    HW2 1761   1.549   5.419   6.360
  288SOL     OW 1762   4.131   0.768   0.897
  288SOL    HW1 1763   4.157   0.690   0.839
  288SOL    HW2 1764   4.053   0.742   0.953
  289SOL     OW 1765   1.319   5.444   5.805
  289SOL    HW1 1766   1.359   5.376   5.866
  289SOL    HW2 1767   1.310   5.531   5.853
  290SOL     OW 1768   4.534   0.743   3.629
  290SOL    HW1 1769   4.457   0.682   3.648
  290SOL    HW2 1770   4.504   0.838   3.635
  291SOL     OW 1771   3.729   0.966   3.595
  291SOL    HW1 1772   3.665   0.889   3.601
  291SOL    HW2 1773   3.814   0.943   3.642
  292SOL     OW 1774   4.313   1.255   3.768
  292SOL    HW1 1775   4.289   1.351   3.774
  292SOL    HW2 1776   4.403   1.240   3.809
  293SOL     OW 1777   4.384   6.187   1.385
  293SOL    HW1 1778   4.382   6.190   1.285
  293SOL    HW2 1779   4.474   6.220   1.417
  294SOL     OW 1780   6.154   5.709   6.648
  294SOL    HW1 1781   6.107   5.626   6.617
  294SOL    HW2 1782   6.239   5.721   6.597
  295SOL     OW 1783   1.978   2.133   5.804
  295SOL    HW1 1784   2.001   2.083   5.720
  295SOL    HW2 1785   1.965   2.067   5.879
  296SOL     OW 1786   6.548   2.233   1.008
  296SOL    HW1 1787   6.504   2.320   1.029
  296SOL    HW2 1788   6.551   2.220   0.909
  297SOL     OW 1789   4.102   4.975   3.515
  297SOL    HW1 1790   4.162   5.042   3.472
  297SOL    HW2 1791   4.042   4.933   3.447
  298SOL     OW 1792   4.183   0.507   0.373
  298SOL    HW1 1793   4.117   0.513   0.298
  298SOL    HW2 1794   4.136   0.523   0.460
  299SOL     OW 1795   3.615   1.663   0.346
  299SOL    HW1 1796   3.575   1.652   0.254
  299SOL    HW2 1797   3.558   1.614   0.412
  300SOL     OW 1798   3.804   0.795   2.851
  300SOL    HW1 1799   3.773   0.883   2.888
  300SOL    HW2 1800   3.735   0.759   2.788
  301SOL     OW 1801   5.150   0.880   1.364
  301SOL    HW1 1802   5.218   0.951   1.382
  301SOL    HW2 1803   5.196   0.791   1.359
  302SOL     OW 1804   0.822   0.518   1.898
  302SOL    HW1 1805   0.779   0.608   1.907
  302SOL    HW2 1806   0.753   0.449   1.877
  303SOL     OW 1807   6.156   6.335   1.682
  303SOL    HW1 1808   6.083   6.403   1.681
  303SOL    HW2 1809   6.183   6.315   1.777
  304SOL     OW 1810   2.045   6.223   6.336
  304SOL    HW1 1811   2.018   6.166   6.258
  304SOL    HW2 1812   2.143   6.212   6.353
  305SOL     OW 1813   1.739   3.166   0.814
  305SOL    HW1 1814   1.798   3.148   0.893
  305SOL    HW2 1815   1.643   3.159   0.842
  306SOL     OW 1816   0.236   1.382   2.730
  306SOL    HW1 1817   0.306   1.453   2.726
  306SOL    HW2 1818   0.258   1.318   2.804
  307SOL     OW 1819   3.683   3.692   0.180
  307SOL    HW1 1820   3.617   3.753   0.136
  307SOL    HW2 1821   3.730   3.638   0.110
  308SOL     OW 1822   6.317   2.823   4.215
  308SOL    HW1 1823   6.377   2.875   4.153
  308SOL    HW2 1824   6.267   2.887   4.273
  309SOL     OW 1825   1.694   6.640   0.490
  309SOL    HW1 1826   1.769   6.622   0.425
  309SOL    HW2 1827   1.732   6.651   0.582
  310SOL     OW 1828   5.377   6.570   4.061
  310SOL    HW1 1829   5.443   6.617   4.120
  310SOL    HW2 1830   5.412   6.478   4.041
  311SOL     OW 1831   2.410   4.417   2.540
  311SOL    HW1 1832   2.342   4.374   2.482
  311SOL    HW2 1833   2.370   4.439   2.629
  312SOL     OW 1834   4.019   2.131   4.259
  312SOL    HW1 1835   3.945   2.131   4.326
  312SOL    HW2 1836   3.987   2.175   4.175
  313SOL     OW 1837   3.197   3.634   2.942
  313SOL    HW1 1838   3.112   3.581   2.935
  313SOL    HW2 1839   3.212   3.659   3.037
  314SOL     OW 1840   1.824   5.039   4.746
  314SOL    HW1 1841   1.815   5.047   4.845
  314SOL    HW2 1842   1.856   4.948   4.722
  315SOL     OW 1843   0.536   2.162   3.689
  315SOL    HW1 1844   0.627   2.149   3.650
  315SOL    HW2 1845   0.505   2.076   3.730
  316SOL     OW 1846   3.987   1.171   4.557
  316SOL    HW1 1847   4.082   1.200   4.542
  316SOL    HW2 1848   3.925   1.247   4.535
  317SOL     OW 1849   1.257   1.494   1.338
  317SOL    HW1 1850   1.184   1.546   1.294
  317SOL    HW2 1851   1.339   1.497   1.281
  318SOL     OW 1852   6.051   0.867   6.450
  318SOL    HW1 1853   6.085   0.855   6.357
  318SOL    HW2 1854   6.045   0.778   6.496
  319SOL     OW 1855   6.593   2.213   3.417
  319SOL    HW1 1856   6.495   2.232   3.416
  319SOL    HW2 1857   6.621   2.176   3.329
  320SOL     OW 1858   6.292   3.548   6.772
  320SOL    HW1 1859   6.333   3.529   6.861
  320SOL    HW2 1860   6.362   3.544   6.701
  321SOL     OW 1861   4.218   2.207   0.483
  321SOL    HW1 1862   4.133   2.223   0.433
  321SOL    HW2 1863   4.247   2.291   0.528
  322SOL     OW 1864   3.849   2.986   4.540
  322SOL    HW1 1865   3.913   3.043   4.592
  322SOL    HW2 1866   3.897   2.944   4.463
  323SOL     OW 1867   1.206   2.130   4.969
  323SOL    HW1 1868   1.125   2.167   5.015
  323SOL    HW2 1869   1.183   2.107   4.875
  324SOL     OW 1870   2.209   0.005   3.612
  324SOL    HW1 1871   2.290   6.986   3.650
  324SOL    HW2 1872   2.234   0.093   3.572
  325SOL     OW 1873   0.874   3.921   2.882
  325SOL    HW1 1874   0.850   3.882   2.971
  325SOL    HW2 1875   0.806   3.989   2.855
  326SOL     OW 1876   0.811   4.210   6.112
  326SOL    HW1 1877   0.715   4.227   6.088
  326SOL    HW2 1878   0.869   4.229   6.033
  327SOL     OW 1879   2.309   4.474   2.815
  327SOL    HW1 1880   2.265   4.499   2.901
  327SOL    HW2 1881   2.404   4.503   2.816
  328SOL     OW 1882   2.004   4.463   1.540
  328SOL    HW1 1883   1.923   4.518   1.521
  328SOL    HW2 1884   2.016   4.454   1.639
  329SOL     OW 1885   2.466   3.814   5.902
  329SOL    HW1 1886   2.419   3.763   5.974
  329SOL    HW2 1887   2.474   3.755   5.821
  330SOL     OW 1888   3.362   6.136   0.287
  330SOL    HW1 1889   3.316   6.225   0.289
  330SOL    HW2 1890   3.370   6.101   0.381
  331SOL     OW 1891   5.459   5.597   1.376
  331SOL    HW1 1892   5.479   5.587   1.279
  331SOL    HW2 1893   5.523   5.542   1.429
  332SOL     OW 1894   6.087   2.243   4.048
  332SOL    HW1 1895   6.062   2.339   4.040
  332SOL    HW2 1896   6.064   2.210   4.140
  333SOL     OW 1897   4.102   0.816   5.364
  333SOL    HW1 1898   4.127   0.721   5.385
  333SOL    HW2 1899   4.104   0.830   5.265
  334SOL     OW 1900   3.377   2.209   0.586
  334SOL    HW1 1901   3.307   2.280   0.578
  334SOL    HW2 1902   3.467   2.248   0.565
  335SOL     OW 1903   3.801   0.546   6.705
  335SOL    HW1 1904   3.868   0.501   6.647
  335SOL    HW2 1905   3.800   0.644   6.685
  336SOL     OW 1906   2.850   0.984   2.979
  336SOL    HW1 1907   2.828   0.927   2.900
  336SOL    HW2 1908   2.893   1.069   2.947
  337SOL     OW 1909   0.709   2.877   5.772
  337SOL    HW1 1910   0.618   2.835   5.773
  337SOL    HW2 1911   0.732   2.910   5.863
  338SOL     OW 1912   3.097   2.828   1.604
  338SOL    HW1 1913   3.054   2.899   1.550
  338SOL    HW2 1914   3.027   2.779   1.657
  339SOL     OW 1915   4.785   5.002   5.020
  339SOL    HW1 1916   4.813   4.924   5.076
  339SOL    HW2 1917   4.755   4.970   4.930
  340SOL     OW 1918   4.965   2.916   4.616
  340SOL    HW1 1919   4.948   2.965   4.531
  340SOL    HW2 1920   4.900   2.946   4.686
  341SOL     OW 1921   4.947   6.671   4.594
  341SOL    HW1 1922   4.989   6.589   4.631
  341SOL    HW2 1923   4.938   6.662   4.495
  342SOL     OW 1924   4.645   3.055   0.309
  342SOL    HW1 1925   4.736   3.067   0.269
  342SOL    HW2 1926   4.608   2.966   0.283
  343SOL     OW 1927   0.247   6.555   2.529
  343SOL    HW1 1928   0.167   6.495   2.521
  343SOL    HW2 1929   0.326   6.501   2.557
  344SOL     OW 1930   0.760   2.787   1.944
  344SOL    HW1 1931   0.746   2.688   1.942
  344SOL    HW2 1932   0.778   2.815   2.038
  345SOL     OW 1933   6.187   2.295   4.353
  345SOL    HW1 1934   6.260   2.363   4.365
  345SOL    HW2 1935   6.213   2.210   4.398
  346SOL     OW 1936   1.630   0.388   2.352
  346SOL    HW1 1937   1.705   0.359   2.293
  346SOL    HW2 1938   1.662   0.461   2.412
  347SOL     OW 1939   2.971   5.461   0.391
  347SOL    HW1 1940   2.928   5.421   0.472
  347SOL    HW2 1941   3.048   5.403   0.362
  348SOL     OW 1942   5.009   4.337   3.380
  348SOL    HW1 1943   5.099   4.365   3.414
  348SOL    HW2 1944   4.990   4.382   3.293
  349SOL     OW 1945   6.662   4.708   2.170
  349SOL    HW1 1946   6.756   4.718   2.202
  349SOL    HW2 1947   6.638   4.611   2.168
  350SOL     OW 1948   2.856   2.957   1.062
  350SOL    HW1 1949   2.818   2.885   1.004
  350SOL    HW2 1950   2.913   2.916   1.134
  351SOL     OW 1951   2.372   3.637   0.626
  351SOL    HW1 1952   2.422   3.609   0.708
  351SOL    HW2 1953   2.434   3.633   0.547
  352SOL     OW 1954   3.730   6.771   3.512
  352SOL    HW1 1955   3.664   6.743   3.583
  352SOL    HW2 1956   3.738   6.870   3.512
  353SOL     OW 1957   2.834   0.015   6.666
  353SOL    HW1 1958   2.868   0.067   6.744
  353SOL    HW2 1959   2.808   0.077   6.592
  354SOL     OW 1960   4.547   2.395   1.327
  354SOL    HW1 1961   4.498   2.308   1.320
  354SOL    HW2 1962   4.640   2.383   1.293
  355SOL     OW 1963   1.642   3.907   2.885
  355SOL    HW1 1964   1.685   3.831   2.935
  355SOL    HW2 1965   1.552   3.878   2.852
  356SOL     OW 1966   2.701   0.891   5.661
  356SOL    HW1 1967   2.722   0.989   5.664
  356SOL    HW2 1968   2.621   0.876   5.603
  357SOL     OW 1969   6.242   5.916   4.951
  357SOL    HW1 1970   6.278   5.898   5.043
  357SOL    HW2 1971   6.247   5.832   4.897
  358SOL     OW 1972   4.989   6.654   0.995
  358SOL    HW1 1973   4.943   6.722   0.937
  358SOL    HW2 1974   5.085   6.645   0.967
  359SOL     OW 1975   3.319   1.404   2.018
  359SOL    HW1 1976   3.372   1.464   1.957
  359SOL    HW2 1977   3.333   1.434   2.113
  360SOL     OW 1978   1.802   3.490   4.854
  360SOL    HW1 1979   1.894   3.518   4.882
  360SOL    HW2 1980   1.779   3.532   4.767
  361SOL     OW 1981   6.587   6.593   2.392
  361SOL    HW1 1982   6.631   6.561   2.308
  361SOL    HW2 1983   6.584   6.519   2.458
  362SOL     OW 1984   3.334   2.779   1.737
  362SOL    HW1 1985   3.248   2.809   1.696
  362SOL    HW2 1986   3.346   2.681   1.721
  363SOL     OW 1987   5.808   4.491   3.450
  363SOL    HW1 1988   5.826   4.571   3.392
  363SOL    HW2 1989   5.784   4.522   3.542
  364SOL     OW 1990   6.864   5.133   6.777
  364SOL    HW1 1991   6.962   5.149   6.761
  364SOL    HW2 1992   6.822   5.216   6.812
  365SOL     OW 1993   4.998   0.363   1.172
  365SOL    HW1 1994   4.987   0.320   1.082
  365SOL    HW2 1995   4.948   0.310   1.241
  366SOL     OW 1996   5.898   2.094   6.468
  366SOL    HW1 1997   5.989   2.108   6.507
  366SOL    HW2 1998   5.901   2.019   6.402
  367SOL     OW 1999   5.642   2.224   6.515
  367SOL    HW1 2000   5.725   2.174   6.489
  367SOL    HW2 2001   5.617   2.287   6.441
  368SOL     OW 2002   0.003   2.562   5.421
  368SOL    HW1 2003   0.013   2.647   5.473
  368SOL    HW2 2004   0.012   2.582   5.323
  369SOL     OW 2005   6.263   5.190   2.637
  369SOL    HW1 2006   6.351   5.237   2.642
  369SOL    HW2 2007   6.279   5.092   2.627
  370SOL     OW 2008   0.896   2.014   4.271
  370SOL    HW1 2009   0.797   2.004   4.261
  370SOL    HW2 2010   0.921   2.007   4.368
  371SOL     OW 2011   1.869   4.722   6.632
  371SOL    HW1 2012   1.936   4.698   6.703
  371SOL    HW2 2013   1.783   4.748   6.676
  372SOL     OW 2014   2.010   6.461   5.924
  372SOL    HW1 2015   1.975   6.462   5.831
  372SOL    HW2 2016   2.104   6.428   5.924
  373SOL     OW 2017   5.820   6.398   5.420
  373SOL    HW1 2018   5.773   6.344   5.351
  373SOL    HW2 2019   5.773   6.486   5.433
  374SOL     OW 2020   2.735   2.092   3.416
  374SOL    HW1 2021   2.691   2.035   3.486
  374SOL    HW2 2022   2.731   2.046   3.328
  375SOL     OW 2023   1.148   4.081   4.111
  375SOL    HW1 2024   1.170   4.008   4.048
  375SOL    HW2 2025   1.156   4.169   4.065
  376SOL     OW 2026   1.318   1.086   5.176
  376SOL    HW1 2027   1.247   1.054   5.113
  376SOL    HW2 2028   1.290   1.065   5.270
  377SOL     OW 2029   1.356   2.031   0.130
  377SOL    HW1 2030   1.262   2.007   0.105
  377SOL    HW2 2031   1.380   1.985   0.215
  378SOL     OW 2032   4.000   1.956   0.492
  378SOL    HW1 2033   3.981   2.035   0.434
  378SOL    HW2 2034   4.098   1.936   0.492
  379SOL     OW 2035   5.556   2.602   0.526
  379SOL    HW1 2036   5.491   2.622   0.452
  379SOL    HW2 2037   5.520   2.636   0.612
  380SOL     OW 2038   2.760   1.576   0.957
  380SOL    HW1 2039   2.793   1.530   1.039
  380SOL    HW2 2040   2.736   1.507   0.888
  381SOL     OW 2041   1.478   3.611   3.614
  381SOL    HW1 2042   1.457   3.692   3.669
  381SOL    HW2 2043   1.394   3.577   3.572
  382SOL     OW 2044   6.219   1.012   0.039
  382SOL    HW1 2045   6.206   1.095   7.010
  382SOL    HW2 2046   6.227   1.035   0.136
  383SOL     OW 2047   3.491   3.055   6.954
  383SOL    HW1 2048   3.525   3.063   6.860
  383SOL    HW2 2049   3.479   2.959   6.978
  384SOL     OW 2050   6.791   5.675   4.569
  384SOL    HW1 2051   6.850   5.609   4.614
  384SOL    HW2 2052   6.733   5.628   4.503
  385SOL     OW 2053   2.946   5.240   5.371
  385SOL    HW1 2054   2.918   5.234   5.466
  385SOL    HW2 2055   2.952   5.148   5.332
  386SOL     OW 2056   2.829   6.185   4.267
  386SOL    HW1 2057   2.888   6.151   4.194
  386SOL    HW2 2058   2.844   6.284   4.280
  387SOL     OW 2059   1.090   5.532   2.350
  387SOL    HW1 2060   1.077   5.464   2.422
  387SOL    HW2 2061   1.067   5.492   2.261
  388SOL     OW 2062   1.881   2.144   6.322
  388SOL    HW1 2063   1.958   2.202   6.293
  388SOL    HW2 2064   1.916   2.067   6.375
  389SOL     OW 2065   3.628   3.400   2.186
  389SOL    HW1 2066   3.617   3.496   2.210
  389SOL    HW2 2067   3.725   3.378   2.176
  390SOL     OW 2068   2.932   1.215   2.880
  390SOL    HW1 2069   2.842   1.249   2.854
  390SOL    HW2 2070   2.987   1.290   2.916
  391SOL     OW 2071   2.481   2.209   6.256
  391SOL    HW1 2072   2.546   2.134   6.246
  391SOL    HW2 2073   2.389   2.178   6.231
  392SOL     OW 2074   1.937   4.498   1.081
  392SOL    HW1 2075   1.869   4.492   1.153
  392SOL    HW2 2076   2.028   4.487   1.120
  393SOL     OW 2077   1.007   4.379   6.524
  393SOL    HW1 2078   0.949   4.447   6.480
  393SOL    HW2 2079   1.015   4.299   6.465
  394SOL     OW 2080   6.959   1.044   6.925
  394SOL    HW1 2081   6.938   0.994   7.009
  394SOL    HW2 2082   6.877   1.090   6.892
  395SOL     OW 2083   4.914   3.586   3.296
  395SOL    HW1 2084   4.878   3.678   3.282
  395SOL    HW2 2085   4.915   3.565   3.394
  396SOL     OW 2086   3.732   3.964   2.005
  396SOL    HW1 2087   3.788   3.891   2.044
  396SOL    HW2 2088   3.771   3.992   1.917
  397SOL     OW 2089   4.388   2.203   5.516
  397SOL    HW1 2090   4.442   2.271   5.566
  397SOL    HW2 2091   4.360   2.240   5.428
  398SOL     OW 2092   0.887   6.428   2.542
  398SOL    HW1 2093   0.952   6.397   2.610
  398SOL    HW2 2094   0.936   6.462   2.461
  399SOL     OW 2095   5.394   6.151   2.780
  399SOL    HW1 2096   5.346   6.226   2.735
  399SOL    HW2 2097   5.360   6.064   2.744
  400SOL     OW 2098   6.226   0.035   6.031
  400SOL    HW1 2099   6.277   7.014   6.104
  400SOL    HW2 2100   6.270   0.122   6.008
  401SOL     OW 2101   4.916   0.813   5.430
  401SOL    HW1 2102   4.970   0.897   5.424
  401SOL    HW2 2103   4.937   0.766   5.516
  402SOL     OW 2104   5.873   0.214   3.444
  402SOL    HW1 2105   5.805   0.141   3.441
  402SOL    HW2 2106   5.851   0.277   3.519
  403SOL     OW 2107   4.403   1.675   4.282
  403SOL    HW1 2108   4.369   1.615   4.355
  403SOL    HW2 2109   4.325   1.714   4.232
  404SOL     OW 2110   1.146   5.928   4.210
  404SOL    HW1 2111   1.173   5.920   4.306
  404SOL    HW2 2112   1.125   5.837   4.174
  405SOL     OW 2113   1.860   3.295   2.002
  405SOL    HW1 2114   1.816   3.279   1.914
  405SOL    HW2 2115   1.876   3.393   2.013
  406SOL     OW 2116   1.367   4.449   4.582
  406SOL    HW1 2117   1.461   4.438   4.615
  406SOL    HW2 2118   1.338   4.365   4.536
  407SOL     OW 2119   1.431   0.715   3.431
  407SOL    HW1 2120   1.502   0.738   3.498
  407SOL    HW2 2121   1.341   0.731   3.472
  408SOL     OW 2122   1.290   2.475   3.036
  408SOL    HW1 2123   1.336   2.412   3.099
  408SOL    HW2 2124   1.231   2.537   3.087
  409SOL     OW 2125   6.959   2.487   0.979
  409SOL    HW1 2126   6.868   2.526   0.967
  409SOL    HW2 2127   0.002   2.561   0.987
  410SOL     OW 2128   1.394   0.824   1.343
  410SOL    HW1 2129   1.416   0.767   1.422
  410SOL    HW2 2130   1.477   0.865   1.307
  411SOL     OW 2131   5.390   0.293   0.583
  411SOL    HW1 2132   5.341   0.239   0.651
  411SOL    HW2 2133   5.326   0.326   0.514
  412SOL     OW 2134   4.917   6.336   3.521
  412SOL    HW1 2135   4.831   6.285   3.516
  412SOL    HW2 2136   4.994   6.273   3.520
  413SOL     OW 2137   5.480   5.300   2.293
  413SOL    HW1 2138   5.433   5.241   2.228
  413SOL    HW2 2139   5.520   5.244   2.366
  414SOL     OW 2140   3.631   5.461   3.794
  414SOL    HW1 2141   3.626   5.391   3.865
  414SOL    HW2 2142   3.547   5.516   3.795
  415SOL     OW 2143   1.145   5.638   6.682
  415SOL    HW1 2144   1.241   5.649   6.708
  415SOL    HW2 2145   1.120   5.542   6.683
  416SOL     OW 2146   5.071   5.469   4.394
  416SOL    HW1 2147   5.089   5.494   4.299
  416SOL    HW2 2148   5.108   5.379   4.413
  417SOL     OW 2149   2.849   5.024   0.260
  417SOL    HW1 2150   2.808   4.937   0.290
  417SOL    HW2 2151   2.932   5.005   0.208
  418SOL     OW 2152   4.020   5.967   0.828
  418SOL    HW1 2153   3.925   5.973   0.796
  418SOL    HW2 2154   4.079   6.017   0.765
  419SOL     OW 2155   1.855   0.615   0.887
  419SOL    HW1 2156   1.872   0.567   0.802
  419SOL    HW2 2157   1.832   0.711   0.867
  420SOL     OW 2158   5.981   1.615   6.855
  420SOL    HW1 2159   6.077   1.642   6.843
  420SOL    HW2 2160   5.923   1.672   6.796
  421SOL     OW 2161   6.864   4.364   5.995
  421SOL    HW1 2162   6.804   4.428   6.043
  421SOL    HW2 2163   6.939   4.413   5.953
  422SOL     OW 2164   5.714   4.155   0.341
  422SOL    HW1 2165   5.694   4.072   0.394
  422SOL    HW2 2166   5.813   4.164   0.330
  423SOL     OW 2167   0.980   2.305   6.954
  423SOL    HW1 2168   1.025   2.393   6.941
  423SOL    HW2 2169   0.963   2.263   6.865
  424SOL     OW 2170   2.516   4.355   0.594
  424SOL    HW1 2171   2.501   4.259   0.620
  424SOL    HW2 2172   2.546   4.406   0.675
  425SOL     OW 2173   5.886   1.537   2.675
  425SOL    HW1 2174   5.790   1.550   2.648
  425SOL    HW2 2175   5.893   1.541   2.774
  426SOL     OW 2176   4.514   2.158   4.098
  426SOL    HW1 2177   4.491   2.120   4.187
  426SOL    HW2 2178   4.557   2.248   4.110
  427SOL     OW 2179   5.101   5.515   2.935
  427SOL    HW1 2180   5.112   5.582   2.861
  427SOL    HW2 2181   5.179   5.520   2.997
  428SOL     OW 2182   4.286   0.815   4.251
  428SOL    HW1 2183   4.230   0.765   4.184
  428SOL    HW2 2184   4.233   0.831   4.334
  429SOL     OW 2185   1.387   3.262   1.423
  429SOL    HW1 2186   1.459   3.260   1.354
  429SOL    HW2 2187   1.348   3.354   1.428
  430SOL     OW 2188   6.952   0.087   5.149
  430SOL    HW1 2189   0.005   0.040   5.191
  430SOL    HW2 2190   6.866   0.047   5.182
  431SOL     OW 2191   3.499   0.266   0.488
  431SOL    HW1 2192   3.454   0.313   0.564
  431SOL    HW2 2193   3.434   0.255   0.413
  432SOL     OW 2194   6.737   1.598   1.152
  432SOL    HW1 2195   6.695   1.681   1.188
  432SOL    HW2 2196   6.666   1.531   1.131
  433SOL     OW 2197   2.565   6.394   5.185
  433SOL    HW1 2198   2.476   6.348   5.175
  433SOL    HW2 2199   2.622   6.375   5.105
  434SOL     OW 2200   3.415   6.023   2.498
  434SOL    HW1 2201   3.363   6.097   2.540
  434SOL    HW2 2202   3.488   5.993   2.560
  435SOL     OW 2203   5.260   2.430   6.294
  435SOL    HW1 2204   5.171   2.439   6.338
  435SOL    HW2 2205   5.328   2.485   6.344
  436SOL     OW 2206   3.069   6.366   1.122
  436SOL    HW1 2207   3.031   6.445   1.074
  436SOL    HW2 2208   3.047   6.374   1.220
  437SOL     OW 2209   1.256   0.763   0.182
  437SOL    HW1 2210   1.180   0.785   0.121
  437SOL    HW2 2211   1.341   0.759   0.130
  438SOL     OW 2212   1.917   3.816   2.673
  438SOL    HW1 2213   1.994   3.806   2.610
  438SOL    HW2 2214   1.927   3.752   2.749
  439SOL     OW 2215   6.118   4.764   2.975
  439SOL    HW1 2216   6.066   4.710   3.042
  439SOL    HW2 2217   6.065   4.845   2.951
  440SOL     OW 2218   1.941   1.212   5.518
  440SOL    HW1 2219   1.928   1.168   5.429
  440SOL    HW2 2220   1.903   1.154   5.590
  441SOL     OW 2221   0.926   2.609   4.316
  441SOL    HW1 2222   0.964   2.528   4.272
  441SOL    HW2 2223   0.943   2.606   4.414
  442SOL     OW 2224   3.266   4.759   5.881
  442SOL    HW1 2225   3.341   4.824   5.878
  442SOL    HW2 2226   3.179   4.808   5.887
  443SOL     OW 2227   5.730   4.062   4.654
  443SOL    HW1 2228   5.822   4.060   4.693
  443SOL    HW2 2229   5.730   4.014   4.566
  444SOL     OW 2230   4.997   1.356   5.328
  444SOL    HW1 2231   5.008   1.423   5.401
  444SOL    HW2 2232   4.931   1.286   5.357
  445SOL     OW 2233   0.771   5.373   2.941
  445SOL    HW1 2234   0.763   5.424   2.855
  445SOL    HW2 2235   0.714   5.417   3.011
  446SOL     OW 2236   3.804   4.977   3.532
  446SOL    HW1 2237   3.825   5.062   3.582
  446SOL    HW2 2238   3.882   4.915   3.537
  447SOL     OW 2239   0.365   2.928   6.023
  447SOL    HW1 2240   0.348   3.025   6.041
  447SOL    HW2 2241   0.311   2.872   6.086
  448SOL     OW 2242   1.801   0.423   3.669
  448SOL    HW1 2243   1.889   0.463   3.695
  448SOL    HW2 2244   1.817   0.343   3.612
  449SOL     OW 2245   3.741   1.522   3.906
  449SOL    HW1 2246   3.793   1.569   3.977
  449SOL    HW2 2247   3.701   1.438   3.945
  450SOL     OW 2248   1.338   5.822   3.884
  450SOL    HW1 2249   1.241   5.837   3.863
  450SOL    HW2 2250   1.387   5.909   3.877
  451SOL     OW 2251   1.669   1.585   3.664
  451SOL    HW1 2252   1.763   1.582   3.700
  451SOL    HW2 2253   1.671   1.565   3.566
  452SOL     OW 2254   6.188   5.843   0.941
  452SOL    HW1 2255   6.137   5.927   0.921
  452SOL    HW2 2256   6.280   5.866   0.974
  453SOL     OW 2257   3.878   0.984   5.827
  453SOL    HW1 2258   3.824   1.037   5.892
  453SOL    HW2 2259   3.910   0.900   5.870
  454SOL     OW 2260   6.730   4.710   6.339
  454SOL    HW1 2261   6.708   4.756   6.426
  454SOL    HW2 2262   6.829   4.711   6.325
  455SOL     OW 2263   6.208   2.619   3.278
  455SOL    HW1 2264   6.264   2.696   3.246
  455SOL    HW2 2265   6.127   2.611   3.220
  456SOL     OW 2266   5.962   6.598   4.053
  456SOL    HW1 2267   6.038   6.658   4.028
  456SOL    HW2 2268   5.879   6.629   4.007
  457SOL     OW 2269   1.765   2.561   4.175
  457SOL    HW1 2270   1.772   2.649   4.222
  457SOL    HW2 2271   1.677   2.555   4.128
  458SOL     OW 2272   4.267   5.634   3.939
  458SOL    HW1 2273   4.234   5.652   3.847
  458SOL    HW2 2274   4.367   5.637   3.941
  459SOL     OW 2275   1.604   6.607   5.151
  459SOL    HW1 2276   1.588   6.513   5.182
  459SOL    HW2 2277   1.535   6.632   5.084
  460SOL     OW 2278   1.704   6.865   3.873
  460SOL    HW1 2279   1.632   6.880   3.805
  460SOL    HW2 2280   1.793   6.887   3.833
  461SOL     OW 2281   6.265   0.122   6.628
  461SOL    HW1 2282   6.289   0.173   6.711
  461SOL    HW2 2283   6.198   0.174   6.575
  462SOL     OW 2284   3.611   2.833   6.262
  462SOL    HW1 2285   3.635   2.862   6.169
  462SOL    HW2 2286   3.691   2.791   6.304
  463SOL     OW 2287   6.090   6.015   3.727
  463SOL    HW1 2288   6.154   5.968   3.666
  463SOL    HW2 2289   6.140   6.085   3.779
  464SOL     OW 2290   2.356   1.954   4.977
  464SOL    HW1 2291   2.390   1.984   5.066
  464SOL    HW2 2292   2.358   2.031   4.913
  465SOL     OW 2293   0.543   2.559   5.947
  465SOL    HW1 2294   0.625   2.577   6.002
  465SOL    HW2 2295   0.569   2.553   5.851
  466SOL     OW 2296   0.769   5.515   2.696
  466SOL    HW1 2297   0.697   5.577   2.665
  466SOL    HW2 2298   0.853   5.531   2.644
  467SOL     OW 2299   2.165   1.164   0.615
  467SOL    HW1 2300   2.197   1.072   0.641
  467SOL    HW2 2301   2.165   1.223   0.696
  468SOL     OW 2302   3.427   0.291   6.267
  468SOL    HW1 2303   3.346   0.241   6.300
  468SOL    HW2 2304   3.505   0.268   6.325
  469SOL     OW 2305   2.583   3.176   6.317
  469SOL    HW1 2306   2.596   3.156   6.414
  469SOL    HW2 2307   2.546   3.269   6.308
  470SOL     OW 2308   4.344   0.142   1.759
  470SOL    HW1 2309   4.314   0.187   1.674
  470SOL    HW2 2310   4.282   0.067   1.780
  471SOL     OW 2311   2.009   2.130   3.766
  471SOL    HW1 2312   1.988   2.173   3.678
  471SOL    HW2 2313   1.928   2.081   3.799
  472SOL     OW 2314   4.692   3.219   6.119
  472SOL    HW1 2315   4.699   3.247   6.215
  472SOL    HW2 2316   4.774   3.169   6.093
  473SOL     OW 2317   1.142   3.014   3.399
  473SOL    HW1 2318   1.122   3.093   3.341
  473SOL    HW2 2319   1.237   3.019   3.431
  474SOL     OW 2320   5.012   5.970   4.096
  474SOL    HW1 2321   4.992   5.936   4.188
  474SOL    HW2 2322   5.026   6.069   4.100
  475SOL     OW 2323   5.600   1.289   6.207
  475SOL    HW1 2324   5.532   1.299   6.134
  475SOL    HW2 2325   5.591   1.198   6.248
  476SOL     OW 2326   0.272   3.254   3.339
  476SOL    HW1 2327   0.306   3.347   3.333
  476SOL    HW2 2328   0.344   3.190   3.312
  477SOL     OW 2329   1.573   5.325   3.595
  477SOL    HW1 2330   1.667   5.293   3.587
  477SOL    HW2 2331   1.511   5.257   3.554
  478SOL     OW 2332   3.188   6.071   2.151
  478SOL    HW1 2333   3.269   6.128   2.165
  478SOL    HW2 2334   3.120   6.092   2.221
  479SOL     OW 2335   4.249   2.028   5.935
  479SOL    HW1 2336   4.299   2.024   5.849
  479SOL    HW2 2337   4.195   1.945   5.946
  480SOL     OW 2338   2.651   0.955   0.060
  480SOL    HW1 2339   2.657   0.990   0.154
  480SOL    HW2 2340   2.594   0.873   0.059
  481SOL     OW 2341   2.000   6.830   0.765
  481SOL    HW1 2342   1.950   6.889   0.827
  481SOL    HW2 2343   1.956   6.741   0.761
  482SOL     OW 2344   4.367   5.006   2.396
  482SOL    HW1 2345   4.407   5.077   2.455
  482SOL    HW2 2346   4.313   5.050   2.324
  483SOL     OW 2347   0.149   1.347   2.162
  483SOL    HW1 2348   0.201   1.317   2.082
  483SOL    HW2 2349   0.204   1.412   2.215
  484SOL     OW 2350   2.144   3.424   4.391
  484SOL    HW1 2351   2.183   3.454   4.304
  484SOL    HW2 2352   2.090   3.341   4.377
  485SOL     OW 2353   3.820   5.309   2.851
  485SOL    HW1 2354   3.857   5.400   2.831
  485SOL    HW2 2355   3.720   5.312   2.846
  486SOL     OW 2356   6.549   1.003   0.395
  486SOL    HW1 2357   6.541   1.066   0.317
  486SOL    HW2 2358   6.464   0.950   0.403
  487SOL     OW 2359   1.099   0.587   1.760
  487SOL    HW1 2360   1.042   0.659   1.720
  487SOL    HW2 2361   1.042   0.509   1.785
  488SOL     OW 2362   1.309   1.592   1.695
  488SOL    HW1 2363   1.317   1.584   1.596
  488SOL    HW2 2364   1.220   1.558   1.725
  489SOL     OW 2365   3.518   6.360   5.486
  489SOL    HW1 2366   3.469   6.356   5.400
  489SOL    HW2 2367   3.456   6.341   5.562
  490SOL     OW 2368   6.590   6.421   2.607
  490SOL    HW1 2369   6.528   6.345   2.585
  490SOL    HW2 2370   6.625   6.408   2.700
  491SOL     OW 2371   0.712   2.922   2.797
  491SOL    HW1 2372   0.650   2.972   2.856
  491SOL    HW2 2373   0.806   2.950   2.815
  492SOL     OW 2374   1.796   0.465   5.350
  492SOL    HW1 2375   1.773   0.369   5.366
  492SOL    HW2 2376   1.895   0.476   5.354
  493SOL     OW 2377   5.102   5.926   5.865
  493SOL    HW1 2378   5.176   5.916   5.799
  493SOL    HW2 2379   5.022   5.875   5.834
  494SOL     OW 2380   0.297   6.293   6.293
  494SOL    HW1 2381   0.259   6.215   6.343
  494SOL    HW2 2382   0.371   6.334   6.347
  495SOL     OW 2383   4.864   5.744   3.436
  495SOL    HW1 2384   4.845   5.832   3.479
  495SOL    HW2 2385   4.903   5.758   3.345
  496SOL     OW 2386   5.156   3.473   1.948
  496SOL    HW1 2387   5.216   3.517   1.880
  496SOL    HW2 2388   5.173   3.375   1.948
  497SOL     OW 2389   3.005   1.208   4.699
  497SOL    HW1 2390   3.034   1.302   4.715
  497SOL    HW2 2391   3.066   1.166   4.632
  498SOL     OW 2392   1.421   3.617   1.759
  498SOL    HW1 2393   1.362   3.551   1.711
  498SOL    HW2 2394   1.442   3.582   1.850
  499SOL     OW 2395   1.864   6.301   4.689
  499SOL    HW1 2396   1.893   6.229   4.625
  499SOL    HW2 2397   1.928   6.377   4.683
  500SOL     OW 2398   0.140   3.357   5.145
  500SOL    HW1 2399   0.157   3.412   5.063
  500SOL    HW2 2400   0.077   3.406   5.205
  501SOL     OW 2401   3.356   5.609   0.925
  501SOL    HW1 2402   3.292   5.628   0.999
  501SOL    HW2 2403   3.449   5.627   0.957
  502SOL     OW 2404   0.356   4.063   0.075
  502SOL    HW1 2405   0.372   3.970   0.042
  502SOL    HW2 2406   0.288   4.107   0.017
  503SOL     OW 2407   6.913   5.264   0.103
  503SOL    HW1 2408   6.927   5.273   0.004
  503SOL    HW2 2409   6.888   5.352   0.142
  504SOL     OW 2410   1.051   5.427   2.119
  504SOL    HW1 2411   0.961   5.385   2.119
  504SOL    HW2 2412   1.116   5.369   2.070
  505SOL     OW 2413   2.880   5.933   5.228
  505SOL    HW1 2414   2.866   5.911   5.131
  505SOL    HW2 2415   2.884   6.032   5.240
  506SOL     OW 2416   2.404   5.052   3.943
  506SOL    HW1 2417   2.398   4.995   4.024
  506SOL    HW2 2418   2.363   5.141   3.962
  507SOL     OW 2419   3.055   6.543   3.200
  507SOL    HW1 2420   2.972   6.539   3.144
  507SOL    HW2 2421   3.135   6.529   3.142
  508SOL     OW 2422   0.035   4.132   2.338
  508SOL    HW1 2423   0.130   4.156   2.358
  508SOL    HW2 2424   6.998   4.200   2.379
  509SOL     OW 2425   2.907   1.521   1.202
  509SOL    HW1 2426   3.006   1.507   1.209
  509SOL    HW2 2427   2.869   1.534   1.294
  510SOL     OW 2428   6.461   4.801   0.134
  510SOL    HW1 2429   6.462   4.900   0.124
  510SOL    HW2 2430   6.406   4.761   0.061
  511SOL     OW 2431   0.877   1.495   5.832
  511SOL    HW1 2432   0.871   1.592   5.855
  511SOL    HW2 2433   0.787   1.461   5.804
  512SOL     OW 2434   0.013   3.382   0.247
  512SOL    HW1 2435   0.069   3.342   0.321
  512SOL    HW2 2436   6.952   3.330   0.238
  513SOL     OW 2437   5.896   6.869   3.193
  513SOL    HW1 2438   5.798   6.852   3.182
  513SOL    HW2 2439   5.917   6.962   3.164
  514SOL     OW 2440   6.770   2.122   3.620
  514SOL    HW1 2441   6.820   2.040   3.592
  514SOL    HW2 2442   6.716   2.155   3.542
  515SOL     OW 2443   1.129   0.636   6.348
  515SOL    HW1 2444   1.069   0.595   6.279
  515SOL    HW2 2445   1.108   0.733   6.358
  516SOL     OW 2446   2.537   4.483   1.866
  516SOL    HW1 2447   2.476   4.542   1.812
  516SOL    HW2 2448   2.609   4.538   1.907
  517SOL     OW 2449   4.201   6.016   1.612
  517SOL    HW1 2450   4.103   6.034   1.604
  517SOL    HW2 2451   4.252   6.102   1.602
  518SOL     OW 2452   3.064   1.881   3.373
  518SOL    HW1 2453   3.129   1.953   3.397
  518SOL    HW2 2454   3.022   1.902   3.285
  519SOL     OW 2455   0.477   0.260   4.782
  519SOL    HW1 2456   0.558   0.203   4.769
  519SOL    HW2 2457   0.503   0.356   4.780
  520SOL     OW 2458   6.346   4.192   0.998
  520SOL    HW1 2459   6.262   4.195   0.943
  520SOL    HW2 2460   6.418   4.243   0.952
  521SOL     OW 2461   6.576   5.224   5.110
  521SOL    HW1 2462   6.632   5.237   5.029
  521SOL    HW2 2463   6.538   5.131   5.110
  522SOL     OW 2464   3.639   3.066   4.718
  522SOL    HW1 2465   3.630   2.991   4.782
  522SOL    HW2 2466   3.705   3.041   4.646
  523SOL     OW 2467   0.139   5.749   1.845
  523SOL    HW1 2468   0.232   5.774   1.872
  523SOL    HW2 2469   0.121   5.781   1.752
  524SOL     OW 2470   0.569   1.810   2.670
  524SOL    HW1 2471   0.549   1.719   2.707
  524SOL    HW2 2472   0.487   1.846   2.624
  525SOL     OW 2473   2.187   3.257   5.610
  525SOL    HW1 2474   2.222   3.202   5.686
  525SOL    HW2 2475   2.233   3.231   5.525
  526SOL     OW 2476   4.090   6.680   3.785
  526SOL    HW1 2477   4.019   6.636   3.730
  526SOL    HW2 2478   4.074   6.661   3.882
  527SOL     OW 2479   5.856   2.725   6.459
  527SOL    HW1 2480   5.819   2.817   6.447
  527SOL    HW2 2481   5.832   2.690   6.549
  528SOL     OW 2482   1.001   1.935   3.538
  528SOL    HW1 2483   0.970   1.844   3.511
  528SOL    HW2 2484   1.031   1.986   3.458
  529SOL     OW 2485   1.854   6.912   4.503
  529SOL    HW1 2486   1.776   6.973   4.512
  529SOL    HW2 2487   1.896   6.923   4.413
  530SOL     OW 2488   3.644   3.231   4.415
  530SOL    HW1 2489   3.579   3.299   4.449
  530SOL    HW2 2490   3.614   3.196   4.326
  531SOL     OW 2491   0.285   1.343   3.237
  531SOL    HW1 2492   0.220   1.276   3.274
  531SOL    HW2 2493   0.342   1.378   3.310
  532SOL     OW 2494   1.142   2.879   6.709
  532SOL    HW1 2495   1.175   2.835   6.626
  532SOL    HW2 2496   1.069   2.943   6.686
  533SOL     OW 2497   4.144   0.005   4.098
  533SOL    HW1 2498   4.183   6.941   4.073
  533SOL    HW2 2499   4.204   0.079   4.065
  534SOL     OW 2500   5.220   6.355   2.743
  534SOL    HW1 2501   5.120   6.355   2.741
  534SOL    HW2 2502   5.253   6.447   2.720
  535SOL     OW 2503   0.994   3.674   4.550
  535SOL    HW1 2504   1.027   3.677   4.644
  535SOL    HW2 2505   0.894   3.677   4.549
  536SOL     OW 2506   6.804   5.371   1.393
  536SOL    HW1 2507   6.762   5.284   1.371
  536SOL    HW2 2508   6.744   5.423   1.454
  537SOL     OW 2509   2.884   6.559   4.546
  537SOL    HW1 2510   2.875   6.496   4.469
  537SOL    HW2 2511   2.894   6.653   4.512
  538SOL     OW 2512   1.511   4.681   3.046
  538SOL    HW1 2513   1.481   4.589   3.022
  538SOL    HW2 2514   1.580   4.676   3.118
  539SOL     OW 2515   1.561   5.847   0.948
  539SOL    HW1 2516   1.517   5.801   1.024
  539SOL    HW2 2517   1.612   5.780   0.893
  540SOL     OW 2518   0.944   0.564   3.163
  540SOL    HW1 2519   0.996   0.529   3.241
  540SOL    HW2 2520   0.992   0.643   3.125
  541SOL     OW 2521   5.182   5.846   3.943
  541SOL    HW1 2522   5.107   5.897   3.986
  541SOL    HW2 2523   5.222   5.783   4.009
  542SOL     OW 2524   6.238   6.555   0.144
  542SOL    HW1 2525   6.167   6.503   0.095
  542SOL    HW2 2526   6.316   6.495   0.162
  543SOL     OW 2527   1.685   3.945   5.536
  543SOL    HW1 2528   1.634   3.973   5.617
  543SOL    HW2 2529   1.709   3.848   5.543
  544SOL     OW 2530   3.418   4.122   0.280
  544SOL    HW1 2531   3.386   4.207   0.322
  544SOL    HW2 2532   3.477   4.074   0.344
  545SOL     OW 2533   3.081   1.282   2.226
  545SOL    HW1 2534   3.022   1.363   2.223
  545SOL    HW2 2535   3.165   1.300   2.175
  546SOL     OW 2536   1.984   3.034   0.445
  546SOL    HW1 2537   2.018   3.124   0.474
  546SOL    HW2 2538   2.034   2.963   0.495
  547SOL     OW 2539   3.296   1.061   0.145
  547SOL    HW1 2540   3.250   1.108   0.071
  547SOL    HW2 2541   3.254   1.087   0.232
  548SOL     OW 2542   3.422   3.166   2.717
  548SOL    HW1 2543   3.449   3.125   2.804
  548SOL    HW2 2544   3.469   3.253   2.705
  549SOL     OW 2545   5.163   2.775   0.555
  549SOL    HW1 2546   5.215   2.733   0.480
  549SOL    HW2 2547   5.138   2.869   0.529
  550SOL     OW 2548   6.988   5.151   3.563
  550SOL    HW1 2549   6.956   5.221   3.626
  550SOL    HW2 2550   6.912   5.090   3.539
  551SOL     OW 2551   0.778   0.292   2.136
  551SOL    HW1 2552   0.734   0.371   2.180
  551SOL    HW2 2553   0.846   0.324   2.071
  552SOL     OW 2554   5.204   4.277   0.093
  552SOL    HW1 2555   5.284   4.335   0.076
  552SOL    HW2 2556   5.217   4.226   0.178
  553SOL     OW 2557   1.763   6.466   2.245
  553SOL    HW1 2558   1.851   6.476   2.199
  553SOL    HW2 2559   1.763   6.520   2.330
  554SOL     OW 2560   5.557   0.212   5.913
  554SOL    HW1 2561   5.516   0.301   5.892
  554SOL    HW2 2562   5.487   0.141   5.905
  555SOL     OW 2563   1.622   5.346   2.847
  555SOL    HW1 2564   1.604   5.404   2.767
  555SOL    HW2 2565   1.540   5.342   2.903
  556SOL     OW 2566   4.885   2.540   3.814
  556SOL    HW1 2567   4.833   2.589   3.744
  556SOL    HW2 2568   4.884   2.442   3.794
  557SOL     OW 2569   0.551   4.790   0.368
  557SOL    HW1 2570   0.511   4.876   0.400
  557SOL    HW2 2571   0.564   4.728   0.446
  558SOL     OW 2572   2.853   3.442   4.554
  558SOL    HW1 2573   2.908   3.360   4.542
  558SOL    HW2 2574   2.843   3.461   4.652
  559SOL     OW 2575   6.426   5.780   7.003
  559SOL    HW1 2576   6.461   5.833   0.056
  559SOL    HW2 2577   6.495   5.715   6.974
  560SOL     OW 2578   4.842   4.080   6.875
  560SOL    HW1 2579   4.790   4.043   6.799
  560SOL    HW2 2580   4.864   4.176   6.858
  561SOL     OW 2581   6.669   1.224   0.887
  561SOL    HW1 2582   6.630   1.312   0.859
  561SOL    HW2 2583   6.632   1.151   0.831
  562SOL     OW 2584   5.508   0.884   5.534
  562SOL    HW1 2585   5.497   0.939   5.616
  562SOL    HW2 2586   5.552   0.797   5.557
  563SOL     OW 2587   2.337   0.568   3.154
  563SOL    HW1 2588   2.432   0.573   3.185
  563SOL    HW2 2589   2.333   0.518   3.067
  564SOL     OW 2590   2.206   2.257   6.611
  564SOL    HW1 2591   2.159   2.285   6.528
  564SOL    HW2 2592   2.138   2.227   6.679
  565SOL     OW 2593   3.668   2.862   5.592
  565SOL    HW1 2594   3.706   2.921   5.522
  565SOL    HW2 2595   3.741   2.826   5.650
  566SOL     OW 2596   6.177   5.122   4.120
  566SOL    HW1 2597   6.110   5.062   4.162
  566SOL    HW2 2598   6.131   5.199   4.077
  567SOL     OW 2599   3.580   3.097   2.155
  567SOL    HW1 2600   3.484   3.072   2.145
  567SOL    HW2 2601   3.612   3.068   2.246
  568SOL     OW 2602   4.193   1.602   0.079
  568SOL    HW1 2603   4.263   1.579   0.146
  568SOL    HW2 2604   4.213   1.692   0.040
  569SOL     OW 2605   1.391   3.263   6.712
  569SOL    HW1 2606   1.404   3.303   6.802
  569SOL    HW2 2607   1.459   3.190   6.698
  570SOL     OW 2608   3.238   6.499   0.051
  570SOL    HW1 2609   3.201   6.439   0.122
  570SOL    HW2 2610   3.324   6.460   0.017
  571SOL     OW 2611   3.143   0.136   2.454
  571SOL    HW1 2612   3.129   0.148   2.553
  571SOL    HW2 2613   3.210   0.063   2.439
  572SOL     OW 2614   2.857   5.165   5.656
  572SOL    HW1 2615   2.796   5.160   5.735
  572SOL    HW2 2616   2.895   5.074   5.638
  573SOL     OW 2617   5.484   1.475   5.677
  573SOL    HW1 2618   5.437   1.400   5.631
  573SOL    HW2 2619   5.524   1.536   5.608
  574SOL     OW 2620   3.523   2.083   4.583
  574SOL    HW1 2621   3.424   2.069   4.587
  574SOL    HW2 2622   3.551   2.095   4.488
  575SOL     OW 2623   5.689   3.893   0.465
  575SOL    HW1 2624   5.675   3.794   0.456
  575SOL    HW2 2625   5.630   3.928   0.537
  576SOL     OW 2626   1.084   2.128   2.904
  576SOL    HW1 2627   1.014   2.080   2.957
  576SOL    HW2 2628   1.174   2.111   2.945
  577SOL     OW 2629   1.736   1.413   2.811
  577SOL    HW1 2630   1.685   1.341   2.764
  577SOL    HW2 2631   1.744   1.493   2.752
  578SOL     OW 2632   6.442   5.146   3.148
  578SOL    HW1 2633   6.503   5.084   3.099
  578SOL    HW2 2634   6.393   5.095   3.219
  579SOL     OW 2635   1.556   2.764   2.273
  579SOL    HW1 2636   1.564   2.698   2.347
  579SOL    HW2 2637   1.495   2.838   2.301
  580SOL     OW 2638   6.768   4.893   6.957
  580SOL    HW1 2639   6.741   4.805   6.920
  580SOL    HW2 2640   6.800   4.952   6.883
  581SOL     OW 2641   3.085   3.078   3.062
  581SOL    HW1 2642   3.082   3.049   3.157
  581SOL    HW2 2643   3.173   3.052   3.022
  582SOL     OW 2644   5.571   6.271   2.503
  582SOL    HW1 2645   5.635   6.264   2.579
  582SOL    HW2 2646   5.569   6.366   2.470
  583SOL     OW 2647   3.170   5.301   5.657
  583SOL    HW1 2648   3.096   5.292   5.723
  583SOL    HW2 2649   3.193   5.211   5.620
  584SOL     OW 2650   2.138   3.941   6.385
  584SOL    HW1 2651   2.178   3.872   6.325
  584SOL    HW2 2652   2.172   4.031   6.358
  585SOL     OW 2653   5.801   3.364   6.017
  585SOL    HW1 2654   5.837   3.286   6.069
  585SOL    HW2 2655   5.726   3.332   5.959
  586SOL     OW 2656   3.978   1.831   6.552
  586SOL    HW1 2657   3.997   1.762   6.622
  586SOL    HW2 2658   3.975   1.787   6.462
  587SOL     OW 2659   3.221   1.299   5.211
  587SOL    HW1 2660   3.320   1.304   5.225
  587SOL    HW2 2661   3.202   1.283   5.114
  588SOL     OW 2662   2.710   4.520   0.742
  588SOL    HW1 2663   2.709   4.453   0.817
  588SOL    HW2 2664   2.761   4.483   0.665
  589SOL     OW 2665   3.051   5.298   1.316
  589SOL    HW1 2666   2.965   5.346   1.330
  589SOL    HW2 2667   3.126   5.364   1.309
  590SOL     OW 2668   5.222   2.857   2.737
  590SOL    HW1 2669   5.216   2.957   2.741
  590SOL    HW2 2670   5.194   2.826   2.646
  591SOL     OW 2671   3.621   5.654   3.413
  591SOL    HW1 2672   3.604   5.721   3.485
  591SOL    HW2 2673   3.615   5.699   3.324
  592SOL     OW 2674   3.150   0.396   1.669
  592SOL    HW1 2675   3.184   0.316   1.720
  592SOL    HW2 2676   3.209   0.474   1.686
  593SOL     OW 2677   4.464   2.424   3.475
  593SOL    HW1 2678   4.549   2.465   3.510
  593SOL    HW2 2679   4.386   2.464   3.522
  594SOL     OW 2680   5.336   2.095   6.467
  594SOL    HW1 2681   5.333   2.195   6.477
  594SOL    HW2 2682   5.264   2.066   6.404
  595SOL     OW 2683   6.088   0.465   3.831
  595SOL    HW1 2684   6.051   0.552   3.798
  595SOL    HW2 2685   6.073   0.394   3.762
  596SOL     OW 2686   1.708   4.687   3.229
  596SOL    HW1 2687   1.714   4.594   3.265
  596SOL    HW2 2688   1.799   4.727   3.224
  597SOL     OW 2689   4.014   6.918   6.600
  597SOL    HW1 2690   4.102   6.876   6.580
  597SOL    HW2 2691   3.948   6.847   6.625
  598SOL     OW 2692   2.969   3.882   6.186
  598SOL    HW1 2693   3.049   3.924   6.145
  598SOL    HW2 2694   2.978   3.782   6.182
  599SOL     OW 2695   2.043   6.634   2.766
  599SOL    HW1 2696   1.990   6.589   2.694
  599SOL    HW2 2697   2.018   6.594   2.855
  600SOL     OW 2698   0.760   0.695   1.045
  600SOL    HW1 2699   0.840   0.636   1.055
  600SOL    HW2 2700   0.790   0.791   1.043
  601SOL     OW 2701   3.088   6.155   3.855
  601SOL    HW1 2702   3.004   6.210   3.850
  601SOL    HW2 2703   3.119   6.132   3.762
  602SOL     OW 2704   1.802   2.902   6.390
  602SOL    HW1 2705   1.865   2.932   6.462
  602SOL    HW2 2706   1.835   2.935   6.301
  603SOL     OW 2707   3.707   1.945   3.848
  603SOL    HW1 2708   3.778   1.973   3.784
  603SOL    HW2 2709   3.673   1.855   3.824
  604SOL     OW 2710   0.530   3.347   1.951
  604SOL    HW1 2711   0.591   3.388   2.018
  604SOL    HW2 2712   0.442   3.395   1.952
  605SOL     OW 2713   6.369   6.254   2.597
  605SOL    HW1 2714   6.418   6.170   2.618
  605SOL    HW2 2715   6.331   6.249   2.505
  606SOL     OW 2716   5.008   0.718   6.766
  606SOL    HW1 2717   5.047   0.793   6.712
  606SOL    HW2 2718   4.914   0.739   6.790
  607SOL     OW 2719   5.648   0.660   5.596
  607SOL    HW1 2720   5.627   0.567   5.567
  607SOL    HW2 2721   5.719   0.657   5.666
  608SOL     OW 2722   3.722   6.040   6.531
  608SOL    HW1 2723   3.769   6.032   6.443
  608SOL    HW2 2724   3.748   5.964   6.590
  609SOL     OW 2725   4.118   3.353   3.681
  609SOL    HW1 2726   4.061   3.362   3.762
  609SOL    HW2 2727   4.118   3.258   3.651
  610SOL     OW 2728   5.144   2.703   2.498
  610SOL    HW1 2729   5.122   2.627   2.559
  610SOL    HW2 2730   5.168   2.667   2.408
  611SOL     OW 2731   2.607   0.584   6.817
  611SOL    HW1 2732   2.542   0.529   6.870
  611SOL    HW2 2733   2.559   0.662   6.776
  612SOL     OW 2734   3.852   6.734   6.317
  612SOL    HW1 2735   3.787   6.784   6.375
  612SOL    HW2 2736   3.858   6.640   6.349
  613SOL     OW 2737   4.216   6.907   5.742
  613SOL    HW1 2738   4.196   6.995   5.784
  613SOL    HW2 2739   4.218   6.836   5.813
  614SOL     OW 2740   4.777   4.247   1.624
  614SOL    HW1 2741   4.779   4.280   1.718
  614SOL    HW2 2742   4.688   4.206   1.604
  615SOL     OW 2743   0.217   1.771   0.826
  615SOL    HW1 2744   0.214   1.870   0.840
  615SOL    HW2 2745   0.137   1.730   0.869
  616SOL     OW 2746   0.391   1.943   3.815
  616SOL    HW1 2747   0.371   1.866   3.754
  616SOL    HW2 2748   0.317   2.010   3.810
  617SOL     OW 2749   6.636   3.544   6.282
  617SOL    HW1 2750   6.674   3.554   6.190
  617SOL    HW2 2751   6.706   3.568   6.349
  618SOL     OW 2752   6.925   3.239   6.974
  618SOL    HW1 2753   7.012   3.281   6.948
  618SOL    HW2 2754   6.938   3.141   6.990
  619SOL     OW 2755   4.710   0.423   6.591
  619SOL    HW1 2756   4.672   0.363   6.661
  619SOL    HW2 2757   4.649   0.426   6.512
  620SOL     OW 2758   4.986   2.549   2.010
  620SOL    HW1 2759   4.911   2.610   2.035
  620SOL    HW2 2760   4.951   2.455   2.001
  621SOL     OW 2761   2.326   6.824   5.894
  621SOL    HW1 2762   2.337   6.734   5.936
  621SOL    HW2 2763   2.241   6.866   5.926
  622SOL     OW 2764   0.859   1.778   4.911
  622SOL    HW1 2765   0.834   1.832   4.831
  622SOL    HW2 2766   0.877   1.839   4.988
  623SOL     OW 2767   0.956   6.227   5.776
  623SOL    HW1 2768   0.956   6.279   5.862
  623SOL    HW2 2769   1.039   6.171   5.772
  624SOL     OW 2770   0.123   1.303   0.986
  624SOL    HW1 2771   0.206   1.252   1.011
  624SOL    HW2 2772   0.044   1.261   1.030
  625SOL     OW 2773   1.858   2.195   1.192
  625SOL    HW1 2774   1.896   2.288   1.198
  625SOL    HW2 2775   1.895   2.140   1.267
  626SOL     OW 2776   0.403   5.782   2.952
  626SOL    HW1 2777   0.462   5.856   2.920
  626SOL    HW2 2778   0.419   5.767   3.050
  627SOL     OW 2779   6.389   6.229   0.896
  627SOL    HW1 2780   6.343   6.301   0.844
  627SOL    HW2 2781   6.414   6.264   0.987
  628SOL     OW 2782   5.359   5.665   5.468
  628SOL    HW1 2783   5.442   5.715   5.443
  628SOL    HW2 2784   5.340   5.596   5.399
  629SOL     OW 2785   0.616   0.652   6.160
  629SOL    HW1 2786   0.613   0.710   6.242
  629SOL    HW2 2787   0.571   0.565   6.180
  630SOL     OW 2788   0.714   1.588   0.221
  630SOL    HW1 2789   0.737   1.529   0.298
  630SOL    HW2 2790   0.668   1.534   0.150
  631SOL     OW 2791   3.713   0.778   5.599
  631SOL    HW1 2792   3.763   0.862   5.584
  631SOL    HW2 2793   3.727   0.715   5.522
  632SOL     OW 2794   4.513   2.043   1.292
  632SOL    HW1 2795   4.553   1.999   1.372
  632SOL    HW2 2796   4.572   2.026   1.213
  633SOL     OW 2797   2.473   3.944   6.697
  633SOL    HW1 2798   2.492   3.904   6.786
  633SOL    HW2 2799   2.454   4.041   6.707
  634SOL     OW 2800   3.464   4.107   3.141
  634SOL    HW1 2801   3.508   4.143   3.059
  634SOL    HW2 2802   3.371   4.078   3.119
  635SOL     OW 2803   4.933   6.016   0.805
  635SOL    HW1 2804   4.961   5.935   0.752
  635SOL    HW2 2805   4.932   5.993   0.902
  636SOL     OW 2806   3.456   6.639   6.754
  636SOL    HW1 2807   3.495   6.725   6.723
  636SOL    HW2 2808   3.374   6.618   6.701
  637SOL     OW 2809   0.166   2.874   3.303
  637SOL    HW1 2810   0.122   2.913   3.383
  637SOL    HW2 2811   0.112   2.895   3.221
  638SOL     OW 2812   5.709   3.108   3.704
  638SOL    HW1 2813   5.765   3.169   3.647
  638SOL    HW2 2814   5.651   3.052   3.645
  639SOL     OW 2815   4.915   3.409   2.771
  639SOL    HW1 2816   4.935   3.442   2.679
  639SOL    HW2 2817   4.882   3.315   2.766
  640SOL     OW 2818   0.139   5.092   4.645
  640SOL    HW1 2819   0.148   5.085   4.546
  640SOL    HW2 2820   0.197   5.024   4.689
  641SOL     OW 2821   0.781   4.708   4.895
  641SOL    HW1 2822   0.694   4.681   4.937
  641SOL    HW2 2823   0.819   4.629   4.846
  642SOL     OW 2824   0.160   3.417   4.469
  642SOL    HW1 2825   0.216   3.399   4.388
  642SOL    HW2 2826   0.064   3.397   4.449
  643SOL     OW 2827   6.258   0.196   6.314
  643SOL    HW1 2828   6.345   0.149   6.328
  643SOL    HW2 2829   6.182   0.131   6.327
  644SOL     OW 2830   1.545   0.087   4.296
  644SOL    HW1 2831   1.628   0.068   4.244
  644SOL    HW2 2832   1.487   0.005   4.296
  645SOL     OW 2833   4.368   7.011   5.115
  645SOL    HW1 2834   4.344   0.058   5.050
  645SOL    HW2 2835   4.430   0.024   5.185
  646SOL     OW 2836   3.188   0.317   4.922
  646SOL    HW1 2837   3.165   0.403   4.876
  646SOL    HW2 2838   3.244   0.336   5.003
  647SOL     OW 2839   5.250   1.841   4.962
  647SOL    HW1 2840   5.311   1.785   4.906
  647SOL    HW2 2841   5.190   1.894   4.903
  648SOL     OW 2842   0.471   4.055   3.990
  648SOL    HW1 2843   0.533   4.069   4.067
  648SOL    HW2 2844   0.395   4.120   3.996
  649SOL     OW 2845   2.293   3.887   1.240
  649SOL    HW1 2846   2.198   3.867   1.217
  649SOL    HW2 2847   2.300   3.979   1.278
  650SOL     OW 2848   6.070   3.771   1.138
  650SOL    HW1 2849   6.152   3.729   1.101
  650SOL    HW2 2850   6.023   3.823   1.066
  651SOL     OW 2851   1.654   6.881   5.962
  651SOL    HW1 2852   1.652   6.906   6.059
  651SOL    HW2 2853   1.596   6.801   5.946
  652SOL     OW 2854   4.984   0.351   3.662
  652SOL    HW1 2855   5.040   0.322   3.740
  652SOL    HW2 2856   5.031   0.424   3.613
  653SOL     OW 2857   0.694   5.791   0.286
  653SOL    HW1 2858   0.741   5.875   0.311
  653SOL    HW2 2859   0.688   5.785   0.186
  654SOL     OW 2860   0.644   6.091   0.138
  654SOL    HW1 2861   0.724   6.036   0.113
  654SOL    HW2 2862   0.673   6.183   0.163
  655SOL     OW 2863   6.963   5.829   1.303
  655SOL    HW1 2864   6.898   5.817   1.379
  655SOL    HW2 2865   6.918   5.806   1.217
  656SOL     OW 2866   2.748   5.871   0.847
  656SOL    HW1 2867   2.727   5.881   0.749
  656SOL    HW2 2868   2.838   5.829   0.857
  657SOL     OW 2869   2.691   3.398   1.180
  657SOL    HW1 2870   2.688   3.305   1.143
  657SOL    HW2 2871   2.693   3.394   1.280
  658SOL     OW 2872   1.781   4.142   6.752
  658SOL    HW1 2873   1.843   4.063   6.754
  658SOL    HW2 2874   1.707   4.128   6.817
  659SOL     OW 2875   2.226   6.060   4.632
  659SOL    HW1 2876   2.235   6.156   4.658
  659SOL    HW2 2877   2.304   6.009   4.666
  660SOL     OW 2878   5.877   3.899   2.759
  660SOL    HW1 2879   5.786   3.861   2.743
  660SOL    HW2 2880   5.945   3.845   2.709
  661SOL     OW 2881   4.930   3.948   3.800
  661SOL    HW1 2882   4.936   3.958   3.701
  661SOL    HW2 2883   4.934   3.851   3.825
  662SOL     OW 2884   4.100   0.504   5.689
  662SOL    HW1 2885   4.157   0.586   5.698
  662SOL    HW2 2886   4.026   0.508   5.757
  663SOL     OW 2887   1.740   3.999   0.118
  663SOL    HW1 2888   1.695   4.046   0.042
  663SOL    HW2 2889   1.714   3.902   0.117
  664SOL     OW 2890   0.685   5.070   6.482
  664SOL    HW1 2891   0.690   5.167   6.505
  664SOL    HW2 2892   0.594   5.048   6.447
  665SOL     OW 2893   4.544   5.175   1.220
  665SOL    HW1 2894   4.501   5.114   1.153
  665SOL    HW2 2895   4.562   5.125   1.304
  666SOL     OW 2896   4.538   2.214   2.104
  666SOL    HW1 2897   4.454   2.265   2.122
  666SOL    HW2 2898   4.578   2.184   2.191
  667SOL     OW 2899   6.276   4.357   3.432
  667SOL    HW1 2900   6.209   4.372   3.505
  667SOL    HW2 2901   6.365   4.337   3.473
  668SOL     OW 2902   5.286   6.127   6.813
  668SOL    HW1 2903   5.276   6.216   6.770
  668SOL    HW2 2904   5.198   6.081   6.815
  669SOL     OW 2905   3.566   6.161   2.886
  669SOL    HW1 2906   3.466   6.169   2.886
  669SOL    HW2 2907   3.600   6.173   2.979
  670SOL     OW 2908   2.717   3.129   1.723
  670SOL    HW1 2909   2.789   3.066   1.752
  670SOL    HW2 2910   2.752   3.222   1.723
  671SOL     OW 2911   2.422   5.850   6.761
  671SOL    HW1 2912   2.421   5.765   6.708
  671SOL    HW2 2913   2.351   5.912   6.726
  672SOL     OW 2914   0.464   4.551   1.657
  672SOL    HW1 2915   0.499   4.600   1.736
  672SOL    HW2 2916   0.440   4.616   1.584
  673SOL     OW 2917   6.620   0.742   1.198
  673SOL    HW1 2918   6.555   0.811   1.230
  673SOL    HW2 2919   6.712   0.767   1.226
  674SOL     OW 2920   6.549   3.891   4.834
  674SOL    HW1 2921   6.571   3.914   4.739
  674SOL    HW2 2922   6.451   3.900   4.849
  675SOL     OW 2923   0.111   1.099   4.935
  675SOL    HW1 2924   0.115   1.095   5.035
  675SOL    HW2 2925   0.187   1.155   4.901
  676SOL     OW 2926   4.048   5.535   2.505
  676SOL    HW1 2927   4.005   5.573   2.423
  676SOL    HW2 2928   3.977   5.491   2.561
  677SOL     OW 2929   6.159   1.812   6.221
  677SOL    HW1 2930   6.208   1.736   6.262
  677SOL    HW2 2931   6.224   1.883   6.195
  678SOL     OW 2932   1.092   1.533   5.111
  678SOL    HW1 2933   1.151   1.613   5.123
  678SOL    HW2 2934   1.102   1.473   5.190
  679SOL     OW 2935   4.831   1.522   4.107
  679SOL    HW1 2936   4.902   1.492   4.043
  679SOL    HW2 2937   4.775   1.592   4.064
  680SOL     OW 2938   5.299   5.700   6.326
  680SOL    HW1 2939   5.384   5.666   6.285
  680SOL    HW2 2940   5.257   5.767   6.264
  681SOL     OW 2941   5.737   6.648   1.677
  681SOL    HW1 2942   5.715   6.554   1.652
  681SOL    HW2 2943   5.680   6.676   1.754
  682SOL     OW 2944   1.636   6.737   6.989
  682SOL    HW1 2945   1.680   6.683   0.037
  682SOL    HW2 2946   1.576   6.678   6.936
  683SOL     OW 2947   3.493   2.115   6.647
  683SOL    HW1 2948   3.395   2.134   6.651
  683SOL    HW2 2949   3.543   2.200   6.631
  684SOL     OW 2950   6.112   0.953   6.736
  684SOL    HW1 2951   6.196   0.909   6.766
  684SOL    HW2 2952   6.099   0.937   6.638
  685SOL     OW 2953   4.483   0.629   4.787
  685SOL    HW1 2954   4.565   0.664   4.742
  685SOL    HW2 2955   4.494   0.531   4.805
  686SOL     OW 2956   6.132   3.149   3.356
  686SOL    HW1 2957   6.055   3.141   3.293
  686SOL    HW2 2958   6.140   3.065   3.409
  687SOL     OW 2959   0.309   2.873   4.425
  687SOL    HW1 2960   0.362   2.958   4.428
  687SOL    HW2 2961   0.356   2.803   4.478
  688SOL     OW 2962   1.831   2.896   6.833
  688SOL    HW1 2963   1.780   2.952   6.899
  688SOL    HW2 2964   1.772   2.823   6.799
  689SOL     OW 2965   0.407   4.506   6.117
  689SOL    HW1 2966   0.495   4.527   6.160
  689SOL    HW2 2967   0.389   4.572   6.045
  690SOL     OW 2968   0.727   3.991   3.609
  690SOL    HW1 2969   0.797   3.974   3.679
  690SOL    HW2 2970   0.636   3.974   3.647
  691SOL     OW 2971   2.446   0.920   6.263
  691SOL    HW1 2972   2.424   1.016   6.282
  691SOL    HW2 2973   2.434   0.867   6.347
  692SOL     OW 2974   3.701   6.180   3.126
  692SOL    HW1 2975   3.758   6.257   3.154
  692SOL    HW2 2976   3.758   6.099   3.111
  693SOL     OW 2977   6.480   1.645   3.023
  693SOL    HW1 2978   6.427   1.678   3.101
  693SOL    HW2 2979   6.512   1.552   3.042
  694SOL     OW 2980   3.450   6.707   2.452
  694SOL    HW1 2981   3.508   6.651   2.511
  694SOL    HW2 2982   3.495   6.722   2.364
  695SOL     OW 2983   4.498   4.859   5.630
  695SOL    HW1 2984   4.560   4.869   5.708
  695SOL    HW2 2985   4.552   4.842   5.547
  696SOL     OW 2986   3.050   5.207   1.977
  696SOL    HW1 2987   2.968   5.153   1.996
  696SOL    HW2 2988   3.096   5.229   2.064
  697SOL     OW 2989   1.964   3.008   4.824
  697SOL    HW1 2990   2.045   2.986   4.878
  697SOL    HW2 2991   1.989   3.073   4.752
  698SOL     OW 2992   5.341   0.116   6.880
  698SOL    HW1 2993   5.284   0.036   6.859
  698SOL    HW2 2994   5.362   0.117   6.978
  699SOL     OW 2995   1.181   4.390   6.731
  699SOL    HW1 2996   1.246   4.316   6.713
  699SOL    HW2 2997   1.114   4.394   6.656
  700SOL     OW 2998   2.883   1.442   4.114
  700SOL    HW1 2999   2.969   1.489   4.131
  700SOL    HW2 3000   2.810   1.510   4.103
  701SOL     OW 3001   6.312   4.273   5.237
  701SOL    HW1 3002   6.373   4.194   5.230
  701SOL    HW2 3003   6.278   4.297   5.146
  702SOL     OW 3004   6.462   6.481   6.341
  702SOL    HW1 3005   6.426   6.395   6.306
  702SOL    HW2 3006   6.387   6.541   6.367
  703SOL     OW 3007   3.740   3.576   6.469
  703SOL    HW1 3008   3.751   3.638   6.391
  703SOL    HW2 3009   3.783   3.615   6.550
  704SOL     OW 3010   1.447   1.255   6.049
  704SOL    HW1 3011   1.449   1.212   5.959
  704SOL    HW2 3012   1.400   1.194   6.114
  705SOL     OW 3013   5.607   6.968   3.405
  705SOL    HW1 3014   5.556   7.015   3.477
  705SOL    HW2 3015   5.592   7.015   3.317
  706SOL     OW 3016   3.849   1.873   4.229
  706SOL    HW1 3017   3.934   1.903   4.272
  706SOL    HW2 3018   3.801   1.952   4.190
  707SOL     OW 3019   4.742   0.241   2.837
  707SOL    HW1 3020   4.643   0.247   2.852
  707SOL    HW2 3021   4.763   0.159   2.784
  708SOL     OW 3022   4.257   0.229   1.168
  708SOL    HW1 3023   4.161   0.217   1.191
  708SOL    HW2 3024   4.313   0.169   1.225
  709SOL     OW 3025   1.253   5.347   0.736
  709SOL    HW1 3026   1.156   5.365   0.723
  709SOL    HW2 3027   1.296   5.334   0.646
  710SOL     OW 3028   4.023   3.516   2.503
  710SOL    HW1 3029   3.978   3.548   2.420
  710SOL    HW2 3030   4.043   3.594   2.563
  711SOL     OW 3031   0.210   2.534   5.956
  711SOL    HW1 3032   0.302   2.499   5.937
  711SOL    HW2 3033   0.165   2.476   6.023
  712SOL     OW 3034   3.486   4.234   0.822
  712SOL    HW1 3035   3.513   4.271   0.733
  712SOL    HW2 3036   3.559   4.175   0.857
  713SOL     OW 3037   3.204   2.925   0.078
  713SOL    HW1 3038   3.147   2.895   0.155
  713SOL    HW2 3039   3.245   3.013   0.100
  714SOL     OW 3040   5.965   4.737   4.469
  714SOL    HW1 3041   5.872   4.712   4.496
  714SOL    HW2 3042   5.989   4.690   4.384
  715SOL     OW 3043   5.486   6.099   0.569
  715SOL    HW1 3044   5.544   6.042   0.627
  715SOL    HW2 3045   5.397   6.112   0.614
  716SOL     OW 3046   1.182   0.021   0.641
  716SOL    HW1 3047   1.185   0.098   0.705
  716SOL    HW2 3048   1.102   6.989   0.661
  717SOL     OW 3049   5.395   5.074   6.049
  717SOL    HW1 3050   5.371   5.171   6.044
  717SOL    HW2 3051   5.409   5.039   5.956
  718SOL     OW 3052   4.831   2.223   5.813
  718SOL    HW1 3053   4.838   2.236   5.714
  718SOL    HW2 3054   4.922   2.207   5.850
  719SOL     OW 3055   0.068   2.368   1.190
  719SOL    HW1 3056   0.022   2.397   1.106
  719SOL    HW2 3057   0.106   2.448   1.236
  720SOL     OW 3058   3.611   0.837   6.395
  720SOL    HW1 3059   3.708   0.859   6.389
  720SOL    HW2 3060   3.599   0.754   6.450
  721SOL     OW 3061   2.549   0.698   4.559
  721SOL    HW1 3062   2.480   0.655   4.617
  721SOL    HW2 3063   2.640   0.683   4.597
  722SOL     OW 3064   2.536   7.023   4.678
  722SOL    HW1 3065   2.545   0.080   4.621
  722SOL    HW2 3066   2.501   0.024   4.768
  723SOL     OW 3067   2.075   3.427   3.444
  723SOL    HW1 3068   2.091   3.333   3.415
  723SOL    HW2 3069   1.978   3.449   3.435
  724SOL     OW 3070   1.244   2.613   4.956
  724SOL    HW1 3071   1.201   2.673   5.023
  724SOL    HW2 3072   1.309   2.665   4.900
  725SOL     OW 3073   3.421   5.851   0.596
  725SOL    HW1 3074   3.434   5.758   0.631
  725SOL    HW2 3075   3.509   5.888   0.566
  726SOL     OW 3076   4.553   4.681   0.629
  726SOL    HW1 3077   4.633   4.651   0.577
  726SOL    HW2 3078   4.487   4.724   0.567
  727SOL     OW 3079   5.362   5.339   6.091
  727SOL    HW1 3080   5.334   5.433   6.070
  727SOL    HW2 3081   5.319   5.309   6.176
  728SOL     OW 3082   0.217   3.494   4.903
  728SOL    HW1 3083   0.196   3.579   4.855
  728SOL    HW2 3084   0.217   3.418   4.838
  729SOL     OW 3085   1.154   1.901   0.383
  729SOL    HW1 3086   1.201   1.815   0.404
  729SOL    HW2 3087   1.094   1.887   0.304
  730SOL     OW 3088   5.484   1.573   2.359
  730SOL    HW1 3089   5.483   1.596   2.262
  730SOL    HW2 3090   5.406   1.513   2.380
  731SOL     OW 3091   5.813   4.175   5.841
  731SOL    HW1 3092   5.910   4.197   5.832
  731SOL    HW2 3093   5.772   4.161   5.751
  732SOL     OW 3094   0.774   3.051   0.792
  732SOL    HW1 3095   0.782   2.959   0.752
  732SOL    HW2 3096   0.691   3.055   0.847
  733SOL     OW 3097   5.593   5.809   5.451
  733SOL    HW1 3098   5.636   5.761   5.528
  733SOL    HW2 3099   5.590   5.907   5.471
  734SOL     OW 3100   6.664   4.110   2.435
  734SOL    HW1 3101   6.598   4.165   2.486
  734SOL    HW2 3102   6.623   4.021   2.413
  735SOL     OW 3103   4.035   2.739   0.334
  735SOL    HW1 3104   4.098   2.705   0.404
  735SOL    HW2 3105   3.948   2.763   0.377
  736SOL     OW 3106   0.564   0.133   2.641
  736SOL    HW1 3107   0.592   0.220   2.599
  736SOL    HW2 3108   0.643   0.072   2.646
  737SOL     OW 3109   4.902   2.313   6.106
  737SOL    HW1 3110   4.862   2.367   6.179
  737SOL    HW2 3111   4.917   2.219   6.137
  738SOL     OW 3112   1.848   3.969   2.414
  738SOL    HW1 3113   1.790   3.908   2.360
  738SOL    HW2 3114   1.943   3.962   2.382
  739SOL     OW 3115   3.967   0.090   4.776
  739SOL    HW1 3116   3.949   0.082   4.678
  739SOL    HW2 3117   4.065   0.103   4.790
  740SOL     OW 3118   4.794   0.335   0.697
  740SOL    HW1 3119   4.712   0.391   0.679
  740SOL    HW2 3120   4.854   0.338   0.618
  741SOL     OW 3121   2.256   6.471   3.587
  741SOL    HW1 3122   2.184   6.404   3.569
  741SOL    HW2 3123   2.246   6.549   3.525
  742SOL     OW 3124   1.965   6.447   1.174
  742SOL    HW1 3125   1.986   6.443   1.271
  742SOL    HW2 3126   2.041   6.408   1.122
  743SOL     OW 3127   0.265   4.382   4.378
  743SOL    HW1 3128   0.278   4.316   4.451
  743SOL    HW2 3129   0.193   4.446   4.404
  744SOL     OW 3130   5.517   0.178   6.676
  744SOL    HW1 3131   5.465   0.165   6.760
  744SOL    HW2 3132   5.590   0.244   6.692
  745SOL     OW 3133   0.991   5.273   4.738
  745SOL    HW1 3134   0.892   5.285   4.739
  745SOL    HW2 3135   1.027   5.303   4.649
  746SOL     OW 3136   0.525   5.215   6.038
  746SOL    HW1 3137   0.544   5.284   6.107
  746SOL    HW2 3138   0.501   5.260   5.952
  747SOL     OW 3139   3.996   6.744   5.016
  747SOL    HW1 3140   3.960   6.835   4.996
  747SOL    HW2 3141   4.055   6.749   5.097
  748SOL     OW 3142   3.509   4.874   2.422
  748SOL    HW1 3143   3.483   4.803   2.488
  748SOL    HW2 3144   3.456   4.862   2.338
  749SOL     OW 3145   6.429   4.553   4.977
  749SOL    HW1 3146   6.364   4.488   4.939
  749SOL    HW2 3147   6.481   4.509   5.050
  750SOL     OW 3148   2.240   2.467   1.240
  750SOL    HW1 3149   2.260   2.563   1.221
  750SOL    HW2 3150   2.141   2.452   1.234
  751SOL     OW 3151   4.134   2.659   6.711
  751SOL    HW1 3152   4.131   2.612   6.623
  751SOL    HW2 3153   4.041   2.681   6.740
  752SOL     OW 3154   3.597   1.411   2.388
  752SOL    HW1 3155   3.647   1.492   2.418
  752SOL    HW2 3156   3.625   1.332   2.444
  753SOL     OW 3157   1.808   3.062   4.557
  753SOL    HW1 3158   1.886   3.000   4.550
  753SOL    HW2 3159   1.762   3.067   4.469
  754SOL     OW 3160   5.414   3.078   6.157
  754SOL    HW1 3161   5.438   3.168   6.193
  754SOL    HW2 3162   5.314   3.070   6.152
  755SOL     OW 3163   1.694   4.976   5.832
  755SOL    HW1 3164   1.683   5.075   5.833
  755SOL    HW2 3165   1.705   4.944   5.738
  756SOL     OW 3166   3.701   0.216   1.362
  756SOL    HW1 3167   3.709   0.220   1.462
  756SOL    HW2 3168   3.653   0.297   1.329
  757SOL     OW 3169   1.004   6.857   3.661
  757SOL    HW1 3170   0.959   6.945   3.647
  757SOL    HW2 3171   1.000   6.832   3.758
  758SOL     OW 3172   4.023   0.431   2.093
  758SOL    HW1 3173   4.062   0.387   2.012
  758SOL    HW2 3174   4.011   0.528   2.076
  759SOL     OW 3175   0.863   1.105   0.750
  759SOL    HW1 3176   0.844   1.035   0.818
  759SOL    HW2 3177   0.958   1.098   0.720
  760SOL     OW 3178   5.147   0.405   5.597
  760SOL    HW1 3179   5.117   0.415   5.502
  760SOL    HW2 3180   5.116   0.316   5.632
  761SOL     OW 3181   5.541   2.960   5.953
  761SOL    HW1 3182   5.503   2.997   6.037
  761SOL    HW2 3183   5.467   2.937   5.890
  762SOL     OW 3184   2.488   0.331   4.780
  762SOL    HW1 3185   2.403   0.321   4.728
  762SOL    HW2 3186   2.563   0.353   4.717
  763SOL     OW 3187   3.891   4.577   6.790
  763SOL    HW1 3188   3.795   4.558   6.769
  763SOL    HW2 3189   3.948   4.553   6.712
  764SOL     OW 3190   4.441   1.293   4.173
  764SOL    HW1 3191   4.406   1.365   4.113
  764SOL    HW2 3192   4.534   1.317   4.203
  765SOL     OW 3193   1.293   6.063   1.228
  765SOL    HW1 3194   1.195   6.079   1.216
  765SOL    HW2 3195   1.344   6.114   1.158
  766SOL     OW 3196   2.176   4.074   6.937
  766SOL    HW1 3197   2.125   4.036   6.860
  766SOL    HW2 3198   2.119   4.072   7.019
  767SOL     OW 3199   6.003   5.922   2.383
  767SOL    HW1 3200   5.927   5.983   2.403
  767SOL    HW2 3201   6.086   5.975   2.368
  768SOL     OW 3202   1.971   6.346   1.443
  768SOL    HW1 3203   1.998   6.390   1.529
  768SOL    HW2 3204   1.900   6.278   1.461
  769SOL     OW 3205   3.166   0.501   4.316
  769SOL    HW1 3206   3.232   0.557   4.265
  769SOL    HW2 3207   3.122   0.557   4.386
  770SOL     OW 3208   2.151   3.304   3.145
  770SOL    HW1 3209   2.221   3.369   3.176
  770SOL    HW2 3210   2.158   3.220   3.198
  771SOL     OW 3211   2.191   5.633   2.148
  771SOL    HW1 3212   2.159   5.633   2.243
  771SOL    HW2 3213   2.287   5.659   2.144
  772SOL     OW 3214   5.611   4.951   0.684
  772SOL    HW1 3215   5.592   4.922   0.591
  772SOL    HW2 3216   5.543   5.020   0.712
  773SOL     OW 3217   0.626   4.081   4.247
  773SOL    HW1 3218   0.715   4.053   4.214
  773SOL    HW2 3219   0.631   4.104   4.344
  774SOL     OW 3220   1.672   1.856   1.462
  774SOL    HW1 3221   1.622   1.849   1.549
  774SOL    HW2 3222   1.658   1.772   1.410
  775SOL     OW 3223   0.760   2.511   2.499
  775SOL    HW1 3224   0.685   2.467   2.450
  775SOL    HW2 3225   0.839   2.450   2.501
  776SOL     OW 3226   0.947   6.834   6.030
  776SOL    HW1 3227   0.973   6.762   5.967
  776SOL    HW2 3228   0.990   6.920   6.002
  777SOL     OW 3229   3.036   5.018   1.225
  777SOL    HW1 3230   3.049   5.116   1.208
  777SOL    HW2 3231   3.096   4.990   1.300
  778SOL     OW 3232   3.450   1.155   2.954
  778SOL    HW1 3233   3.409   1.244   2.933
  778SOL    HW2 3234   3.442   1.137   3.052
  779SOL     OW 3235   0.535   2.117   2.624
  779SOL    HW1 3236   0.505   2.191   2.684
  779SOL    HW2 3237   0.467   2.044   2.626
  780SOL     OW 3238   5.926   3.955   3.685
  780SOL    HW1 3239   5.837   3.910   3.692
  780SOL    HW2 3240   5.941   3.985   3.591
  781SOL     OW 3241   5.510   0.928   0.034
  781SOL    HW1 3242   5.563   0.844   0.023
  781SOL    HW2 3243   5.431   0.925   6.998
  782SOL     OW 3244   1.567   4.102   6.934
  782SOL    HW1 3245   1.514   4.187   6.939
  782SOL    HW2 3246   1.505   4.024   6.926
  783SOL     OW 3247   3.878   4.846   0.970
  783SOL    HW1 3248   3.828   4.932   0.971
  783SOL    HW2 3249   3.814   4.770   0.961
  784SOL     OW 3250   5.223   6.526   0.287
  784SOL    HW1 3251   5.317   6.500   0.263
  784SOL    HW2 3252   5.160   6.494   0.216
  785SOL     OW 3253   0.395   2.734   2.476
  785SOL    HW1 3254   0.327   2.665   2.501
  785SOL    HW2 3255   0.478   2.720   2.531
  786SOL     OW 3256   0.914   0.936   0.993
  786SOL    HW1 3257   1.014   0.934   0.993
  786SOL    HW2 3258   0.882   1.011   1.051
  787SOL     OW 3259   3.304   0.788   6.425
  787SOL    HW1 3260   3.311   0.700   6.378
  787SOL    HW2 3261   3.387   0.803   6.480
  788SOL     OW 3262   3.379   2.892   5.617
  788SOL    HW1 3263   3.479   2.885   5.623
  788SOL    HW2 3264   3.345   2.947   5.693
  789SOL     OW 3265   5.637   3.789   1.124
  789SOL    HW1 3266   5.635   3.689   1.131
  789SOL    HW2 3267   5.544   3.824   1.128
  790SOL     OW 3268   2.031   1.141   4.376
  790SOL    HW1 3269   1.986   1.114   4.291
  790SOL    HW2 3270   2.125   1.167   4.357
  791SOL     OW 3271   3.789   5.419   3.569
  791SOL    HW1 3272   3.727   5.464   3.505
  791SOL    HW2 3273   3.779   5.461   3.659
  792SOL     OW 3274   0.497   0.246   1.668
  792SOL    HW1 3275   0.535   0.236   1.576
  792SOL    HW2 3276   0.416   0.189   1.676
  793SOL     OW 3277   5.167   5.394   3.962
  793SOL    HW1 3278   5.126   5.483   3.944
  793SOL    HW2 3279   5.158   5.336   3.880
  794SOL     OW 3280   2.847   3.869   5.366
  794SOL    HW1 3281   2.847   3.858   5.266
  794SOL    HW2 3282   2.916   3.937   5.391
  795SOL     OW 3283   3.473   6.479   4.506
  795SOL    HW1 3284   3.535   6.556   4.517
  795SOL    HW2 3285   3.396   6.490   4.569
  796SOL     OW 3286   1.120   1.985   6.141
  796SOL    HW1 3287   1.151   2.080   6.133
  796SOL    HW2 3288   1.026   1.978   6.108
  797SOL     OW 3289   5.066   2.627   1.515
  797SOL    HW1 3290   4.973   2.655   1.539
  797SOL    HW2 3291   5.130   2.663   1.582
  798SOL     OW 3292   4.661   0.163   2.142
  798SOL    HW1 3293   4.676   0.178   2.044
  798SOL    HW2 3294   4.748   0.167   2.190
  799SOL     OW 3295   6.425   0.812   5.553
  799SOL    HW1 3296   6.426   0.887   5.487
  799SOL    HW2 3297   6.506   0.818   5.612
  800SOL     OW 3298   5.164   1.789   2.807
  800SOL    HW1 3299   5.173   1.692   2.787
  800SOL    HW2 3300   5.073   1.821   2.780
  801SOL     OW 3301   1.980   3.241   4.267
  801SOL    HW1 3302   2.004   3.197   4.181
  801SOL    HW2 3303   1.939   3.330   4.249
  802SOL     OW 3304   4.609   0.827   0.400
  802SOL    HW1 3305   4.513   0.809   0.377
  802SOL    HW2 3306   4.623   0.926   0.409
  803SOL     OW 3307   6.855   6.654   5.362
  803SOL    HW1 3308   6.826   6.742   5.402
  803SOL    HW2 3309   6.884   6.668   5.268
  804SOL     OW 3310   5.690   5.819   6.849
  804SOL    HW1 3311   5.598   5.851   6.873
  804SOL    HW2 3312   5.758   5.870   6.902
  805SOL     OW 3313   3.400   1.410   5.557
  805SOL    HW1 3314   3.468   1.404   5.484
  805SOL    HW2 3315   3.309   1.417   5.518
  806SOL     OW 3316   5.382   0.985   3.790
  806SOL    HW1 3317   5.474   0.948   3.800
  806SOL    HW2 3318   5.318   0.928   3.843
  807SOL     OW 3319   0.522   2.061   4.686
  807SOL    HW1 3320   0.533   2.137   4.622
  807SOL    HW2 3321   0.489   1.980   4.638
  808SOL     OW 3322   4.508   3.214   5.883
  808SOL    HW1 3323   4.578   3.222   5.955
  808SOL    HW2 3324   4.425   3.263   5.912
  809SOL     OW 3325   0.050   5.347   1.756
  809SOL    HW1 3326   0.093   5.425   1.802
  809SOL    HW2 3327   0.119   5.294   1.708
  810SOL     OW 3328   3.191   2.832   0.988
  810SOL    HW1 3329   3.164   2.833   1.084
  810SOL    HW2 3330   3.109   2.822   0.930
  811SOL     OW 3331   4.240   5.706   4.845
  811SOL    HW1 3332   4.176   5.776   4.877
  811SOL    HW2 3333   4.205   5.615   4.869
  812SOL     OW 3334   0.695   1.438   1.614
  812SOL    HW1 3335   0.792   1.438   1.588
  812SOL    HW2 3336   0.647   1.367   1.562
  813SOL     OW 3337   3.235   6.209   5.012
  813SOL    HW1 3338   3.297   6.136   5.038
  813SOL    HW2 3339   3.241   6.283   5.079
  814SOL     OW 3340   5.871   6.402   2.702
  814SOL    HW1 3341   5.891   6.387   2.799
  814SOL    HW2 3342   5.935   6.348   2.647
  815SOL     OW 3343   0.313   4.036   3.035
  815SOL    HW1 3344   0.320   4.133   3.054
  815SOL    HW2 3345   0.247   4.021   2.961
  816SOL     OW 3346   6.256   6.819   0.155
  816SOL    HW1 3347   6.257   6.719   0.150
  816SOL    HW2 3348   6.350   6.853   0.161
  817SOL     OW 3349   2.158   3.569   1.666
  817SOL    HW1 3350   2.072   3.607   1.699
  817SOL    HW2 3351   2.208   3.527   1.742
  818SOL     OW 3352   6.084   2.586   1.498
  818SOL    HW1 3353   5.995   2.560   1.461
  818SOL    HW2 3354   6.127   2.505   1.540
  819SOL     OW 3355   5.714   2.947   2.846
  819SOL    HW1 3356   5.712   3.042   2.816
  819SOL    HW2 3357   5.624   2.906   2.833
  820SOL     OW 3358   2.785   3.140   5.734
  820SOL    HW1 3359   2.853   3.108   5.668
  820SOL    HW2 3360   2.730   3.063   5.765
  821SOL     OW 3361   1.800   4.015   0.384
  821SOL    HW1 3362   1.778   4.004   0.287
  821SOL    HW2 3363   1.868   3.947   0.411
  822SOL     OW 3364   1.941   4.111   4.831
  822SOL    HW1 3365   2.036   4.103   4.802
  822SOL    HW2 3366   1.937   4.143   4.925
  823SOL     OW 3367   5.011   4.068   6.289
  823SOL    HW1 3368   5.036   4.157   6.329
  823SOL    HW2 3369   4.963   4.014   6.358
  824SOL     OW 3370   5.560   1.203   5.294
  824SOL    HW1 3371   5.658   1.223   5.298
  824SOL    HW2 3372   5.519   1.251   5.216
  825SOL     OW 3373   1.560   4.183   1.258
  825SOL    HW1 3374   1.572   4.122   1.179
  825SOL    HW2 3375   1.469   4.169   1.297
  826SOL     OW 3376   4.939   2.942   5.730
  826SOL    HW1 3377   4.993   2.902   5.804
  826SOL    HW2 3378   4.955   2.891   5.645
  827SOL     OW 3379   3.541   4.236   6.075
  827SOL    HW1 3380   3.589   4.198   6.154
  827SOL    HW2 3381   3.446   4.255   6.099
  828SOL     OW 3382   5.429   6.418   6.037
  828SOL    HW1 3383   5.337   6.404   6.000
  828SOL    HW2 3384   5.464   6.506   6.007
  829SOL     OW 3385   3.085   3.107   3.740
  829SOL    HW1 3386   2.994   3.135   3.771
  829SOL    HW2 3387   3.142   3.089   3.820
  830SOL     OW 3388   4.712   4.413   6.923
  830SOL    HW1 3389   4.809   4.396   6.906
  830SOL    HW2 3390   4.663   4.326   6.925
  831SOL     OW 3391   5.449   1.056   6.622
  831SOL    HW1 3392   5.434   0.981   6.686
  831SOL    HW2 3393   5.362   1.102   6.604
  832SOL     OW 3394   2.637   0.506   1.615
  832SOL    HW1 3395   2.672   0.437   1.678
  832SOL    HW2 3396   2.592   0.461   1.537
  833SOL     OW 3397   0.435   3.824   6.186
  833SOL    HW1 3398   0.453   3.901   6.247
  833SOL    HW2 3399   0.498   3.827   6.108
  834SOL     OW 3400   2.998   3.943   0.884
  834SOL    HW1 3401   3.023   3.860   0.833
  834SOL    HW2 3402   3.071   3.965   0.949
  835SOL     OW 3403   3.422   0.197   4.847
  835SOL    HW1 3404   3.328   0.226   4.867
  835SOL    HW2 3405   3.423   0.099   4.829
  836SOL     OW 3406   3.854   6.707   6.654
  836SOL    HW1 3407   3.857   6.631   6.589
  836SOL    HW2 3408   3.872   6.672   6.746
  837SOL     OW 3409   5.638   6.695   0.200
  837SOL    HW1 3410   5.644   6.694   0.100
  837SOL    HW2 3411   5.638   6.601   0.235
  838SOL     OW 3412   2.080   0.063   4.817
  838SOL    HW1 3413   2.117   0.060   4.910
  838SOL    HW2 3414   1.981   0.077   4.821
  839SOL     OW 3415   2.777   2.320   2.479
  839SOL    HW1 3416   2.862   2.333   2.427
  839SOL    HW2 3417   2.729   2.239   2.445
  840SOL     OW 3418   6.207   6.691   6.744
  840SOL    HW1 3419   6.166   6.748   6.816
  840SOL    HW2 3420   6.240   6.606   6.784
  841SOL     OW 3421   4.575   4.788   0.174
  841SOL    HW1 3422   4.523   4.817   0.255
  841SOL    HW2 3423   4.574   4.862   0.107
  842SOL     OW 3424   4.162   6.256   4.726
  842SOL    HW1 3425   4.205   6.304   4.650
  842SOL    HW2 3426   4.229   6.198   4.772
  843SOL     OW 3427   2.284   1.681   0.004
  843SOL    HW1 3428   2.380   1.705   0.019
  843SOL    HW2 3429   2.261   1.695   6.932
  844SOL     OW 3430   6.114   0.531   1.140
  844SOL    HW1 3431   6.035   0.525   1.200
  844SOL    HW2 3432   6.192   0.569   1.190
  845SOL     OW 3433   5.403   4.660   5.217
  845SOL    HW1 3434   5.458   4.577   5.214
  845SOL    HW2 3435   5.318   4.642   5.267
  846SOL     OW 3436   2.426   1.769   0.355
  846SOL    HW1 3437   2.475   1.696   0.308
  846SOL    HW2 3438   2.328   1.761   0.335
  847SOL     OW 3439   1.648   3.890   0.809
  847SOL    HW1 3440   1.699   3.807   0.833
  847SOL    HW2 3441   1.561   3.864   0.767
  848SOL     OW 3442   5.960   0.622   6.577
  848SOL    HW1 3443   5.967   0.568   6.493
  848SOL    HW2 3444   5.864   0.628   6.605
  849SOL     OW 3445   0.648   4.939   5.702
  849SOL    HW1 3446   0.644   4.967   5.607
  849SOL    HW2 3447   0.564   4.968   5.749
  850SOL     OW 3448   5.764   1.392   4.156
  850SOL    HW1 3449   5.744   1.335   4.236
  850SOL    HW2 3450   5.775   1.334   4.076
  851SOL     OW 3451   0.746   1.389   2.370
  851SOL    HW1 3452   0.812   1.315   2.385
  851SOL    HW2 3453   0.681   1.391   2.445
  852SOL     OW 3454   1.110   2.303   0.238
  852SOL    HW1 3455   1.181   2.253   0.288
  852SOL    HW2 3456   1.064   2.241   0.175
  853SOL     OW 3457   1.880   4.270   2.346
  853SOL    HW1 3458   1.874   4.171   2.352
  853SOL    HW2 3459   1.798   4.311   2.384
  854SOL     OW 3460   4.513   6.098   1.922
  854SOL    HW1 3461   4.579   6.124   1.852
  854SOL    HW2 3462   4.440   6.166   1.928
  855SOL     OW 3463   0.546   0.276   1.388
  855SOL    HW1 3464   0.507   0.368   1.381
  855SOL    HW2 3465   0.621   0.265   1.323
  856SOL     OW 3466   1.691   1.901   5.150
  856SOL    HW1 3467   1.710   1.978   5.089
  856SOL    HW2 3468   1.649   1.935   5.235
  857SOL     OW 3469   6.287   4.332   2.314
  857SOL    HW1 3470   6.245   4.313   2.225
  857SOL    HW2 3471   6.264   4.425   2.342
  858SOL     OW 3472   2.753   3.886   1.484
  858SOL    HW1 3473   2.800   3.879   1.397
  858SOL    HW2 3474   2.669   3.830   1.482
  859SOL     OW 3475   4.935   5.906   6.611
  859SOL    HW1 3476   5.012   5.902   6.547
  859SOL    HW2 3477   4.878   5.824   6.600
  860SOL     OW 3478   4.396   3.950   0.447
  860SOL    HW1 3479   4.337   4.026   0.474
  860SOL    HW2 3480   4.376   3.923   0.353
  861SOL     OW 3481   2.814   0.502   4.227
  861SOL    HW1 3482   2.880   0.528   4.297
  861SOL    HW2 3483   2.722   0.527   4.255
  862SOL     OW 3484   0.506   4.159   6.029
  862SOL    HW1 3485   0.450   4.226   6.077
  862SOL    HW2 3486   0.501   4.175   5.930
  863SOL     OW 3487   0.459   6.941   0.128
  863SOL    HW1 3488   0.500   7.022   0.171
  863SOL    HW2 3489   0.384   6.970   0.068
  864SOL     OW 3490   4.248   5.005   3.968
  864SOL    HW1 3491   4.194   4.944   3.909
  864SOL    HW2 3492   4.332   4.958   3.996
  865SOL     OW 3493   1.735   6.291   6.191
  865SOL    HW1 3494   1.652   6.236   6.200
  865SOL    HW2 3495   1.744   6.351   6.270
  866SOL     OW 3496   1.705   2.477   1.887
  866SOL    HW1 3497   1.618   2.453   1.844
  866SOL    HW2 3498   1.757   2.537   1.826
  867SOL     OW 3499   4.027   3.057   0.603
  867SOL    HW1 3500   3.963   2.991   0.562
  867SOL    HW2 3501   4.038   3.037   0.700
  868SOL     OW 3502   5.945   6.950   1.205
  868SOL    HW1 3503   5.850   6.929   1.227
  868SOL    HW2 3504   5.949   0.006   1.146
  869SOL     OW 3505   6.609   5.586   3.084
  869SOL    HW1 3506   6.535   5.529   3.123
  869SOL    HW2 3507   6.592   5.600   2.987
  870SOL     OW 3508   5.334   3.455   0.731
  870SOL    HW1 3509   5.246   3.440   0.685
  870SOL    HW2 3510   5.353   3.553   0.735
  871SOL     OW 3511   5.150   3.785   3.355
  871SOL    HW1 3512   5.196   3.756   3.440
  871SOL    HW2 3513   5.114   3.704   3.308
  872SOL     OW 3514   6.135   4.558   3.862
  872SOL    HW1 3515   6.053   4.549   3.919
  872SOL    HW2 3516   6.125   4.502   3.780
  873SOL     OW 3517   5.716   6.756   3.996
  873SOL    HW1 3518   5.654   6.756   4.075
  873SOL    HW2 3519   5.776   6.836   4.001
  874SOL     OW 3520   1.067   4.805   5.369
  874SOL    HW1 3521   1.157   4.767   5.392
  874SOL    HW2 3522   1.034   4.862   5.444
  875SOL     OW 3523   3.869   2.844   0.523
  875SOL    HW1 3524   3.798   2.898   0.479
  875SOL    HW2 3525   3.832   2.800   0.604
  876SOL     OW 3526   0.310   5.761   3.262
  876SOL    HW1 3527   0.368   5.716   3.330
  876SOL    HW2 3528   0.224   5.790   3.304
  877SOL     OW 3529   3.748   3.847   0.388
  877SOL    HW1 3530   3.720   3.783   0.318
  877SOL    HW2 3531   3.847   3.864   0.380
  878SOL     OW 3532   4.392   6.118   5.454
  878SOL    HW1 3533   4.472   6.058   5.459
  878SOL    HW2 3534   4.353   6.129   5.545
  879SOL     OW 3535   2.955   2.068   1.921
  879SOL    HW1 3536   2.886   2.056   1.850
  879SOL    HW2 3537   2.941   2.157   1.966
  880SOL     OW 3538   3.118   4.226   5.839
  880SOL    HW1 3539   3.037   4.169   5.828
  880SOL    HW2 3540   3.091   4.316   5.874
  881SOL     OW 3541   4.394   4.610   5.441
  881SOL    HW1 3542   4.397   4.516   5.476
  881SOL    HW2 3543   4.441   4.671   5.505
  882SOL     OW 3544   1.303   1.366   4.208
  882SOL    HW1 3545   1.278   1.457   4.176
  882SOL    HW2 3546   1.294   1.300   4.132
  883SOL     OW 3547   4.635   5.447   6.212
  883SOL    HW1 3548   4.660   5.543   6.197
  883SOL    HW2 3549   4.696   5.407   6.281
  884SOL     OW 3550   0.234   3.473   0.514
  884SOL    HW1 3551   0.261   3.481   0.418
  884SOL    HW2 3552   0.172   3.395   0.525
  885SOL     OW 3553   5.043   6.499   0.055
  885SOL    HW1 3554   5.124   6.541   0.014
  885SOL    HW2 3555   5.018   6.417   0.003
  886SOL     OW 3556   3.375   0.359   0.748
  886SOL    HW1 3557   3.368   0.450   0.708
  886SOL    HW2 3558   3.290   0.337   0.795
  887SOL     OW 3559   4.382   0.431   4.480
  887SOL    HW1 3560   4.438   0.428   4.398
  887SOL    HW2 3561   4.374   0.525   4.512
  888SOL     OW 3562   6.049   6.611   3.104
  888SOL    HW1 3563   6.003   6.681   3.159
  888SOL    HW2 3564   6.139   6.592   3.142
  889SOL     OW 3565   1.355   6.478   5.293
  889SOL    HW1 3566   1.271   6.432   5.322
  889SOL    HW2 3567   1.359   6.480   5.193
  890SOL     OW 3568   2.308   5.140   2.047
  890SOL    HW1 3569   2.274   5.147   2.141
  890SOL    HW2 3570   2.382   5.073   2.043
  891SOL     OW 3571   6.690   4.027   1.516
  891SOL    HW1 3572   6.687   3.966   1.595
  891SOL    HW2 3573   6.601   4.026   1.470
  892SOL     OW 3574   4.186   3.879   0.186
  892SOL    HW1 3575   4.104   3.885   0.129
  892SOL    HW2 3576   4.267   3.882   0.129
  893SOL     OW 3577   2.183   0.885   2.242
  893SOL    HW1 3578   2.182   0.983   2.264
  893SOL    HW2 3579   2.274   0.848   2.260
  894SOL     OW 3580   1.408   2.460   4.517
  894SOL    HW1 3581   1.433   2.521   4.593
  894SOL    HW2 3582   1.363   2.513   4.446
  895SOL     OW 3583   1.683   5.633   4.732
  895SOL    HW1 3584   1.671   5.559   4.665
  895SOL    HW2 3585   1.761   5.612   4.791
  896SOL     OW 3586   5.151   0.218   2.206
  896SOL    HW1 3587   5.207   0.157   2.149
  896SOL    HW2 3588   5.180   0.209   2.301
  897SOL     OW 3589   5.733   1.039   0.183
  897SOL    HW1 3590   5.670   1.054   0.106
  897SOL    HW2 3591   5.811   0.986   0.151
  898SOL     OW 3592   4.468   5.684   2.677
  898SOL    HW1 3593   4.484   5.719   2.770
  898SOL    HW2 3594   4.370   5.681   2.659
  899SOL     OW 3595   0.054   4.718   0.182
  899SOL    HW1 3596   0.056   4.813   0.211
  899SOL    HW2 3597   0.134   4.699   0.124
  900SOL     OW 3598   4.993   6.513   1.935
  900SOL    HW1 3599   4.929   6.584   1.962
  900SOL    HW2 3600   5.029   6.534   1.844
  901SOL     OW 3601   0.951   1.018   5.493
  901SOL    HW1 3602   0.961   1.071   5.577
  901SOL    HW2 3603   0.873   0.955   5.502
  902SOL     OW 3604   0.483   2.677   6.209
  902SOL    HW1 3605   0.473   2.610   6.135
  902SOL    HW2 3606   0.446   2.639   6.293
  903SOL     OW 3607   6.756   4.001   6.143
  903SOL    HW1 3608   6.761   3.965   6.049
  903SOL    HW2 3609   6.691   3.947   6.196
  904SOL     OW 3610   1.377   2.049   3.838
  904SOL    HW1 3611   1.472   2.033   3.864
  904SOL    HW2 3612   1.365   2.146   3.814
  905SOL     OW 3613   4.227   3.223   5.994
  905SOL    HW1 3614   4.197   3.216   5.899
  905SOL    HW2 3615   4.235   3.132   6.034
  906SOL     OW 3616   0.428   3.916   5.770
  906SOL    HW1 3617   0.399   3.853   5.698
  906SOL    HW2 3618   0.454   4.003   5.729
  907SOL     OW 3619   5.505   3.244   3.302
  907SOL    HW1 3620   5.556   3.329   3.291
  907SOL    HW2 3621   5.552   3.187   3.370
  908SOL     OW 3622   1.887   6.335   3.739
  908SOL    HW1 3623   1.809   6.387   3.773
  908SOL    HW2 3624   1.867   6.238   3.741
  909SOL     OW 3625   2.296   6.527   1.403
  909SOL    HW1 3626   2.217   6.587   1.416
  909SOL    HW2 3627   2.344   6.554   1.319
  910SOL     OW 3628   2.653   0.212   0.867
  910SOL    HW1 3629   2.588   0.247   0.799
  910SOL    HW2 3630   2.670   0.282   0.936
  911SOL     OW 3631   0.058   5.567   1.034
  911SOL    HW1 3632   7.001   5.624   1.020
  911SOL    HW2 3633   0.080   5.563   1.131
  912SOL     OW 3634   6.617   1.073   4.751
  912SOL    HW1 3635   6.594   1.170   4.759
  912SOL    HW2 3636   6.545   1.018   4.795
  913SOL     OW 3637   2.318   0.167   2.948
  913SOL    HW1 3638   2.294   0.108   2.871
  913SOL    HW2 3639   2.258   0.147   3.025
  914SOL     OW 3640   2.599   5.570   4.997
  914SOL    HW1 3641   2.604   5.558   5.097
  914SOL    HW2 3642   2.504   5.561   4.967
  915SOL     OW 3643   1.502   3.162   0.298
  915SOL    HW1 3644   1.558   3.243   0.311
  915SOL    HW2 3645   1.409   3.181   0.329
  916SOL     OW 3646   1.730   2.828   2.087
  916SOL    HW1 3647   1.645   2.816   2.138
  916SOL    HW2 3648   1.715   2.805   1.991
  917SOL     OW 3649   5.331   0.595   1.381
  917SOL    HW1 3650   5.288   0.525   1.323
  917SOL    HW2 3651   5.409   0.635   1.333
  918SOL     OW 3652   2.520   6.238   6.897
  918SOL    HW1 3653   2.546   6.158   6.844
  918SOL    HW2 3654   2.576   6.316   6.870
  919SOL     OW 3655   6.536   5.760   2.623
  919SOL    HW1 3656   6.591   5.749   2.540
  919SOL    HW2 3657   6.443   5.726   2.605
  920SOL     OW 3658   1.462   6.702   3.331
  920SOL    HW1 3659   1.448   6.791   3.288
  920SOL    HW2 3660   1.380   6.678   3.384
  921SOL     OW 3661   4.524   4.580   4.040
  921SOL    HW1 3662   4.623   4.571   4.028
  921SOL    HW2 3663   4.480   4.587   3.950
  922SOL     OW 3664   3.325   2.718   6.552
  922SOL    HW1 3665   3.407   2.664   6.533
  922SOL    HW2 3666   3.310   2.782   6.476
  923SOL     OW 3667   3.037   5.121   6.393
  923SOL    HW1 3668   3.018   5.091   6.487
  923SOL    HW2 3669   3.069   5.043   6.340
  924SOL     OW 3670   6.100   3.067   1.799
  924SOL    HW1 3671   6.010   3.096   1.829
  924SOL    HW2 3672   6.129   2.986   1.851
  925SOL     OW 3673   6.678   1.913   5.323
  925SOL    HW1 3674   6.708   1.841   5.385
  925SOL    HW2 3675   6.579   1.904   5.308
  926SOL     OW 3676   6.339   0.859   6.851
  926SOL    HW1 3677   6.324   0.857   6.949
  926SOL    HW2 3678   6.433   0.887   6.832
  927SOL     OW 3679   5.271   4.477   3.942
  927SOL    HW1 3680   5.270   4.377   3.947
  927SOL    HW2 3681   5.319   4.506   3.859
  928SOL     OW 3682   1.889   0.373   0.183
  928SOL    HW1 3683   1.879   0.303   0.112
  928SOL    HW2 3684   1.984   0.401   0.189
  929SOL     OW 3685   0.319   1.356   0.633
  929SOL    HW1 3686   0.321   1.455   0.626
  929SOL    HW2 3687   0.365   1.316   0.553
  930SOL     OW 3688   5.729   5.740   4.810
  930SOL    HW1 3689   5.772   5.830   4.814
  930SOL    HW2 3690   5.750   5.689   4.893
  931SOL     OW 3691   5.923   3.724   3.369
  931SOL    HW1 3692   5.887   3.710   3.277
  931SOL    HW2 3693   5.957   3.818   3.377
  932SOL     OW 3694   2.224   6.946   1.963
  932SOL    HW1 3695   2.152   7.006   1.929
  932SOL    HW2 3696   2.207   6.853   1.930
  933SOL     OW 3697   0.969   5.700   2.551
  933SOL    HW1 3698   1.047   5.682   2.490
  933SOL    HW2 3699   0.976   5.793   2.587
  934SOL     OW 3700   2.004   0.571   4.590
  934SOL    HW1 3701   1.934   0.568   4.518
  934SOL    HW2 3702   1.980   0.504   4.661
  935SOL     OW 3703   5.019   3.501   5.239
  935SOL    HW1 3704   4.926   3.521   5.271
  935SOL    HW2 3705   5.019   3.489   5.140
  936SOL     OW 3706   1.606   0.879   6.403
  936SOL    HW1 3707   1.555   0.936   6.468
  936SOL    HW2 3708   1.573   0.784   6.409
  937SOL     OW 3709   4.705   1.804   5.005
  937SOL    HW1 3710   4.618   1.793   5.053
  937SOL    HW2 3711   4.777   1.757   5.056
  938SOL     OW 3712   0.300   5.209   6.518
  938SOL    HW1 3713   0.217   5.232   6.467
  938SOL    HW2 3714   0.338   5.123   6.484
  939SOL     OW 3715   4.947   1.660   4.763
  939SOL    HW1 3716   4.886   1.600   4.712
  939SOL    HW2 3717   4.993   1.608   4.835
  940SOL     OW 3718   0.212   3.119   2.571
  940SOL    HW1 3719   0.293   3.072   2.536
  940SOL    HW2 3720   0.210   3.213   2.538
  941SOL     OW 3721   6.393   0.577   4.305
  941SOL    HW1 3722   6.410   0.501   4.242
  941SOL    HW2 3723   6.391   0.543   4.399
  942SOL     OW 3724   4.803   1.034   4.157
  942SOL    HW1 3725   4.728   0.970   4.173
  942SOL    HW2 3726   4.788   1.082   4.070
  943SOL     OW 3727   1.118   2.725   3.792
  943SOL    HW1 3728   1.032   2.677   3.808
  943SOL    HW2 3729   1.141   2.780   3.873
  944SOL     OW 3730   6.418   3.586   6.126
  944SOL    HW1 3731   6.486   3.569   6.198
  944SOL    HW2 3732   6.329   3.550   6.156
  945SOL     OW 3733   6.870   4.004   5.854
  945SOL    HW1 3734   6.948   4.048   5.897
  945SOL    HW2 3735   6.785   4.038   5.895
  946SOL     OW 3736   5.049   2.491   5.954
  946SOL    HW1 3737   4.989   2.437   6.013
  946SOL    HW2 3738   5.111   2.545   6.011
  947SOL     OW 3739   3.442   2.983   4.511
  947SOL    HW1 3740   3.392   2.934   4.582
  947SOL    HW2 3741   3.516   3.036   4.554
  948SOL     OW 3742   4.235   0.484   0.741
  948SOL    HW1 3743   4.323   0.447   0.709
  948SOL    HW2 3744   4.167   0.474   0.669
  949SOL     OW 3745   6.933   6.133   6.394
  949SOL    HW1 3746   6.994   6.121   6.316
  949SOL    HW2 3747   6.930   6.049   6.448
  950SOL     OW 3748   4.090   5.046   1.671
  950SOL    HW1 3749   4.038   4.970   1.634
  950SOL    HW2 3750   4.151   5.013   1.743
  951SOL     OW 3751   1.415   0.929   2.527
  951SOL    HW1 3752   1.354   0.998   2.566
  951SOL    HW2 3753   1.404   0.843   2.577
  952SOL     OW 3754   5.668   1.840   2.122
  952SOL    HW1 3755   5.610   1.792   2.057
  952SOL    HW2 3756   5.613   1.904   2.176
  953SOL     OW 3757   5.238   6.225   5.119
  953SOL    HW1 3758   5.277   6.308   5.078
  953SOL    HW2 3759   5.143   6.243   5.145
  954SOL     OW 3760   4.967   5.575   0.612
  954SOL    HW1 3761   4.979   5.568   0.513
  954SOL    HW2 3762   5.038   5.633   0.651
  955SOL     OW 3763   6.854   4.882   3.467
  955SOL    HW1 3764   6.849   4.928   3.378
  955SOL    HW2 3765   6.950   4.863   3.488
  956SOL     OW 3766   0.895   1.997   2.072
  956SOL    HW1 3767   0.834   1.994   1.993
  956SOL    HW2 3768   0.952   2.079   2.066
  957SOL     OW 3769   0.913   4.736   4.605
  957SOL    HW1 3770   0.982   4.695   4.664
  957SOL    HW2 3771   0.876   4.819   4.647
  958SOL     OW 3772   4.501   2.562   1.886
  958SOL    HW1 3773   4.437   2.486   1.896
  958SOL    HW2 3774   4.565   2.561   1.963
  959SOL     OW 3775   2.668   4.710   3.110
  959SOL    HW1 3776   2.606   4.690   3.035
  959SOL    HW2 3777   2.656   4.642   3.182
  960SOL     OW 3778   0.107   5.922   3.847
  960SOL    HW1 3779   0.139   5.827   3.848
  960SOL    HW2 3780   0.010   5.924   3.822
  961SOL     OW 3781   5.061   0.122   3.123
  961SOL    HW1 3782   4.986   0.187   3.129
  961SOL    HW2 3783   5.069   0.072   3.209
  962SOL     OW 3784   1.726   1.073   4.190
  962SOL    HW1 3785   1.728   1.167   4.155
  962SOL    HW2 3786   1.687   1.073   4.282
  963SOL     OW 3787   6.465   1.553   5.825
  963SOL    HW1 3788   6.433   1.507   5.908
  963SOL    HW2 3789   6.494   1.485   5.758
  964SOL     OW 3790   6.551   3.655   1.081
  964SOL    HW1 3791   6.555   3.705   0.995
  964SOL    HW2 3792   6.591   3.710   1.154
  965SOL     OW 3793   5.367   2.086   1.093
  965SOL    HW1 3794   5.457   2.043   1.082
  965SOL    HW2 3795   5.305   2.055   1.021
  966SOL     OW 3796   5.683   2.228   2.524
  966SOL    HW1 3797   5.588   2.259   2.534
  966SOL    HW2 3798   5.684   2.138   2.479
  967SOL     OW 3799   2.765   5.026   1.512
  967SOL    HW1 3800   2.775   5.031   1.412
  967SOL    HW2 3801   2.679   4.980   1.534
  968SOL     OW 3802   4.534   2.480   2.466
  968SOL    HW1 3803   4.589   2.459   2.546
  968SOL    HW2 3804   4.562   2.569   2.429
  969SOL     OW 3805   3.952   6.165   6.779
  969SOL    HW1 3806   3.894   6.084   6.770
  969SOL    HW2 3807   4.023   6.163   6.708
  970SOL     OW 3808   4.580   1.357   4.701
  970SOL    HW1 3809   4.513   1.291   4.734
  970SOL    HW2 3810   4.543   1.450   4.708
  971SOL     OW 3811   0.100   2.085   2.828
  971SOL    HW1 3812   0.036   2.051   2.898
  971SOL    HW2 3813   0.058   2.078   2.738
  972SOL     OW 3814   5.239   4.249   1.312
  972SOL    HW1 3815   5.225   4.216   1.219
  972SOL    HW2 3816   5.152   4.254   1.360
  973SOL     OW 3817   6.982   4.325   0.159
  973SOL    HW1 3818   6.933   4.346   0.074
  973SOL    HW2 3819   0.045   4.282   0.137
  974SOL     OW 3820   5.005   0.529   2.244
  974SOL    HW1 3821   4.924   0.513   2.300
  974SOL    HW2 3822   5.043   0.442   2.215
  975SOL     OW 3823   1.984   6.073   6.119
  975SOL    HW1 3824   1.914   6.038   6.058
  975SOL    HW2 3825   2.069   6.087   6.068
  976SOL     OW 3826   6.591   3.055   2.212
  976SOL    HW1 3827   6.514   3.004   2.251
  976SOL    HW2 3828   6.673   3.039   2.267
  977SOL     OW 3829   1.885   0.994   3.806
  977SOL    HW1 3830   1.809   1.052   3.779
  977SOL    HW2 3831   1.851   0.904   3.832
  978SOL     OW 3832   4.411   4.348   5.531
  978SOL    HW1 3833   4.369   4.305   5.611
  978SOL    HW2 3834   4.366   4.315   5.448
  979SOL     OW 3835   6.918   1.880   1.459
  979SOL    HW1 3836   6.843   1.815   1.472
  979SOL    HW2 3837   6.959   1.866   1.369
  980SOL     OW 3838   4.003   2.153   3.965
  980SOL    HW1 3839   4.097   2.137   3.995
  980SOL    HW2 3840   4.001   2.230   3.901
  981SOL     OW 3841   1.713   1.554   4.810
  981SOL    HW1 3842   1.701   1.628   4.744
  981SOL    HW2 3843   1.799   1.568   4.861
  982SOL     OW 3844   2.968   1.773   2.893
  982SOL    HW1 3845   3.057   1.769   2.847
  982SOL    HW2 3846   2.975   1.830   2.974
  983SOL     OW 3847   5.701   2.494   3.833
  983SOL    HW1 3848   5.752   2.448   3.759
  983SOL    HW2 3849   5.632   2.554   3.793
  984SOL     OW 3850   2.715   1.242   3.784
  984SOL    HW1 3851   2.631   1.188   3.780
  984SOL    HW2 3852   2.699   1.325   3.837
  985SOL     OW 3853   4.864   4.703   6.578
  985SOL    HW1 3854   4.823   4.616   6.606
  985SOL    HW2 3855   4.932   4.687   6.507
  986SOL     OW 3856   5.209   4.300   0.401
  986SOL    HW1 3857   5.201   4.201   0.386
  986SOL    HW2 3858   5.289   4.318   0.458
  987SOL     OW 3859   4.763   6.840   1.779
  987SOL    HW1 3860   4.781   6.791   1.864
  987SOL    HW2 3861   4.787   6.936   1.790
  988SOL     OW 3862   3.604   2.953   2.400
  988SOL    HW1 3863   3.529   2.942   2.466
  988SOL    HW2 3864   3.622   2.866   2.356
  989SOL     OW 3865   6.397   1.295   5.587
  989SOL    HW1 3866   6.383   1.390   5.614
  989SOL    HW2 3867   6.494   1.273   5.592
  990SOL     OW 3868   4.454   1.187   1.965
  990SOL    HW1 3869   4.506   1.132   2.031
  990SOL    HW2 3870   4.426   1.130   1.888
  991SOL     OW 3871   1.500   2.603   5.484
  991SOL    HW1 3872   1.598   2.614   5.468
  991SOL    HW2 3873   1.461   2.543   5.414
  992SOL     OW 3874   0.925   3.112   1.462
  992SOL    HW1 3875   0.927   3.102   1.362
  992SOL    HW2 3876   0.845   3.064   1.498
  993SOL     OW 3877   1.085   4.554   1.801
  993SOL    HW1 3878   1.069   4.465   1.844
  993SOL    HW2 3879   1.113   4.540   1.706
  994SOL     OW 3880   3.221   3.992   2.844
  994SOL    HW1 3881   3.293   3.951   2.788
  994SOL    HW2 3882   3.136   3.997   2.792
  995SOL     OW 3883   3.794   2.684   6.426
  995SOL    HW1 3884   3.851   2.726   6.355
  995SOL    HW2 3885   3.820   2.588   6.437
  996SOL     OW 3886   1.962   4.690   4.476
  996SOL    HW1 3887   1.876   4.645   4.455
  996SOL    HW2 3888   2.038   4.626   4.465
  997SOL     OW 3889   0.073   0.773   2.761
  997SOL    HW1 3890   0.032   0.853   2.717
  997SOL    HW2 3891   0.028   0.755   2.848
  998SOL     OW 3892   4.218   6.727   4.193
  998SOL    HW1 3893   4.142   6.744   4.256
  998SOL    HW2 3894   4.294   6.687   4.243
  999SOL     OW 3895   5.260   4.846   1.982
  999SOL    HW1 3896   5.255   4.933   2.031
  999SOL    HW2 3897   5.174   4.829   1.934
 1000SOL     OW 3898   1.002   0.872   2.126
 1000SOL    HW1 3899   0.967   0.960   2.158
 1000SOL    HW2 3900   1.086   0.849   2.174
 1001SOL     OW 3901   5.718   0.126   0.867
 1001SOL    HW1 3902   5.760   0.204   0.914
 1001SOL    HW2 3903   5.787   0.077   0.815
 1002SOL     OW 3904   6.516   2.206   6.727
 1002SOL    HW1 3905   6.577   2.275   6.766
 1002SOL    HW2 3906   6.436   2.196   6.787
 1003SOL     OW 3907   2.320   6.359   1.623
 1003SOL    HW1 3908   2.377   6.421   1.676
 1003SOL    HW2 3909   2.308   6.395   1.530
 1004SOL     OW 3910   0.067   0.107   1.500
 1004SOL    HW1 3911   0.128   0.129   1.424
 1004SOL    HW2 3912   0.027   0.016   1.485
 1005SOL     OW 3913   0.483   1.737   3.150
 1005SOL    HW1 3914   0.497   1.799   3.072
 1005SOL    HW2 3915   0.412   1.671   3.127
 1006SOL     OW 3916   1.811   4.989   0.883
 1006SOL    HW1 3917   1.723   5.006   0.926
 1006SOL    HW2 3918   1.811   4.897   0.842
 1007SOL     OW 3919   5.284   0.143   4.147
 1007SOL    HW1 3920   5.349   0.143   4.071
 1007SOL    HW2 3921   5.226   0.062   4.141
 1008SOL     OW 3922   2.175   3.125   5.164
 1008SOL    HW1 3923   2.115   3.050   5.138
 1008SOL    HW2 3924   2.268   3.106   5.130
 1009SOL     OW 3925   0.040   6.157   4.514
 1009SOL    HW1 3926   0.084   6.163   4.604
 1009SOL    HW2 3927   0.087   6.089   4.458
 1010SOL     OW 3928   3.474   2.130   5.970
 1010SOL    HW1 3929   3.510   2.124   6.063
 1010SOL    HW2 3930   3.418   2.213   5.962
 1011SOL     OW 3931   2.606   5.115   2.159
 1011SOL    HW1 3932   2.555   5.036   2.191
 1011SOL    HW2 3933   2.558   5.199   2.185
 1012SOL     OW 3934   6.393   0.061   0.490
 1012SOL    HW1 3935   6.395   0.161   0.493
 1012SOL    HW2 3936   6.477   0.025   0.531
 1013SOL     OW 3937   1.170   1.671   6.170
 1013SOL    HW1 3938   1.192   1.768   6.172
 1013SOL    HW2 3939   1.213   1.629   6.090
 1014SOL     OW 3940   4.753   6.139   0.000
 1014SOL    HW1 3941   4.825   6.188   6.976
 1014SOL    HW2 3942   4.666   6.187   7.013
 1015SOL     OW 3943   2.124   6.440   5.353
 1015SOL    HW1 3944   2.160   6.532   5.365
 1015SOL    HW2 3945   2.032   6.446   5.314
 1016SOL     OW 3946   3.364   3.405   0.248
 1016SOL    HW1 3947   3.281   3.461   0.251
 1016SOL    HW2 3948   3.431   3.440   0.313
 1017SOL     OW 3949   4.433   2.720   1.214
 1017SOL    HW1 3950   4.334   2.720   1.234
 1017SOL    HW2 3951   4.483   2.735   1.299
 1018SOL     OW 3952   1.521   2.988   4.516
 1018SOL    HW1 3953   1.563   3.049   4.584
 1018SOL    HW2 3954   1.433   2.956   4.549
 1019SOL     OW 3955   0.513   0.302   6.968
 1019SOL    HW1 3956   0.433   0.258   6.928
 1019SOL    HW2 3957   0.588   0.236   6.975
 1020SOL     OW 3958   0.788   6.486   0.947
 1020SOL    HW1 3959   0.876   6.493   0.994
 1020SOL    HW2 3960   0.803   6.456   0.853
 1021SOL     OW 3961   5.715   1.243   1.252
 1021SOL    HW1 3962   5.753   1.155   1.280
 1021SOL    HW2 3963   5.769   1.280   1.176
 1022SOL     OW 3964   3.954   4.489   5.873
 1022SOL    HW1 3965   3.935   4.498   5.775
 1022SOL    HW2 3966   4.020   4.559   5.901
 1023SOL     OW 3967   0.681   6.908   1.912
 1023SOL    HW1 3968   0.740   6.857   1.974
 1023SOL    HW2 3969   0.644   6.988   1.959
 1024SOL     OW 3970   6.147   3.585   3.969
 1024SOL    HW1 3971   6.222   3.576   4.034
 1024SOL    HW2 3972   6.132   3.497   3.923
 1025SOL     OW 3973   3.135   3.422   0.728
 1025SOL    HW1 3974   3.132   3.323   0.742
 1025SOL    HW2 3975   3.182   3.442   0.642
 1026SOL     OW 3976   2.475   2.868   1.722
 1026SOL    HW1 3977   2.450   2.959   1.689
 1026SOL    HW2 3978   2.409   2.838   1.790
 1027SOL     OW 3979   2.932   6.156   0.948
 1027SOL    HW1 3980   2.965   6.219   1.017
 1027SOL    HW2 3981   2.836   6.134   0.965
 1028SOL     OW 3982   3.770   5.891   0.094
 1028SOL    HW1 3983   3.839   5.963   0.085
 1028SOL    HW2 3984   3.679   5.932   0.091
 1029SOL     OW 3985   1.514   0.323   0.026
 1029SOL    HW1 3986   1.433   0.305   6.995
 1029SOL    HW2 3987   1.534   0.242   0.082
 1030SOL     OW 3988   3.731   4.026   1.523
 1030SOL    HW1 3989   3.646   3.994   1.482
 1030SOL    HW2 3990   3.801   3.955   1.516
 1031SOL     OW 3991   4.982   5.449   0.952
 1031SOL    HW1 3992   5.029   5.367   0.920
 1031SOL    HW2 3993   4.906   5.470   0.891
 1032SOL     OW 3994   1.745   1.828   4.734
 1032SOL    HW1 3995   1.832   1.811   4.781
 1032SOL    HW2 3996   1.676   1.854   4.802
 1033SOL     OW 3997   1.421   6.260   1.097
 1033SOL    HW1 3998   1.474   6.302   1.171
 1033SOL    HW2 3999   1.459   6.287   1.009
 1034SOL     OW 4000   0.623   5.463   4.534
 1034SOL    HW1 4001   0.534   5.446   4.576
 1034SOL    HW2 4002   0.617   5.543   4.475
 1035SOL     OW 4003   0.983   1.000   3.215
 1035SOL    HW1 4004   0.942   1.088   3.190
 1035SOL    HW2 4005   1.043   1.012   3.293
 1036SOL     OW 4006   2.792   0.852   2.137
 1036SOL    HW1 4007   2.731   0.802   2.075
 1036SOL    HW2 4008   2.788   0.950   2.116
 1037SOL     OW 4009   2.170   0.799   1.041
 1037SOL    HW1 4010   2.117   0.843   0.969
 1037SOL    HW2 4011   2.216   0.869   1.096
 1038SOL     OW 4012   1.135   0.199   5.507
 1038SOL    HW1 4013   1.184   0.186   5.421
 1038SOL    HW2 4014   1.036   0.202   5.489
 1039SOL     OW 4015   2.872   2.809   5.837
 1039SOL    HW1 4016   2.834   2.870   5.767
 1039SOL    HW2 4017   2.798   2.776   5.895
 1040SOL     OW 4018   4.880   2.895   2.296
 1040SOL    HW1 4019   4.828   2.955   2.235
 1040SOL    HW2 4020   4.971   2.878   2.258
 1041SOL     OW 4021   6.566   0.046   4.359
 1041SOL    HW1 4022   6.549   6.997   4.293
 1041SOL    HW2 4023   6.482   0.098   4.373
 1042SOL     OW 4024   3.716   4.894   2.224
 1042SOL    HW1 4025   3.687   4.840   2.302
 1042SOL    HW2 4026   3.679   4.855   2.140
 1043SOL     OW 4027   4.180   1.229   5.123
 1043SOL    HW1 4028   4.201   1.324   5.146
 1043SOL    HW2 4029   4.260   1.187   5.080
 1044SOL     OW 4030   4.998   4.592   2.393
 1044SOL    HW1 4031   5.058   4.600   2.473
 1044SOL    HW2 4032   4.905   4.617   2.418
 1045SOL     OW 4033   3.007   5.839   2.671
 1045SOL    HW1 4034   2.961   5.828   2.759
 1045SOL    HW2 4035   2.986   5.760   2.613
 1046SOL     OW 4036   1.365   6.712   0.620
 1046SOL    HW1 4037   1.429   6.784   0.647
 1046SOL    HW2 4038   1.314   6.743   0.539
 1047SOL     OW 4039   1.209   6.058   2.383
 1047SOL    HW1 4040   1.258   6.114   2.450
 1047SOL    HW2 4041   1.147   5.996   2.431
 1048SOL     OW 4042   5.044   5.995   5.595
 1048SOL    HW1 4043   4.995   6.079   5.621
 1048SOL    HW2 4044   5.012   5.919   5.651
 1049SOL     OW 4045   6.761   5.016   3.758
 1049SOL    HW1 4046   6.723   5.104   3.729
 1049SOL    HW2 4047   6.751   5.006   3.857
 1050SOL     OW 4048   3.425   5.558   0.357
 1050SOL    HW1 4049   3.459   5.565   0.450
 1050SOL    HW2 4050   3.346   5.619   0.346
 1051SOL     OW 4051   2.632   5.237   1.161
 1051SOL    HW1 4052   2.582   5.280   1.235
 1051SOL    HW2 4053   2.666   5.306   1.097
 1052SOL     OW 4054   3.737   0.173   3.914
 1052SOL    HW1 4055   3.803   0.142   3.982
 1052SOL    HW2 4056   3.685   0.095   3.879
 1053SOL     OW 4057   5.053   5.275   3.704
 1053SOL    HW1 4058   5.070   5.357   3.650
 1053SOL    HW2 4059   4.960   5.242   3.687
 1054SOL     OW 4060   2.361   3.949   5.557
 1054SOL    HW1 4061   2.318   4.033   5.589
 1054SOL    HW2 4062   2.449   3.969   5.515
 1055SOL     OW 4063   5.837   6.387   4.147
 1055SOL    HW1 4064   5.843   6.324   4.069
 1055SOL    HW2 4065   5.891   6.469   4.127
 1056SOL     OW 4066   1.424   5.274   5.995
 1056SOL    HW1 4067   1.346   5.247   6.051
 1056SOL    HW2 4068   1.495   5.203   6.001
 1057SOL     OW 4069   3.787   3.597   2.865
 1057SOL    HW1 4070   3.787   3.520   2.802
 1057SOL    HW2 4071   3.853   3.581   2.938
 1058SOL     OW 4072   5.022   1.651   2.101
 1058SOL    HW1 4073   5.064   1.709   2.171
 1058SOL    HW2 4074   5.087   1.638   2.026
 1059SOL     OW 4075   2.204   7.000   1.527
 1059SOL    HW1 4076   2.248   6.997   1.437
 1059SOL    HW2 4077   2.104   7.007   1.515
 1060SOL     OW 4078   0.255   3.739   4.143
 1060SOL    HW1 4079   0.206   3.789   4.072
 1060SOL    HW2 4080   0.256   3.792   4.227
 1061SOL     OW 4081   5.327   3.788   1.725
 1061SOL    HW1 4082   5.356   3.811   1.818
 1061SOL    HW2 4083   5.256   3.852   1.695
 1062SOL     OW 4084   5.950   4.525   5.741
 1062SOL    HW1 4085   5.984   4.572   5.659
 1062SOL    HW2 4086   5.976   4.429   5.738
 1063SOL     OW 4087   1.631   4.742   1.872
 1063SOL    HW1 4088   1.539   4.706   1.889
 1063SOL    HW2 4089   1.698   4.670   1.886
 1064SOL     OW 4090   1.409   4.079   2.385
 1064SOL    HW1 4091   1.328   4.110   2.336
 1064SOL    HW2 4092   1.491   4.105   2.333
 1065SOL     OW 4093   4.801   0.595   4.239
 1065SOL    HW1 4094   4.832   0.579   4.145
 1065SOL    HW2 4095   4.862   0.662   4.282
 1066SOL     OW 4096   5.170   0.638   4.097
 1066SOL    HW1 4097   5.146   0.719   4.150
 1066SOL    HW2 4098   5.173   0.558   4.157
 1067SOL     OW 4099   1.206   3.208   0.266
 1067SOL    HW1 4100   1.188   3.113   0.240
 1067SOL    HW2 4101   1.124   3.263   0.250
 1068SOL     OW 4102   4.879   4.653   2.762
 1068SOL    HW1 4103   4.901   4.750   2.750
 1068SOL    HW2 4104   4.818   4.623   2.689
 1069SOL     OW 4105   4.964   5.180   1.198
 1069SOL    HW1 4106   4.888   5.116   1.195
 1069SOL    HW2 4107   5.044   5.136   1.238
 1070SOL     OW 4108   1.320   0.997   1.560
 1070SOL    HW1 4109   1.339   0.915   1.505
 1070SOL    HW2 4110   1.403   1.025   1.607
 1071SOL     OW 4111   2.937   6.453   3.608
 1071SOL    HW1 4112   2.850   6.426   3.567
 1071SOL    HW2 4113   2.946   6.409   3.697
 1072SOL     OW 4114   1.801   6.265   1.047
 1072SOL    HW1 4115   1.860   6.315   1.111
 1072SOL    HW2 4116   1.804   6.168   1.068
 1073SOL     OW 4117   3.628   6.589   2.607
 1073SOL    HW1 4118   3.634   6.557   2.702
 1073SOL    HW2 4119   3.686   6.532   2.549
 1074SOL     OW 4120   2.828   5.055   0.531
 1074SOL    HW1 4121   2.898   5.000   0.576
 1074SOL    HW2 4122   2.852   5.068   0.435
 1075SOL     OW 4123   4.371   6.563   3.565
 1075SOL    HW1 4124   4.293   6.522   3.613
 1075SOL    HW2 4125   4.453   6.510   3.583
 1076SOL     OW 4126   0.083   4.362   5.124
 1076SOL    HW1 4127   0.039   4.297   5.187
 1076SOL    HW2 4128   0.160   4.318   5.079
 1077SOL     OW 4129   5.879   0.427   0.564
 1077SOL    HW1 4130   5.795   0.378   0.545
 1077SOL    HW2 4131   5.956   0.381   0.520
 1078SOL     OW 4132   1.217   1.109   2.576
 1078SOL    HW1 4133   1.145   1.110   2.646
 1078SOL    HW2 4134   1.193   1.171   2.502
 1079SOL     OW 4135   1.834   6.140   2.544
 1079SOL    HW1 4136   1.761   6.209   2.540
 1079SOL    HW2 4137   1.914   6.178   2.590
 1080SOL     OW 4138   1.796   4.654   3.615
 1080SOL    HW1 4139   1.861   4.598   3.666
 1080SOL    HW2 4140   1.751   4.717   3.677
 1081SOL     OW 4141   6.907   6.817   5.777
 1081SOL    HW1 4142   7.006   6.829   5.786
 1081SOL    HW2 4143   6.866   6.808   5.868
 1082SOL     OW 4144   3.376   1.670   6.761
 1082SOL    HW1 4145   3.448   1.604   6.741
 1082SOL    HW2 4146   3.418   1.758   6.786
 1083SOL     OW 4147   4.060   4.389   1.337
 1083SOL    HW1 4148   3.969   4.360   1.367
 1083SOL    HW2 4149   4.106   4.314   1.291
 1084SOL     OW 4150   6.679   6.083   1.196
 1084SOL    HW1 4151   6.740   6.014   1.156
 1084SOL    HW2 4152   6.731   6.143   1.257
 1085SOL     OW 4153   1.169   4.164   3.528
 1085SOL    HW1 4154   1.073   4.153   3.503
 1085SOL    HW2 4155   1.215   4.220   3.460
 1086SOL     OW 4156   6.771   5.749   2.457
 1086SOL    HW1 4157   6.864   5.719   2.480
 1086SOL    HW2 4158   6.775   5.832   2.400
 1087SOL     OW 4159   6.178   3.497   6.309
 1087SOL    HW1 4160   6.080   3.478   6.299
 1087SOL    HW2 4161   6.191   3.590   6.343
 1088SOL     OW 4162   6.027   4.681   3.577
 1088SOL    HW1 4163   5.987   4.735   3.651
 1088SOL    HW2 4164   5.983   4.707   3.490
 1089SOL     OW 4165   1.163   0.076   4.366
 1089SOL    HW1 4166   1.184   0.088   4.463
 1089SOL    HW2 4167   1.164   0.166   4.321
 1090SOL     OW 4168   2.016   1.600   3.736
 1090SOL    HW1 4169   1.990   1.609   3.639
 1090SOL    HW2 4170   2.112   1.625   3.748
 1091SOL     OW 4171   1.999   2.916   5.122
 1091SOL    HW1 4172   2.019   2.838   5.182
 1091SOL    HW2 4173   1.918   2.896   5.067
 1092SOL     OW 4174   2.126   3.562   0.530
 1092SOL    HW1 4175   2.217   3.589   0.559
 1092SOL    HW2 4176   2.106   3.602   0.440
 1093SOL     OW 4177   2.132   1.952   2.385
 1093SOL    HW1 4178   2.142   2.042   2.427
 1093SOL    HW2 4179   2.174   1.952   2.294
 1094SOL     OW 4180   1.356   6.198   3.388
 1094SOL    HW1 4181   1.258   6.207   3.407
 1094SOL    HW2 4182   1.408   6.239   3.462
 1095SOL     OW 4183   0.098   2.402   5.605
 1095SOL    HW1 4184   0.136   2.457   5.680
 1095SOL    HW2 4185   0.080   2.461   5.527
 1096SOL     OW 4186   3.411   4.540   1.670
 1096SOL    HW1 4187   3.485   4.567   1.730
 1096SOL    HW2 4188   3.435   4.456   1.622
 1097SOL     OW 4189   1.752   3.835   4.187
 1097SOL    HW1 4190   1.791   3.782   4.263
 1097SOL    HW2 4191   1.802   3.921   4.177
 1098SOL     OW 4192   5.510   3.327   0.577
 1098SOL    HW1 4193   5.438   3.365   0.635
 1098SOL    HW2 4194   5.475   3.245   0.531
 1099SOL     OW 4195   3.757   1.385   5.151
 1099SOL    HW1 4196   3.802   1.407   5.065
 1099SOL    HW2 4197   3.821   1.335   5.210
 1100SOL     OW 4198   3.043   1.698   0.026
 1100SOL    HW1 4199   3.076   1.751   0.104
 1100SOL    HW2 4200   2.944   1.684   0.035
 1101SOL     OW 4201   6.337   2.429   7.024
 1101SOL    HW1 4202   6.347   2.340   6.980
 1101SOL    HW2 4203   6.426   2.476   0.002
 1102SOL     OW 4204   0.811   5.961   3.841
 1102SOL    HW1 4205   0.743   5.899   3.879
 1102SOL    HW2 4206   0.788   5.983   3.746
 1103SOL     OW 4207   2.822   1.282   0.559
 1103SOL    HW1 4208   2.791   1.188   0.575
 1103SOL    HW2 4209   2.862   1.288   0.468
 1104SOL     OW 4210   2.129   3.560   5.353
 1104SOL    HW1 4211   2.103   3.649   5.392
 1104SOL    HW2 4212   2.228   3.553   5.349
 1105SOL     OW 4213   5.989   3.377   4.795
 1105SOL    HW1 4214   5.940   3.463   4.801
 1105SOL    HW2 4215   5.988   3.344   4.701
 1106SOL     OW 4216   0.455   2.167   0.118
 1106SOL    HW1 4217   0.429   2.202   0.208
 1106SOL    HW2 4218   0.401   2.213   0.048
 1107SOL     OW 4219   1.559   0.615   6.411
 1107SOL    HW1 4220   1.566   0.542   6.342
 1107SOL    HW2 4221   1.552   0.574   6.502
 1108SOL     OW 4222   3.062   0.511   6.153
 1108SOL    HW1 4223   3.153   0.551   6.145
 1108SOL    HW2 4224   3.020   0.506   6.062
 1109SOL     OW 4225   4.190   6.530   4.961
 1109SOL    HW1 4226   4.119   6.600   4.966
 1109SOL    HW2 4227   4.162   6.450   5.014
 1110SOL     OW 4228   2.549   1.481   2.774
 1110SOL    HW1 4229   2.593   1.398   2.810
 1110SOL    HW2 4230   2.488   1.456   2.699
 1111SOL     OW 4231   5.364   5.538   0.074
 1111SOL    HW1 4232   5.410   5.475   0.136
 1111SOL    HW2 4233   5.394   5.522   7.004
 1112SOL     OW 4234   6.274   1.103   2.469
 1112SOL    HW1 4235   6.189   1.131   2.423
 1112SOL    HW2 4236   6.285   1.158   2.552
 1113SOL     OW 4237   0.509   3.500   2.996
 1113SOL    HW1 4238   0.473   3.591   2.978
 1113SOL    HW2 4239   0.468   3.435   2.933
 1114SOL     OW 4240   4.570   1.448   6.536
 1114SOL    HW1 4241   4.497   1.493   6.587
 1114SOL    HW2 4242   4.597   1.504   6.458
 1115SOL     OW 4243   4.113   3.104   0.085
 1115SOL    HW1 4244   4.023   3.091   0.043
 1115SOL    HW2 4245   4.103   3.101   0.185
 1116SOL     OW 4246   5.409   5.597   5.025
 1116SOL    HW1 4247   5.442   5.664   5.093
 1116SOL    HW2 4248   5.487   5.565   4.971
 1117SOL     OW 4249   2.115   2.914   1.462
 1117SOL    HW1 4250   2.204   2.955   1.443
 1117SOL    HW2 4251   2.100   2.911   1.561
 1118SOL     OW 4252   2.213   4.287   1.605
 1118SOL    HW1 4253   2.246   4.329   1.690
 1118SOL    HW2 4254   2.145   4.347   1.563
 1119SOL     OW 4255   4.704   4.472   1.149
 1119SOL    HW1 4256   4.687   4.513   1.239
 1119SOL    HW2 4257   4.619   4.434   1.113
 1120SOL     OW 4258   5.391   6.888   5.501
 1120SOL    HW1 4259   5.360   6.796   5.525
 1120SOL    HW2 4260   5.346   6.918   5.417
 1121SOL     OW 4261   5.492   4.489   2.314
 1121SOL    HW1 4262   5.522   4.561   2.376
 1121SOL    HW2 4263   5.496   4.401   2.362
 1122SOL     OW 4264   4.551   2.800   6.307
 1122SOL    HW1 4265   4.507   2.712   6.290
 1122SOL    HW2 4266   4.543   2.858   6.226
 1123SOL     OW 4267   5.370   1.576   2.800
 1123SOL    HW1 4268   5.302   1.521   2.751
 1123SOL    HW2 4269   5.402   1.525   2.880
 1124SOL     OW 4270   6.049   4.202   5.285
 1124SOL    HW1 4271   6.053   4.130   5.354
 1124SOL    HW2 4272   6.141   4.234   5.265
 1125SOL     OW 4273   2.721   1.439   5.364
 1125SOL    HW1 4274   2.692   1.450   5.269
 1125SOL    HW2 4275   2.727   1.342   5.387
 1126SOL     OW 4276   5.447   6.496   0.647
 1126SOL    HW1 4277   5.401   6.460   0.566
 1126SOL    HW2 4278   5.476   6.590   0.631
 1127SOL     OW 4279   4.600   5.516   5.231
 1127SOL    HW1 4280   4.619   5.436   5.174
 1127SOL    HW2 4281   4.501   5.526   5.243
 1128SOL     OW 4282   5.787   2.408   5.060
 1128SOL    HW1 4283   5.702   2.371   5.021
 1128SOL    HW2 4284   5.859   2.339   5.056
 1129SOL     OW 4285   3.386   0.366   6.637
 1129SOL    HW1 4286   3.323   0.401   6.707
 1129SOL    HW2 4287   3.468   0.330   6.681
 1130SOL     OW 4288   1.604   4.383   1.018
 1130SOL    HW1 4289   1.670   4.403   0.945
 1130SOL    HW2 4290   1.641   4.314   1.079
 1131SOL     OW 4291   0.378   6.247   6.052
 1131SOL    HW1 4292   0.383   6.284   6.145
 1131SOL    HW2 4293   0.392   6.148   6.055
 1132SOL     OW 4294   5.654   0.299   0.457
 1132SOL    HW1 4295   5.574   0.282   0.515
 1132SOL    HW2 4296   5.625   0.302   0.361
 1133SOL     OW 4297   1.010   1.501   0.570
 1133SOL    HW1 4298   0.924   1.545   0.595
 1133SOL    HW2 4299   1.069   1.568   0.524
 1134SOL     OW 4300   5.030   1.608   1.349
 1134SOL    HW1 4301   4.965   1.626   1.423
 1134SOL    HW2 4302   5.007   1.663   1.270
 1135SOL     OW 4303   2.460   1.148   2.328
 1135SOL    HW1 4304   2.443   1.060   2.372
 1135SOL    HW2 4305   2.519   1.135   2.248
 1136SOL     OW 4306   3.723   5.494   4.867
 1136SOL    HW1 4307   3.785   5.564   4.901
 1136SOL    HW2 4308   3.710   5.506   4.768
 1137SOL     OW 4309   1.531   1.825   6.527
 1137SOL    HW1 4310   1.566   1.843   6.435
 1137SOL    HW2 4311   1.512   1.912   6.572
 1138SOL     OW 4312   0.312   1.545   6.379
 1138SOL    HW1 4313   0.374   1.473   6.346
 1138SOL    HW2 4314   0.220   1.529   6.343
 1139SOL     OW 4315   3.040   5.944   1.361
 1139SOL    HW1 4316   3.134   5.925   1.388
 1139SOL    HW2 4317   3.034   5.945   1.261
 1140SOL     OW 4318   3.377   1.041   1.808
 1140SOL    HW1 4319   3.442   1.084   1.870
 1140SOL    HW2 4320   3.297   1.101   1.796
 1141SOL     OW 4321   6.570   6.496   6.945
 1141SOL    HW1 4322   6.657   6.448   6.938
 1141SOL    HW2 4323   6.586   6.594   6.939
 1142SOL     OW 4324   3.725   0.408   4.290
 1142SOL    HW1 4325   3.644   0.350   4.282
 1142SOL    HW2 4326   3.802   0.354   4.323
 1143SOL     OW 4327   2.126   3.151   2.375
 1143SOL    HW1 4328   2.102   3.212   2.299
 1143SOL    HW2 4329   2.151   3.206   2.454
 1144SOL     OW 4330   6.273   4.331   5.520
 1144SOL    HW1 4331   6.318   4.415   5.550
 1144SOL    HW2 4332   6.246   4.340   5.424
 1145SOL     OW 4333   0.501   4.529   2.165
 1145SOL    HW1 4334   0.587   4.575   2.189
 1145SOL    HW2 4335   0.448   4.511   2.248
 1146SOL     OW 4336   5.882   0.929   1.556
 1146SOL    HW1 4337   5.825   0.861   1.602
 1146SOL    HW2 4338   5.928   0.986   1.624
 1147SOL     OW 4339   1.739   4.390   0.747
 1147SOL    HW1 4340   1.655   4.430   0.709
 1147SOL    HW2 4341   1.794   4.351   0.674
 1148SOL     OW 4342   4.609   0.004   6.689
 1148SOL    HW1 4343   4.627   7.009   6.592
 1148SOL    HW2 4344   4.548   6.958   6.726
 1149SOL     OW 4345   6.411   3.922   3.246
 1149SOL    HW1 4346   6.384   3.833   3.283
 1149SOL    HW2 4347   6.444   3.911   3.153
 1150SOL     OW 4348   2.904   4.302   0.995
 1150SOL    HW1 4349   2.840   4.276   0.922
 1150SOL    HW2 4350   2.992   4.326   0.954
 1151SOL     OW 4351   4.580   5.414   6.927
 1151SOL    HW1 4352   4.655   5.368   6.881
 1151SOL    HW2 4353   4.586   5.397   0.002
 1152SOL     OW 4354   0.508   5.681   5.693
 1152SOL    HW1 4355   0.569   5.603   5.709
 1152SOL    HW2 4356   0.498   5.696   5.595
 1153SOL     OW 4357   2.096   6.984   2.284
 1153SOL    HW1 4358   2.012   6.947   2.245
 1153SOL    HW2 4359   2.081   0.054   2.312
 1154SOL     OW 4360   0.554   3.760   1.930
 1154SOL    HW1 4361   0.635   3.785   1.983
 1154SOL    HW2 4362   0.482   3.827   1.946
 1155SOL     OW 4363   2.899   4.926   6.912
 1155SOL    HW1 4364   2.918   5.024   6.908
 1155SOL    HW2 4365   2.983   4.876   6.931
 1156SOL     OW 4366   1.925   0.835   4.904
 1156SOL    HW1 4367   1.849   0.875   4.955
 1156SOL    HW2 4368   1.975   0.772   4.964
 1157SOL     OW 4369   6.383   1.230   5.064
 1157SOL    HW1 4370   6.325   1.265   4.990
 1157SOL    HW2 4371   6.348   1.260   5.152
 1158SOL     OW 4372   0.302   5.660   5.861
 1158SOL    HW1 4373   0.218   5.627   5.819
 1158SOL    HW2 4374   0.380   5.639   5.802
 1159SOL     OW 4375   5.092   0.023   3.398
 1159SOL    HW1 4376   5.015   0.039   3.459
 1159SOL    HW2 4377   5.090   6.953   3.364
 1160SOL     OW 4378   3.699   3.299   1.481
 1160SOL    HW1 4379   3.632   3.245   1.430
 1160SOL    HW2 4380   3.662   3.321   1.572
 1161SOL     OW 4381   5.000   0.634   5.932
 1161SOL    HW1 4382   4.981   0.725   5.970
 1161SOL    HW2 4383   5.052   0.580   5.998
 1162SOL     OW 4384   3.495   1.956   0.238
 1162SOL    HW1 4385   3.527   1.881   0.296
 1162SOL    HW2 4386   3.573   1.999   0.193
 1163SOL     OW 4387   6.452   3.310   1.627
 1163SOL    HW1 4388   6.354   3.298   1.636
 1163SOL    HW2 4389   6.500   3.233   1.669
 1164SOL     OW 4390   5.816   2.660   4.533
 1164SOL    HW1 4391   5.765   2.609   4.464
 1164SOL    HW2 4392   5.865   2.735   4.489
 1165SOL     OW 4393   1.863   4.293   4.634
 1165SOL    HW1 4394   1.836   4.257   4.544
 1165SOL    HW2 4395   1.916   4.225   4.683
 1166SOL     OW 4396   3.620   0.698   0.370
 1166SOL    HW1 4397   3.579   0.637   0.301
 1166SOL    HW2 4398   3.651   0.643   0.448
 1167SOL     OW 4399   3.587   6.868   6.653
 1167SOL    HW1 4400   3.605   6.966   6.647
 1167SOL    HW2 4401   3.669   6.822   6.686
 1168SOL     OW 4402   6.862   1.144   3.424
 1168SOL    HW1 4403   6.805   1.179   3.498
 1168SOL    HW2 4404   6.805   1.127   3.343
 1169SOL     OW 4405   5.967   3.508   6.575
 1169SOL    HW1 4406   5.952   3.501   6.476
 1169SOL    HW2 4407   5.891   3.560   6.615
 1170SOL     OW 4408   4.807   1.211   2.081
 1170SOL    HW1 4409   4.868   1.282   2.115
 1170SOL    HW2 4410   4.798   1.220   1.981
 1171SOL     OW 4411   2.787   6.588   6.596
 1171SOL    HW1 4412   2.840   6.615   6.516
 1171SOL    HW2 4413   2.774   6.667   6.656
 1172SOL     OW 4414   3.379   4.066   2.400
 1172SOL    HW1 4415   3.296   4.101   2.445
 1172SOL    HW2 4416   3.432   4.012   2.466
 1173SOL     OW 4417   3.209   6.859   5.704
 1173SOL    HW1 4418   3.171   6.767   5.716
 1173SOL    HW2 4419   3.150   6.912   5.644
 1174SOL     OW 4420   3.445   4.489   0.429
 1174SOL    HW1 4421   3.492   4.401   0.441
 1174SOL    HW2 4422   3.512   4.559   0.405
 1175SOL     OW 4423   4.272   3.035   6.677
 1175SOL    HW1 4424   4.174   3.047   6.661
 1175SOL    HW2 4425   4.297   2.939   6.667
 1176SOL     OW 4426   5.381   4.568   1.125
 1176SOL    HW1 4427   5.455   4.503   1.145
 1176SOL    HW2 4428   5.318   4.571   1.203
 1177SOL     OW 4429   7.015   1.797   5.857
 1177SOL    HW1 4430   0.047   1.821   5.936
 1177SOL    HW2 4431   0.038   1.823   5.773
 1178SOL     OW 4432   3.965   3.010   1.335
 1178SOL    HW1 4433   4.028   2.934   1.326
 1178SOL    HW2 4434   3.916   3.002   1.422
 1179SOL     OW 4435   2.840   5.600   0.028
 1179SOL    HW1 4436   2.935   5.570   0.014
 1179SOL    HW2 4437   2.834   5.650   0.114
 1180SOL     OW 4438   2.425   6.578   4.035
 1180SOL    HW1 4439   2.520   6.576   4.065
 1180SOL    HW2 4440   2.422   6.594   3.936
 1181SOL     OW 4441   6.693   2.987   4.964
 1181SOL    HW1 4442   6.787   2.998   4.930
 1181SOL    HW2 4443   6.630   3.029   4.899
 1182SOL     OW 4444   2.463   5.298   3.534
 1182SOL    HW1 4445   2.537   5.252   3.583
 1182SOL    HW2 4446   2.376   5.275   3.578
 1183SOL     OW 4447   3.983   6.450   1.219
 1183SOL    HW1 4448   3.913   6.492   1.160
 1183SOL    HW2 4449   4.051   6.519   1.243
 1184SOL     OW 4450   4.477   0.849   5.803
 1184SOL    HW1 4451   4.455   0.945   5.789
 1184SOL    HW2 4452   4.443   0.820   5.893
 1185SOL     OW 4453   1.773   0.038   0.466
 1185SOL    HW1 4454   1.747   0.132   0.486
 1185SOL    HW2 4455   1.871   0.033   0.450
 1186SOL     OW 4456   6.179   6.227   6.288
 1186SOL    HW1 4457   6.131   6.298   6.339
 1186SOL    HW2 4458   6.150   6.230   6.192
 1187SOL     OW 4459   5.349   6.596   5.480
 1187SOL    HW1 4460   5.331   6.510   5.432
 1187SOL    HW2 4461   5.310   6.592   5.572
 1188SOL     OW 4462   3.318   5.809   6.458
 1188SOL    HW1 4463   3.334   5.710   6.458
 1188SOL    HW2 4464   3.352   5.847   6.372
 1189SOL     OW 4465   5.407   0.756   2.032
 1189SOL    HW1 4466   5.324   0.809   2.049
 1189SOL    HW2 4467   5.487   0.812   2.054
 1190SOL     OW 4468   3.866   4.991   4.151
 1190SOL    HW1 4469   3.853   4.935   4.069
 1190SOL    HW2 4470   3.909   5.077   4.125
 1191SOL     OW 4471   3.854   6.641   4.780
 1191SOL    HW1 4472   3.883   6.658   4.874
 1191SOL    HW2 4473   3.916   6.687   4.717
 1192SOL     OW 4474   5.315   5.864   2.967
 1192SOL    HW1 4475   5.259   5.943   2.942
 1192SOL    HW2 4476   5.270   5.780   2.936
 1193SOL     OW 4477   0.211   0.267   5.261
 1193SOL    HW1 4478   0.291   0.236   5.209
 1193SOL    HW2 4479   0.139   0.296   5.198
 1194SOL     OW 4480   6.490   1.460   0.809
 1194SOL    HW1 4481   6.530   1.550   0.791
 1194SOL    HW2 4482   6.390   1.467   0.809
 1195SOL     OW 4483   5.998   3.143   1.027
 1195SOL    HW1 4484   5.932   3.218   1.039
 1195SOL    HW2 4485   6.038   3.119   1.116
 1196SOL     OW 4486   6.793   4.735   1.869
 1196SOL    HW1 4487   6.751   4.649   1.841
 1196SOL    HW2 4488   6.877   4.717   1.920
 1197SOL     OW 4489   4.435   6.684   4.608
 1197SOL    HW1 4490   4.443   6.784   4.612
 1197SOL    HW2 4491   4.469   6.644   4.693
 1198SOL     OW 4492   1.568   2.897   2.762
 1198SOL    HW1 4493   1.666   2.885   2.746
 1198SOL    HW2 4494   1.547   2.876   2.858
 1199SOL     OW 4495   3.839   2.951   3.421
 1199SOL    HW1 4496   3.889   3.003   3.351
 1199SOL    HW2 4497   3.848   2.997   3.509
 1200SOL     OW 4498   3.955   4.034   4.961
 1200SOL    HW1 4499   4.000   3.974   4.894
 1200SOL    HW2 4500   3.986   4.128   4.948
 1201SOL     OW 4501   0.255   1.412   4.350
 1201SOL    HW1 4502   0.167   1.416   4.398
 1201SOL    HW2 4503   0.271   1.319   4.317
 1202SOL     OW 4504   6.043   1.085   6.006
 1202SOL    HW1 4505   6.041   1.094   6.106
 1202SOL    HW2 4506   6.122   1.135   5.970
 1203SOL     OW 4507   6.680   6.530   1.260
 1203SOL    HW1 4508   6.589   6.568   1.273
 1203SOL    HW2 4509   6.705   6.474   1.340
 1204SOL     OW 4510   4.396   1.483   1.431
 1204SOL    HW1 4511   4.344   1.449   1.510
 1204SOL    HW2 4512   4.373   1.429   1.350
 1205SOL     OW 4513   4.458   3.420   6.607
 1205SOL    HW1 4514   4.386   3.351   6.602
 1205SOL    HW2 4515   4.507   3.423   6.519
 1206SOL     OW 4516   1.025   2.476   4.931
 1206SOL    HW1 4517   1.104   2.537   4.937
 1206SOL    HW2 4518   1.032   2.406   5.003
 1207SOL     OW 4519   0.589   6.626   6.795
 1207SOL    HW1 4520   0.619   6.531   6.786
 1207SOL    HW2 4521   0.498   6.629   6.835
 1208SOL     OW 4522   2.979   3.852   2.294
 1208SOL    HW1 4523   2.993   3.758   2.324
 1208SOL    HW2 4524   2.882   3.874   2.296
 1209SOL     OW 4525   5.040   0.148   4.407
 1209SOL    HW1 4526   5.088   0.096   4.336
 1209SOL    HW2 4527   5.098   0.224   4.437
 1210SOL     OW 4528   4.376   6.867   3.801
 1210SOL    HW1 4529   4.380   6.813   3.885
 1210SOL    HW2 4530   4.305   6.829   3.741
 1211SOL     OW 4531   1.028   3.060   3.634
 1211SOL    HW1 4532   1.055   3.032   3.542
 1211SOL    HW2 4533   1.006   3.158   3.633
 1212SOL     OW 4534   0.117   1.205   5.556
 1212SOL    HW1 4535   0.063   1.145   5.615
 1212SOL    HW2 4536   0.074   1.210   5.465
 1213SOL     OW 4537   5.870   2.970   3.422
 1213SOL    HW1 4538   5.875   2.893   3.486
 1213SOL    HW2 4539   5.823   2.942   3.339
 1214SOL     OW 4540   0.964   2.495   5.566
 1214SOL    HW1 4541   1.001   2.487   5.473
 1214SOL    HW2 4542   0.900   2.572   5.571
 1215SOL     OW 4543   1.967   5.302   2.049
 1215SOL    HW1 4544   2.064   5.308   2.025
 1215SOL    HW2 4545   1.955   5.321   2.146
 1216SOL     OW 4546   0.313   0.903   0.601
 1216SOL    HW1 4547   0.255   0.907   0.520
 1216SOL    HW2 4548   0.285   0.974   0.666
 1217SOL     OW 4549   3.555   5.828   0.929
 1217SOL    HW1 4550   3.557   5.817   1.028
 1217SOL    HW2 4551   3.639   5.789   0.890
 1218SOL     OW 4552   0.868   3.814   5.803
 1218SOL    HW1 4553   0.933   3.742   5.828
 1218SOL    HW2 4554   0.791   3.774   5.754
 1219SOL     OW 4555   5.035   5.261   2.376
 1219SOL    HW1 4556   4.940   5.234   2.358
 1219SOL    HW2 4557   5.045   5.359   2.360
 1220SOL     OW 4558   6.474   3.900   2.690
 1220SOL    HW1 4559   6.393   3.950   2.662
 1220SOL    HW2 4560   6.517   3.946   2.767
 1221SOL     OW 4561   5.845   3.919   6.106
 1221SOL    HW1 4562   5.770   3.882   6.160
 1221SOL    HW2 4563   5.926   3.861   6.116
 1222SOL     OW 4564   0.666   0.528   6.941
 1222SOL    HW1 4565   0.655   0.600   7.009
 1222SOL    HW2 4566   0.627   0.443   6.977
 1223SOL     OW 4567   3.942   1.441   0.716
 1223SOL    HW1 4568   3.987   1.370   0.769
 1223SOL    HW2 4569   3.910   1.513   0.777
 1224SOL     OW 4570   2.840   5.654   6.783
 1224SOL    HW1 4571   2.916   5.618   6.729
 1224SOL    HW2 4572   2.843   5.614   6.875
 1225SOL     OW 4573   3.781   2.409   1.016
 1225SOL    HW1 4574   3.738   2.469   1.084
 1225SOL    HW2 4575   3.850   2.460   0.965
 1226SOL     OW 4576   5.018   6.258   0.875
 1226SOL    HW1 4577   4.961   6.185   0.837
 1226SOL    HW2 4578   5.100   6.219   0.915
 1227SOL     OW 4579   5.529   5.220   7.007
 1227SOL    HW1 4580   5.526   5.296   0.048
 1227SOL    HW2 4581   5.615   5.223   6.956
 1228SOL     OW 4582   3.819   2.615   0.672
 1228SOL    HW1 4583   3.734   2.606   0.723
 1228SOL    HW2 4584   3.895   2.580   0.727
 1229SOL     OW 4585   2.081   5.966   1.211
 1229SOL    HW1 4586   2.111   6.048   1.259
 1229SOL    HW2 4587   2.070   5.891   1.277
 1230SOL     OW 4588   5.710   5.350   2.710
 1230SOL    HW1 4589   5.804   5.352   2.676
 1230SOL    HW2 4590   5.709   5.309   2.801
 1231SOL     OW 4591   1.366   1.623   5.781
 1231SOL    HW1 4592   1.393   1.588   5.871
 1231SOL    HW2 4593   1.407   1.566   5.709
 1232SOL     OW 4594   5.811   1.272   5.226
 1232SOL    HW1 4595   5.896   1.246   5.273
 1232SOL    HW2 4596   5.818   1.246   5.130
 1233SOL     OW 4597   0.669   5.726   4.397
 1233SOL    HW1 4598   0.720   5.771   4.471
 1233SOL    HW2 4599   0.584   5.775   4.381
 1234SOL     OW 4600   6.306   2.741   5.509
 1234SOL    HW1 4601   6.370   2.671   5.541
 1234SOL    HW2 4602   6.331   2.769   5.416
 1235SOL     OW 4603   6.193   4.447   1.168
 1235SOL    HW1 4604   6.190   4.516   1.240
 1235SOL    HW2 4605   6.251   4.371   1.197
 1236SOL     OW 4606   3.886   1.401   1.637
 1236SOL    HW1 4607   3.898   1.302   1.625
 1236SOL    HW2 4608   3.821   1.417   1.711
 1237SOL     OW 4609   1.325   5.502   4.761
 1237SOL    HW1 4610   1.277   5.501   4.849
 1237SOL    HW2 4611   1.395   5.431   4.761
 1238SOL     OW 4612   0.848   0.409   4.986
 1238SOL    HW1 4613   0.905   0.487   4.961
 1238SOL    HW2 4614   0.765   0.441   5.031
 1239SOL     OW 4615   6.319   6.677   5.743
 1239SOL    HW1 4616   6.363   6.608   5.800
 1239SOL    HW2 4617   6.350   6.768   5.771
 1240SOL     OW 4618   6.140   5.365   2.266
 1240SOL    HW1 4619   6.050   5.349   2.225
 1240SOL    HW2 4620   6.192   5.280   2.269
 1241SOL     OW 4621   6.258   4.835   5.122
 1241SOL    HW1 4622   6.245   4.750   5.071
 1241SOL    HW2 4623   6.169   4.878   5.138
 1242SOL     OW 4624   2.132   3.303   0.424
 1242SOL    HW1 4625   2.129   3.393   0.467
 1242SOL    HW2 4626   2.222   3.288   0.384
 1243SOL     OW 4627   6.848   1.458   4.538
 1243SOL    HW1 4628   6.873   1.370   4.576
 1243SOL    HW2 4629   6.858   1.529   4.607
 1244SOL     OW 4630   4.842   6.438   5.035
 1244SOL    HW1 4631   4.774   6.508   5.057
 1244SOL    HW2 4632   4.807   6.378   4.963
 1245SOL     OW 4633   5.629   4.686   0.711
 1245SOL    HW1 4634   5.629   4.658   0.615
 1245SOL    HW2 4635   5.603   4.782   0.718
 1246SOL     OW 4636   3.510   0.941   2.082
 1246SOL    HW1 4637   3.415   0.917   2.061
 1246SOL    HW2 4638   3.540   1.014   2.020
 1247SOL     OW 4639   5.521   0.153   5.403
 1247SOL    HW1 4640   5.558   0.062   5.383
 1247SOL    HW2 4641   5.567   0.191   5.484
 1248SOL     OW 4642   1.083   6.487   3.769
 1248SOL    HW1 4643   1.094   6.431   3.851
 1248SOL    HW2 4644   1.173   6.519   3.738
 1249SOL     OW 4645   0.240   3.403   1.941
 1249SOL    HW1 4646   0.206   3.329   2.000
 1249SOL    HW2 4647   0.164   3.459   1.910
 1250SOL     OW 4648   6.259   4.136   3.958
 1250SOL    HW1 4649   6.309   4.084   3.889
 1250SOL    HW2 4650   6.183   4.186   3.914
 1251SOL     OW 4651   2.238   0.888   2.610
 1251SOL    HW1 4652   2.155   0.885   2.554
 1251SOL    HW2 4653   2.226   0.831   2.691
 1252SOL     OW 4654   3.663   4.661   6.378
 1252SOL    HW1 4655   3.693   4.710   6.296
 1252SOL    HW2 4656   3.591   4.597   6.354
 1253SOL     OW 4657   2.611   0.562   2.216
 1253SOL    HW1 4658   2.619   0.619   2.134
 1253SOL    HW2 4659   2.554   0.482   2.194
 1254SOL     OW 4660   6.913   2.585   3.523
 1254SOL    HW1 4661   6.936   2.515   3.455
 1254SOL    HW2 4662   6.820   2.571   3.555
 1255SOL     OW 4663   5.914   2.578   6.030
 1255SOL    HW1 4664   5.924   2.499   6.091
 1255SOL    HW2 4665   5.841   2.637   6.064
 1256SOL     OW 4666   0.319   6.211   4.261
 1256SOL    HW1 4667   0.256   6.136   4.240
 1256SOL    HW2 4668   0.400   6.204   4.205
 1257SOL     OW 4669   6.725   5.189   4.501
 1257SOL    HW1 4670   6.771   5.262   4.451
 1257SOL    HW2 4671   6.636   5.221   4.532
 1258SOL     OW 4672   2.224   4.834   2.753
 1258SOL    HW1 4673   2.185   4.754   2.708
 1258SOL    HW2 4674   2.213   4.914   2.694
 1259SOL     OW 4675   3.370   6.339   5.255
 1259SOL    HW1 4676   3.371   6.417   5.192
 1259SOL    HW2 4677   3.276   6.320   5.283
 1260SOL     OW 4678   2.789   1.080   1.322
 1260SOL    HW1 4679   2.744   0.991   1.320
 1260SOL    HW2 4680   2.849   1.086   1.401
 1261SOL     OW 4681   0.372   4.399   6.950
 1261SOL    HW1 4682   0.427   4.482   6.942
 1261SOL    HW2 4683   0.334   4.393   0.018
 1262SOL     OW 4684   5.046   5.699   1.585
 1262SOL    HW1 4685   5.099   5.757   1.646
 1262SOL    HW2 4686   5.082   5.606   1.586
 1263SOL     OW 4687   6.741   1.273   1.552
 1263SOL    HW1 4688   6.721   1.367   1.579
 1263SOL    HW2 4689   6.755   1.269   1.453
 1264SOL     OW 4690   0.292   4.089   1.255
 1264SOL    HW1 4691   0.246   4.036   1.184
 1264SOL    HW2 4692   0.243   4.078   1.341
 1265SOL     OW 4693   6.573   5.309   3.824
 1265SOL    HW1 4694   6.624   5.281   3.743
 1265SOL    HW2 4695   6.500   5.243   3.843
 1266SOL     OW 4696   1.309   1.171   3.786
 1266SOL    HW1 4697   1.366   1.241   3.831
 1266SOL    HW2 4698   1.335   1.081   3.819
 1267SOL     OW 4699   5.603   6.626   1.157
 1267SOL    HW1 4700   5.511   6.589   1.168
 1267SOL    HW2 4701   5.632   6.615   1.062
 1268SOL     OW 4702   4.811   2.255   0.098
 1268SOL    HW1 4703   4.786   2.159   0.113
 1268SOL    HW2 4704   4.908   2.267   0.115
 1269SOL     OW 4705   5.902   6.468   5.772
 1269SOL    HW1 4706   5.858   6.492   5.686
 1269SOL    HW2 4707   5.933   6.551   5.818
 1270SOL     OW 4708   2.155   3.132   4.622
 1270SOL    HW1 4709   2.193   3.133   4.530
 1270SOL    HW2 4710   2.149   3.225   4.657
 1271SOL     OW 4711   3.504   1.775   3.496
 1271SOL    HW1 4712   3.456   1.779   3.408
 1271SOL    HW2 4713   3.444   1.807   3.569
 1272SOL     OW 4714   5.925   5.698   0.705
 1272SOL    HW1 4715   5.994   5.675   0.773
 1272SOL    HW2 4716   5.947   5.786   0.664
 1273SOL     OW 4717   1.023   4.408   0.360
 1273SOL    HW1 4718   1.074   4.409   0.274
 1273SOL    HW2 4719   1.005   4.502   0.389
 1274SOL     OW 4720   6.195   2.646   1.041
 1274SOL    HW1 4721   6.178   2.739   1.009
 1274SOL    HW2 4722   6.238   2.649   1.132
 1275SOL     OW 4723   4.040   0.262   4.123
 1275SOL    HW1 4724   4.058   0.166   4.100
 1275SOL    HW2 4725   4.056   0.277   4.220
 1276SOL     OW 4726   6.995   0.739   4.711
 1276SOL    HW1 4727   6.923   0.806   4.695
 1276SOL    HW2 4728   7.001   0.676   4.633
 1277SOL     OW 4729   0.922   6.910   5.612
 1277SOL    HW1 4730   0.895   6.822   5.648
 1277SOL    HW2 4731   1.022   6.914   5.604
 1278SOL     OW 4732   1.022   0.683   4.989
 1278SOL    HW1 4733   0.952   0.730   4.935
 1278SOL    HW2 4734   1.112   0.718   4.964
 1279SOL     OW 4735   3.698   5.085   6.972
 1279SOL    HW1 4736   3.687   5.143   0.028
 1279SOL    HW2 4737   3.637   5.006   6.979
 1280SOL     OW 4738   3.640   5.863   3.958
 1280SOL    HW1 4739   3.708   5.928   3.993
 1280SOL    HW2 4740   3.552   5.911   3.946
 1281SOL     OW 4741   1.564   5.473   2.589
 1281SOL    HW1 4742   1.514   5.559   2.580
 1281SOL    HW2 4743   1.634   5.468   2.517
 1282SOL     OW 4744   0.293   1.083   6.415
 1282SOL    HW1 4745   0.336   0.993   6.402
 1282SOL    HW2 4746   0.236   1.105   6.336
 1283SOL     OW 4747   5.424   3.003   5.283
 1283SOL    HW1 4748   5.489   2.928   5.294
 1283SOL    HW2 4749   5.468   3.081   5.239
 1284SOL     OW 4750   4.334   1.806   2.147
 1284SOL    HW1 4751   4.260   1.871   2.128
 1284SOL    HW2 4752   4.407   1.820   2.080
 1285SOL     OW 4753   4.693   3.315   6.407
 1285SOL    HW1 4754   4.658   3.229   6.443
 1285SOL    HW2 4755   4.619   3.366   6.363
 1286SOL     OW 4756   4.904   3.490   2.059
 1286SOL    HW1 4757   4.884   3.400   2.099
 1286SOL    HW2 4758   4.983   3.482   1.998
 1287SOL     OW 4759   4.684   4.086   5.746
 1287SOL    HW1 4760   4.652   4.105   5.653
 1287SOL    HW2 4761   4.617   4.028   5.792
 1288SOL     OW 4762   5.783   3.244   0.398
 1288SOL    HW1 4763   5.693   3.233   0.356
 1288SOL    HW2 4764   5.804   3.164   0.455
 1289SOL     OW 4765   0.605   6.039   1.545
 1289SOL    HW1 4766   0.623   6.129   1.587
 1289SOL    HW2 4767   0.681   5.978   1.564
 1290SOL     OW 4768   0.927   0.340   6.843
 1290SOL    HW1 4769   0.882   0.427   6.822
 1290SOL    HW2 4770   0.890   0.268   6.785
 1291SOL     OW 4771   0.166   3.852   5.684
 1291SOL    HW1 4772   0.077   3.813   5.706
 1291SOL    HW2 4773   0.200   3.905   5.763
 1292SOL     OW 4774   6.869   6.173   2.661
 1292SOL    HW1 4775   6.838   6.134   2.575
 1292SOL    HW2 4776   6.811   6.138   2.736
 1293SOL     OW 4777   1.303   1.506   6.745
 1293SOL    HW1 4778   1.389   1.553   6.725
 1293SOL    HW2 4779   1.244   1.565   6.801
 1294SOL     OW 4780   1.941   3.724   7.007
 1294SOL    HW1 4781   2.034   3.735   6.969
 1294SOL    HW2 4782   1.874   3.753   6.939
 1295SOL     OW 4783   0.170   3.595   3.160
 1295SOL    HW1 4784   0.234   3.661   3.122
 1295SOL    HW2 4785   0.106   3.564   3.090
 1296SOL     OW 4786   3.447   0.416   5.996
 1296SOL    HW1 4787   3.498   0.501   6.007
 1296SOL    HW2 4788   3.438   0.371   6.085
 1297SOL     OW 4789   6.019   0.766   0.300
 1297SOL    HW1 4790   5.970   0.836   0.353
 1297SOL    HW2 4791   6.008   0.785   0.203
 1298SOL     OW 4792   6.782   4.552   2.826
 1298SOL    HW1 4793   6.773   4.455   2.846
 1298SOL    HW2 4794   6.826   4.598   2.903
 1299SOL     OW 4795   0.131   3.822   3.346
 1299SOL    HW1 4796   0.142   3.889   3.272
 1299SOL    HW2 4797   0.136   3.730   3.307
 1300SOL     OW 4798   3.439   3.731   1.855
 1300SOL    HW1 4799   3.355   3.786   1.857
 1300SOL    HW2 4800   3.416   3.634   1.847
 1301SOL     OW 4801   0.109   5.346   2.240
 1301SOL    HW1 4802   0.013   5.370   2.253
 1301SOL    HW2 4803   0.162   5.377   2.319
 1302SOL     OW 4804   3.587   0.082   5.468
 1302SOL    HW1 4805   3.675   0.123   5.446
 1302SOL    HW2 4806   3.529   0.081   5.386
 1303SOL     OW 4807   4.565   1.896   1.515
 1303SOL    HW1 4808   4.629   1.838   1.565
 1303SOL    HW2 4809   4.492   1.839   1.477
 1304SOL     OW 4810   0.977   0.998   6.593
 1304SOL    HW1 4811   0.995   1.084   6.640
 1304SOL    HW2 4812   0.882   0.971   6.607
 1305SOL     OW 4813   4.841   3.296   0.084
 1305SOL    HW1 4814   4.795   3.377   0.120
 1305SOL    HW2 4815   4.776   3.241   0.031
 1306SOL     OW 4816   1.001   4.120   5.532
 1306SOL    HW1 4817   1.086   4.097   5.580
 1306SOL    HW2 4818   0.965   4.206   5.567
 1307SOL     OW 4819   1.143   3.131   5.111
 1307SOL    HW1 4820   1.241   3.136   5.096
 1307SOL    HW2 4821   1.119   3.187   5.190
 1308SOL     OW 4822   4.343   5.812   5.299
 1308SOL    HW1 4823   4.419   5.841   5.358
 1308SOL    HW2 4824   4.364   5.837   5.204
 1309SOL     OW 4825   5.170   3.096   5.344
 1309SOL    HW1 4826   5.242   3.069   5.280
 1309SOL    HW2 4827   5.210   3.147   5.420
 1310SOL     OW 4828   0.381   4.319   5.014
 1310SOL    HW1 4829   0.445   4.313   5.091
 1310SOL    HW2 4830   0.332   4.233   5.004
 1311SOL     OW 4831   0.184   0.541   4.258
 1311SOL    HW1 4832   0.277   0.576   4.269
 1311SOL    HW2 4833   0.147   0.574   4.171
 1312SOL     OW 4834   0.905   0.370   6.345
 1312SOL    HW1 4835   0.889   0.362   6.247
 1312SOL    HW2 4836   0.945   0.285   6.379
 1313SOL     OW 4837   1.683   4.315   4.063
 1313SOL    HW1 4838   1.768   4.325   4.011
 1313SOL    HW2 4839   1.623   4.248   4.018
 1314SOL     OW 4840   3.887   1.598   5.657
 1314SOL    HW1 4841   3.813   1.534   5.680
 1314SOL    HW2 4842   3.917   1.580   5.563
 1315SOL     OW 4843   0.673   0.576   0.452
 1315SOL    HW1 4844   0.713   0.511   0.517
 1315SOL    HW2 4845   0.640   0.656   0.501
 1316SOL     OW 4846   2.256   6.540   4.381
 1316SOL    HW1 4847   2.199   6.594   4.443
 1316SOL    HW2 4848   2.260   6.586   4.292
 1317SOL     OW 4849   1.359   4.231   4.426
 1317SOL    HW1 4850   1.430   4.276   4.373
 1317SOL    HW2 4851   1.396   4.149   4.469
 1318SOL     OW 4852   0.581   1.061   0.780
 1318SOL    HW1 4853   0.561   0.967   0.807
 1318SOL    HW2 4854   0.661   1.062   0.720
 1319SOL     OW 4855   0.122   0.866   0.382
 1319SOL    HW1 4856   0.088   0.773   0.366
 1319SOL    HW2 4857   0.055   0.917   0.436
 1320SOL     OW 4858   5.442   4.286   0.563
 1320SOL    HW1 4859   5.426   4.198   0.608
 1320SOL    HW2 4860   5.540   4.300   0.551
 1321SOL     OW 4861   4.531   2.364   5.731
 1321SOL    HW1 4862   4.605   2.423   5.763
 1321SOL    HW2 4863   4.549   2.269   5.759
 1322SOL     OW 4864   4.040   0.481   3.946
 1322SOL    HW1 4865   4.072   0.466   3.853
 1322SOL    HW2 4866   4.022   0.392   3.990
 1323SOL     OW 4867   5.679   1.837   4.678
 1323SOL    HW1 4868   5.622   1.905   4.724
 1323SOL    HW2 4869   5.714   1.875   4.592
 1324SOL     OW 4870   0.868   2.694   0.177
 1324SOL    HW1 4871   0.863   2.753   0.257
 1324SOL    HW2 4872   0.851   2.600   0.204
 1325SOL     OW 4873   1.765   6.924   2.543
 1325SOL    HW1 4874   1.724   7.003   2.498
 1325SOL    HW2 4875   1.826   6.877   2.480
 1326SOL     OW 4876   4.658   2.769   5.054
 1326SOL    HW1 4877   4.732   2.746   4.991
 1326SOL    HW2 4878   4.586   2.699   5.048
 1327SOL     OW 4879   1.771   4.467   1.818
 1327SOL    HW1 4880   1.723   4.435   1.737
 1327SOL    HW2 4881   1.763   4.399   1.891
 1328SOL     OW 4882   1.654   3.005   1.268
 1328SOL    HW1 4883   1.695   3.011   1.359
 1328SOL    HW2 4884   1.601   3.088   1.250
 1329SOL     OW 4885   1.469   2.722   0.833
 1329SOL    HW1 4886   1.439   2.768   0.917
 1329SOL    HW2 4887   1.555   2.762   0.802
 1330SOL     OW 4888   6.814   0.903   1.799
 1330SOL    HW1 4889   6.823   1.001   1.781
 1330SOL    HW2 4890   6.796   0.855   1.713
 1331SOL     OW 4891   4.937   2.090   3.296
 1331SOL    HW1 4892   5.014   2.026   3.288
 1331SOL    HW2 4893   4.859   2.055   3.244
 1332SOL     OW 4894   3.170   6.865   0.449
 1332SOL    HW1 4895   3.216   6.799   0.389
 1332SOL    HW2 4896   3.108   6.816   0.510
 1333SOL     OW 4897   3.321   3.071   5.852
 1333SOL    HW1 4898   3.310   3.153   5.907
 1333SOL    HW2 4899   3.299   2.990   5.907
 1334SOL     OW 4900   6.704   2.743   4.691
 1334SOL    HW1 4901   6.639   2.746   4.615
 1334SOL    HW2 4902   6.727   2.836   4.719
 1335SOL     OW 4903   2.535   0.829   3.566
 1335SOL    HW1 4904   2.483   0.752   3.527
 1335SOL    HW2 4905   2.606   0.857   3.501
 1336SOL     OW 4906   2.160   1.120   6.364
 1336SOL    HW1 4907   2.105   1.043   6.331
 1336SOL    HW2 4908   2.200   1.097   6.453
 1337SOL     OW 4909   1.465   1.307   5.125
 1337SOL    HW1 4910   1.468   1.333   5.222
 1337SOL    HW2 4911   1.420   1.219   5.115
 1338SOL     OW 4912   5.730   2.939   6.438
 1338SOL    HW1 4913   5.645   2.907   6.396
 1338SOL    HW2 4914   5.709   3.004   6.511
 1339SOL     OW 4915   0.552   0.699   0.113
 1339SOL    HW1 4916   0.498   0.756   0.051
 1339SOL    HW2 4917   0.494   0.668   0.188
 1340SOL     OW 4918   0.730   1.613   2.060
 1340SOL    HW1 4919   0.756   1.685   1.997
 1340SOL    HW2 4920   0.812   1.573   2.101
 1341SOL     OW 4921   4.808   1.073   6.055
 1341SOL    HW1 4922   4.814   1.042   5.960
 1341SOL    HW2 4923   4.712   1.083   6.081
 1342SOL     OW 4924   1.346   4.908   6.373
 1342SOL    HW1 4925   1.276   4.849   6.333
 1342SOL    HW2 4926   1.432   4.857   6.382
 1343SOL     OW 4927   4.432   5.973   2.416
 1343SOL    HW1 4928   4.351   5.929   2.456
 1343SOL    HW2 4929   4.430   5.961   2.316
 1344SOL     OW 4930   6.796   4.824   4.205
 1344SOL    HW1 4931   6.893   4.800   4.204
 1344SOL    HW2 4932   6.773   4.866   4.293
 1345SOL     OW 4933   1.825   1.359   3.297
 1345SOL    HW1 4934   1.759   1.350   3.223
 1345SOL    HW2 4935   1.783   1.330   3.383
 1346SOL     OW 4936   0.889   6.663   3.844
 1346SOL    HW1 4937   0.970   6.615   3.810
 1346SOL    HW2 4938   0.855   6.617   3.926
 1347SOL     OW 4939   6.251   6.477   3.952
 1347SOL    HW1 4940   6.210   6.393   3.918
 1347SOL    HW2 4941   6.212   6.555   3.904
 1348SOL     OW 4942   5.342   4.912   2.855
 1348SOL    HW1 4943   5.301   4.902   2.946
 1348SOL    HW2 4944   5.435   4.947   2.865
 1349SOL     OW 4945   4.845   2.036   6.754
 1349SOL    HW1 4946   4.864   2.011   6.849
 1349SOL    HW2 4947   4.876   1.963   6.693
 1350SOL     OW 4948   4.683   4.314   6.105
 1350SOL    HW1 4949   4.733   4.352   6.183
 1350SOL    HW2 4950   4.699   4.215   6.101
 1351SOL     OW 4951   6.797   2.189   2.888
 1351SOL    HW1 4952   6.828   2.227   2.975
 1351SOL    HW2 4953   6.698   2.195   2.882
 1352SOL     OW 4954   6.822   0.304   3.192
 1352SOL    HW1 4955   6.892   0.376   3.197
 1352SOL    HW2 4956   6.790   0.283   3.284
 1353SOL     OW 4957   6.132   4.589   6.166
 1353SOL    HW1 4958   6.135   4.524   6.242
 1353SOL    HW2 4959   6.216   4.581   6.112
 1354SOL     OW 4960   0.711   2.183   0.265
 1354SOL    HW1 4961   0.615   2.183   0.235
 1354SOL    HW2 4962   0.717   2.146   0.358
 1355SOL     OW 4963   6.851   2.401   5.276
 1355SOL    HW1 4964   6.920   2.437   5.338
 1355SOL    HW2 4965   6.866   2.437   5.184
 1356SOL     OW 4966   3.296   3.095   3.902
 1356SOL    HW1 4967   3.362   3.025   3.930
 1356SOL    HW2 4968   3.343   3.167   3.851
 1357SOL     OW 4969   1.894   4.494   5.924
 1357SOL    HW1 4970   1.980   4.467   5.883
 1357SOL    HW2 4971   1.844   4.413   5.954
 1358SOL     OW 4972   4.059   1.461   6.180
 1358SOL    HW1 4973   4.150   1.493   6.152
 1358SOL    HW2 4974   4.014   1.418   6.102
 1359SOL     OW 4975   0.050   5.038   1.560
 1359SOL    HW1 4976   0.116   5.029   1.635
 1359SOL    HW2 4977   6.988   4.996   1.586
 1360SOL     OW 4978   4.189   3.688   1.399
 1360SOL    HW1 4979   4.177   3.771   1.344
 1360SOL    HW2 4980   4.100   3.661   1.438
 1361SOL     OW 4981   0.192   6.091   5.764
 1361SOL    HW1 4982   0.120   6.045   5.816
 1361SOL    HW2 4983   0.189   6.061   5.668
 1362SOL     OW 4984   2.976   3.827   4.411
 1362SOL    HW1 4985   3.048   3.859   4.349
 1362SOL    HW2 4986   2.944   3.903   4.468
 1363SOL     OW 4987   6.520   5.818   3.754
 1363SOL    HW1 4988   6.540   5.740   3.813
 1363SOL    HW2 4989   6.439   5.866   3.788
 1364SOL     OW 4990   0.197   2.348   0.219
 1364SOL    HW1 4991   0.168   2.252   0.212
 1364SOL    HW2 4992   0.273   2.354   0.284
 1365SOL     OW 4993   1.022   2.984   5.371
 1365SOL    HW1 4994   1.011   3.080   5.343
 1365SOL    HW2 4995   1.118   2.967   5.395
 1366SOL     OW 4996   1.230   4.414   0.551
 1366SOL    HW1 4997   1.188   4.390   0.464
 1366SOL    HW2 4998   1.212   4.342   0.618
 1367SOL     OW 4999   1.814   5.689   2.468
 1367SOL    HW1 5000   1.762   5.607   2.446
 1367SOL    HW2 5001   1.762   5.746   2.532
 1368SOL     OW 5002   0.010   6.950   3.413
 1368SOL    HW1 5003   0.103   6.913   3.413
 1368SOL    HW2 5004   6.996   6.943   3.321
 1369SOL     OW 5005   2.007   0.303   2.340
 1369SOL    HW1 5006   1.965   0.394   2.336
 1369SOL    HW2 5007   1.991   0.263   2.430
 1370SOL     OW 5008   4.545   1.724   3.612
 1370SOL    HW1 5009   4.451   1.756   3.603
 1370SOL    HW2 5010   4.607   1.787   3.566
 1371SOL     OW 5011   5.656   1.256   4.495
 1371SOL    HW1 5012   5.630   1.351   4.513
 1371SOL    HW2 5013   5.621   1.228   4.406
 1372SOL     OW 5014   1.269   2.103   0.786
 1372SOL    HW1 5015   1.173   2.106   0.758
 1372SOL    HW2 5016   1.285   2.173   0.855
 1373SOL     OW 5017   4.408   2.458   0.604
 1373SOL    HW1 5018   4.481   2.402   0.642
 1373SOL    HW2 5019   4.441   2.504   0.522
 1374SOL     OW 5020   4.076   1.923   1.150
 1374SOL    HW1 5021   4.058   1.851   1.216
 1374SOL    HW2 5022   4.095   1.883   1.060
 1375SOL     OW 5023   0.105   6.750   6.082
 1375SOL    HW1 5024   0.130   6.653   6.084
 1375SOL    HW2 5025   0.007   6.759   6.069
 1376SOL     OW 5026   4.443   4.785   5.195
 1376SOL    HW1 5027   4.501   4.767   5.274
 1376SOL    HW2 5028   4.489   4.756   5.112
 1377SOL     OW 5029   0.797   3.706   4.131
 1377SOL    HW1 5030   0.717   3.765   4.126
 1377SOL    HW2 5031   0.774   3.616   4.093
 1378SOL     OW 5032   5.911   2.306   4.422
 1378SOL    HW1 5033   5.899   2.275   4.516
 1378SOL    HW2 5034   6.008   2.321   4.404
 1379SOL     OW 5035   4.525   5.934   3.404
 1379SOL    HW1 5036   4.590   5.991   3.353
 1379SOL    HW2 5037   4.451   5.990   3.439
 1380SOL     OW 5038   0.525   6.568   3.133
 1380SOL    HW1 5039   0.502   6.528   3.222
 1380SOL    HW2 5040   0.614   6.614   3.140
 1381SOL     OW 5041   5.786   1.743   0.303
 1381SOL    HW1 5042   5.827   1.824   0.346
 1381SOL    HW2 5043   5.781   1.756   0.204
 1382SOL     OW 5044   5.786   3.354   1.134
 1382SOL    HW1 5045   5.847   3.415   1.084
 1382SOL    HW2 5046   5.711   3.407   1.174
 1383SOL     OW 5047   0.744   0.878   2.170
 1383SOL    HW1 5048   0.834   0.850   2.135
 1383SOL    HW2 5049   0.682   0.896   2.094
 1384SOL     OW 5050   4.396   0.751   1.608
 1384SOL    HW1 5051   4.338   0.787   1.536
 1384SOL    HW2 5052   4.488   0.734   1.571
 1385SOL     OW 5053   2.752   4.703   3.484
 1385SOL    HW1 5054   2.662   4.677   3.449
 1385SOL    HW2 5055   2.808   4.739   3.409
 1386SOL     OW 5056   3.120   1.053   4.485
 1386SOL    HW1 5057   3.038   1.022   4.437
 1386SOL    HW2 5058   3.190   1.079   4.419
 1387SOL     OW 5059   3.988   5.140   2.547
 1387SOL    HW1 5060   3.933   5.062   2.577
 1387SOL    HW2 5061   4.029   5.184   2.626
 1388SOL     OW 5062   6.897   0.529   2.771
 1388SOL    HW1 5063   6.883   0.614   2.720
 1388SOL    HW2 5064   6.967   0.474   2.725
 1389SOL     OW 5065   6.409   0.844   4.026
 1389SOL    HW1 5066   6.415   0.907   3.948
 1389SOL    HW2 5067   6.489   0.856   4.084
 1390SOL     OW 5068   6.545   2.772   6.079
 1390SOL    HW1 5069   6.545   2.710   6.001
 1390SOL    HW2 5070   6.629   2.827   6.079
 1391SOL     OW 5071   6.086   6.637   4.759
 1391SOL    HW1 5072   6.091   6.544   4.722
 1391SOL    HW2 5073   6.147   6.644   4.838
 1392SOL     OW 5074   6.147   6.670   5.529
 1392SOL    HW1 5075   6.078   6.738   5.555
 1392SOL    HW2 5076   6.217   6.665   5.600
 1393SOL     OW 5077   6.918   4.211   6.224
 1393SOL    HW1 5078   6.862   4.130   6.205
 1393SOL    HW2 5079   6.923   4.268   6.142
 1394SOL     OW 5080   3.840   5.534   5.643
 1394SOL    HW1 5081   3.774   5.587   5.696
 1394SOL    HW2 5082   3.828   5.554   5.546
 1395SOL     OW 5083   2.197   4.783   4.903
 1395SOL    HW1 5084   2.108   4.797   4.859
 1395SOL    HW2 5085   2.217   4.685   4.906
 1396SOL     OW 5086   0.413   1.779   5.060
 1396SOL    HW1 5087   0.437   1.780   4.963
 1396SOL    HW2 5088   0.471   1.713   5.108
 1397SOL     OW 5089   0.378   6.796   4.504
 1397SOL    HW1 5090   0.313   6.721   4.512
 1397SOL    HW2 5091   0.345   6.863   4.437
 1398SOL     OW 5092   2.961   0.989   6.516
 1398SOL    HW1 5093   2.884   0.934   6.550
 1398SOL    HW2 5094   2.987   0.956   6.425
 1399SOL     OW 5095   4.175   4.909   0.589
 1399SOL    HW1 5096   4.187   4.886   0.685
 1399SOL    HW2 5097   4.140   5.003   0.582
 1400SOL     OW 5098   0.387   1.702   4.070
 1400SOL    HW1 5099   0.460   1.729   4.008
 1400SOL    HW2 5100   0.424   1.691   4.163
 1401SOL     OW 5101   6.459   0.446   4.683
 1401SOL    HW1 5102   6.533   0.512   4.691
 1401SOL    HW2 5103   6.496   0.354   4.678
 1402SOL     OW 5104   5.337   3.599   6.500
 1402SOL    HW1 5105   5.415   3.537   6.499
 1402SOL    HW2 5106   5.361   3.684   6.453
 1403SOL     OW 5107   2.306   1.852   1.013
 1403SOL    HW1 5108   2.402   1.852   1.039
 1403SOL    HW2 5109   2.249   1.845   1.094
 1404SOL     OW 5110   6.365   0.374   6.808
 1404SOL    HW1 5111   6.279   0.424   6.809
 1404SOL    HW2 5112   6.372   0.316   6.889
 1405SOL     OW 5113   2.368   3.070   0.614
 1405SOL    HW1 5114   2.401   3.078   0.708
 1405SOL    HW2 5115   2.281   3.119   0.605
 1406SOL     OW 5116   0.849   5.501   0.456
 1406SOL    HW1 5117   0.761   5.477   0.497
 1406SOL    HW2 5118   0.836   5.520   0.359
 1407SOL     OW 5119   0.675   3.175   3.506
 1407SOL    HW1 5120   0.630   3.138   3.425
 1407SOL    HW2 5121   0.752   3.232   3.479
 1408SOL     OW 5122   5.371   1.332   5.459
 1408SOL    HW1 5123   5.334   1.399   5.394
 1408SOL    HW2 5124   5.439   1.276   5.413
 1409SOL     OW 5125   0.269   0.441   4.932
 1409SOL    HW1 5126   0.197   0.399   4.987
 1409SOL    HW2 5127   0.306   0.374   4.868
 1410SOL     OW 5128   1.628   4.707   6.745
 1410SOL    HW1 5129   1.532   4.731   6.726
 1410SOL    HW2 5130   1.631   4.624   6.800
 1411SOL     OW 5131   3.831   6.465   0.430
 1411SOL    HW1 5132   3.826   6.507   0.521
 1411SOL    HW2 5133   3.833   6.366   0.440
 1412SOL     OW 5134   0.895   2.668   1.262
 1412SOL    HW1 5135   0.839   2.741   1.225
 1412SOL    HW2 5136   0.992   2.691   1.251
 1413SOL     OW 5137   2.177   1.673   5.255
 1413SOL    HW1 5138   2.118   1.753   5.253
 1413SOL    HW2 5139   2.122   1.590   5.242
 1414SOL     OW 5140   2.500   2.007   1.745
 1414SOL    HW1 5141   2.511   2.094   1.697
 1414SOL    HW2 5142   2.541   2.014   1.836
 1415SOL     OW 5143   2.058   1.176   4.683
 1415SOL    HW1 5144   1.962   1.203   4.691
 1415SOL    HW2 5145   2.097   1.167   4.775
 1416SOL     OW 5146   4.247   5.086   4.419
 1416SOL    HW1 5147   4.332   5.082   4.470
 1416SOL    HW2 5148   4.179   5.139   4.471
 1417SOL     OW 5149   2.878   2.368   0.563
 1417SOL    HW1 5150   2.781   2.387   0.580
 1417SOL    HW2 5151   2.887   2.282   0.513
 1418SOL     OW 5152   3.231   3.581   2.605
 1418SOL    HW1 5153   3.163   3.520   2.645
 1418SOL    HW2 5154   3.229   3.669   2.651
 1419SOL     OW 5155   2.807   5.540   3.270
 1419SOL    HW1 5156   2.714   5.505   3.280
 1419SOL    HW2 5157   2.861   5.477   3.215
 1420SOL     OW 5158   2.034   6.488   2.113
 1420SOL    HW1 5159   2.077   6.398   2.120
 1420SOL    HW2 5160   2.084   6.554   2.170
 1421SOL     OW 5161   2.366   5.027   3.185
 1421SOL    HW1 5162   2.457   5.016   3.225
 1421SOL    HW2 5163   2.345   4.948   3.127
 1422SOL     OW 5164   1.224   4.106   6.565
 1422SOL    HW1 5165   1.311   4.061   6.543
 1422SOL    HW2 5166   1.172   4.122   6.481
 1423SOL     OW 5167   4.824   6.999   4.197
 1423SOL    HW1 5168   4.772   0.011   4.120
 1423SOL    HW2 5169   4.802   6.902   4.209
 1424SOL     OW 5170   6.699   4.048   0.002
 1424SOL    HW1 5171   6.646   4.132   0.009
 1424SOL    HW2 5172   6.677   3.988   0.079
 1425SOL     OW 5173   1.871   5.447   5.508
 1425SOL    HW1 5174   1.821   5.457   5.422
 1425SOL    HW2 5175   1.968   5.468   5.493
 1426SOL     OW 5176   2.218   2.999   6.480
 1426SOL    HW1 5177   2.312   3.000   6.515
 1426SOL    HW2 5178   2.213   3.053   6.396
 1427SOL     OW 5179   6.925   0.144   3.496
 1427SOL    HW1 5180   6.978   0.065   3.466
 1427SOL    HW2 5181   6.836   0.145   3.450
 1428SOL     OW 5182   0.487   1.889   0.102
 1428SOL    HW1 5183   0.583   1.867   0.085
 1428SOL    HW2 5184   0.478   1.987   0.121
 1429SOL     OW 5185   4.478   1.574   6.963
 1429SOL    HW1 5186   4.456   1.639   6.890
 1429SOL    HW2 5187   4.534   1.620   0.007
 1430SOL     OW 5188   1.852   5.301   3.962
 1430SOL    HW1 5189   1.904   5.242   4.024
 1430SOL    HW2 5190   1.805   5.372   4.015
 1431SOL     OW 5191   2.916   2.291   6.923
 1431SOL    HW1 5192   2.840   2.354   6.942
 1431SOL    HW2 5193   2.879   2.203   6.895
 1432SOL     OW 5194   2.810   1.827   1.521
 1432SOL    HW1 5195   2.732   1.861   1.468
 1432SOL    HW2 5196   2.785   1.819   1.617
 1433SOL     OW 5197   4.673   0.595   5.433
 1433SOL    HW1 5198   4.608   0.534   5.478
 1433SOL    HW2 5199   4.767   0.566   5.454
 1434SOL     OW 5200   1.323   0.403   5.596
 1434SOL    HW1 5201   1.313   0.474   5.527
 1434SOL    HW2 5202   1.266   0.324   5.571
 1435SOL     OW 5203   6.912   6.987   3.175
 1435SOL    HW1 5204   6.948   6.981   3.082
 1435SOL    HW2 5205   6.821   0.003   3.172
 1436SOL     OW 5206   5.055   3.606   6.431
 1436SOL    HW1 5207   5.057   3.625   6.333
 1436SOL    HW2 5208   5.136   3.646   6.474
 1437SOL     OW 5209   3.026   2.040   5.104
 1437SOL    HW1 5210   2.980   2.050   5.192
 1437SOL    HW2 5211   3.080   2.122   5.085
 1438SOL     OW 5212   2.444   6.557   1.793
 1438SOL    HW1 5213   2.459   6.626   1.723
 1438SOL    HW2 5214   2.501   6.577   1.873
 1439SOL     OW 5215   6.510   5.161   0.755
 1439SOL    HW1 5216   6.492   5.079   0.701
 1439SOL    HW2 5217   6.608   5.182   0.752
 1440SOL     OW 5218   3.030   3.024   6.484
 1440SOL    HW1 5219   3.128   3.020   6.467
 1440SOL    HW2 5220   2.994   3.113   6.456
 1441SOL     OW 5221   6.201   1.529   3.737
 1441SOL    HW1 5222   6.151   1.443   3.750
 1441SOL    HW2 5223   6.270   1.539   3.809
 1442SOL     OW 5224   6.777   5.583   6.630
 1442SOL    HW1 5225   6.854   5.645   6.645
 1442SOL    HW2 5226   6.778   5.551   6.535
 1443SOL     OW 5227   1.245   2.628   4.098
 1443SOL    HW1 5228   1.206   2.707   4.050
 1443SOL    HW2 5229   1.229   2.546   4.044
 1444SOL     OW 5230   4.772   5.413   0.773
 1444SOL    HW1 5231   4.786   5.324   0.730
 1444SOL    HW2 5232   4.803   5.485   0.711
 1445SOL     OW 5233   0.203   3.561   2.715
 1445SOL    HW1 5234   0.234   3.642   2.765
 1445SOL    HW2 5235   0.168   3.494   2.780
 1446SOL     OW 5236   5.080   2.460   0.378
 1446SOL    HW1 5237   4.994   2.509   0.366
 1446SOL    HW2 5238   5.066   2.380   0.436
 1447SOL     OW 5239   5.859   6.929   5.204
 1447SOL    HW1 5240   5.905   7.018   5.211
 1447SOL    HW2 5241   5.770   6.934   5.250
 1448SOL     OW 5242   7.023   2.094   5.553
 1448SOL    HW1 5243   6.927   2.117   5.569
 1448SOL    HW2 5244   0.011   1.996   5.567
 1449SOL     OW 5245   0.861   1.007   6.930
 1449SOL    HW1 5246   0.923   1.085   6.938
 1449SOL    HW2 5247   0.768   1.040   6.912
 1450SOL     OW 5248   0.557   2.065   1.152
 1450SOL    HW1 5249   0.605   2.047   1.237
 1450SOL    HW2 5250   0.493   1.991   1.133
 1451SOL     OW 5251   1.754   6.931   1.899
 1451SOL    HW1 5252   1.703   7.002   1.851
 1451SOL    HW2 5253   1.763   6.851   1.839
 1452SOL     OW 5254   4.600   0.927   4.455
 1452SOL    HW1 5255   4.627   0.917   4.359
 1452SOL    HW2 5256   4.580   1.023   4.473
 1453SOL     OW 5257   7.012   4.172   5.291
 1453SOL    HW1 5258   6.929   4.184   5.345
 1453SOL    HW2 5259   0.068   4.198   5.345
 1454SOL     OW 5260   0.385   3.118   2.209
 1454SOL    HW1 5261   0.364   3.023   2.231
 1454SOL    HW2 5262   0.306   3.161   2.164
 1455SOL     OW 5263   1.075   1.133   1.546
 1455SOL    HW1 5264   1.059   1.156   1.642
 1455SOL    HW2 5265   1.148   1.065   1.539
 1456SOL     OW 5266   6.765   6.398   5.251
 1456SOL    HW1 5267   6.676   6.368   5.286
 1456SOL    HW2 5268   6.785   6.489   5.288
 1457SOL     OW 5269   1.176   6.462   1.346
 1457SOL    HW1 5270   1.219   6.377   1.316
 1457SOL    HW2 5271   1.236   6.510   1.410
 1458SOL     OW 5272   5.645   5.759   3.706
 1458SOL    HW1 5273   5.609   5.775   3.615
 1458SOL    HW2 5274   5.741   5.732   3.699
 1459SOL     OW 5275   2.886   5.865   5.777
 1459SOL    HW1 5276   2.922   5.774   5.797
 1459SOL    HW2 5277   2.861   5.870   5.681
 1460SOL     OW 5278   0.754   6.087   4.915
 1460SOL    HW1 5279   0.718   6.004   4.872
 1460SOL    HW2 5280   0.853   6.090   4.905
 1461SOL     OW 5281   6.654   5.002   2.914
 1461SOL    HW1 5282   6.705   5.082   2.881
 1461SOL    HW2 5283   6.561   5.004   2.877
 1462SOL     OW 5284   1.585   6.991   6.708
 1462SOL    HW1 5285   1.585   6.979   6.609
 1462SOL    HW2 5286   1.546   6.910   6.752
 1463SOL     OW 5287   6.795   5.477   6.370
 1463SOL    HW1 5288   6.787   5.377   6.364
 1463SOL    HW2 5289   6.845   5.511   6.290
 1464SOL     OW 5290   0.218   6.710   1.372
 1464SOL    HW1 5291   0.127   6.732   1.338
 1464SOL    HW2 5292   0.270   6.664   1.300
 1465SOL     OW 5293   1.546   1.167   2.902
 1465SOL    HW1 5294   1.607   1.146   2.826
 1465SOL    HW2 5295   1.487   1.088   2.920
 1466SOL     OW 5296   1.800   2.226   2.046
 1466SOL    HW1 5297   1.808   2.292   1.972
 1466SOL    HW2 5298   1.717   2.246   2.100
 1467SOL     OW 5299   2.015   1.084   2.828
 1467SOL    HW1 5300   2.067   1.130   2.755
 1467SOL    HW2 5301   2.009   0.987   2.808
 1468SOL     OW 5302   4.023   6.415   1.837
 1468SOL    HW1 5303   3.981   6.462   1.915
 1468SOL    HW2 5304   3.953   6.396   1.768
 1469SOL     OW 5305   1.041   1.524   1.802
 1469SOL    HW1 5306   0.993   1.605   1.835
 1469SOL    HW2 5307   1.027   1.515   1.703
 1470SOL     OW 5308   1.070   2.049   2.474
 1470SOL    HW1 5309   0.982   2.005   2.456
 1470SOL    HW2 5310   1.064   2.105   2.556
 1471SOL     OW 5311   0.485   7.009   1.039
 1471SOL    HW1 5312   0.484   0.008   0.942
 1471SOL    HW2 5313   0.504   6.911   1.050
 1472SOL     OW 5314   3.768   5.313   5.809
 1472SOL    HW1 5315   3.815   5.315   5.897
 1472SOL    HW2 5316   3.796   5.392   5.754
 1473SOL     OW 5317   4.194   6.187   5.272
 1473SOL    HW1 5318   4.212   6.148   5.182
 1473SOL    HW2 5319   4.271   6.170   5.333
 1474SOL     OW 5320   5.517   5.572   2.307
 1474SOL    HW1 5321   5.498   5.473   2.310
 1474SOL    HW2 5322   5.604   5.590   2.351
 1475SOL     OW 5323   6.079   0.341   2.119
 1475SOL    HW1 5324   6.135   0.356   2.200
 1475SOL    HW2 5325   6.080   0.244   2.095
 1476SOL     OW 5326   3.154   0.781   1.044
 1476SOL    HW1 5327   3.076   0.829   1.084
 1476SOL    HW2 5328   3.218   0.755   1.117
 1477SOL     OW 5329   3.644   0.035   6.148
 1477SOL    HW1 5330   3.587   7.005   6.209
 1477SOL    HW2 5331   3.586   0.090   6.088
 1478SOL     OW 5332   6.032   5.664   6.376
 1478SOL    HW1 5333   5.996   5.619   6.458
 1478SOL    HW2 5334   6.063   5.756   6.399
 1479SOL     OW 5335   1.304   2.171   0.393
 1479SOL    HW1 5336   1.371   2.172   0.466
 1479SOL    HW2 5337   1.271   2.077   0.378
 1480SOL     OW 5338   3.153   0.916   5.212
 1480SOL    HW1 5339   3.123   0.936   5.306
 1480SOL    HW2 5340   3.251   0.934   5.204
 1481SOL     OW 5341   6.411   3.016   5.800
 1481SOL    HW1 5342   6.340   3.016   5.729
 1481SOL    HW2 5343   6.371   2.987   5.887
 1482SOL     OW 5344   4.863   1.684   1.519
 1482SOL    HW1 5345   4.867   1.777   1.556
 1482SOL    HW2 5346   4.768   1.654   1.517
 1483SOL     OW 5347   5.133   2.024   6.780
 1483SOL    HW1 5348   5.232   2.041   6.777
 1483SOL    HW2 5349   5.086   2.094   6.726
 1484SOL     OW 5350   5.420   4.231   4.944
 1484SOL    HW1 5351   5.324   4.206   4.963
 1484SOL    HW2 5352   5.435   4.233   4.846
 1485SOL     OW 5353   3.785   1.773   3.445
 1485SOL    HW1 5354   3.792   1.805   3.351
 1485SOL    HW2 5355   3.689   1.773   3.473
 1486SOL     OW 5356   4.804   1.641   2.481
 1486SOL    HW1 5357   4.881   1.626   2.418
 1486SOL    HW2 5358   4.782   1.554   2.527
 1487SOL     OW 5359   0.107   2.381   6.150
 1487SOL    HW1 5360   0.021   2.402   6.197
 1487SOL    HW2 5361   0.112   2.283   6.133
 1488SOL     OW 5362   5.217   1.161   3.655
 1488SOL    HW1 5363   5.153   1.097   3.611
 1488SOL    HW2 5364   5.280   1.110   3.713
 1489SOL     OW 5365   4.645   4.837   5.384
 1489SOL    HW1 5366   4.625   4.934   5.372
 1489SOL    HW2 5367   4.705   4.806   5.310
 1490SOL     OW 5368   0.478   3.161   2.548
 1490SOL    HW1 5369   0.529   3.076   2.561
 1490SOL    HW2 5370   0.529   3.222   2.487
 1491SOL     OW 5371   6.688   3.752   2.575
 1491SOL    HW1 5372   6.704   3.801   2.489
 1491SOL    HW2 5373   6.606   3.788   2.619
 1492SOL     OW 5374   5.762   1.002   2.661
 1492SOL    HW1 5375   5.721   1.046   2.582
 1492SOL    HW2 5376   5.804   1.071   2.720
 1493SOL     OW 5377   3.923   6.538   5.327
 1493SOL    HW1 5378   3.877   6.614   5.281
 1493SOL    HW2 5379   3.968   6.572   5.410
 1494SOL     OW 5380   4.932   1.928   6.982
 1494SOL    HW1 5381   5.018   1.946   6.935
 1494SOL    HW2 5382   4.939   1.960   0.053
 1495SOL     OW 5383   6.313   3.595   5.249
 1495SOL    HW1 5384   6.314   3.529   5.325
 1495SOL    HW2 5385   6.385   3.571   5.183
 1496SOL     OW 5386   0.384   1.694   1.412
 1496SOL    HW1 5387   0.343   1.779   1.445
 1496SOL    HW2 5388   0.322   1.649   1.348
 1497SOL     OW 5389   6.433   3.189   2.944
 1497SOL    HW1 5390   6.522   3.142   2.942
 1497SOL    HW2 5391   6.431   3.259   2.873
 1498SOL     OW 5392   2.701   5.200   6.898
 1498SOL    HW1 5393   2.640   5.258   6.845
 1498SOL    HW2 5394   2.659   5.177   6.986
 1499SOL     OW 5395   0.644   2.904   6.047
 1499SOL    HW1 5396   0.544   2.894   6.037
 1499SOL    HW2 5397   0.676   2.844   6.121
 1500SOL     OW 5398   0.127   0.033   0.472
 1500SOL    HW1 5399   0.085   6.967   0.464
 1500SOL    HW2 5400   0.058   0.103   0.452
 1501SOL     OW 5401   5.444   2.565   6.457
 1501SOL    HW1 5402   5.512   2.617   6.405
 1501SOL    HW2 5403   5.444   2.597   6.552
 1502SOL     OW 5404   4.018   0.194   0.171
 1502SOL    HW1 5405   3.943   0.154   0.225
 1502SOL    HW2 5406   4.100   0.200   0.228
 1503SOL     OW 5407   0.307   4.047   1.697
 1503SOL    HW1 5408   0.273   4.082   1.609
 1503SOL    HW2 5409   0.397   4.007   1.684
 1504SOL     OW 5410   0.556   0.331   5.315
 1504SOL    HW1 5411   0.498   0.276   5.376
 1504SOL    HW2 5412   0.632   0.275   5.282
 1505SOL     OW 5413   5.186   0.555   5.107
 1505SOL    HW1 5414   5.124   0.626   5.076
 1505SOL    HW2 5415   5.210   0.571   5.203
 1506SOL     OW 5416   0.615   6.243   0.582
 1506SOL    HW1 5417   0.582   6.173   0.518
 1506SOL    HW2 5418   0.541   6.309   0.600
 1507SOL     OW 5419   1.125   1.778   5.766
 1507SOL    HW1 5420   1.217   1.753   5.794
 1507SOL    HW2 5421   1.124   1.797   5.668
 1508SOL     OW 5422   6.649   1.271   2.165
 1508SOL    HW1 5423   6.657   1.180   2.124
 1508SOL    HW2 5424   6.739   1.302   2.194
 1509SOL     OW 5425   3.743   1.512   5.875
 1509SOL    HW1 5426   3.775   1.586   5.933
 1509SOL    HW2 5427   3.661   1.542   5.825
 1510SOL     OW 5428   5.064   1.924   4.797
 1510SOL    HW1 5429   5.017   1.837   4.782
 1510SOL    HW2 5430   5.012   1.978   4.863
 1511SOL     OW 5431   3.901   3.050   2.497
 1511SOL    HW1 5432   3.922   2.992   2.419
 1511SOL    HW2 5433   3.835   3.120   2.470
 1512SOL     OW 5434   0.449   5.451   1.632
 1512SOL    HW1 5435   0.534   5.499   1.655
 1512SOL    HW2 5436   0.451   5.425   1.535
 1513SOL     OW 5437   3.682   0.682   4.244
 1513SOL    HW1 5438   3.693   0.584   4.262
 1513SOL    HW2 5439   3.722   0.734   4.319
 1514SOL     OW 5440   3.921   2.027   5.677
 1514SOL    HW1 5441   3.989   2.099   5.664
 1514SOL    HW2 5442   3.967   1.940   5.693
 1515SOL     OW 5443   5.984   2.066   3.091
 1515SOL    HW1 5444   6.051   2.001   3.127
 1515SOL    HW2 5445   5.951   2.034   3.002
 1516SOL     OW 5446   6.662   6.171   0.284
 1516SOL    HW1 5447   6.643   6.082   0.245
 1516SOL    HW2 5448   6.623   6.242   0.226
 1517SOL     OW 5449   4.658   6.155   3.205
 1517SOL    HW1 5450   4.576   6.212   3.215
 1517SOL    HW2 5451   4.661   6.117   3.113
 1518SOL     OW 5452   1.392   2.571   6.434
 1518SOL    HW1 5453   1.315   2.571   6.497
 1518SOL    HW2 5454   1.473   2.533   6.480
 1519SOL     OW 5455   0.027   5.295   1.417
 1519SOL    HW1 5456   0.037   5.225   1.487
 1519SOL    HW2 5457   6.955   5.321   1.409
 1520SOL     OW 5458   0.322   4.161   2.011
 1520SOL    HW1 5459   0.339   4.111   1.926
 1520SOL    HW2 5460   0.407   4.170   2.062
 1521SOL     OW 5461   1.847   4.124   6.486
 1521SOL    HW1 5462   1.798   4.148   6.570
 1521SOL    HW2 5463   1.849   4.025   6.477
 1522SOL     OW 5464   6.280   6.375   5.283
 1522SOL    HW1 5465   6.225   6.405   5.206
 1522SOL    HW2 5466   6.223   6.373   5.366
 1523SOL     OW 5467   4.983   5.897   1.054
 1523SOL    HW1 5468   4.973   5.978   1.112
 1523SOL    HW2 5469   5.015   5.820   1.110
 1524SOL     OW 5470   2.472   2.380   2.048
 1524SOL    HW1 5471   2.414   2.305   2.082
 1524SOL    HW2 5472   2.437   2.467   2.083
 1525SOL     OW 5473   0.074   2.516   0.033
 1525SOL    HW1 5474   0.122   2.482   6.976
 1525SOL    HW2 5475   0.088   2.453   0.109
 1526SOL     OW 5476   6.501   0.120   6.405
 1526SOL    HW1 5477   6.509   0.219   6.410
 1526SOL    HW2 5478   6.497   0.082   6.497
 1527SOL     OW 5479   4.095   0.402   5.174
 1527SOL    HW1 5480   4.146   0.406   5.259
 1527SOL    HW2 5481   3.997   0.402   5.194
 1528SOL     OW 5482   4.401   5.351   2.133
 1528SOL    HW1 5483   4.472   5.402   2.085
 1528SOL    HW2 5484   4.359   5.409   2.203
 1529SOL     OW 5485   3.699   0.689   6.999
 1529SOL    HW1 5486   3.770   0.713   6.933
 1529SOL    HW2 5487   3.618   0.746   6.982
 1530SOL     OW 5488   3.220   1.778   1.854
 1530SOL    HW1 5489   3.229   1.751   1.950
 1530SOL    HW2 5490   3.129   1.755   1.821
 1531SOL     OW 5491   4.675   0.839   5.565
 1531SOL    HW1 5492   4.753   0.877   5.515
 1531SOL    HW2 5493   4.655   0.747   5.531
 1532SOL     OW 5494   2.833   3.472   6.297
 1532SOL    HW1 5495   2.790   3.483   6.207
 1532SOL    HW2 5496   2.921   3.519   6.299
 1533SOL     OW 5497   5.658   4.179   6.886
 1533SOL    HW1 5498   5.713   4.140   6.960
 1533SOL    HW2 5499   5.561   4.170   6.909
 1534SOL     OW 5500   2.283   4.679   6.460
 1534SOL    HW1 5501   2.261   4.582   6.453
 1534SOL    HW2 5502   2.201   4.734   6.445
 1535SOL     OW 5503   4.776   6.309   4.133
 1535SOL    HW1 5504   4.846   6.350   4.191
 1535SOL    HW2 5505   4.820   6.254   4.062
 1536SOL     OW 5506   3.967   4.488   5.294
 1536SOL    HW1 5507   4.036   4.458   5.228
 1536SOL    HW2 5508   3.899   4.416   5.307
 1537SOL     OW 5509   4.703   6.684   3.359
 1537SOL    HW1 5510   4.643   6.639   3.293
 1537SOL    HW2 5511   4.661   6.682   3.449
 1538SOL     OW 5512   4.266   5.654   6.454
 1538SOL    HW1 5513   4.320   5.570   6.449
 1538SOL    HW2 5514   4.243   5.685   6.361
 1539SOL     OW 5515   4.476   3.865   1.560
 1539SOL    HW1 5516   4.470   3.965   1.567
 1539SOL    HW2 5517   4.421   3.834   1.482
 1540SOL     OW 5518   1.137   6.003   5.878
 1540SOL    HW1 5519   1.237   6.003   5.869
 1540SOL    HW2 5520   1.103   5.910   5.862
 1541SOL     OW 5521   3.927   3.125   3.225
 1541SOL    HW1 5522   3.993   3.182   3.176
 1541SOL    HW2 5523   3.857   3.093   3.161
 1542SOL     OW 5524   5.850   6.097   2.529
 1542SOL    HW1 5525   5.903   6.181   2.538
 1542SOL    HW2 5526   5.797   6.082   2.613
 1543SOL     OW 5527   3.820   4.731   5.341
 1543SOL    HW1 5528   3.844   4.636   5.362
 1543SOL    HW2 5529   3.732   4.752   5.384
 1544SOL     OW 5530   3.505   3.311   3.034
 1544SOL    HW1 5531   3.454   3.350   2.958
 1544SOL    HW2 5532   3.602   3.304   3.009
 1545SOL     OW 5533   4.762   1.114   3.861
 1545SOL    HW1 5534   4.804   1.040   3.807
 1545SOL    HW2 5535   4.671   1.086   3.890
 1546SOL     OW 5536   3.970   6.304   5.939
 1546SOL    HW1 5537   3.918   6.226   5.902
 1546SOL    HW2 5538   3.949   6.314   6.036
 1547SOL     OW 5539   1.444   3.564   2.882
 1547SOL    HW1 5540   1.541   3.550   2.904
 1547SOL    HW2 5541   1.417   3.498   2.812
 1548SOL     OW 5542   4.767   3.618   5.786
 1548SOL    HW1 5543   4.717   3.532   5.775
 1548SOL    HW2 5544   4.865   3.600   5.784
 1549SOL     OW 5545   4.673   1.385   2.519
 1549SOL    HW1 5546   4.655   1.288   2.533
 1549SOL    HW2 5547   4.651   1.410   2.425
 1550SOL     OW 5548   3.187   4.025   6.915
 1550SOL    HW1 5549   3.227   4.037   6.824
 1550SOL    HW2 5550   3.167   4.115   6.955
 1551SOL     OW 5551   1.845   4.869   6.286
 1551SOL    HW1 5552   1.923   4.857   6.347
 1551SOL    HW2 5553   1.872   4.848   6.192
 1552SOL     OW 5554   0.108   5.973   6.771
 1552SOL    HW1 5555   0.182   5.919   6.731
 1552SOL    HW2 5556   0.141   6.065   6.791
 1553SOL     OW 5557   0.063   1.587   5.487
 1553SOL    HW1 5558   0.090   1.539   5.570
 1553SOL    HW2 5559   0.134   1.577   5.418
 1554SOL     OW 5560   4.108   1.749   3.174
 1554SOL    HW1 5561   4.009   1.754   3.159
 1554SOL    HW2 5562   4.128   1.674   3.236
 1555SOL     OW 5563   5.293   2.305   6.983
 1555SOL    HW1 5564   5.285   2.213   7.022
 1555SOL    HW2 5565   5.299   2.298   6.883
 1556SOL     OW 5566   3.326   0.931   0.884
 1556SOL    HW1 5567   3.275   0.877   0.952
 1556SOL    HW2 5568   3.262   0.970   0.818
 1557SOL     OW 5569   2.106   0.785   6.111
 1557SOL    HW1 5570   2.017   0.828   6.129
 1557SOL    HW2 5571   2.172   0.854   6.085
 1558SOL     OW 5572   4.864   0.436   4.751
 1558SOL    HW1 5573   4.842   0.454   4.655
 1558SOL    HW2 5574   4.941   0.494   4.779
 1559SOL     OW 5575   0.293   2.781   6.780
 1559SOL    HW1 5576   0.211   2.815   6.735
 1559SOL    HW2 5577   0.368   2.777   6.714
 1560SOL     OW 5578   1.611   1.392   5.789
 1560SOL    HW1 5579   1.666   1.455   5.735
 1560SOL    HW2 5580   1.639   1.396   5.885
 1561SOL     OW 5581   5.946   6.361   4.397
 1561SOL    HW1 5582   6.008   6.283   4.404
 1561SOL    HW2 5583   5.891   6.352   4.314
 1562SOL     OW 5584   4.188   5.690   2.706
 1562SOL    HW1 5585   4.121   5.681   2.780
 1562SOL    HW2 5586   4.165   5.627   2.632
 1563SOL     OW 5587   2.019   0.366   6.273
 1563SOL    HW1 5588   1.922   0.387   6.267
 1563SOL    HW2 5589   2.057   0.355   6.181
 1564SOL     OW 5590   1.123   2.880   2.939
 1564SOL    HW1 5591   1.189   2.948   2.969
 1564SOL    HW2 5592   1.035   2.924   2.921
 1565SOL     OW 5593   4.251   4.931   4.860
 1565SOL    HW1 5594   4.279   5.012   4.913
 1565SOL    HW2 5595   4.160   4.945   4.823
 1566SOL     OW 5596   5.197   4.810   3.537
 1566SOL    HW1 5597   5.130   4.831   3.466
 1566SOL    HW2 5598   5.191   4.879   3.610
 1567SOL     OW 5599   5.795   5.551   0.190
 1567SOL    HW1 5600   5.783   5.625   0.257
 1567SOL    HW2 5601   5.870   5.491   0.219
 1568SOL     OW 5602   1.708   5.765   1.320
 1568SOL    HW1 5603   1.800   5.727   1.321
 1568SOL    HW2 5604   1.703   5.842   1.384
 1569SOL     OW 5605   3.861   6.354   3.519
 1569SOL    HW1 5606   3.774   6.367   3.566
 1569SOL    HW2 5607   3.905   6.270   3.551
 1570SOL     OW 5608   2.117   6.478   0.777
 1570SOL    HW1 5609   2.020   6.462   0.759
 1570SOL    HW2 5610   2.169   6.476   0.692
 1571SOL     OW 5611   5.950   1.689   2.022
 1571SOL    HW1 5612   5.933   1.739   2.107
 1571SOL    HW2 5613   6.049   1.676   2.010
 1572SOL     OW 5614   0.379   6.756   0.550
 1572SOL    HW1 5615   0.477   6.737   0.551
 1572SOL    HW2 5616   0.364   6.855   0.551
 1573SOL     OW 5617   6.061   3.589   2.045
 1573SOL    HW1 5618   6.126   3.555   1.977
 1573SOL    HW2 5619   6.106   3.657   2.104
 1574SOL     OW 5620   0.305   0.876   2.645
 1574SOL    HW1 5621   0.243   0.808   2.685
 1574SOL    HW2 5622   0.259   0.965   2.644
 1575SOL     OW 5623   3.119   1.933   0.687
 1575SOL    HW1 5624   3.157   2.010   0.737
 1575SOL    HW2 5625   3.028   1.911   0.722
 1576SOL     OW 5626   1.092   0.430   3.356
 1576SOL    HW1 5627   1.109   0.340   3.316
 1576SOL    HW2 5628   1.178   0.466   3.394
 1577SOL     OW 5629   2.683   0.584   5.108
 1577SOL    HW1 5630   2.613   0.513   5.095
 1577SOL    HW2 5631   2.662   0.663   5.050
 1578SOL     OW 5632   5.668   2.700   5.713
 1578SOL    HW1 5633   5.616   2.726   5.794
 1578SOL    HW2 5634   5.723   2.777   5.683
 1579SOL     OW 5635   0.810   1.679   2.365
 1579SOL    HW1 5636   0.729   1.718   2.320
 1579SOL    HW2 5637   0.835   1.593   2.321
 1580SOL     OW 5638   3.133   4.072   4.611
 1580SOL    HW1 5639   3.083   4.149   4.652
 1580SOL    HW2 5640   3.209   4.047   4.671
 1581SOL     OW 5641   0.199   4.099   4.958
 1581SOL    HW1 5642   0.242   4.028   4.903
 1581SOL    HW2 5643   0.144   4.159   4.899
 1582SOL     OW 5644   2.016   0.279   4.188
 1582SOL    HW1 5645   2.021   0.219   4.108
 1582SOL    HW2 5646   1.946   0.349   4.172
 1583SOL     OW 5647   1.259   4.625   3.229
 1583SOL    HW1 5648   1.263   4.693   3.303
 1583SOL    HW2 5649   1.330   4.645   3.162
 1584SOL     OW 5650   1.396   6.329   5.710
 1584SOL    HW1 5651   1.384   6.321   5.808
 1584SOL    HW2 5652   1.338   6.262   5.663
 1585SOL     OW 5653   5.598   1.449   3.457
 1585SOL    HW1 5654   5.634   1.532   3.500
 1585SOL    HW2 5655   5.539   1.401   3.522
 1586SOL     OW 5656   3.400   4.864   2.148
 1586SOL    HW1 5657   3.485   4.839   2.102
 1586SOL    HW2 5658   3.326   4.870   2.080
 1587SOL     OW 5659   3.147   5.447   6.277
 1587SOL    HW1 5660   3.077   5.402   6.333
 1587SOL    HW2 5661   3.184   5.382   6.210
 1588SOL     OW 5662   4.100   1.162   3.245
 1588SOL    HW1 5663   4.186   1.139   3.200
 1588SOL    HW2 5664   4.098   1.261   3.263
 1589SOL     OW 5665   5.789   3.521   1.373
 1589SOL    HW1 5666   5.791   3.612   1.332
 1589SOL    HW2 5667   5.881   3.483   1.374
 1590SOL     OW 5668   3.830   6.070   5.888
 1590SOL    HW1 5669   3.831   5.996   5.821
 1590SOL    HW2 5670   3.736   6.088   5.915
 1591SOL     OW 5671   6.871   4.863   2.581
 1591SOL    HW1 5672   6.840   4.957   2.573
 1591SOL    HW2 5673   6.970   4.862   2.598
 1592SOL     OW 5674   2.248   4.382   6.446
 1592SOL    HW1 5675   2.176   4.336   6.498
 1592SOL    HW2 5676   2.311   4.314   6.408
 1593SOL     OW 5677   1.374   6.299   4.704
 1593SOL    HW1 5678   1.353   6.355   4.623
 1593SOL    HW2 5679   1.404   6.208   4.675
 1594SOL     OW 5680   0.578   5.910   2.472
 1594SOL    HW1 5681   0.639   5.834   2.495
 1594SOL    HW2 5682   0.606   5.950   2.385
 1595SOL     OW 5683   1.347   5.646   0.648
 1595SOL    HW1 5684   1.407   5.613   0.720
 1595SOL    HW2 5685   1.286   5.716   0.684
 1596SOL     OW 5686   0.171   2.484   3.759
 1596SOL    HW1 5687   0.111   2.551   3.715
 1596SOL    HW2 5688   0.158   2.394   3.716
 1597SOL     OW 5689   1.938   6.530   0.403
 1597SOL    HW1 5690   1.999   6.475   0.461
 1597SOL    HW2 5691   1.991   6.580   0.336
 1598SOL     OW 5692   0.957   3.913   6.110
 1598SOL    HW1 5693   1.039   3.898   6.054
 1598SOL    HW2 5694   0.904   3.988   6.072
 1599SOL     OW 5695   4.931   4.533   5.459
 1599SOL    HW1 5696   4.890   4.528   5.550
 1599SOL    HW2 5697   4.931   4.442   5.418
 1600SOL     OW 5698   4.728   1.847   4.004
 1600SOL    HW1 5699   4.691   1.935   3.974
 1600SOL    HW2 5700   4.696   1.775   3.943
 1601SOL     OW 5701   0.096   4.618   4.788
 1601SOL    HW1 5702   0.173   4.556   4.769
 1601SOL    HW2 5703   0.027   4.569   4.841
 1602SOL     OW 5704   2.925   4.820   3.321
 1602SOL    HW1 5705   3.024   4.828   3.335
 1602SOL    HW2 5706   2.906   4.822   3.223
 1603SOL     OW 5707   0.834   6.156   2.425
 1603SOL    HW1 5708   0.860   6.243   2.468
 1603SOL    HW2 5709   0.792   6.174   2.336
 1604SOL     OW 5710   5.640   5.226   1.952
 1604SOL    HW1 5711   5.684   5.141   1.921
 1604SOL    HW2 5712   5.692   5.264   2.028
 1605SOL     OW 5713   6.902   6.207   1.421
 1605SOL    HW1 5714   6.919   6.230   1.325
 1605SOL    HW2 5715   6.968   6.254   1.478
 1606SOL     OW 5716   3.071   0.492   4.735
 1606SOL    HW1 5717   3.032   0.578   4.767
 1606SOL    HW2 5718   3.147   0.511   4.673
 1607SOL     OW 5719   4.425   1.166   1.040
 1607SOL    HW1 5720   4.384   1.075   1.030
 1607SOL    HW2 5721   4.517   1.158   1.078
 1608SOL     OW 5722   0.924   0.663   3.782
 1608SOL    HW1 5723   0.979   0.616   3.851
 1608SOL    HW2 5724   0.829   0.670   3.813
 1609SOL     OW 5725   3.783   0.318   0.523
 1609SOL    HW1 5726   3.706   0.336   0.584
 1609SOL    HW2 5727   3.768   0.232   0.475
 1610SOL     OW 5728   5.604   4.690   0.001
 1610SOL    HW1 5729   5.664   4.645   0.067
 1610SOL    HW2 5730   5.646   4.775   6.995
 1611SOL     OW 5731   2.169   3.617   1.078
 1611SOL    HW1 5732   2.208   3.704   1.049
 1611SOL    HW2 5733   2.091   3.634   1.138
 1612SOL     OW 5734   2.840   0.645   5.621
 1612SOL    HW1 5735   2.764   0.701   5.653
 1612SOL    HW2 5736   2.883   0.688   5.542
 1613SOL     OW 5737   2.224   5.392   1.989
 1613SOL    HW1 5738   2.258   5.486   1.981
 1613SOL    HW2 5739   2.299   5.328   1.969
 1614SOL     OW 5740   5.856   3.802   6.885
 1614SOL    HW1 5741   5.948   3.774   6.913
 1614SOL    HW2 5742   5.795   3.798   6.964
 1615SOL     OW 5743   6.335   4.924   0.882
 1615SOL    HW1 5744   6.426   4.966   0.883
 1615SOL    HW2 5745   6.324   4.866   0.963
 1616SOL     OW 5746   2.991   0.751   4.802
 1616SOL    HW1 5747   3.050   0.814   4.751
 1616SOL    HW2 5748   2.974   0.788   4.893
 1617SOL     OW 5749   6.043   0.465   2.577
 1617SOL    HW1 5750   6.064   0.368   2.586
 1617SOL    HW2 5751   5.947   0.480   2.602
 1618SOL     OW 5752   1.771   3.872   1.820
 1618SOL    HW1 5753   1.761   3.970   1.839
 1618SOL    HW2 5754   1.685   3.825   1.840
 1619SOL     OW 5755   1.214   2.965   2.497
 1619SOL    HW1 5756   1.193   2.887   2.557
 1619SOL    HW2 5757   1.130   2.996   2.453
 1620SOL     OW 5758   2.741   4.845   1.854
 1620SOL    HW1 5759   2.756   4.808   1.762
 1620SOL    HW2 5760   2.748   4.772   1.921
 1621SOL     OW 5761   0.327   1.117   0.759
 1621SOL    HW1 5762   0.427   1.117   0.758
 1621SOL    HW2 5763   0.294   1.196   0.707
 1622SOL     OW 5764   0.374   3.103   4.881
 1622SOL    HW1 5765   0.408   3.015   4.849
 1622SOL    HW2 5766   0.430   3.177   4.844
 1623SOL     OW 5767   1.980   3.424   5.648
 1623SOL    HW1 5768   2.054   3.361   5.626
 1623SOL    HW2 5769   1.933   3.450   5.563
 1624SOL     OW 5770   2.977   0.542   5.161
 1624SOL    HW1 5771   2.924   0.625   5.141
 1624SOL    HW2 5772   2.943   0.467   5.105
 1625SOL     OW 5773   1.191   5.428   1.662
 1625SOL    HW1 5774   1.221   5.358   1.597
 1625SOL    HW2 5775   1.092   5.421   1.674
 1626SOL     OW 5776   3.981   2.002   6.764
 1626SOL    HW1 5777   3.987   1.951   6.849
 1626SOL    HW2 5778   3.980   1.939   6.687
 1627SOL     OW 5779   0.264   3.687   3.807
 1627SOL    HW1 5780   0.332   3.639   3.863
 1627SOL    HW2 5781   0.234   3.770   3.856
 1628SOL     OW 5782   4.429   4.846   0.443
 1628SOL    HW1 5783   4.476   4.934   0.443
 1628SOL    HW2 5784   4.343   4.855   0.494
 1629SOL     OW 5785   2.751   0.807   4.155
 1629SOL    HW1 5786   2.690   0.842   4.084
 1629SOL    HW2 5787   2.702   0.742   4.212
 1630SOL     OW 5788   1.657   5.670   5.624
 1630SOL    HW1 5789   1.652   5.572   5.605
 1630SOL    HW2 5790   1.660   5.685   5.723
 1631SOL     OW 5791   0.747   2.750   6.264
 1631SOL    HW1 5792   0.806   2.673   6.287
 1631SOL    HW2 5793   0.662   2.716   6.223
 1632SOL     OW 5794   0.256   2.011   6.665
 1632SOL    HW1 5795   0.174   2.051   6.626
 1632SOL    HW2 5796   0.286   1.934   6.609
 1633SOL     OW 5797   5.338   3.161   4.866
 1633SOL    HW1 5798   5.315   3.221   4.790
 1633SOL    HW2 5799   5.330   3.211   4.952
 1634SOL     OW 5800   4.227   5.234   6.388
 1634SOL    HW1 5801   4.217   5.151   6.443
 1634SOL    HW2 5802   4.202   5.214   6.293
 1635SOL     OW 5803   6.675   5.620   5.882
 1635SOL    HW1 5804   6.649   5.683   5.809
 1635SOL    HW2 5805   6.732   5.669   5.949
 1636SOL     OW 5806   2.995   4.337   1.702
 1636SOL    HW1 5807   2.967   4.405   1.769
 1636SOL    HW2 5808   2.990   4.246   1.742
 1637SOL     OW 5809   0.961   0.410   2.600
 1637SOL    HW1 5810   0.913   0.407   2.688
 1637SOL    HW2 5811   1.055   0.379   2.612
 1638SOL     OW 5812   0.311   4.498   3.467
 1638SOL    HW1 5813   0.401   4.541   3.461
 1638SOL    HW2 5814   0.321   4.398   3.467
 1639SOL     OW 5815   4.938   6.894   2.756
 1639SOL    HW1 5816   4.899   6.984   2.742
 1639SOL    HW2 5817   4.984   6.891   2.845
 1640SOL     OW 5818   5.986   1.222   0.438
 1640SOL    HW1 5819   5.961   1.239   0.343
 1640SOL    HW2 5820   5.947   1.294   0.496
 1641SOL     OW 5821   5.062   2.662   3.998
 1641SOL    HW1 5822   5.115   2.740   3.967
 1641SOL    HW2 5823   5.019   2.617   3.920
 1642SOL     OW 5824   5.733   3.668   6.708
 1642SOL    HW1 5825   5.788   3.724   6.770
 1642SOL    HW2 5826   5.636   3.692   6.719
 1643SOL     OW 5827   2.882   5.180   4.051
 1643SOL    HW1 5828   2.817   5.104   4.041
 1643SOL    HW2 5829   2.832   5.266   4.062
 1644SOL     OW 5830   0.185   2.973   0.885
 1644SOL    HW1 5831   0.101   2.956   0.935
 1644SOL    HW2 5832   0.255   3.010   0.947
 1645SOL     OW 5833   3.390   5.869   5.654
 1645SOL    HW1 5834   3.368   5.772   5.645
 1645SOL    HW2 5835   3.361   5.918   5.572
 1646SOL     OW 5836   2.854   5.962   0.276
 1646SOL    HW1 5837   2.861   5.863   0.290
 1646SOL    HW2 5838   2.780   5.999   0.332
 1647SOL     OW 5839   6.523   3.229   4.968
 1647SOL    HW1 5840   6.489   3.180   5.049
 1647SOL    HW2 5841   6.448   3.282   4.928
 1648SOL     OW 5842   5.574   5.264   1.168
 1648SOL    HW1 5843   5.652   5.206   1.146
 1648SOL    HW2 5844   5.599   5.360   1.157
 1649SOL     OW 5845   3.386   0.313   4.521
 1649SOL    HW1 5846   3.287   0.318   4.536
 1649SOL    HW2 5847   3.425   0.243   4.581
 1650SOL     OW 5848   1.972   6.121   5.262
 1650SOL    HW1 5849   2.047   6.055   5.254
 1650SOL    HW2 5850   1.955   6.140   5.359
 1651SOL     OW 5851   0.363   1.610   0.998
 1651SOL    HW1 5852   0.431   1.561   0.942
 1651SOL    HW2 5853   0.315   1.677   0.941
 1652SOL     OW 5854   0.904   3.499   2.595
 1652SOL    HW1 5855   0.887   3.402   2.615
 1652SOL    HW2 5856   0.834   3.555   2.640
 1653SOL     OW 5857   1.301   0.348   1.060
 1653SOL    HW1 5858   1.235   0.299   1.117
 1653SOL    HW2 5859   1.374   0.384   1.117
 1654SOL     OW 5860   6.638   3.414   1.438
 1654SOL    HW1 5861   6.648   3.514   1.439
 1654SOL    HW2 5862   6.565   3.387   1.500
 1655SOL     OW 5863   6.385   2.827   5.232
 1655SOL    HW1 5864   6.457   2.797   5.170
 1655SOL    HW2 5865   6.354   2.918   5.205
 1656SOL     OW 5866   2.351   4.662   1.753
 1656SOL    HW1 5867   2.337   4.725   1.830
 1656SOL    HW2 5868   2.340   4.712   1.667
 1657SOL     OW 5869   6.729   0.727   3.821
 1657SOL    HW1 5870   6.737   0.630   3.797
 1657SOL    HW2 5871   6.649   0.740   3.879
 1658SOL     OW 5872   1.360   6.866   1.083
 1658SOL    HW1 5873   1.375   6.919   0.999
 1658SOL    HW2 5874   1.284   6.906   1.134
 1659SOL     OW 5875   3.738   0.565   6.271
 1659SOL    HW1 5876   3.793   0.490   6.234
 1659SOL    HW2 5877   3.691   0.535   6.354
 1660SOL     OW 5878   1.070   5.331   4.133
 1660SOL    HW1 5879   1.020   5.259   4.086
 1660SOL    HW2 5880   1.167   5.306   4.139
 1661SOL     OW 5881   2.570   1.075   1.851
 1661SOL    HW1 5882   2.497   1.135   1.818
 1661SOL    HW2 5883   2.620   1.038   1.773
 1662SOL     OW 5884   6.903   6.925   3.882
 1662SOL    HW1 5885   6.832   6.892   3.819
 1662SOL    HW2 5886   6.865   6.933   3.974
 1663SOL     OW 5887   3.988   6.577   2.719
 1663SOL    HW1 5888   3.916   6.639   2.750
 1663SOL    HW2 5889   4.000   6.504   2.786
 1664SOL     OW 5890   2.007   6.533   4.605
 1664SOL    HW1 5891   2.028   6.620   4.649
 1664SOL    HW2 5892   1.983   6.548   4.509
 1665SOL     OW 5893   0.046   1.487   3.565
 1665SOL    HW1 5894   0.037   1.532   3.653
 1665SOL    HW2 5895   0.112   1.412   3.573
 1666SOL     OW 5896   5.541   2.912   0.182
 1666SOL    HW1 5897   5.448   2.920   0.218
 1666SOL    HW2 5898   5.552   2.822   0.138
 1667SOL     OW 5899   6.608   6.743   1.754
 1667SOL    HW1 5900   6.567   6.761   1.843
 1667SOL    HW2 5901   6.563   6.799   1.684
 1668SOL     OW 5902   5.559   6.451   5.633
 1668SOL    HW1 5903   5.500   6.457   5.552
 1668SOL    HW2 5904   5.611   6.536   5.642
 1669SOL     OW 5905   0.130   5.785   6.231
 1669SOL    HW1 5906   0.168   5.843   6.159
 1669SOL    HW2 5907   0.204   5.753   6.290
 1670SOL     OW 5908   0.441   4.022   6.360
 1670SOL    HW1 5909   0.528   4.032   6.409
 1670SOL    HW2 5910   0.417   4.110   6.318
 1671SOL     OW 5911   4.800   2.374   1.239
 1671SOL    HW1 5912   4.873   2.369   1.170
 1671SOL    HW2 5913   4.839   2.353   1.329
 1672SOL     OW 5914   1.916   3.040   1.001
 1672SOL    HW1 5915   1.971   3.003   0.926
 1672SOL    HW2 5916   1.858   2.968   1.038
 1673SOL     OW 5917   0.327   2.600   4.010
 1673SOL    HW1 5918   0.408   2.576   4.064
 1673SOL    HW2 5919   0.322   2.541   3.930
 1674SOL     OW 5920   0.333   4.119   2.398
 1674SOL    HW1 5921   0.395   4.141   2.323
 1674SOL    HW2 5922   0.354   4.178   2.476
 1675SOL     OW 5923   4.172   0.812   6.329
 1675SOL    HW1 5924   4.198   0.908   6.325
 1675SOL    HW2 5925   4.192   0.768   6.241
 1676SOL     OW 5926   2.263   1.923   2.131
 1676SOL    HW1 5927   2.241   2.019   2.112
 1676SOL    HW2 5928   2.293   1.879   2.047
 1677SOL     OW 5929   3.098   2.857   5.245
 1677SOL    HW1 5930   2.999   2.863   5.235
 1677SOL    HW2 5931   3.123   2.762   5.265
 1678SOL     OW 5932   4.530   4.745   4.636
 1678SOL    HW1 5933   4.481   4.712   4.717
 1678SOL    HW2 5934   4.465   4.767   4.564
 1679SOL     OW 5935   2.506   2.542   4.729
 1679SOL    HW1 5936   2.495   2.607   4.654
 1679SOL    HW2 5937   2.423   2.538   4.783
 1680SOL     OW 5938   0.385   3.495   4.632
 1680SOL    HW1 5939   0.303   3.464   4.583
 1680SOL    HW2 5940   0.443   3.416   4.652
 1681SOL     OW 5941   6.329   5.985   6.855
 1681SOL    HW1 5942   6.361   5.900   6.897
 1681SOL    HW2 5943   6.232   5.975   6.830
 1682SOL     OW 5944   0.233   1.472   4.943
 1682SOL    HW1 5945   0.276   1.383   4.931
 1682SOL    HW2 5946   0.274   1.519   5.022
 1683SOL     OW 5947   4.253   5.558   1.291
 1683SOL    HW1 5948   4.217   5.627   1.353
 1683SOL    HW2 5949   4.181   5.493   1.267
 1684SOL     OW 5950   1.480   6.094   2.756
 1684SOL    HW1 5951   1.567   6.051   2.781
 1684SOL    HW2 5952   1.436   6.130   2.839
 1685SOL     OW 5953   2.433   0.861   5.844
 1685SOL    HW1 5954   2.344   0.843   5.802
 1685SOL    HW2 5955   2.422   0.928   5.918
 1686SOL     OW 5956   2.414   5.240   4.488
 1686SOL    HW1 5957   2.403   5.324   4.541
 1686SOL    HW2 5958   2.359   5.167   4.529
 1687SOL     OW 5959   2.346   3.431   1.199
 1687SOL    HW1 5960   2.350   3.425   1.299
 1687SOL    HW2 5961   2.278   3.500   1.173
 1688SOL     OW 5962   1.724   2.290   4.543
 1688SOL    HW1 5963   1.773   2.208   4.512
 1688SOL    HW2 5964   1.683   2.272   4.633
 1689SOL     OW 5965   5.265   1.410   2.312
 1689SOL    HW1 5966   5.315   1.417   2.225
 1689SOL    HW2 5967   5.206   1.329   2.310
 1690SOL     OW 5968   1.769   2.764   3.624
 1690SOL    HW1 5969   1.723   2.782   3.537
 1690SOL    HW2 5970   1.704   2.773   3.699
 1691SOL     OW 5971   5.976   3.990   3.391
 1691SOL    HW1 5972   6.064   4.019   3.354
 1691SOL    HW2 5973   5.904   4.052   3.358
 1692SOL     OW 5974   5.962   0.285   1.675
 1692SOL    HW1 5975   5.997   0.379   1.677
 1692SOL    HW2 5976   5.969   0.250   1.581
 1693SOL     OW 5977   0.678   2.265   1.892
 1693SOL    HW1 5978   0.751   2.331   1.876
 1693SOL    HW2 5979   0.637   2.281   1.982
 1694SOL     OW 5980   5.523   0.447   3.481
 1694SOL    HW1 5981   5.497   0.523   3.541
 1694SOL    HW2 5982   5.507   0.472   3.386
 1695SOL     OW 5983   3.289   1.898   6.593
 1695SOL    HW1 5984   3.340   1.819   6.560
 1695SOL    HW2 5985   3.352   1.975   6.604
 1696SOL     OW 5986   4.893   4.316   0.557
 1696SOL    HW1 5987   4.908   4.392   0.494
 1696SOL    HW2 5988   4.955   4.324   0.635
 1697SOL     OW 5989   5.574   6.228   1.704
 1697SOL    HW1 5990   5.544   6.141   1.743
 1697SOL    HW2 5991   5.642   6.270   1.764
 1698SOL     OW 5992   4.452   0.879   0.011
 1698SOL    HW1 5993   4.435   0.957   6.975
 1698SOL    HW2 5994   4.367   0.827   0.023
 1699SOL     OW 5995   2.499   1.117   0.720
 1699SOL    HW1 5996   2.480   1.099   0.816
 1699SOL    HW2 5997   2.413   1.126   0.670
 1700SOL     OW 5998   5.400   2.009   3.454
 1700SOL    HW1 5999   5.460   2.072   3.404
 1700SOL    HW2 6000   5.388   2.042   3.547
 1701SOL     OW 6001   5.276   4.295   5.606
 1701SOL    HW1 6002   5.309   4.390   5.598
 1701SOL    HW2 6003   5.181   4.290   5.576
 1702SOL     OW 6004   6.981   2.960   7.022
 1702SOL    HW1 6005   0.042   2.915   6.997
 1702SOL    HW2 6006   6.974   2.965   0.097
 1703SOL     OW 6007   3.274   2.987   2.181
 1703SOL    HW1 6008   3.187   3.029   2.152
 1703SOL    HW2 6009   3.256   2.923   2.256
 1704SOL     OW 6010   0.837   2.355   1.377
 1704SOL    HW1 6011   0.854   2.453   1.362
 1704SOL    HW2 6012   0.789   2.343   1.464
 1705SOL     OW 6013   3.505   2.003   1.581
 1705SOL    HW1 6014   3.469   2.073   1.642
 1705SOL    HW2 6015   3.433   1.973   1.518
 1706SOL     OW 6016   5.021   1.329   1.402
 1706SOL    HW1 6017   5.046   1.426   1.401
 1706SOL    HW2 6018   5.043   1.288   1.314
 1707SOL     OW 6019   4.976   2.009   2.450
 1707SOL    HW1 6020   4.913   1.949   2.500
 1707SOL    HW2 6021   4.970   1.988   2.352
 1708SOL     OW 6022   5.214   5.057   2.379
 1708SOL    HW1 6023   5.263   5.063   2.466
 1708SOL    HW2 6024   5.132   5.114   2.383
 1709SOL     OW 6025   2.820   5.422   1.398
 1709SOL    HW1 6026   2.725   5.438   1.374
 1709SOL    HW2 6027   2.832   5.434   1.497
 1710SOL     OW 6028   5.476   4.805   3.719
 1710SOL    HW1 6029   5.493   4.883   3.778
 1710SOL    HW2 6030   5.390   4.818   3.670
 1711SOL     OW 6031   1.315   4.683   4.435
 1711SOL    HW1 6032   1.335   4.599   4.486
 1711SOL    HW2 6033   1.217   4.687   4.416
 1712SOL     OW 6034   0.157   3.239   5.826
 1712SOL    HW1 6035   0.197   3.217   5.915
 1712SOL    HW2 6036   0.193   3.328   5.794
 1713SOL     OW 6037   4.126   2.158   2.001
 1713SOL    HW1 6038   4.058   2.147   1.929
 1713SOL    HW2 6039   4.085   2.201   2.081
 1714SOL     OW 6040   3.628   1.835   5.321
 1714SOL    HW1 6041   3.676   1.820   5.408
 1714SOL    HW2 6042   3.579   1.922   5.325
 1715SOL     OW 6043   7.008   4.319   2.665
 1715SOL    HW1 6044   0.004   4.374   2.746
 1715SOL    HW2 6045   0.044   4.346   2.590
 1716SOL     OW 6046   4.429   0.032   3.133
 1716SOL    HW1 6047   4.510   0.087   3.155
 1716SOL    HW2 6048   4.349   0.091   3.134
 1717SOL     OW 6049   2.456   6.010   6.052
 1717SOL    HW1 6050   2.433   5.913   6.042
 1717SOL    HW2 6051   2.495   6.043   5.966
 1718SOL     OW 6052   2.348   2.299   1.753
 1718SOL    HW1 6053   2.444   2.317   1.733
 1718SOL    HW2 6054   2.329   2.318   1.849
 1719SOL     OW 6055   2.098   3.827   0.727
 1719SOL    HW1 6056   2.005   3.864   0.721
 1719SOL    HW2 6057   2.101   3.737   0.684
 1720SOL     OW 6058   0.503   2.881   0.012
 1720SOL    HW1 6059   0.415   2.841   7.011
 1720SOL    HW2 6060   0.577   2.817   7.015
 1721SOL     OW 6061   1.381   6.436   1.604
 1721SOL    HW1 6062   1.476   6.422   1.630
 1721SOL    HW2 6063   1.346   6.354   1.557
 1722SOL     OW 6064   4.243   2.318   4.250
 1722SOL    HW1 6065   4.147   2.308   4.277
 1722SOL    HW2 6066   4.249   2.379   4.171
 1723SOL     OW 6067   0.014   2.664   2.029
 1723SOL    HW1 6068   0.032   2.700   1.938
 1723SOL    HW2 6069   6.941   2.643   2.038
 1724SOL     OW 6070   6.304   2.168   0.528
 1724SOL    HW1 6071   6.364   2.232   0.480
 1724SOL    HW2 6072   6.328   2.165   0.625
 1725SOL     OW 6073   2.575   5.014   6.563
 1725SOL    HW1 6074   2.628   5.098   6.553
 1725SOL    HW2 6075   2.578   4.983   6.658
 1726SOL     OW 6076   4.901   4.815   5.504
 1726SOL    HW1 6077   4.929   4.719   5.500
 1726SOL    HW2 6078   4.814   4.826   5.456
 1727SOL     OW 6079   3.885   3.308   4.531
 1727SOL    HW1 6080   3.912   3.249   4.607
 1727SOL    HW2 6081   3.799   3.276   4.492
 1728SOL     OW 6082   4.998   5.093   5.480
 1728SOL    HW1 6083   4.928   5.157   5.448
 1728SOL    HW2 6084   4.957   5.002   5.493
 1729SOL     OW 6085   2.237   3.878   2.863
 1729SOL    HW1 6086   2.261   3.946   2.794
 1729SOL    HW2 6087   2.250   3.917   2.954
 1730SOL     OW 6088   0.934   0.126   5.708
 1730SOL    HW1 6089   0.857   0.174   5.666
 1730SOL    HW2 6090   0.920   0.027   5.700
 1731SOL     OW 6091   0.166   4.381   2.122
 1731SOL    HW1 6092   0.254   4.335   2.109
 1731SOL    HW2 6093   0.108   4.365   2.042
 1732SOL     OW 6094   2.769   4.737   5.530
 1732SOL    HW1 6095   2.716   4.822   5.529
 1732SOL    HW2 6096   2.723   4.669   5.474
 1733SOL     OW 6097   1.581   4.080   2.154
 1733SOL    HW1 6098   1.628   4.003   2.112
 1733SOL    HW2 6099   1.554   4.146   2.084
 1734SOL     OW 6100   4.714   3.211   1.420
 1734SOL    HW1 6101   4.640   3.155   1.381
 1734SOL    HW2 6102   4.734   3.180   1.513
 1735SOL     OW 6103   5.141   6.052   1.744
 1735SOL    HW1 6104   5.213   6.091   1.801
 1735SOL    HW2 6105   5.102   6.124   1.686
 1736SOL     OW 6106   3.836   3.023   1.070
 1736SOL    HW1 6107   3.873   3.001   1.161
 1736SOL    HW2 6108   3.801   2.940   1.028
 1737SOL     OW 6109   2.235   1.549   4.376
 1737SOL    HW1 6110   2.241   1.647   4.358
 1737SOL    HW2 6111   2.197   1.503   4.296
 1738SOL     OW 6112   2.131   1.811   4.023
 1738SOL    HW1 6113   2.146   1.910   4.019
 1738SOL    HW2 6114   2.217   1.765   4.046
 1739SOL     OW 6115   6.300   2.313   5.401
 1739SOL    HW1 6116   6.218   2.364   5.429
 1739SOL    HW2 6117   6.280   2.263   5.317
 1740SOL     OW 6118   6.662   1.954   5.715
 1740SOL    HW1 6119   6.686   1.980   5.809
 1740SOL    HW2 6120   6.566   1.975   5.698
 1741SOL     OW 6121   1.836   0.722   3.896
 1741SOL    HW1 6122   1.843   0.763   3.987
 1741SOL    HW2 6123   1.740   0.709   3.873
 1742SOL     OW 6124   5.172   0.518   6.138
 1742SOL    HW1 6125   5.269   0.541   6.129
 1742SOL    HW2 6126   5.140   0.543   6.229
 1743SOL     OW 6127   1.426   2.706   1.927
 1743SOL    HW1 6128   1.447   2.665   2.015
 1743SOL    HW2 6129   1.371   2.789   1.940
 1744SOL     OW 6130   0.470   1.192   2.282
 1744SOL    HW1 6131   0.418   1.107   2.288
 1744SOL    HW2 6132   0.467   1.226   2.188
 1745SOL     OW 6133   6.077   0.069   3.534
 1745SOL    HW1 6134   6.011   0.111   3.472
 1745SOL    HW2 6135   6.090   6.997   3.507
 1746SOL     OW 6136   2.498   4.907   4.810
 1746SOL    HW1 6137   2.499   4.922   4.711
 1746SOL    HW2 6138   2.408   4.873   4.838
 1747SOL     OW 6139   5.655   1.768   2.891
 1747SOL    HW1 6140   5.558   1.778   2.870
 1747SOL    HW2 6141   5.688   1.851   2.936
 1748SOL     OW 6142   1.177   0.778   4.240
 1748SOL    HW1 6143   1.106   0.823   4.186
 1748SOL    HW2 6144   1.145   0.687   4.269
 1749SOL     OW 6145   2.913   6.919   4.234
 1749SOL    HW1 6146   3.009   6.891   4.231
 1749SOL    HW2 6147   2.864   6.862   4.299
 1750SOL     OW 6148   6.195   0.133   3.947
 1750SOL    HW1 6149   6.178   0.124   4.045
 1750SOL    HW2 6150   6.226   0.046   3.910
 1751SOL     OW 6151   3.760   6.093   5.075
 1751SOL    HW1 6152   3.707   6.171   5.109
 1751SOL    HW2 6153   3.827   6.124   5.008
 1752SOL     OW 6154   0.126   2.381   1.526
 1752SOL    HW1 6155   0.087   2.447   1.463
 1752SOL    HW2 6156   0.165   2.304   1.475
 1753SOL     OW 6157   0.292   1.643   0.618
 1753SOL    HW1 6158   0.306   1.699   0.536
 1753SOL    HW2 6159   0.275   1.702   0.697
 1754SOL     OW 6160   2.401   3.862   0.983
 1754SOL    HW1 6161   2.380   3.864   1.081
 1754SOL    HW2 6162   2.379   3.951   0.943
 1755SOL     OW 6163   6.314   6.334   1.970
 1755SOL    HW1 6164   6.349   6.408   1.913
 1755SOL    HW2 6165   6.379   6.316   2.044
 1756SOL     OW 6166   4.126   5.101   6.094
 1756SOL    HW1 6167   4.152   5.063   6.005
 1756SOL    HW2 6168   4.107   5.026   6.157
 1757SOL     OW 6169   2.250   4.946   4.643
 1757SOL    HW1 6170   2.336   4.912   4.606
 1757SOL    HW2 6171   2.205   4.874   4.694
 1758SOL     OW 6172   1.813   0.432   4.018
 1758SOL    HW1 6173   1.718   0.401   4.012
 1758SOL    HW2 6174   1.819   0.527   3.988
 1759SOL     OW 6175   2.164   5.486   6.395
 1759SOL    HW1 6176   2.216   5.443   6.469
 1759SOL    HW2 6177   2.073   5.444   6.390
 1760SOL     OW 6178   5.698   1.867   2.616
 1760SOL    HW1 6179   5.798   1.868   2.606
 1760SOL    HW2 6180   5.670   1.779   2.656
 1761SOL     OW 6181   0.342   0.366   0.151
 1761SOL    HW1 6182   0.416   0.384   0.086
 1761SOL    HW2 6183   0.305   0.275   0.135
 1762SOL     OW 6184   0.324   1.701   4.785
 1762SOL    HW1 6185   0.269   1.781   4.759
 1762SOL    HW2 6186   0.264   1.622   4.796
 1763SOL     OW 6187   1.454   3.362   4.072
 1763SOL    HW1 6188   1.376   3.421   4.094
 1763SOL    HW2 6189   1.420   3.271   4.046
 1764SOL     OW 6190   2.118   3.611   2.328
 1764SOL    HW1 6191   2.141   3.593   2.233
 1764SOL    HW2 6192   2.191   3.664   2.371
 1765SOL     OW 6193   3.954   1.163   0.935
 1765SOL    HW1 6194   3.908   1.079   0.961
 1765SOL    HW2 6195   4.049   1.142   0.909
 1766SOL     OW 6196   4.864   3.118   2.695
 1766SOL    HW1 6197   4.844   3.157   2.605
 1766SOL    HW2 6198   4.827   3.025   2.700
 1767SOL     OW 6199   0.192   3.334   2.880
 1767SOL    HW1 6200   0.284   3.310   2.850
 1767SOL    HW2 6201   0.176   3.295   2.971
 1768SOL     OW 6202   4.000   1.494   5.433
 1768SOL    HW1 6203   4.039   1.557   5.366
 1768SOL    HW2 6204   4.005   1.400   5.397
 1769SOL     OW 6205   4.233   2.826   5.880
 1769SOL    HW1 6206   4.172   2.778   5.817
 1769SOL    HW2 6207   4.276   2.903   5.833
 1770SOL     OW 6208   6.662   5.179   4.845
 1770SOL    HW1 6209   6.616   5.253   4.796
 1770SOL    HW2 6210   6.758   5.175   4.818
 1771SOL     OW 6211   2.652   5.234   0.303
 1771SOL    HW1 6212   2.561   5.194   0.298
 1771SOL    HW2 6213   2.721   5.162   0.292
 1772SOL     OW 6214   3.525   6.446   3.236
 1772SOL    HW1 6215   3.606   6.387   3.232
 1772SOL    HW2 6216   3.551   6.535   3.271
 1773SOL     OW 6217   3.177   3.945   6.496
 1773SOL    HW1 6218   3.090   3.995   6.492
 1773SOL    HW2 6219   3.159   3.850   6.522
 1774SOL     OW 6220   4.608   0.190   1.860
 1774SOL    HW1 6221   4.595   0.289   1.862
 1774SOL    HW2 6222   4.520   0.145   1.848
 1775SOL     OW 6223   1.345   5.250   4.136
 1775SOL    HW1 6224   1.388   5.163   4.161
 1775SOL    HW2 6225   1.380   5.281   4.048
 1776SOL     OW 6226   3.336   0.532   5.769
 1776SOL    HW1 6227   3.367   0.471   5.842
 1776SOL    HW2 6228   3.239   0.517   5.751
 1777SOL     OW 6229   3.225   5.292   5.364
 1777SOL    HW1 6230   3.274   5.262   5.446
 1777SOL    HW2 6231   3.127   5.279   5.377
 1778SOL     OW 6232   4.548   2.170   4.859
 1778SOL    HW1 6233   4.624   2.145   4.800
 1778SOL    HW2 6234   4.491   2.238   4.814
 1779SOL     OW 6235   5.171   2.136   4.079
 1779SOL    HW1 6236   5.219   2.086   4.152
 1779SOL    HW2 6237   5.128   2.217   4.118
 1780SOL     OW 6238   2.282   4.773   5.803
 1780SOL    HW1 6239   2.191   4.743   5.774
 1780SOL    HW2 6240   2.321   4.833   5.734
 1781SOL     OW 6241   4.395   5.370   3.653
 1781SOL    HW1 6242   4.339   5.287   3.657
 1781SOL    HW2 6243   4.440   5.383   3.742
 1782SOL     OW 6244   2.898   1.631   3.214
 1782SOL    HW1 6245   2.989   1.650   3.179
 1782SOL    HW2 6246   2.895   1.537   3.249
 1783SOL     OW 6247   1.936   3.550   6.601
 1783SOL    HW1 6248   2.023   3.569   6.555
 1783SOL    HW2 6249   1.933   3.453   6.628
 1784SOL     OW 6250   3.083   0.604   3.805
 1784SOL    HW1 6251   3.095   0.549   3.723
 1784SOL    HW2 6252   3.017   0.560   3.865
 1785SOL     OW 6253   4.996   6.043   3.741
 1785SOL    HW1 6254   5.055   5.967   3.769
 1785SOL    HW2 6255   5.051   6.111   3.693
 1786SOL     OW 6256   1.469   3.069   0.806
 1786SOL    HW1 6257   1.381   3.020   0.805
 1786SOL    HW2 6258   1.542   3.006   0.779
 1787SOL     OW 6259   2.315   1.148   4.447
 1787SOL    HW1 6260   2.353   1.236   4.475
 1787SOL    HW2 6261   2.387   1.093   4.406
 1788SOL     OW 6262   2.916   3.209   0.276
 1788SOL    HW1 6263   2.858   3.207   0.195
 1788SOL    HW2 6264   2.957   3.118   0.290
 1789SOL     OW 6265   7.009   2.253   1.970
 1789SOL    HW1 6266   6.938   2.185   1.986
 1789SOL    HW2 6267   6.998   2.292   1.878
 1790SOL     OW 6268   3.803   6.150   4.324
 1790SOL    HW1 6269   3.811   6.250   4.333
 1790SOL    HW2 6270   3.763   6.112   4.408
 1791SOL     OW 6271   0.224   2.185   4.618
 1791SOL    HW1 6272   0.169   2.181   4.535
 1791SOL    HW2 6273   0.166   2.208   4.696
 1792SOL     OW 6274   0.997   2.375   4.164
 1792SOL    HW1 6275   1.070   2.403   4.102
 1792SOL    HW2 6276   0.917   2.348   4.111
 1793SOL     OW 6277   6.670   0.193   3.387
 1793SOL    HW1 6278   6.641   0.212   3.293
 1793SOL    HW2 6279   6.591   0.168   3.443
 1794SOL     OW 6280   5.150   6.292   6.656
 1794SOL    HW1 6281   5.132   6.262   6.562
 1794SOL    HW2 6282   5.202   6.377   6.654
 1795SOL     OW 6283   0.536   4.182   2.170
 1795SOL    HW1 6284   0.600   4.141   2.234
 1795SOL    HW2 6285   0.584   4.249   2.112
 1796SOL     OW 6286   1.898   1.292   5.021
 1796SOL    HW1 6287   1.943   1.380   5.010
 1796SOL    HW2 6288   1.807   1.306   5.059
 1797SOL     OW 6289   1.341   1.062   6.247
 1797SOL    HW1 6290   1.246   1.050   6.276
 1797SOL    HW2 6291   1.401   1.013   6.311
 1798SOL     OW 6292   4.700   2.656   5.660
 1798SOL    HW1 6293   4.624   2.720   5.661
 1798SOL    HW2 6294   4.703   2.605   5.746
 1799SOL     OW 6295   6.676   1.829   6.266
 1799SOL    HW1 6296   6.655   1.921   6.297
 1799SOL    HW2 6297   6.614   1.764   6.310
 1800SOL     OW 6298   4.514   5.272   3.411
 1800SOL    HW1 6299   4.492   5.302   3.504
 1800SOL    HW2 6300   4.500   5.348   3.347
 1801SOL     OW 6301   1.145   1.203   2.347
 1801SOL    HW1 6302   1.211   1.266   2.305
 1801SOL    HW2 6303   1.067   1.190   2.286
 1802SOL     OW 6304   5.988   5.306   2.812
 1802SOL    HW1 6305   6.056   5.237   2.835
 1802SOL    HW2 6306   5.901   5.282   2.854
 1803SOL     OW 6307   6.780   5.874   0.789
 1803SOL    HW1 6308   6.702   5.937   0.796
 1803SOL    HW2 6309   6.858   5.921   0.749
 1804SOL     OW 6310   2.398   3.603   6.058
 1804SOL    HW1 6311   2.493   3.573   6.069
 1804SOL    HW2 6312   2.346   3.532   6.011
 1805SOL     OW 6313   0.527   4.222   5.754
 1805SOL    HW1 6314   0.541   4.181   5.663
 1805SOL    HW2 6315   0.585   4.302   5.764
 1806SOL     OW 6316   1.426   1.085   1.135
 1806SOL    HW1 6317   1.432   1.010   1.070
 1806SOL    HW2 6318   1.342   1.137   1.119
 1807SOL     OW 6319   5.229   2.209   6.130
 1807SOL    HW1 6320   5.271   2.288   6.172
 1807SOL    HW2 6321   5.192   2.149   6.200
 1808SOL     OW 6322   5.948   3.793   5.244
 1808SOL    HW1 6323   5.897   3.832   5.167
 1808SOL    HW2 6324   5.985   3.704   5.217
 1809SOL     OW 6325   2.211   2.743   4.657
 1809SOL    HW1 6326   2.206   2.795   4.742
 1809SOL    HW2 6327   2.120   2.734   4.618
 1810SOL     OW 6328   2.633   0.405   5.830
 1810SOL    HW1 6329   2.605   0.489   5.875
 1810SOL    HW2 6330   2.593   0.400   5.739
 1811SOL     OW 6331   3.969   4.844   3.306
 1811SOL    HW1 6332   3.897   4.822   3.240
 1811SOL    HW2 6333   4.058   4.840   3.261
 1812SOL     OW 6334   4.390   0.009   6.424
 1812SOL    HW1 6335   4.460   6.964   6.408
 1812SOL    HW2 6336   4.321   0.004   6.351
 1813SOL     OW 6337   4.121   4.800   1.119
 1813SOL    HW1 6338   4.146   4.896   1.136
 1813SOL    HW2 6339   4.029   4.796   1.080
 1814SOL     OW 6340   6.894   0.510   6.987
 1814SOL    HW1 6341   6.885   0.410   6.993
 1814SOL    HW2 6342   6.850   0.542   6.903
 1815SOL     OW 6343   6.718   1.820   1.698
 1815SOL    HW1 6344   6.657   1.846   1.624
 1815SOL    HW2 6345   6.734   1.898   1.758
 1816SOL     OW 6346   1.881   4.207   1.035
 1816SOL    HW1 6347   1.887   4.306   1.047
 1816SOL    HW2 6348   1.947   4.162   1.095
 1817SOL     OW 6349   3.472   6.536   2.956
 1817SOL    HW1 6350   3.562   6.533   2.913
 1817SOL    HW2 6351   3.476   6.491   3.046
 1818SOL     OW 6352   2.687   6.025   2.165
 1818SOL    HW1 6353   2.758   6.093   2.146
 1818SOL    HW2 6354   2.705   5.982   2.254
 1819SOL     OW 6355   0.575   5.404   1.346
 1819SOL    HW1 6356   0.552   5.337   1.275
 1819SOL    HW2 6357   0.673   5.398   1.367
 1820SOL     OW 6358   2.767   0.673   2.467
 1820SOL    HW1 6359   2.854   0.669   2.416
 1820SOL    HW2 6360   2.691   0.664   2.403
 1821SOL     OW 6361   2.631   0.690   1.977
 1821SOL    HW1 6362   2.538   0.663   1.954
 1821SOL    HW2 6363   2.672   0.738   1.899
 1822SOL     OW 6364   1.809   3.650   1.149
 1822SOL    HW1 6365   1.711   3.641   1.166
 1822SOL    HW2 6366   1.860   3.603   1.221
 1823SOL     OW 6367   2.686   5.436   2.495
 1823SOL    HW1 6368   2.717   5.431   2.590
 1823SOL    HW2 6369   2.624   5.514   2.485
 1824SOL     OW 6370   3.490   3.889   1.412
 1824SOL    HW1 6371   3.429   3.949   1.463
 1824SOL    HW2 6372   3.488   3.797   1.451
 1825SOL     OW 6373   1.555   2.312   4.332
 1825SOL    HW1 6374   1.638   2.338   4.380
 1825SOL    HW2 6375   1.476   2.358   4.372
 1826SOL     OW 6376   3.459   0.502   1.388
 1826SOL    HW1 6377   3.556   0.513   1.365
 1826SOL    HW2 6378   3.434   0.405   1.383
 1827SOL     OW 6379   0.088   5.953   1.656
 1827SOL    HW1 6380   0.172   5.995   1.622
 1827SOL    HW2 6381   0.019   5.955   1.583
 1828SOL     OW 6382   1.039   2.712   0.757
 1828SOL    HW1 6383   1.009   2.634   0.702
 1828SOL    HW2 6384   0.982   2.792   0.736
 1829SOL     OW 6385   2.725   0.983   3.246
 1829SOL    HW1 6386   2.777   0.994   3.161
 1829SOL    HW2 6387   2.633   0.948   3.225
 1830SOL     OW 6388   5.909   6.568   3.708
 1830SOL    HW1 6389   5.830   6.532   3.659
 1830SOL    HW2 6390   5.971   6.612   3.643
 1831SOL     OW 6391   5.836   0.435   2.060
 1831SOL    HW1 6392   5.912   0.379   2.093
 1831SOL    HW2 6393   5.777   0.381   2.001
 1832SOL     OW 6394   4.692   1.561   1.162
 1832SOL    HW1 6395   4.637   1.640   1.136
 1832SOL    HW2 6396   4.684   1.545   1.261
 1833SOL     OW 6397   5.583   1.024   0.396
 1833SOL    HW1 6398   5.647   1.021   0.320
 1833SOL    HW2 6399   5.554   1.118   0.412
 1834SOL     OW 6400   2.865   3.486   0.758
 1834SOL    HW1 6401   2.834   3.428   0.683
 1834SOL    HW2 6402   2.955   3.456   0.788
 1835SOL     OW 6403   0.311   4.720   2.118
 1835SOL    HW1 6404   0.383   4.651   2.115
 1835SOL    HW2 6405   0.254   4.712   2.036
 1836SOL     OW 6406   5.081   2.135   1.670
 1836SOL    HW1 6407   5.073   2.179   1.759
 1836SOL    HW2 6408   5.176   2.141   1.637
 1837SOL     OW 6409   0.875   0.228   4.714
 1837SOL    HW1 6410   0.888   0.289   4.791
 1837SOL    HW2 6411   0.925   0.262   4.635
 1838SOL     OW 6412   6.845   1.321   4.877
 1838SOL    HW1 6413   6.753   1.286   4.893
 1838SOL    HW2 6414   6.908   1.280   4.943
 1839SOL     OW 6415   6.157   2.288   4.912
 1839SOL    HW1 6416   6.217   2.349   4.964
 1839SOL    HW2 6417   6.096   2.241   4.976
 1840SOL     OW 6418   3.963   7.001   1.537
 1840SOL    HW1 6419   3.874   6.969   1.568
 1840SOL    HW2 6420   3.966   0.077   1.542
 1841SOL     OW 6421   1.966   1.122   3.301
 1841SOL    HW1 6422   1.881   1.121   3.248
 1841SOL    HW2 6423   1.956   1.185   3.378
 1842SOL     OW 6424   1.716   5.897   7.006
 1842SOL    HW1 6425   1.709   5.965   0.055
 1842SOL    HW2 6426   1.634   5.901   6.949
 1843SOL     OW 6427   6.303   2.075   3.082
 1843SOL    HW1 6428   6.250   2.000   3.119
 1843SOL    HW2 6429   6.275   2.161   3.125
 1844SOL     OW 6430   3.022   6.806   5.389
 1844SOL    HW1 6431   2.989   6.810   5.483
 1844SOL    HW2 6432   2.996   6.719   5.347
 1845SOL     OW 6433   3.189   7.012   4.169
 1845SOL    HW1 6434   3.153   6.990   4.078
 1845SOL    HW2 6435   3.221   0.082   4.170
 1846SOL     OW 6436   3.294   1.608   1.648
 1846SOL    HW1 6437   3.244   1.684   1.607
 1846SOL    HW2 6438   3.311   1.628   1.745
 1847SOL     OW 6439   1.432   0.804   6.875
 1847SOL    HW1 6440   1.434   0.886   6.933
 1847SOL    HW2 6441   1.354   0.810   6.813
 1848SOL     OW 6442   1.634   5.810   3.584
 1848SOL    HW1 6443   1.647   5.734   3.648
 1848SOL    HW2 6444   1.541   5.808   3.547
 1849SOL     OW 6445   3.934   2.381   1.428
 1849SOL    HW1 6446   3.974   2.363   1.338
 1849SOL    HW2 6447   3.853   2.324   1.441
 1850SOL     OW 6448   0.507   3.115   1.543
 1850SOL    HW1 6449   0.522   3.133   1.640
 1850SOL    HW2 6450   0.564   3.039   1.513
 1851SOL     OW 6451   0.438   2.252   0.379
 1851SOL    HW1 6452   0.498   2.296   0.445
 1851SOL    HW2 6453   0.378   2.187   0.426
 1852SOL     OW 6454   6.398   4.598   2.702
 1852SOL    HW1 6455   6.464   4.670   2.679
 1852SOL    HW2 6456   6.413   4.519   2.644
 1853SOL     OW 6457   0.354   1.926   2.576
 1853SOL    HW1 6458   0.269   1.890   2.613
 1853SOL    HW2 6459   0.351   1.924   2.476
 1854SOL     OW 6460   2.307   5.920   2.901
 1854SOL    HW1 6461   2.394   5.907   2.854
 1854SOL    HW2 6462   2.321   5.915   3.000
 1855SOL     OW 6463   4.971   2.894   5.438
 1855SOL    HW1 6464   5.004   2.964   5.374
 1855SOL    HW2 6465   5.041   2.824   5.450
 1856SOL     OW 6466   6.084   4.279   5.746
 1856SOL    HW1 6467   6.167   4.278   5.690
 1856SOL    HW2 6468   6.108   4.302   5.840
 1857SOL     OW 6469   4.694   1.923   5.849
 1857SOL    HW1 6470   4.637   1.988   5.799
 1857SOL    HW2 6471   4.644   1.889   5.928
 1858SOL     OW 6472   5.679   4.106   4.061
 1858SOL    HW1 6473   5.776   4.094   4.081
 1858SOL    HW2 6474   5.640   4.174   4.124
 1859SOL     OW 6475   5.996   2.554   3.649
 1859SOL    HW1 6476   5.967   2.464   3.616
 1859SOL    HW2 6477   6.096   2.559   3.647
 1860SOL     OW 6478   0.017   0.575   5.513
 1860SOL    HW1 6479   0.099   0.550   5.462
 1860SOL    HW2 6480   6.986   0.638   5.458
 1861SOL     OW 6481   6.201   6.892   1.894
 1861SOL    HW1 6482   6.183   6.844   1.808
 1861SOL    HW2 6483   6.141   6.971   1.902
 1862SOL     OW 6484   3.365   6.933   6.206
 1862SOL    HW1 6485   3.357   6.954   6.109
 1862SOL    HW2 6486   3.336   7.012   6.260
 1863SOL     OW 6487   0.904   2.995   3.862
 1863SOL    HW1 6488   0.929   3.006   3.766
 1863SOL    HW2 6489   0.973   2.939   3.908
 1864SOL     OW 6490   1.680   6.706   4.667
 1864SOL    HW1 6491   1.742   6.779   4.638
 1864SOL    HW2 6492   1.693   6.689   4.765
 1865SOL     OW 6493   3.167   6.816   6.943
 1865SOL    HW1 6494   3.234   6.822   7.018
 1865SOL    HW2 6495   3.192   6.742   6.882
 1866SOL     OW 6496   5.000   5.114   3.180
 1866SOL    HW1 6497   4.990   5.191   3.117
 1866SOL    HW2 6498   4.913   5.095   3.224
 1867SOL     OW 6499   0.838   3.961   0.433
 1867SOL    HW1 6500   0.846   3.926   0.527
 1867SOL    HW2 6501   0.806   4.056   0.435
 1868SOL     OW 6502   4.892   3.055   6.070
 1868SOL    HW1 6503   4.981   3.013   6.088
 1868SOL    HW2 6504   4.867   3.040   5.974
 1869SOL     OW 6505   5.950   3.670   5.628
 1869SOL    HW1 6506   5.884   3.641   5.559
 1869SOL    HW2 6507   5.921   3.635   5.718
 1870SOL     OW 6508   1.148   2.792   5.147
 1870SOL    HW1 6509   1.237   2.819   5.184
 1870SOL    HW2 6510   1.088   2.872   5.144
 1871SOL     OW 6511   0.728   0.426   6.534
 1871SOL    HW1 6512   0.804   0.414   6.470
 1871SOL    HW2 6513   0.748   0.500   6.597
 1872SOL     OW 6514   4.020   1.652   6.757
 1872SOL    HW1 6515   3.964   1.698   6.826
 1872SOL    HW2 6516   4.034   1.557   6.784
 1873SOL     OW 6517   5.408   1.302   6.023
 1873SOL    HW1 6518   5.316   1.285   5.987
 1873SOL    HW2 6519   5.461   1.355   5.957
 1874SOL     OW 6520   2.729   1.038   0.589
 1874SOL    HW1 6521   2.648   1.020   0.643
 1874SOL    HW2 6522   2.811   1.012   0.640
 1875SOL     OW 6523   0.064   0.405   0.237
 1875SOL    HW1 6524   0.003   0.483   0.249
 1875SOL    HW2 6525   0.156   0.428   0.269
 1876SOL     OW 6526   3.794   5.861   6.286
 1876SOL    HW1 6527   3.844   5.778   6.261
 1876SOL    HW2 6528   3.824   5.937   6.228
 1877SOL     OW 6529   0.900   1.305   3.366
 1877SOL    HW1 6530   0.997   1.329   3.369
 1877SOL    HW2 6531   0.869   1.306   3.271
 1878SOL     OW 6532   6.988   3.414   4.069
 1878SOL    HW1 6533   0.053   3.440   4.105
 1878SOL    HW2 6534   6.998   3.340   4.003
 1879SOL     OW 6535   1.965   5.063   3.514
 1879SOL    HW1 6536   1.893   5.029   3.454
 1879SOL    HW2 6537   1.946   5.159   3.537
 1880SOL     OW 6538   6.728   0.472   4.010
 1880SOL    HW1 6539   6.715   0.394   3.950
 1880SOL    HW2 6540   6.778   0.443   4.092
 1881SOL     OW 6541   6.747   3.343   2.936
 1881SOL    HW1 6542   6.844   3.322   2.922
 1881SOL    HW2 6543   6.704   3.362   2.848
 1882SOL     OW 6544   1.348   3.853   0.172
 1882SOL    HW1 6545   1.421   3.886   0.232
 1882SOL    HW2 6546   1.260   3.884   0.207
 1883SOL     OW 6547   1.355   2.642   3.692
 1883SOL    HW1 6548   1.432   2.683   3.741
 1883SOL    HW2 6549   1.270   2.687   3.720
 1884SOL     OW 6550   6.512   3.098   0.022
 1884SOL    HW1 6551   6.547   3.192   0.026
 1884SOL    HW2 6552   6.567   3.045   6.980
 1885SOL     OW 6553   0.873   1.760   5.875
 1885SOL    HW1 6554   0.843   1.845   5.918
 1885SOL    HW2 6555   0.971   1.766   5.856
 1886SOL     OW 6556   2.362   0.209   1.239
 1886SOL    HW1 6557   2.416   0.223   1.322
 1886SOL    HW2 6558   2.409   0.145   1.178
 1887SOL     OW 6559   1.647   6.032   5.520
 1887SOL    HW1 6560   1.660   6.002   5.425
 1887SOL    HW2 6561   1.703   6.113   5.538
 1888SOL     OW 6562   3.121   2.451   6.781
 1888SOL    HW1 6563   3.086   2.416   6.868
 1888SOL    HW2 6564   3.124   2.551   6.783
 1889SOL     OW 6565   6.425   3.103   6.217
 1889SOL    HW1 6566   6.380   3.184   6.255
 1889SOL    HW2 6567   6.382   3.020   6.255
 1890SOL     OW 6568   1.891   6.127   4.309
 1890SOL    HW1 6569   1.821   6.108   4.239
 1890SOL    HW2 6570   1.939   6.211   4.286
 1891SOL     OW 6571   6.054   2.535   2.885
 1891SOL    HW1 6572   6.141   2.582   2.893
 1891SOL    HW2 6573   6.024   2.502   2.975
 1892SOL     OW 6574   3.069   1.136   0.868
 1892SOL    HW1 6575   3.017   1.221   0.860
 1892SOL    HW2 6576   3.161   1.156   0.902
 1893SOL     OW 6577   3.450   2.805   0.336
 1893SOL    HW1 6578   3.375   2.753   0.378
 1893SOL    HW2 6579   3.490   2.751   0.262
 1894SOL     OW 6580   3.959   3.693   3.606
 1894SOL    HW1 6581   3.876   3.637   3.609
 1894SOL    HW2 6582   3.936   3.783   3.568
 1895SOL     OW 6583   5.708   1.137   2.170
 1895SOL    HW1 6584   5.774   1.134   2.095
 1895SOL    HW2 6585   5.618   1.113   2.136
 1896SOL     OW 6586   6.468   0.578   1.535
 1896SOL    HW1 6587   6.452   0.564   1.633
 1896SOL    HW2 6588   6.531   0.508   1.502
 1897SOL     OW 6589   1.345   4.386   2.320
 1897SOL    HW1 6590   1.316   4.476   2.288
 1897SOL    HW2 6591   1.282   4.316   2.285
 1898SOL     OW 6592   3.040   4.839   2.770
 1898SOL    HW1 6593   3.025   4.879   2.679
 1898SOL    HW2 6594   3.106   4.895   2.819
 1899SOL     OW 6595   1.127   1.601   2.084
 1899SOL    HW1 6596   1.110   1.559   1.994
 1899SOL    HW2 6597   1.077   1.550   2.154
 1900SOL     OW 6598   1.492   0.501   6.653
 1900SOL    HW1 6599   1.393   0.506   6.635
 1900SOL    HW2 6600   1.510   0.529   6.748
 1901SOL     OW 6601   1.967   2.454   1.200
 1901SOL    HW1 6602   1.978   2.491   1.108
 1901SOL    HW2 6603   1.926   2.523   1.260
 1902SOL     OW 6604   2.257   1.704   4.888
 1902SOL    HW1 6605   2.293   1.788   4.929
 1902SOL    HW2 6606   2.167   1.723   4.848
 1903SOL     OW 6607   6.637   3.477   3.155
 1903SOL    HW1 6608   6.700   3.427   3.095
 1903SOL    HW2 6609   6.549   3.431   3.156
 1904SOL     OW 6610   5.604   6.416   4.364
 1904SOL    HW1 6611   5.676   6.431   4.296
 1904SOL    HW2 6612   5.536   6.353   4.327
 1905SOL     OW 6613   1.550   0.669   4.071
 1905SOL    HW1 6614   1.549   0.766   4.094
 1905SOL    HW2 6615   1.563   0.615   4.155
 1906SOL     OW 6616   1.983   0.268   5.168
 1906SOL    HW1 6617   2.018   0.348   5.218
 1906SOL    HW2 6618   1.961   0.196   5.234
 1907SOL     OW 6619   3.248   6.826   2.738
 1907SOL    HW1 6620   3.334   6.869   2.766
 1907SOL    HW2 6621   3.216   6.765   2.810
 1908SOL     OW 6622   3.559   6.889   5.006
 1908SOL    HW1 6623   3.574   6.988   5.008
 1908SOL    HW2 6624   3.479   6.867   5.061
 1909SOL     OW 6625   0.509   4.181   2.850
 1909SOL    HW1 6626   0.463   4.268   2.868
 1909SOL    HW2 6627   0.482   4.114   2.920
 1910SOL     OW 6628   0.039   2.924   6.315
 1910SOL    HW1 6629   0.105   2.858   6.278
 1910SOL    HW2 6630   0.017   2.991   6.245
 1911SOL     OW 6631   5.772   3.243   5.357
 1911SOL    HW1 6632   5.763   3.245   5.456
 1911SOL    HW2 6633   5.685   3.213   5.316
 1912SOL     OW 6634   3.423   6.176   0.577
 1912SOL    HW1 6635   3.396   6.270   0.596
 1912SOL    HW2 6636   3.397   6.118   0.655
 1913SOL     OW 6637   1.703   5.906   4.693
 1913SOL    HW1 6638   1.785   5.922   4.638
 1913SOL    HW2 6639   1.670   5.813   4.677
 1914SOL     OW 6640   4.185   2.706   6.282
 1914SOL    HW1 6641   4.153   2.652   6.360
 1914SOL    HW2 6642   4.237   2.785   6.316
 1915SOL     OW 6643   4.323   2.199   5.210
 1915SOL    HW1 6644   4.234   2.162   5.238
 1915SOL    HW2 6645   4.387   2.124   5.194
 1916SOL     OW 6646   4.152   5.867   1.127
 1916SOL    HW1 6647   4.225   5.935   1.123
 1916SOL    HW2 6648   4.104   5.864   1.039
 1917SOL     OW 6649   2.948   3.015   5.551
 1917SOL    HW1 6650   3.004   2.931   5.555
 1917SOL    HW2 6651   2.882   3.007   5.477
 1918SOL     OW 6652   0.677   1.245   4.876
 1918SOL    HW1 6653   0.631   1.250   4.964
 1918SOL    HW2 6654   0.694   1.338   4.842
 1919SOL     OW 6655   2.064   0.329   1.506
 1919SOL    HW1 6656   2.045   0.424   1.528
 1919SOL    HW2 6657   1.979   0.282   1.483
 1920SOL     OW 6658   1.359   4.449   2.585
 1920SOL    HW1 6659   1.340   4.393   2.504
 1920SOL    HW2 6660   1.457   4.461   2.596
 1921SOL     OW 6661   1.115   4.821   6.669
 1921SOL    HW1 6662   1.212   4.796   6.677
 1921SOL    HW2 6663   1.097   4.900   6.727
 1922SOL     OW 6664   2.072   4.141   1.249
 1922SOL    HW1 6665   2.026   4.144   1.338
 1922SOL    HW2 6666   2.165   4.176   1.258
 1923SOL     OW 6667   3.334   0.771   5.444
 1923SOL    HW1 6668   3.252   0.808   5.488
 1923SOL    HW2 6669   3.410   0.835   5.456
 1924SOL     OW 6670   4.527   5.612   1.240
 1924SOL    HW1 6671   4.436   5.585   1.271
 1924SOL    HW2 6672   4.541   5.710   1.258
 1925SOL     OW 6673   1.901   4.710   0.519
 1925SOL    HW1 6674   1.940   4.712   0.611
 1925SOL    HW2 6675   1.857   4.797   0.500
 1926SOL     OW 6676   2.193   6.944   3.339
 1926SOL    HW1 6677   2.179   6.956   3.437
 1926SOL    HW2 6678   2.220   6.849   3.321
 1927SOL     OW 6679   2.729   4.777   6.280
 1927SOL    HW1 6680   2.680   4.741   6.360
 1927SOL    HW2 6681   2.815   4.818   6.310
 1928SOL     OW 6682   6.801   4.491   5.663
 1928SOL    HW1 6683   6.896   4.512   5.642
 1928SOL    HW2 6684   6.764   4.560   5.725
 1929SOL     OW 6685   1.535   5.160   1.501
 1929SOL    HW1 6686   1.539   5.193   1.595
 1929SOL    HW2 6687   1.612   5.199   1.449
 1930SOL     OW 6688   3.364   4.001   6.303
 1930SOL    HW1 6689   3.318   3.980   6.217
 1930SOL    HW2 6690   3.324   3.947   6.377
 1931SOL     OW 6691   0.707   4.006   2.319
 1931SOL    HW1 6692   0.678   4.018   2.414
 1931SOL    HW2 6693   0.802   3.977   2.316
 1932SOL     OW 6694   4.982   3.271   3.419
 1932SOL    HW1 6695   4.932   3.290   3.335
 1932SOL    HW2 6696   5.079   3.259   3.398
 1933SOL     OW 6697   2.135   3.180   0.685
 1933SOL    HW1 6698   2.109   3.257   0.627
 1933SOL    HW2 6699   2.152   3.211   0.778
 1934SOL     OW 6700   0.372   0.116   5.119
 1934SOL    HW1 6701   0.394   0.096   5.023
 1934SOL    HW2 6702   0.432   0.063   5.179
 1935SOL     OW 6703   4.261   6.345   3.680
 1935SOL    HW1 6704   4.183   6.303   3.727
 1935SOL    HW2 6705   4.332   6.367   3.747
 1936SOL     OW 6706   6.150   3.792   3.777
 1936SOL    HW1 6707   6.126   3.726   3.849
 1936SOL    HW2 6708   6.070   3.847   3.755
 1937SOL     OW 6709   4.287   6.784   1.176
 1937SOL    HW1 6710   4.276   6.878   1.207
 1937SOL    HW2 6711   4.268   6.721   1.251
 1938SOL     OW 6712   2.449   1.740   1.642
 1938SOL    HW1 6713   2.478   1.833   1.666
 1938SOL    HW2 6714   2.460   1.726   1.544
 1939SOL     OW 6715   6.329   0.192   4.457
 1939SOL    HW1 6716   6.238   0.152   4.467
 1939SOL    HW2 6717   6.379   0.183   4.543
 1940SOL     OW 6718   5.571   4.743   1.029
 1940SOL    HW1 6719   5.488   4.691   1.048
 1940SOL    HW2 6720   5.619   4.702   0.952
 1941SOL     OW 6721   1.058   3.448   4.421
 1941SOL    HW1 6722   1.157   3.439   4.433
 1941SOL    HW2 6723   1.029   3.540   4.449
 1942SOL     OW 6724   5.317   2.178   1.517
 1942SOL    HW1 6725   5.307   2.227   1.430
 1942SOL    HW2 6726   5.414   2.170   1.539
 1943SOL     OW 6727   2.217   6.149   3.820
 1943SOL    HW1 6728   2.304   6.138   3.869
 1943SOL    HW2 6729   2.188   6.245   3.826
 1944SOL     OW 6730   6.361   2.896   0.232
 1944SOL    HW1 6731   6.267   2.870   0.255
 1944SOL    HW2 6732   6.375   2.888   0.133
 1945SOL     OW 6733   3.635   5.213   0.733
 1945SOL    HW1 6734   3.631   5.126   0.682
 1945SOL    HW2 6735   3.710   5.268   0.697
 1946SOL     OW 6736   6.219   6.498   0.999
 1946SOL    HW1 6737   6.285   6.433   1.037
 1946SOL    HW2 6738   6.185   6.463   0.911
 1947SOL     OW 6739   4.916   6.340   4.354
 1947SOL    HW1 6740   5.011   6.319   4.330
 1947SOL    HW2 6741   4.866   6.255   4.370
 1948SOL     OW 6742   5.746   5.083   3.422
 1948SOL    HW1 6743   5.680   5.010   3.440
 1948SOL    HW2 6744   5.731   5.157   3.487
 1949SOL     OW 6745   3.651   3.468   6.025
 1949SOL    HW1 6746   3.707   3.396   5.983
 1949SOL    HW2 6747   3.617   3.529   5.954
 1950SOL     OW 6748   4.282   2.965   0.507
 1950SOL    HW1 6749   4.189   2.995   0.526
 1950SOL    HW2 6750   4.295   2.960   0.408
 1951SOL     OW 6751   6.129   4.471   0.063
 1951SOL    HW1 6752   6.167   4.426   0.144
 1951SOL    HW2 6753   6.029   4.472   0.070
 1952SOL     OW 6754   4.861   3.553   1.219
 1952SOL    HW1 6755   4.792   3.526   1.286
 1952SOL    HW2 6756   4.944   3.498   1.233
 1953SOL     OW 6757   6.334   1.577   5.554
 1953SOL    HW1 6758   6.376   1.584   5.645
 1953SOL    HW2 6759   6.260   1.643   5.547
 1954SOL     OW 6760   6.784   0.750   2.610
 1954SOL    HW1 6761   6.732   0.670   2.642
 1954SOL    HW2 6762   6.821   0.731   2.520
 1955SOL     OW 6763   0.759   1.028   2.628
 1955SOL    HW1 6764   0.758   1.019   2.529
 1955SOL    HW2 6765   0.681   0.980   2.667
 1956SOL     OW 6766   4.722   0.591   1.927
 1956SOL    HW1 6767   4.687   0.551   2.011
 1956SOL    HW2 6768   4.662   0.665   1.897
 1957SOL     OW 6769   5.805   4.322   4.309
 1957SOL    HW1 6770   5.896   4.286   4.286
 1957SOL    HW2 6771   5.802   4.346   4.406
 1958SOL     OW 6772   4.729   1.793   2.007
 1958SOL    HW1 6773   4.806   1.849   1.978
 1958SOL    HW2 6774   4.712   1.807   2.105
 1959SOL     OW 6775   1.378   0.245   4.161
 1959SOL    HW1 6776   1.435   0.180   4.211
 1959SOL    HW2 6777   1.434   0.293   4.094
 1960SOL     OW 6778   0.150   4.716   1.599
 1960SOL    HW1 6779   0.103   4.640   1.555
 1960SOL    HW2 6780   0.236   4.734   1.552
 1961SOL     OW 6781   5.818   4.434   4.594
 1961SOL    HW1 6782   5.792   4.395   4.682
 1961SOL    HW2 6783   5.917   4.429   4.584
 1962SOL     OW 6784   1.128   6.711   2.913
 1962SOL    HW1 6785   1.033   6.731   2.936
 1962SOL    HW2 6786   1.162   6.638   2.971
 1963SOL     OW 6787   1.062   1.655   1.269
 1963SOL    HW1 6788   1.088   1.743   1.308
 1963SOL    HW2 6789   0.987   1.668   1.204
 1964SOL     OW 6790   4.760   4.757   1.071
 1964SOL    HW1 6791   4.780   4.819   1.147
 1964SOL    HW2 6792   4.764   4.662   1.102
 1965SOL     OW 6793   1.789   2.830   4.953
 1965SOL    HW1 6794   1.836   2.909   4.914
 1965SOL    HW2 6795   1.693   2.832   4.924
 1966SOL     OW 6796   0.252   6.245   0.614
 1966SOL    HW1 6797   0.320   6.248   0.687
 1966SOL    HW2 6798   0.226   6.150   0.597
 1967SOL     OW 6799   5.609   2.826   5.327
 1967SOL    HW1 6800   5.649   2.788   5.243
 1967SOL    HW2 6801   5.668   2.804   5.405
 1968SOL     OW 6802   1.371   6.811   5.214
 1968SOL    HW1 6803   1.327   6.738   5.265
 1968SOL    HW2 6804   1.420   6.871   5.277
 1969SOL     OW 6805   2.081   2.012   0.588
 1969SOL    HW1 6806   1.989   1.975   0.580
 1969SOL    HW2 6807   2.148   1.938   0.583
 1970SOL     OW 6808   2.919   6.205   6.583
 1970SOL    HW1 6809   2.820   6.202   6.586
 1970SOL    HW2 6810   2.956   6.189   6.675
 1971SOL     OW 6811   0.652   0.287   6.039
 1971SOL    HW1 6812   0.626   0.339   6.121
 1971SOL    HW2 6813   0.578   0.223   6.016
 1972SOL     OW 6814   5.151   1.918   2.165
 1972SOL    HW1 6815   5.248   1.924   2.144
 1972SOL    HW2 6816   5.105   2.001   2.132
 1973SOL     OW 6817   3.042   2.832   0.475
 1973SOL    HW1 6818   3.100   2.874   0.544
 1973SOL    HW2 6819   2.961   2.792   0.519
 1974SOL     OW 6820   5.663   0.067   4.830
 1974SOL    HW1 6821   5.710   0.010   4.762
 1974SOL    HW2 6822   5.717   0.150   4.847
 1975SOL     OW 6823   1.889   1.684   4.377
 1975SOL    HW1 6824   1.910   1.587   4.363
 1975SOL    HW2 6825   1.968   1.739   4.351
 1976SOL     OW 6826   6.182   6.946   0.579
 1976SOL    HW1 6827   6.261   7.002   0.553
 1976SOL    HW2 6828   6.146   6.899   0.498
 1977SOL     OW 6829   1.764   3.244   4.992
 1977SOL    HW1 6830   1.860   3.225   5.011
 1977SOL    HW2 6831   1.751   3.343   4.982
 1978SOL     OW 6832   1.873   6.326   3.303
 1978SOL    HW1 6833   1.924   6.332   3.218
 1978SOL    HW2 6834   1.867   6.418   3.344
 1979SOL     OW 6835   5.638   4.402   0.150
 1979SOL    HW1 6836   5.654   4.306   0.172
 1979SOL    HW2 6837   5.551   4.410   0.100
 1980SOL     OW 6838   3.387   6.790   4.088
 1980SOL    HW1 6839   3.288   6.801   4.097
 1980SOL    HW2 6840   3.432   6.815   4.174
 1981SOL     OW 6841   6.878   2.955   1.850
 1981SOL    HW1 6842   6.791   2.948   1.899
 1981SOL    HW2 6843   6.917   2.863   1.840
 1982SOL     OW 6844   1.005   4.116   4.514
 1982SOL    HW1 6845   0.921   4.128   4.462
 1982SOL    HW2 6846   1.068   4.058   4.461
 1983SOL     OW 6847   1.167   0.854   2.356
 1983SOL    HW1 6848   1.258   0.870   2.316
 1983SOL    HW2 6849   1.147   0.925   2.424
 1984SOL     OW 6850   5.143   2.185   5.207
 1984SOL    HW1 6851   5.119   2.179   5.304
 1984SOL    HW2 6852   5.095   2.261   5.165
 1985SOL     OW 6853   1.108   6.483   2.370
 1985SOL    HW1 6854   1.182   6.424   2.336
 1985SOL    HW2 6855   1.148   6.561   2.417
 1986SOL     OW 6856   2.923   1.252   6.834
 1986SOL    HW1 6857   2.845   1.198   6.868
 1986SOL    HW2 6858   2.889   1.327   6.778
 1987SOL     OW 6859   1.962   1.895   2.773
 1987SOL    HW1 6860   2.024   1.894   2.695
 1987SOL    HW2 6861   1.943   1.801   2.802
 1988SOL     OW 6862   6.055   3.612   0.663
 1988SOL    HW1 6863   6.012   3.702   0.658
 1988SOL    HW2 6864   5.985   3.542   0.652
 1989SOL     OW 6865   1.988   5.587   4.896
 1989SOL    HW1 6866   2.028   5.522   4.960
 1989SOL    HW2 6867   1.977   5.543   4.807
 1990SOL     OW 6868   3.716   5.711   0.358
 1990SOL    HW1 6869   3.771   5.779   0.309
 1990SOL    HW2 6870   3.708   5.629   0.303
 1991SOL     OW 6871   3.004   4.991   6.636
 1991SOL    HW1 6872   2.966   4.898   6.628
 1991SOL    HW2 6873   3.103   4.985   6.649
 1992SOL     OW 6874   0.349   0.971   0.250
 1992SOL    HW1 6875   0.269   0.938   0.299
 1992SOL    HW2 6876   0.430   0.963   0.308
 1993SOL     OW 6877   3.878   2.452   5.477
 1993SOL    HW1 6878   3.963   2.486   5.516
 1993SOL    HW2 6879   3.897   2.404   5.391
 1994SOL     OW 6880   0.800   1.387   0.385
 1994SOL    HW1 6881   0.832   1.395   0.479
 1994SOL    HW2 6882   0.785   1.291   0.362
 1995SOL     OW 6883   5.523   2.653   3.718
 1995SOL    HW1 6884   5.440   2.702   3.746
 1995SOL    HW2 6885   5.506   2.606   3.632
 1996SOL     OW 6886   2.435   2.851   0.466
 1996SOL    HW1 6887   2.512   2.875   0.407
 1996SOL    HW2 6888   2.398   2.933   0.508
 1997SOL     OW 6889   2.981   2.170   4.813
 1997SOL    HW1 6890   2.988   2.074   4.842
 1997SOL    HW2 6891   3.021   2.228   4.884
 1998SOL     OW 6892   2.893   4.026   0.179
 1998SOL    HW1 6893   2.891   3.931   0.209
 1998SOL    HW2 6894   2.972   4.073   0.220
 1999SOL     OW 6895   2.219   6.097   5.970
 1999SOL    HW1 6896   2.244   6.109   5.874
 1999SOL    HW2 6897   2.302   6.084   6.025
 2000SOL     OW 6898   4.314   2.740   5.328
 2000SOL    HW1 6899   4.274   2.678   5.260
 2000SOL    HW2 6900   4.289   2.834   5.306
 2001SOL     OW 6901   2.654   7.021   1.765
 2001SOL    HW1 6902   2.555   7.012   1.778
 2001SOL    HW2 6903   2.700   6.939   1.798
 2002SOL     OW 6904   0.666   4.387   6.992
 2002SOL    HW1 6905   0.638   4.326   0.042
 2002SOL    HW2 6906   0.763   4.375   6.973
 2003SOL     OW 6907   6.001   5.592   2.791
 2003SOL    HW1 6908   5.993   5.494   2.771
 2003SOL    HW2 6909   5.971   5.644   2.711
 2004SOL     OW 6910   5.102   1.526   4.269
 2004SOL    HW1 6911   5.097   1.583   4.352
 2004SOL    HW2 6912   5.027   1.551   4.208
 2005SOL     OW 6913   0.212   4.995   0.603
 2005SOL    HW1 6914   0.218   5.093   0.587
 2005SOL    HW2 6915   0.265   4.971   0.684
 2006SOL     OW 6916   5.631   6.848   2.608
 2006SOL    HW1 6917   5.705   6.871   2.672
 2006SOL    HW2 6918   5.633   6.750   2.588
 2007SOL     OW 6919   4.650   4.199   0.642
 2007SOL    HW1 6920   4.733   4.246   0.611
 2007SOL    HW2 6921   4.600   4.258   0.706
 2008SOL     OW 6922   1.890   4.064   4.099
 2008SOL    HW1 6923   1.895   4.163   4.113
 2008SOL    HW2 6924   1.889   4.044   4.001
 2009SOL     OW 6925   5.573   0.118   2.513
 2009SOL    HW1 6926   5.564   0.026   2.551
 2009SOL    HW2 6927   5.559   0.115   2.414
 2010SOL     OW 6928   3.114   1.908   2.224
 2010SOL    HW1 6929   3.152   1.832   2.170
 2010SOL    HW2 6930   3.019   1.922   2.199
 2011SOL     OW 6931   0.039   0.317   5.046
 2011SOL    HW1 6932   7.024   0.352   4.961
 2011SOL    HW2 6933   7.008   0.241   5.079
 2012SOL     OW 6934   1.104   4.318   1.981
 2012SOL    HW1 6935   1.201   4.325   1.955
 2012SOL    HW2 6936   1.093   4.243   2.047
 2013SOL     OW 6937   6.616   2.843   3.008
 2013SOL    HW1 6938   6.667   2.894   2.938
 2013SOL    HW2 6939   6.624   2.745   2.989
 2014SOL     OW 6940   2.442   6.287   3.560
 2014SOL    HW1 6941   2.420   6.256   3.467
 2014SOL    HW2 6942   2.373   6.352   3.590
 2015SOL     OW 6943   2.150   0.443   0.187
 2015SOL    HW1 6944   2.226   0.383   0.160
 2015SOL    HW2 6945   2.183   0.536   0.198
 2016SOL     OW 6946   1.686   6.229   5.768
 2016SOL    HW1 6947   1.709   6.317   5.810
 2016SOL    HW2 6948   1.629   6.245   5.687
 2017SOL     OW 6949   3.694   0.464   3.977
 2017SOL    HW1 6950   3.740   0.496   4.060
 2017SOL    HW2 6951   3.720   0.370   3.958
 2018SOL     OW 6952   5.519   2.167   4.269
 2018SOL    HW1 6953   5.606   2.196   4.229
 2018SOL    HW2 6954   5.467   2.248   4.296
 2019SOL     OW 6955   5.298   3.782   6.098
 2019SOL    HW1 6956   5.264   3.757   6.008
 2019SOL    HW2 6957   5.294   3.881   6.110
 2020SOL     OW 6958   1.951   6.933   5.060
 2020SOL    HW1 6959   2.004   6.853   5.032
 2020SOL    HW2 6960   1.860   6.928   5.020
 2021SOL     OW 6961   0.203   6.591   4.891
 2021SOL    HW1 6962   0.239   6.684   4.894
 2021SOL    HW2 6963   0.234   6.546   4.808
 2022SOL     OW 6964   1.381   5.155   3.475
 2022SOL    HW1 6965   1.326   5.134   3.394
 2022SOL    HW2 6966   1.384   5.075   3.535
 2023SOL     OW 6967   6.960   0.787   6.627
 2023SOL    HW1 6968   0.005   0.828   6.686
 2023SOL    HW2 6969   7.003   0.716   6.570
 2024SOL     OW 6970   6.807   6.031   3.154
 2024SOL    HW1 6971   6.744   5.954   3.153
 2024SOL    HW2 6972   6.832   6.053   3.249
 2025SOL     OW 6973   3.270   1.191   4.044
 2025SOL    HW1 6974   3.193   1.230   3.994
 2025SOL    HW2 6975   3.339   1.158   3.980
 2026SOL     OW 6976   6.167   3.471   5.810
 2026SOL    HW1 6977   6.216   3.514   5.734
 2026SOL    HW2 6978   6.085   3.524   5.831
 2027SOL     OW 6979   1.201   0.260   0.103
 2027SOL    HW1 6980   1.233   0.294   0.191
 2027SOL    HW2 6981   1.102   0.267   0.098
 2028SOL     OW 6982   2.707   5.283   4.377
 2028SOL    HW1 6983   2.794   5.247   4.412
 2028SOL    HW2 6984   2.633   5.256   4.438
 2029SOL     OW 6985   6.516   1.691   0.234
 2029SOL    HW1 6986   6.456   1.728   0.305
 2029SOL    HW2 6987   6.606   1.736   0.240
 2030SOL     OW 6988   2.785   0.804   3.818
 2030SOL    HW1 6989   2.867   0.861   3.811
 2030SOL    HW2 6990   2.706   0.862   3.840
 2031SOL     OW 6991   6.704   5.763   1.445
 2031SOL    HW1 6992   6.657   5.713   1.518
 2031SOL    HW2 6993   6.702   5.861   1.465
 2032SOL     OW 6994   4.289   0.816   1.855
 2032SOL    HW1 6995   4.319   0.784   1.765
 2032SOL    HW2 6996   4.335   0.762   1.925
 2033SOL     OW 6997   3.435   2.781   6.789
 2033SOL    HW1 6998   3.529   2.784   6.753
 2033SOL    HW2 6999   3.370   2.788   6.713
 2034SOL     OW 7000   2.343   5.026   5.342
 2034SOL    HW1 7001   2.288   4.973   5.277
 2034SOL    HW2 7002   2.413   5.078   5.293
 2035SOL     OW 7003   6.380   6.421   3.627
 2035SOL    HW1 7004   6.428   6.503   3.659
 2035SOL    HW2 7005   6.381   6.351   3.699
 2036SOL     OW 7006   0.351   3.734   3.008
 2036SOL    HW1 7007   0.340   3.762   2.912
 2036SOL    HW2 7008   0.389   3.810   3.061
 2037SOL     OW 7009   6.417   3.284   5.844
 2037SOL    HW1 7010   6.391   3.188   5.833
 2037SOL    HW2 7011   6.344   3.334   5.890
 2038SOL     OW 7012   1.793   1.766   0.421
 2038SOL    HW1 7013   1.832   1.784   0.330
 2038SOL    HW2 7014   1.790   1.851   0.473
 2039SOL     OW 7015   6.982   5.579   3.652
 2039SOL    HW1 7016   6.971   5.485   3.683
 2039SOL    HW2 7017   6.898   5.609   3.605
 2040SOL     OW 7018   1.870   2.976   6.112
 2040SOL    HW1 7019   1.838   2.968   6.018
 2040SOL    HW2 7020   1.910   3.066   6.126
 2041SOL     OW 7021   0.862   6.639   5.695
 2041SOL    HW1 7022   0.910   6.615   5.779
 2041SOL    HW2 7023   0.882   6.571   5.624
 2042SOL     OW 7024   4.521   6.261   6.955
 2042SOL    HW1 7025   4.530   6.301   0.022
 2042SOL    HW2 7026   4.447   6.194   6.955
 2043SOL     OW 7027   6.277   3.659   3.314
 2043SOL    HW1 7028   6.194   3.627   3.268
 2043SOL    HW2 7029   6.276   3.626   3.409
 2044SOL     OW 7030   7.016   0.682   1.603
 2044SOL    HW1 7031   7.016   0.702   1.701
 2044SOL    HW2 7032   0.051   0.604   1.585
 2045SOL     OW 7033   1.829   5.191   4.343
 2045SOL    HW1 7034   1.742   5.161   4.382
 2045SOL    HW2 7035   1.885   5.233   4.415
 2046SOL     OW 7036   6.940   1.740   4.329
 2046SOL    HW1 7037   6.917   1.643   4.320
 2046SOL    HW2 7038   0.014   1.751   4.340
 2047SOL     OW 7039   0.018   3.269   0.499
 2047SOL    HW1 7040   6.944   3.267   0.521
 2047SOL    HW2 7041   0.065   3.200   0.553
 2048SOL     OW 7042   1.269   6.748   5.895
 2048SOL    HW1 7043   1.344   6.733   5.960
 2048SOL    HW2 7044   1.306   6.751   5.802
 2049SOL     OW 7045   5.907   1.519   3.924
 2049SOL    HW1 7046   5.883   1.422   3.926
 2049SOL    HW2 7047   5.946   1.545   4.013
 2050SOL     OW 7048   6.469   2.630   3.768
 2050SOL    HW1 7049   6.432   2.707   3.820
 2050SOL    HW2 7050   6.486   2.553   3.829
 2051SOL     OW 7051   1.310   5.977   6.569
 2051SOL    HW1 7052   1.262   5.898   6.531
 2051SOL    HW2 7053   1.409   5.965   6.557
 2052SOL     OW 7054   1.949   3.172   1.654
 2052SOL    HW1 7055   1.902   3.137   1.735
 2052SOL    HW2 7056   2.048   3.160   1.665
 2053SOL     OW 7057   6.368   5.928   4.520
 2053SOL    HW1 7058   6.402   6.002   4.578
 2053SOL    HW2 7059   6.275   5.905   4.547
 2054SOL     OW 7060   3.517   4.160   3.446
 2054SOL    HW1 7061   3.506   4.154   3.347
 2054SOL    HW2 7062   3.445   4.218   3.484
 2055SOL     OW 7063   5.490   3.330   4.256
 2055SOL    HW1 7064   5.480   3.250   4.197
 2055SOL    HW2 7065   5.429   3.321   4.334
 2056SOL     OW 7066   4.257   5.665   0.897
 2056SOL    HW1 7067   4.309   5.599   0.843
 2056SOL    HW2 7068   4.281   5.655   0.994
 2057SOL     OW 7069   5.030   4.444   5.959
 2057SOL    HW1 7070   5.095   4.379   5.921
 2057SOL    HW2 7071   5.041   4.448   6.059
 2058SOL     OW 7072   0.687   6.949   3.510
 2058SOL    HW1 7073   0.737   6.863   3.522
 2058SOL    HW2 7074   0.743   7.012   3.455
 2059SOL     OW 7075   1.796   5.950   5.975
 2059SOL    HW1 7076   1.804   5.851   5.967
 2059SOL    HW2 7077   1.774   5.989   5.885
 2060SOL     OW 7078   0.470   3.855   1.376
 2060SOL    HW1 7079   0.395   3.792   1.396
 2060SOL    HW2 7080   0.437   3.930   1.318
 2061SOL     OW 7081   1.898   1.965   1.995
 2061SOL    HW1 7082   1.878   2.008   1.908
 2061SOL    HW2 7083   1.900   2.034   2.067
 2062SOL     OW 7084   6.680   5.401   5.522
 2062SOL    HW1 7085   6.726   5.476   5.474
 2062SOL    HW2 7086   6.583   5.399   5.495
 2063SOL     OW 7087   0.947   7.011   5.196
 2063SOL    HW1 7088   0.915   6.940   5.133
 2063SOL    HW2 7089   0.989   0.061   5.144
 2064SOL     OW 7090   6.920   2.404   4.614
 2064SOL    HW1 7091   6.994   2.417   4.548
 2064SOL    HW2 7092   6.835   2.442   4.577
 2065SOL     OW 7093   5.825   2.435   5.789
 2065SOL    HW1 7094   5.865   2.496   5.858
 2065SOL    HW2 7095   5.770   2.488   5.725
 2066SOL     OW 7096   6.942   4.471   4.945
 2066SOL    HW1 7097   6.860   4.414   4.940
 2066SOL    HW2 7098   6.993   4.449   5.029
 2067SOL     OW 7099   0.008   5.135   0.783
 2067SOL    HW1 7100   0.026   5.233   0.791
 2067SOL    HW2 7101   0.086   5.084   0.818
 2068SOL     OW 7102   2.454   0.412   4.480
 2068SOL    HW1 7103   2.484   0.480   4.414
 2068SOL    HW2 7104   2.358   0.427   4.503
 2069SOL     OW 7105   6.662   2.728   4.122
 2069SOL    HW1 7106   6.702   2.722   4.213
 2069SOL    HW2 7107   6.719   2.679   4.056
 2070SOL     OW 7108   1.256   1.652   0.427
 2070SOL    HW1 7109   1.271   1.565   0.380
 2070SOL    HW2 7110   1.306   1.652   0.514
 2071SOL     OW 7111   5.900   0.603   5.827
 2071SOL    HW1 7112   5.990   0.584   5.787
 2071SOL    HW2 7113   5.858   0.517   5.856
 2072SOL     OW 7114   4.477   5.380   4.824
 2072SOL    HW1 7115   4.492   5.473   4.855
 2072SOL    HW2 7116   4.399   5.341   4.874
 2073SOL     OW 7117   4.415   6.781   4.980
 2073SOL    HW1 7118   4.344   6.740   4.922
 2073SOL    HW2 7119   4.380   6.866   5.020
 2074SOL     OW 7120   2.117   2.595   6.118
 2074SOL    HW1 7121   2.139   2.581   6.215
 2074SOL    HW2 7122   2.117   2.692   6.097
 2075SOL     OW 7123   7.004   2.528   2.671
 2075SOL    HW1 7124   0.022   2.497   2.757
 2075SOL    HW2 7125   6.905   2.520   2.677
 2076SOL     OW 7126   5.213   6.605   6.328
 2076SOL    HW1 7127   5.200   6.623   6.231
 2076SOL    HW2 7128   5.307   6.627   6.354
 2077SOL     OW 7129   0.005   1.730   2.108
 2077SOL    HW1 7130   0.092   1.697   2.071
 2077SOL    HW2 7131   6.959   1.661   2.094
 2078SOL     OW 7132   1.710   5.129   6.569
 2078SOL    HW1 7133   1.706   5.154   6.472
 2078SOL    HW2 7134   1.727   5.212   6.623
 2079SOL     OW 7135   0.202   1.781   3.027
 2079SOL    HW1 7136   0.164   1.808   3.115
 2079SOL    HW2 7137   0.270   1.849   2.998
 2080SOL     OW 7138   2.252   0.485   5.120
 2080SOL    HW1 7139   2.199   0.475   5.036
 2080SOL    HW2 7140   2.323   0.414   5.123
 2081SOL     OW 7141   0.746   6.532   4.431
 2081SOL    HW1 7142   0.784   6.606   4.487
 2081SOL    HW2 7143   0.647   6.526   4.446
 2082SOL     OW 7144   0.784   6.598   3.072
 2082SOL    HW1 7145   0.828   6.641   2.993
 2082SOL    HW2 7146   0.731   6.519   3.042
 2083SOL     OW 7147   1.293   5.501   5.438
 2083SOL    HW1 7148   1.217   5.529   5.497
 2083SOL    HW2 7149   1.355   5.578   5.424
 2084SOL     OW 7150   0.764   4.126   2.709
 2084SOL    HW1 7151   0.699   4.192   2.748
 2084SOL    HW2 7152   0.714   4.053   2.663
 2085SOL     OW 7153   4.729   0.735   1.142
 2085SOL    HW1 7154   4.689   0.676   1.072
 2085SOL    HW2 7155   4.659   0.796   1.178
 2086SOL     OW 7156   3.556   6.741   6.981
 2086SOL    HW1 7157   3.477   6.765   0.014
 2086SOL    HW2 7158   3.523   6.700   6.896
 2087SOL     OW 7159   5.216   1.393   1.792
 2087SOL    HW1 7160   5.294   1.450   1.818
 2087SOL    HW2 7161   5.139   1.451   1.768
 2088SOL     OW 7162   0.964   5.771   6.859
 2088SOL    HW1 7163   1.012   5.690   6.826
 2088SOL    HW2 7164   1.029   5.846   6.871
 2089SOL     OW 7165   4.791   2.635   6.095
 2089SOL    HW1 7166   4.775   2.723   6.049
 2089SOL    HW2 7167   4.824   2.652   6.188
 2090SOL     OW 7168   4.207   3.184   5.696
 2090SOL    HW1 7169   4.253   3.268   5.668
 2090SOL    HW2 7170   4.276   3.111   5.704
 2091SOL     OW 7171   6.637   4.642   0.691
 2091SOL    HW1 7172   6.708   4.617   0.625
 2091SOL    HW2 7173   6.555   4.672   0.642
 2092SOL     OW 7174   5.618   3.639   0.517
 2092SOL    HW1 7175   5.566   3.651   0.602
 2092SOL    HW2 7176   5.679   3.560   0.526
 2093SOL     OW 7177   3.051   2.287   1.715
 2093SOL    HW1 7178   3.051   2.193   1.748
 2093SOL    HW2 7179   3.007   2.346   1.782
 2094SOL     OW 7180   5.868   1.534   1.671
 2094SOL    HW1 7181   5.791   1.485   1.630
 2094SOL    HW2 7182   5.944   1.471   1.685
 2095SOL     OW 7183   6.080   6.379   4.666
 2095SOL    HW1 7184   6.011   6.363   4.737
 2095SOL    HW2 7185   6.065   6.316   4.590
 2096SOL     OW 7186   4.780   5.200   3.620
 2096SOL    HW1 7187   4.740   5.281   3.663
 2096SOL    HW2 7188   4.728   5.177   3.538
 2097SOL     OW 7189   2.876   2.818   6.391
 2097SOL    HW1 7190   2.929   2.900   6.416
 2097SOL    HW2 7191   2.897   2.745   6.456
 2098SOL     OW 7192   4.169   5.667   1.951
 2098SOL    HW1 7193   4.187   5.660   1.853
 2098SOL    HW2 7194   4.084   5.620   1.973
 2099SOL     OW 7195   3.507   1.374   0.389
 2099SOL    HW1 7196   3.431   1.373   0.455
 2099SOL    HW2 7197   3.508   1.289   0.338
 2100SOL     OW 7198   5.874   1.443   0.534
 2100SOL    HW1 7199   5.796   1.504   0.551
 2100SOL    HW2 7200   5.954   1.497   0.508
 2101SOL     OW 7201   0.361   6.479   0.915
 2101SOL    HW1 7202   0.322   6.397   0.957
 2101SOL    HW2 7203   0.291   6.523   0.859
 2102SOL     OW 7204   5.327   3.837   1.989
 2102SOL    HW1 7205   5.297   3.931   2.005
 2102SOL    HW2 7206   5.260   3.774   2.028
 2103SOL     OW 7207   3.089   3.257   6.987
 2103SOL    HW1 7208   3.160   3.232   0.027
 2103SOL    HW2 7209   3.113   3.343   6.942
 2104SOL     OW 7210   1.632   4.471   2.612
 2104SOL    HW1 7211   1.685   4.426   2.684
 2104SOL    HW2 7212   1.687   4.545   2.572
 2105SOL     OW 7213   4.551   4.690   6.551
 2105SOL    HW1 7214   4.561   4.696   6.452
 2105SOL    HW2 7215   4.641   4.698   6.594
 2106SOL     OW 7216   5.085   3.927   1.628
 2106SOL    HW1 7217   5.014   3.936   1.698
 2106SOL    HW2 7218   5.071   3.997   1.557
 2107SOL     OW 7219   6.076   2.303   5.640
 2107SOL    HW1 7220   6.164   2.298   5.687
 2107SOL    HW2 7221   6.009   2.347   5.700
 2108SOL     OW 7222   6.199   5.341   5.203
 2108SOL    HW1 7223   6.257   5.339   5.285
 2108SOL    HW2 7224   6.172   5.435   5.183
 2109SOL     OW 7225   3.730   6.140   2.445
 2109SOL    HW1 7226   3.778   6.113   2.529
 2109SOL    HW2 7227   3.692   6.060   2.401
 2110SOL     OW 7228   3.157   1.031   0.626
 2110SOL    HW1 7229   3.104   0.946   0.628
 2110SOL    HW2 7230   3.107   1.102   0.675
 2111SOL     OW 7231   2.185   3.577   6.494
 2111SOL    HW1 7232   2.208   3.620   6.406
 2111SOL    HW2 7233   2.267   3.572   6.551
 2112SOL     OW 7234   4.841   2.002   0.464
 2112SOL    HW1 7235   4.915   1.959   0.515
 2112SOL    HW2 7236   4.844   2.101   0.477
 2113SOL     OW 7237   2.282   1.245   5.205
 2113SOL    HW1 7238   2.184   1.241   5.228
 2113SOL    HW2 7239   2.302   1.333   5.161
 2114SOL     OW 7240   2.718   1.749   6.455
 2114SOL    HW1 7241   2.806   1.704   6.439
 2114SOL    HW2 7242   2.646   1.696   6.411
 2115SOL     OW 7243   0.653   4.361   1.984
 2115SOL    HW1 7244   0.585   4.419   2.027
 2115SOL    HW2 7245   0.629   4.346   1.888
 2116SOL     OW 7246   1.163   3.422   2.552
 2116SOL    HW1 7247   1.078   3.465   2.584
 2116SOL    HW2 7248   1.140   3.347   2.489
 2117SOL     OW 7249   5.869   4.048   1.575
 2117SOL    HW1 7250   5.886   4.129   1.519
 2117SOL    HW2 7251   5.828   3.977   1.518
 2118SOL     OW 7252   6.601   3.302   3.602
 2118SOL    HW1 7253   6.565   3.258   3.519
 2118SOL    HW2 7254   6.558   3.261   3.682
 2119SOL     OW 7255   2.141   0.468   0.599
 2119SOL    HW1 7256   2.045   0.449   0.578
 2119SOL    HW2 7257   2.170   0.413   0.677
 2120SOL     OW 7258   0.388   3.786   2.739
 2120SOL    HW1 7259   0.486   3.804   2.752
 2120SOL    HW2 7260   0.359   3.821   2.650
 2121SOL     OW 7261   1.446   2.042   5.739
 2121SOL    HW1 7262   1.509   1.983   5.790
 2121SOL    HW2 7263   1.357   2.043   5.787
 2122SOL     OW 7264   5.431   6.024   6.622
 2122SOL    HW1 7265   5.408   5.929   6.601
 2122SOL    HW2 7266   5.372   6.058   6.694
 2123SOL     OW 7267   6.430   5.792   1.236
 2123SOL    HW1 7268   6.410   5.867   1.298
 2123SOL    HW2 7269   6.444   5.828   1.143
 2124SOL     OW 7270   2.773   1.601   0.064
 2124SOL    HW1 7271   2.702   1.665   0.034
 2124SOL    HW2 7272   2.766   1.588   0.163
 2125SOL     OW 7273   1.063   5.960   1.853
 2125SOL    HW1 7274   1.005   5.982   1.931
 2125SOL    HW2 7275   1.126   5.886   1.877
 2126SOL     OW 7276   3.498   2.500   6.809
 2126SOL    HW1 7277   3.547   2.522   6.724
 2126SOL    HW2 7278   3.449   2.581   6.841
 2127SOL     OW 7279   0.803   1.513   5.292
 2127SOL    HW1 7280   0.807   1.432   5.350
 2127SOL    HW2 7281   0.886   1.518   5.236
 2128SOL     OW 7282   6.250   2.684   2.379
 2128SOL    HW1 7283   6.173   2.680   2.315
 2128SOL    HW2 7284   6.231   2.624   2.457
 2129SOL     OW 7285   4.585   4.403   5.024
 2129SOL    HW1 7286   4.526   4.479   5.052
 2129SOL    HW2 7287   4.529   4.332   4.981
 2130SOL     OW 7288   2.889   0.135   2.342
 2130SOL    HW1 7289   2.840   0.176   2.265
 2130SOL    HW2 7290   2.983   0.168   2.342
 2131SOL     OW 7291   5.129   1.124   0.672
 2131SOL    HW1 7292   5.085   1.214   0.667
 2131SOL    HW2 7293   5.174   1.105   0.584
 2132SOL     OW 7294   2.977   1.854   6.849
 2132SOL    HW1 7295   3.003   1.778   6.909
 2132SOL    HW2 7296   2.990   1.828   6.754
 2133SOL     OW 7297   3.583   2.601   0.825
 2133SOL    HW1 7298   3.598   2.544   0.905
 2133SOL    HW2 7299   3.491   2.586   0.790
 2134SOL     OW 7300   0.868   0.913   4.512
 2134SOL    HW1 7301   0.819   0.961   4.439
 2134SOL    HW2 7302   0.855   0.815   4.502
 2135SOL     OW 7303   0.903   1.382   4.458
 2135SOL    HW1 7304   0.960   1.442   4.402
 2135SOL    HW2 7305   0.823   1.354   4.404
 2136SOL     OW 7306   1.513   4.230   4.759
 2136SOL    HW1 7307   1.573   4.264   4.832
 2136SOL    HW2 7308   1.429   4.193   4.800
 2137SOL     OW 7309   6.982   6.371   4.394
 2137SOL    HW1 7310   0.024   6.405   4.326
 2137SOL    HW2 7311   7.017   6.287   4.435
 2138SOL     OW 7312   6.841   1.541   2.054
 2138SOL    HW1 7313   6.890   1.497   1.980
 2138SOL    HW2 7314   6.853   1.488   2.139
 2139SOL     OW 7315   3.878   0.646   2.615
 2139SOL    HW1 7316   3.783   0.613   2.621
 2139SOL    HW2 7317   3.880   0.743   2.642
 2140SOL     OW 7318   3.057   5.668   3.133
 2140SOL    HW1 7319   3.071   5.588   3.074
 2140SOL    HW2 7320   3.047   5.638   3.228
 2141SOL     OW 7321   0.190   3.864   1.113
 2141SOL    HW1 7322   0.099   3.836   1.083
 2141SOL    HW2 7323   0.259   3.814   1.060
 2142SOL     OW 7324   1.330   2.005   2.548
 2142SOL    HW1 7325   1.232   1.992   2.533
 2142SOL    HW2 7326   1.370   1.921   2.585
 2143SOL     OW 7327   3.554   4.864   1.286
 2143SOL    HW1 7328   3.502   4.842   1.203
 2143SOL    HW2 7329   3.501   4.839   1.367
 2144SOL     OW 7330   1.206   6.978   2.854
 2144SOL    HW1 7331   1.164   6.891   2.881
 2144SOL    HW2 7332   1.143   0.005   2.795
 2145SOL     OW 7333   4.014   5.885   3.851
 2145SOL    HW1 7334   4.089   5.935   3.808
 2145SOL    HW2 7335   3.995   5.924   3.942
 2146SOL     OW 7336   2.837   3.574   2.426
 2146SOL    HW1 7337   2.833   3.576   2.326
 2146SOL    HW2 7338   2.745   3.558   2.462
 2147SOL     OW 7339   0.151   0.457   6.958
 2147SOL    HW1 7340   0.201   0.416   0.010
 2147SOL    HW2 7341   0.082   0.520   6.994
 2148SOL     OW 7342   5.369   2.900   4.337
 2148SOL    HW1 7343   5.315   2.853   4.407
 2148SOL    HW2 7344   5.465   2.875   4.347
 2149SOL     OW 7345   3.722   1.084   1.441
 2149SOL    HW1 7346   3.795   1.149   1.419
 2149SOL    HW2 7347   3.664   1.071   1.361
 2150SOL     OW 7348   2.082   2.603   2.737
 2150SOL    HW1 7349   2.133   2.665   2.677
 2150SOL    HW2 7350   2.099   2.629   2.832
 2151SOL     OW 7351   1.622   1.762   3.964
 2151SOL    HW1 7352   1.722   1.767   3.954
 2151SOL    HW2 7353   1.584   1.707   3.890
 2152SOL     OW 7354   3.660   6.394   1.102
 2152SOL    HW1 7355   3.699   6.320   1.156
 2152SOL    HW2 7356   3.729   6.430   1.039
 2153SOL     OW 7357   3.828   0.071   3.194
 2153SOL    HW1 7358   3.859   0.102   3.284
 2153SOL    HW2 7359   3.795   0.150   3.141
 2154SOL     OW 7360   4.765   0.503   4.507
 2154SOL    HW1 7361   4.735   0.593   4.539
 2154SOL    HW2 7362   4.763   0.501   4.407
 2155SOL     OW 7363   1.831   5.798   0.248
 2155SOL    HW1 7364   1.860   5.882   0.203
 2155SOL    HW2 7365   1.866   5.719   0.197
 2156SOL     OW 7366   2.788   0.013   2.567
 2156SOL    HW1 7367   2.848   0.052   2.497
 2156SOL    HW2 7368   2.699   0.059   2.564
 2157SOL     OW 7369   5.948   1.478   3.407
 2157SOL    HW1 7370   5.947   1.490   3.507
 2157SOL    HW2 7371   5.859   1.506   3.370
 2158SOL     OW 7372   4.609   6.052   0.832
 2158SOL    HW1 7373   4.681   6.105   0.875
 2158SOL    HW2 7374   4.598   5.964   0.879
 2159SOL     OW 7375   1.745   5.511   5.262
 2159SOL    HW1 7376   1.662   5.489   5.211
 2159SOL    HW2 7377   1.752   5.611   5.272
 2160SOL     OW 7378   4.279   3.084   1.442
 2160SOL    HW1 7379   4.344   3.090   1.518
 2160SOL    HW2 7380   4.304   3.152   1.372
 2161SOL     OW 7381   5.469   2.499   3.512
 2161SOL    HW1 7382   5.524   2.442   3.451
 2161SOL    HW2 7383   5.390   2.535   3.461
 2162SOL     OW 7384   3.055   0.555   0.036
 2162SOL    HW1 7385   2.965   0.593   0.015
 2162SOL    HW2 7386   3.124   0.627   0.029
 2163SOL     OW 7387   0.369   5.483   6.066
 2163SOL    HW1 7388   0.288   5.425   6.076
 2163SOL    HW2 7389   0.350   5.555   5.999
 2164SOL     OW 7390   1.422   2.451   0.011
 2164SOL    HW1 7391   1.428   2.531   6.975
 2164SOL    HW2 7392   1.358   2.385   6.996
 2165SOL     OW 7393   1.099   1.831   2.650
 2165SOL    HW1 7394   1.184   1.790   2.617
 2165SOL    HW2 7395   1.041   1.854   2.572
 2166SOL     OW 7396   2.000   2.327   5.455
 2166SOL    HW1 7397   1.993   2.368   5.546
 2166SOL    HW2 7398   1.910   2.293   5.427
 2167SOL     OW 7399   1.755   0.858   3.390
 2167SOL    HW1 7400   1.782   0.834   3.297
 2167SOL    HW2 7401   1.834   0.889   3.441
 2168SOL     OW 7402   7.018   2.253   3.668
 2168SOL    HW1 7403   0.022   2.302   3.585
 2168SOL    HW2 7404   6.925   2.218   3.655
 2169SOL     OW 7405   5.760   2.174   5.782
 2169SOL    HW1 7406   5.794   2.129   5.864
 2169SOL    HW2 7407   5.793   2.269   5.780
 2170SOL     OW 7408   5.743   4.903   5.917
 2170SOL    HW1 7409   5.647   4.879   5.908
 2170SOL    HW2 7410   5.798   4.819   5.915
 2171SOL     OW 7411   6.029   3.208   0.745
 2171SOL    HW1 7412   5.953   3.271   0.755
 2171SOL    HW2 7413   6.070   3.191   0.835
 2172SOL     OW 7414   2.084   1.512   0.414
 2172SOL    HW1 7415   2.170   1.485   0.457
 2172SOL    HW2 7416   2.066   1.451   0.336
 2173SOL     OW 7417   3.874   6.944   5.574
 2173SOL    HW1 7418   3.882   6.849   5.545
 2173SOL    HW2 7419   3.854   6.948   5.672
 2174SOL     OW 7420   5.837   5.128   6.056
 2174SOL    HW1 7421   5.756   5.178   6.086
 2174SOL    HW2 7422   5.810   5.043   6.012
 2175SOL     OW 7423   3.248   2.075   3.435
 2175SOL    HW1 7424   3.280   2.104   3.345
 2175SOL    HW2 7425   3.303   2.117   3.507
 2176SOL     OW 7426   0.663   2.744   0.828
 2176SOL    HW1 7427   0.620   2.654   0.830
 2176SOL    HW2 7428   0.734   2.745   0.757
 2177SOL     OW 7429   6.293   0.407   2.847
 2177SOL    HW1 7430   6.279   0.478   2.779
 2177SOL    HW2 7431   6.380   0.360   2.829
 2178SOL     OW 7432   2.117   4.410   0.431
 2178SOL    HW1 7433   2.198   4.358   0.457
 2178SOL    HW2 7434   2.043   4.390   0.495
 2179SOL     OW 7435   2.153   5.241   4.890
 2179SOL    HW1 7436   2.095   5.196   4.821
 2179SOL    HW2 7437   2.101   5.253   4.974
 2180SOL     OW 7438   2.834   3.499   2.155
 2180SOL    HW1 7439   2.748   3.449   2.141
 2180SOL    HW2 7440   2.876   3.519   2.067
 2181SOL     OW 7441   5.158   4.625   5.768
 2181SOL    HW1 7442   5.115   4.563   5.834
 2181SOL    HW2 7443   5.225   4.682   5.814
 2182SOL     OW 7444   6.075   3.063   4.733
 2182SOL    HW1 7445   6.100   3.082   4.828
 2182SOL    HW2 7446   6.084   2.965   4.715
 2183SOL     OW 7447   3.463   3.698   6.373
 2183SOL    HW1 7448   3.552   3.656   6.393
 2183SOL    HW2 7449   3.478   3.786   6.326
 2184SOL     OW 7450   3.946   1.231   5.296
 2184SOL    HW1 7451   3.991   1.187   5.218
 2184SOL    HW2 7452   3.939   1.166   5.371
 2185SOL     OW 7453   1.568   2.457   0.906
 2185SOL    HW1 7454   1.532   2.548   0.887
 2185SOL    HW2 7455   1.640   2.435   0.840
 2186SOL     OW 7456   0.124   4.876   2.589
 2186SOL    HW1 7457   0.123   4.828   2.501
 2186SOL    HW2 7458   0.170   4.820   2.658
 2187SOL     OW 7459   0.792   1.852   1.509
 2187SOL    HW1 7460   0.719   1.919   1.498
 2187SOL    HW2 7461   0.766   1.767   1.463
 2188SOL     OW 7462   5.453   5.903   4.164
 2188SOL    HW1 7463   5.524   5.900   4.094
 2188SOL    HW2 7464   5.437   5.811   4.200
 2189SOL     OW 7465   1.616   6.186   6.673
 2189SOL    HW1 7466   1.687   6.222   6.612
 2189SOL    HW2 7467   1.539   6.249   6.676
 2190SOL     OW 7468   0.362   2.370   1.849
 2190SOL    HW1 7469   0.326   2.300   1.787
 2190SOL    HW2 7470   0.292   2.395   1.916
 2191SOL     OW 7471   3.010   1.676   6.100
 2191SOL    HW1 7472   3.078   1.740   6.063
 2191SOL    HW2 7473   2.971   1.622   6.026
 2192SOL     OW 7474   3.407   6.959   3.829
 2192SOL    HW1 7475   3.390   6.914   3.917
 2192SOL    HW2 7476   3.471   6.904   3.776
 2193SOL     OW 7477   6.931   6.488   6.156
 2193SOL    HW1 7478   6.865   6.472   6.082
 2193SOL    HW2 7479   7.021   6.457   6.127
 2194SOL     OW 7480   2.471   4.467   6.679
 2194SOL    HW1 7481   2.403   4.450   6.607
 2194SOL    HW2 7482   2.532   4.541   6.651
 2195SOL     OW 7483   0.844   6.707   2.564
 2195SOL    HW1 7484   0.831   6.612   2.538
 2195SOL    HW2 7485   0.942   6.727   2.569
 2196SOL     OW 7486   3.089   0.520   5.650
 2196SOL    HW1 7487   3.042   0.435   5.625
 2196SOL    HW2 7488   3.025   0.596   5.650
 2197SOL     OW 7489   4.811   3.596   1.600
 2197SOL    HW1 7490   4.832   3.508   1.643
 2197SOL    HW2 7491   4.741   3.582   1.529
 2198SOL     OW 7492   6.472   1.823   6.963
 2198SOL    HW1 7493   6.460   1.747   0.002
 2198SOL    HW2 7494   6.506   1.903   7.013
 2199SOL     OW 7495   5.522   1.064   1.639
 2199SOL    HW1 7496   5.494   1.080   1.733
 2199SOL    HW2 7497   5.553   0.969   1.629
 2200SOL     OW 7498   4.071   0.481   4.642
 2200SOL    HW1 7499   4.074   0.486   4.741
 2200SOL    HW2 7500   4.116   0.397   4.612
 2201SOL     OW 7501   6.651   2.850   2.035
 2201SOL    HW1 7502   6.617   2.930   2.085
 2201SOL    HW2 7503   6.581   2.820   1.970
 2202SOL     OW 7504   3.889   5.428   4.306
 2202SOL    HW1 7505   3.940   5.414   4.221
 2202SOL    HW2 7506   3.791   5.414   4.289
 2203SOL     OW 7507   2.199   2.168   2.009
 2203SOL    HW1 7508   2.145   2.127   1.935
 2203SOL    HW2 7509   2.158   2.255   2.035
 2204SOL     OW 7510   3.494   1.330   0.034
 2204SOL    HW1 7511   3.514   1.379   0.119
 2204SOL    HW2 7512   3.530   1.383   6.981
 2205SOL     OW 7513   1.707   6.954   6.279
 2205SOL    HW1 7514   1.795   6.972   6.324
 2205SOL    HW2 7515   1.686   0.006   6.216
 2206SOL     OW 7516   2.998   4.295   5.329
 2206SOL    HW1 7517   2.979   4.369   5.265
 2206SOL    HW2 7518   2.986   4.207   5.284
 2207SOL     OW 7519   1.858   3.858   6.407
 2207SOL    HW1 7520   1.955   3.841   6.393
 2207SOL    HW2 7521   1.805   3.782   6.371
 2208SOL     OW 7522   1.809   4.806   2.283
 2208SOL    HW1 7523   1.735   4.873   2.276
 2208SOL    HW2 7524   1.893   4.853   2.310
 2209SOL     OW 7525   1.419   5.719   5.927
 2209SOL    HW1 7526   1.391   5.721   5.831
 2209SOL    HW2 7527   1.424   5.813   5.962
 2210SOL     OW 7528   0.383   5.161   3.861
 2210SOL    HW1 7529   0.379   5.061   3.866
 2210SOL    HW2 7530   0.400   5.189   3.767
 2211SOL     OW 7531   5.447   1.205   6.982
 2211SOL    HW1 7532   5.530   1.173   6.937
 2211SOL    HW2 7533   5.397   1.128   7.020
 2212SOL     OW 7534   1.833   6.228   0.582
 2212SOL    HW1 7535   1.814   6.149   0.640
 2212SOL    HW2 7536   1.906   6.205   0.518
 2213SOL     OW 7537   4.040   2.811   5.565
 2213SOL    HW1 7538   4.098   2.862   5.501
 2213SOL    HW2 7539   4.054   2.713   5.552
 2214SOL     OW 7540   4.798   1.143   5.358
 2214SOL    HW1 7541   4.785   1.132   5.259
 2214SOL    HW2 7542   4.872   1.085   5.389
 2215SOL     OW 7543   6.722   1.994   5.981
 2215SOL    HW1 7544   6.633   2.038   5.967
 2215SOL    HW2 7545   6.741   1.986   6.078
 2216SOL     OW 7546   1.747   0.328   6.923
 2216SOL    HW1 7547   1.792   0.417   6.920
 2216SOL    HW2 7548   1.668   0.332   6.984
 2217SOL     OW 7549   3.194   0.127   1.764
 2217SOL    HW1 7550   3.195   0.108   1.862
 2217SOL    HW2 7551   3.129   0.066   1.718
 2218SOL     OW 7552   1.230   6.598   1.098
 2218SOL    HW1 7553   1.276   6.686   1.087
 2218SOL    HW2 7554   1.238   6.568   1.193
 2219SOL     OW 7555   0.909   4.162   3.456
 2219SOL    HW1 7556   0.849   4.113   3.519
 2219SOL    HW2 7557   0.855   4.227   3.401
 2220SOL     OW 7558   0.292   1.129   4.314
 2220SOL    HW1 7559   0.373   1.096   4.264
 2220SOL    HW2 7560   0.238   1.051   4.344
 2221SOL     OW 7561   6.842   0.922   0.118
 2221SOL    HW1 7562   6.774   0.856   0.086
 2221SOL    HW2 7563   6.842   0.925   0.218
 2222SOL     OW 7564   3.674   0.716   0.698
 2222SOL    HW1 7565   3.744   0.645   0.692
 2222SOL    HW2 7566   3.712   0.803   0.667
 2223SOL     OW 7567   5.154   6.829   3.775
 2223SOL    HW1 7568   5.178   6.740   3.736
 2223SOL    HW2 7569   5.200   6.901   3.723
 2224SOL     OW 7570   2.104   4.473   1.819
 2224SOL    HW1 7571   2.049   4.504   1.897
 2224SOL    HW2 7572   2.176   4.541   1.801
 2225SOL     OW 7573   6.093   5.686   3.026
 2225SOL    HW1 7574   6.036   5.649   2.952
 2225SOL    HW2 7575   6.038   5.743   3.085
 2226SOL     OW 7576   4.179   3.285   0.637
 2226SOL    HW1 7577   4.115   3.208   0.634
 2226SOL    HW2 7578   4.269   3.253   0.667
 2227SOL     OW 7579   5.867   4.562   0.179
 2227SOL    HW1 7580   5.792   4.506   0.145
 2227SOL    HW2 7581   5.896   4.529   0.269
 2228SOL     OW 7582   3.148   5.919   0.765
 2228SOL    HW1 7583   3.230   5.912   0.708
 2228SOL    HW2 7584   3.108   5.828   0.777
 2229SOL     OW 7585   4.171   1.474   4.335
 2229SOL    HW1 7586   4.109   1.516   4.402
 2229SOL    HW2 7587   4.207   1.389   4.372
 2230SOL     OW 7588   0.506   6.089   4.688
 2230SOL    HW1 7589   0.589   6.141   4.708
 2230SOL    HW2 7590   0.513   6.050   4.596
 2231SOL     OW 7591   1.894   1.502   1.297
 2231SOL    HW1 7592   1.798   1.498   1.267
 2231SOL    HW2 7593   1.918   1.417   1.343
 2232SOL     OW 7594   1.239   2.387   4.000
 2232SOL    HW1 7595   1.330   2.360   4.032
 2232SOL    HW2 7596   1.211   2.327   3.925
 2233SOL     OW 7597   2.870   4.440   0.492
 2233SOL    HW1 7598   2.883   4.438   0.392
 2233SOL    HW2 7599   2.822   4.357   0.521
 2234SOL     OW 7600   4.967   2.326   1.512
 2234SOL    HW1 7601   5.012   2.255   1.566
 2234SOL    HW2 7602   5.019   2.411   1.521
 2235SOL     OW 7603   1.624   0.069   0.216
 2235SOL    HW1 7604   1.643   0.024   0.303
 2235SOL    HW2 7605   1.709   0.084   0.166
 2236SOL     OW 7606   1.213   4.669   0.546
 2236SOL    HW1 7607   1.130   4.670   0.491
 2236SOL    HW2 7608   1.243   4.575   0.560
 2237SOL     OW 7609   5.692   3.977   4.408
 2237SOL    HW1 7610   5.628   4.012   4.339
 2237SOL    HW2 7611   5.671   3.881   4.427
 2238SOL     OW 7612   6.604   5.852   3.170
 2238SOL    HW1 7613   6.617   5.754   3.159
 2238SOL    HW2 7614   6.551   5.887   3.093
 2239SOL     OW 7615   3.866   5.202   3.708
 2239SOL    HW1 7616   3.809   5.266   3.656
 2239SOL    HW2 7617   3.866   5.227   3.804
 2240SOL     OW 7618   5.680   5.824   3.988
 2240SOL    HW1 7619   5.645   5.803   3.896
 2240SOL    HW2 7620   5.697   5.739   4.038
 2241SOL     OW 7621   0.418   6.510   2.028
 2241SOL    HW1 7622   0.385   6.581   1.966
 2241SOL    HW2 7623   0.344   6.482   2.089
 2242SOL     OW 7624   5.588   2.369   3.087
 2242SOL    HW1 7625   5.616   2.441   3.024
 2242SOL    HW2 7626   5.490   2.352   3.077
 2243SOL     OW 7627   2.835   6.212   5.240
 2243SOL    HW1 7628   2.796   6.267   5.313
 2243SOL    HW2 7629   2.815   6.256   5.152
 2244SOL     OW 7630   3.573   0.600   3.086
 2244SOL    HW1 7631   3.593   0.693   3.119
 2244SOL    HW2 7632   3.659   0.551   3.072
 2245SOL     OW 7633   0.298   2.276   1.340
 2245SOL    HW1 7634   0.251   2.315   1.262
 2245SOL    HW2 7635   0.397   2.284   1.328
 2246SOL     OW 7636   1.511   1.874   4.921
 2246SOL    HW1 7637   1.425   1.822   4.919
 2246SOL    HW2 7638   1.531   1.901   5.015
 2247SOL     OW 7639   2.275   2.562   6.368
 2247SOL    HW1 7640   2.248   2.601   6.457
 2247SOL    HW2 7641   2.332   2.628   6.319
 2248SOL     OW 7642   4.573   3.678   6.086
 2248SOL    HW1 7643   4.652   3.728   6.052
 2248SOL    HW2 7644   4.592   3.643   6.178
 2249SOL     OW 7645   5.342   6.533   2.947
 2249SOL    HW1 7646   5.258   6.494   2.911
 2249SOL    HW2 7647   5.389   6.465   3.005
 2250SOL     OW 7648   5.155   3.705   1.193
 2250SOL    HW1 7649   5.095   3.780   1.222
 2250SOL    HW2 7650   5.141   3.626   1.252
 2251SOL     OW 7651   6.075   1.441   0.218
 2251SOL    HW1 7652   6.158   1.394   0.248
 2251SOL    HW2 7653   6.003   1.373   0.202
 2252SOL     OW 7654   6.417   2.473   4.375
 2252SOL    HW1 7655   6.395   2.553   4.430
 2252SOL    HW2 7656   6.399   2.492   4.278
 2253SOL     OW 7657   1.125   3.236   6.554
 2253SOL    HW1 7658   1.042   3.277   6.591
 2253SOL    HW2 7659   1.201   3.252   6.617
 2254SOL     OW 7660   2.425   3.010   5.579
 2254SOL    HW1 7661   2.403   3.065   5.498
 2254SOL    HW2 7662   2.419   2.913   5.556
 2255SOL     OW 7663   6.579   2.448   0.637
 2255SOL    HW1 7664   6.524   2.465   0.718
 2255SOL    HW2 7665   6.524   2.465   0.555
 2256SOL     OW 7666   4.203   5.791   1.399
 2256SOL    HW1 7667   4.210   5.874   1.454
 2256SOL    HW2 7668   4.186   5.815   1.303
 2257SOL     OW 7669   0.507   3.106   4.447
 2257SOL    HW1 7670   0.507   3.050   4.530
 2257SOL    HW2 7671   0.600   3.112   4.410
 2258SOL     OW 7672   1.189   5.919   4.713
 2258SOL    HW1 7673   1.151   5.909   4.805
 2258SOL    HW2 7674   1.282   5.956   4.719
 2259SOL     OW 7675   4.354   3.440   6.048
 2259SOL    HW1 7676   4.299   3.523   6.054
 2259SOL    HW2 7677   4.294   3.360   6.046
 2260SOL     OW 7678   4.653   4.526   3.149
 2260SOL    HW1 7679   4.657   4.573   3.237
 2260SOL    HW2 7680   4.714   4.572   3.084
 2261SOL     OW 7681   6.068   6.742   1.038
 2261SOL    HW1 7682   6.028   6.778   1.122
 2261SOL    HW2 7683   6.147   6.685   1.061
 2262SOL     OW 7684   5.996   3.072   2.429
 2262SOL    HW1 7685   5.916   3.015   2.449
 2262SOL    HW2 7686   5.966   3.164   2.403
 2263SOL     OW 7687   2.751   5.760   6.061
 2263SOL    HW1 7688   2.779   5.689   6.125
 2263SOL    HW2 7689   2.744   5.848   6.109
 2264SOL     OW 7690   3.112   4.037   2.453
 2264SOL    HW1 7691   3.065   4.047   2.541
 2264SOL    HW2 7692   3.076   3.956   2.405
 2265SOL     OW 7693   0.251   0.356   3.573
 2265SOL    HW1 7694   0.273   0.284   3.507
 2265SOL    HW2 7695   0.213   0.435   3.524
 2266SOL     OW 7696   6.510   1.450   1.104
 2266SOL    HW1 7697   6.500   1.452   1.005
 2266SOL    HW2 7698   6.430   1.494   1.146
 2267SOL     OW 7699   5.504   2.492   5.079
 2267SOL    HW1 7700   5.540   2.585   5.081
 2267SOL    HW2 7701   5.475   2.466   5.172
 2268SOL     OW 7702   6.668   4.819   0.301
 2268SOL    HW1 7703   6.720   4.895   0.262
 2268SOL    HW2 7704   6.587   4.801   0.245
 2269SOL     OW 7705   6.011   5.817   5.589
 2269SOL    HW1 7706   6.030   5.898   5.534
 2269SOL    HW2 7707   5.984   5.845   5.681
 2270SOL     OW 7708   3.860   3.642   6.977
 2270SOL    HW1 7709   3.918   3.721   6.995
 2270SOL    HW2 7710   3.898   3.561   7.023
 2271SOL     OW 7711   6.154   3.987   1.447
 2271SOL    HW1 7712   6.155   4.003   1.546
 2271SOL    HW2 7713   6.125   3.893   1.429
 2272SOL     OW 7714   6.187   2.041   4.776
 2272SOL    HW1 7715   6.212   2.128   4.818
 2272SOL    HW2 7716   6.088   2.040   4.757
 2273SOL     OW 7717   1.973   1.751   1.612
 2273SOL    HW1 7718   1.957   1.850   1.610
 2273SOL    HW2 7719   2.043   1.727   1.544
 2274SOL     OW 7720   0.912   3.244   5.724
 2274SOL    HW1 7721   0.973   3.216   5.650
 2274SOL    HW2 7722   0.966   3.270   5.804
 2275SOL     OW 7723   5.237   6.972   4.860
 2275SOL    HW1 7724   5.178   6.921   4.923
 2275SOL    HW2 7725   5.214   6.948   4.766
 2276SOL     OW 7726   3.221   5.161   1.485
 2276SOL    HW1 7727   3.150   5.194   1.423
 2276SOL    HW2 7728   3.211   5.062   1.497
 2277SOL     OW 7729   2.954   3.723   4.803
 2277SOL    HW1 7730   2.905   3.636   4.815
 2277SOL    HW2 7731   3.047   3.705   4.772
 2278SOL     OW 7732   4.653   6.561   3.994
 2278SOL    HW1 7733   4.714   6.597   3.923
 2278SOL    HW2 7734   4.690   6.476   4.031
 2279SOL     OW 7735   5.433   5.233   4.430
 2279SOL    HW1 7736   5.532   5.223   4.427
 2279SOL    HW2 7737   5.410   5.330   4.444
 2280SOL     OW 7738   6.156   6.371   5.011
 2280SOL    HW1 7739   6.228   6.435   4.984
 2280SOL    HW2 7740   6.176   6.281   4.973
 2281SOL     OW 7741   3.843   1.099   1.691
 2281SOL    HW1 7742   3.826   1.065   1.598
 2281SOL    HW2 7743   3.903   1.035   1.739
 2282SOL     OW 7744   5.738   6.622   5.038
 2282SOL    HW1 7745   5.768   6.679   4.961
 2282SOL    HW2 7746   5.764   6.527   5.022
 2283SOL     OW 7747   6.728   4.410   1.110
 2283SOL    HW1 7748   6.715   4.355   1.027
 2283SOL    HW2 7749   6.782   4.491   1.088
 2284SOL     OW 7750   2.000   1.712   0.590
 2284SOL    HW1 7751   2.052   1.639   0.545
 2284SOL    HW2 7752   1.911   1.721   0.546
 2285SOL     OW 7753   2.310   3.499   6.960
 2285SOL    HW1 7754   2.226   3.454   6.989
 2285SOL    HW2 7755   2.291   3.594   6.937
 2286SOL     OW 7756   6.207   6.430   4.231
 2286SOL    HW1 7757   6.210   6.403   4.135
 2286SOL    HW2 7758   6.113   6.427   4.264
 2287SOL     OW 7759   2.326   2.582   2.184
 2287SOL    HW1 7760   2.317   2.676   2.149
 2287SOL    HW2 7761   2.363   2.585   2.277
 2288SOL     OW 7762   6.815   5.364   4.316
 2288SOL    HW1 7763   6.762   5.448   4.308
 2288SOL    HW2 7764   6.843   5.333   4.225
 2289SOL     OW 7765   6.283   3.631   2.623
 2289SOL    HW1 7766   6.192   3.671   2.610
 2289SOL    HW2 7767   6.334   3.686   2.689
 2290SOL     OW 7768   2.142   3.802   2.067
 2290SOL    HW1 7769   2.047   3.784   2.040
 2290SOL    HW2 7770   2.192   3.715   2.073
 2291SOL     OW 7771   2.066   2.223   0.376
 2291SOL    HW1 7772   2.083   2.137   0.423
 2291SOL    HW2 7773   2.099   2.216   0.282
 2292SOL     OW 7774   5.043   2.885   3.791
 2292SOL    HW1 7775   5.005   2.975   3.809
 2292SOL    HW2 7776   4.971   2.824   3.759
 2293SOL     OW 7777   6.489   0.440   1.083
 2293SOL    HW1 7778   6.410   0.391   1.046
 2293SOL    HW2 7779   6.457   0.514   1.143
 2294SOL     OW 7780   3.247   1.796   6.045
 2294SOL    HW1 7781   3.278   1.722   6.104
 2294SOL    HW2 7782   3.317   1.815   5.976
 2295SOL     OW 7783   6.957   1.236   3.022
 2295SOL    HW1 7784   6.933   1.263   2.929
 2295SOL    HW2 7785   6.922   1.144   3.040
 2296SOL     OW 7786   2.621   4.941   3.296
 2296SOL    HW1 7787   2.690   5.014   3.294
 2296SOL    HW2 7788   2.636   4.879   3.219
 2297SOL     OW 7789   4.834   4.487   6.266
 2297SOL    HW1 7790   4.932   4.475   6.247
 2297SOL    HW2 7791   4.809   4.583   6.254
 2298SOL     OW 7792   3.660   3.696   3.105
 2298SOL    HW1 7793   3.712   3.633   3.162
 2298SOL    HW2 7794   3.669   3.670   3.009
 2299SOL     OW 7795   5.040   4.193   4.970
 2299SOL    HW1 7796   5.034   4.293   4.966
 2299SOL    HW2 7797   4.952   4.156   5.000
 2300SOL     OW 7798   3.044   6.673   3.460
 2300SOL    HW1 7799   3.050   6.651   3.363
 2300SOL    HW2 7800   3.005   6.596   3.510
 2301SOL     OW 7801   3.585   2.984   3.864
 2301SOL    HW1 7802   3.529   2.918   3.915
 2301SOL    HW2 7803   3.680   2.976   3.892
 2302SOL     OW 7804   3.404   0.231   1.339
 2302SOL    HW1 7805   3.393   0.151   1.397
 2302SOL    HW2 7806   3.370   0.209   1.247
 2303SOL     OW 7807   2.296   3.124   1.356
 2303SOL    HW1 7808   2.388   3.152   1.331
 2303SOL    HW2 7809   2.234   3.138   1.279
 2304SOL     OW 7810   5.472   5.647   4.282
 2304SOL    HW1 7811   5.453   5.621   4.376
 2304SOL    HW2 7812   5.474   5.566   4.224
 2305SOL     OW 7813   2.015   0.581   3.768
 2305SOL    HW1 7814   1.955   0.655   3.798
 2305SOL    HW2 7815   2.108   0.616   3.755
 2306SOL     OW 7816   1.718   5.404   1.938
 2306SOL    HW1 7817   1.676   5.451   2.016
 2306SOL    HW2 7818   1.798   5.352   1.969
 2307SOL     OW 7819   0.556   3.340   5.395
 2307SOL    HW1 7820   0.504   3.423   5.416
 2307SOL    HW2 7821   0.501   3.281   5.335
 2308SOL     OW 7822   2.866   4.695   0.940
 2308SOL    HW1 7823   2.845   4.672   0.845
 2308SOL    HW2 7824   2.835   4.622   1.000
 2309SOL     OW 7825   1.993   0.844   4.623
 2309SOL    HW1 7826   1.953   0.872   4.710
 2309SOL    HW2 7827   2.011   0.746   4.625
 2310SOL     OW 7828   5.696   6.111   2.799
 2310SOL    HW1 7829   5.712   6.191   2.858
 2310SOL    HW2 7830   5.600   6.111   2.769
 2311SOL     OW 7831   2.907   5.921   6.790
 2311SOL    HW1 7832   2.834   5.972   6.836
 2311SOL    HW2 7833   2.869   5.842   6.743
 2312SOL     OW 7834   4.412   5.734   3.250
 2312SOL    HW1 7835   4.349   5.773   3.182
 2312SOL    HW2 7836   4.447   5.807   3.308
 2313SOL     OW 7837   4.872   4.896   2.344
 2313SOL    HW1 7838   4.849   4.987   2.310
 2313SOL    HW2 7839   4.916   4.843   2.272
 2314SOL     OW 7840   4.013   6.981   2.869
 2314SOL    HW1 7841   3.932   6.941   2.825
 2314SOL    HW2 7842   4.050   0.030   2.811
 2315SOL     OW 7843   5.043   3.543   5.815
 2315SOL    HW1 7844   5.060   3.574   5.722
 2315SOL    HW2 7845   5.118   3.573   5.874
 2316SOL     OW 7846   5.107   2.114   3.797
 2316SOL    HW1 7847   5.118   2.120   3.896
 2316SOL    HW2 7848   5.191   2.144   3.753
 2317SOL     OW 7849   0.065   5.281   3.369
 2317SOL    HW1 7850   0.041   5.231   3.453
 2317SOL    HW2 7851   0.158   5.256   3.342
 2318SOL     OW 7852   0.420   2.603   3.432
 2318SOL    HW1 7853   0.436   2.667   3.357
 2318SOL    HW2 7854   0.328   2.617   3.469
 2319SOL     OW 7855   1.541   4.643   4.829
 2319SOL    HW1 7856   1.473   4.716   4.830
 2319SOL    HW2 7857   1.582   4.634   4.920
 2320SOL     OW 7858   1.321   2.794   4.577
 2320SOL    HW1 7859   1.348   2.741   4.496
 2320SOL    HW2 7860   1.238   2.847   4.556
 2321SOL     OW 7861   3.487   0.992   5.218
 2321SOL    HW1 7862   3.575   0.990   5.266
 2321SOL    HW2 7863   3.492   0.931   5.139
 2322SOL     OW 7864   2.283   1.889   5.412
 2322SOL    HW1 7865   2.265   1.796   5.380
 2322SOL    HW2 7866   2.249   1.955   5.344
 2323SOL     OW 7867   2.613   4.589   2.403
 2323SOL    HW1 7868   2.591   4.510   2.461
 2323SOL    HW2 7869   2.560   4.668   2.434
 2324SOL     OW 7870   0.447   6.074   2.837
 2324SOL    HW1 7871   0.474   6.099   2.744
 2324SOL    HW2 7872   0.527   6.035   2.885
 2325SOL     OW 7873   0.971   3.855   1.808
 2325SOL    HW1 7874   1.039   3.785   1.789
 2325SOL    HW2 7875   0.936   3.892   1.721
 2326SOL     OW 7876   2.688   3.882   6.117
 2326SOL    HW1 7877   2.626   3.954   6.085
 2326SOL    HW2 7878   2.780   3.920   6.127
 2327SOL     OW 7879   5.053   2.609   4.744
 2327SOL    HW1 7880   5.104   2.694   4.752
 2327SOL    HW2 7881   5.117   2.532   4.745
 2328SOL     OW 7882   5.063   1.529   3.962
 2328SOL    HW1 7883   5.143   1.586   3.980
 2328SOL    HW2 7884   5.020   1.558   3.877
 2329SOL     OW 7885   1.525   5.317   4.854
 2329SOL    HW1 7886   1.597   5.367   4.806
 2329SOL    HW2 7887   1.565   5.261   4.926
 2330SOL     OW 7888   0.202   4.586   1.883
 2330SOL    HW1 7889   0.202   4.491   1.853
 2330SOL    HW2 7890   0.287   4.630   1.852
 2331SOL     OW 7891   5.868   5.107   6.543
 2331SOL    HW1 7892   5.965   5.090   6.526
 2331SOL    HW2 7893   5.836   5.181   6.483
 2332SOL     OW 7894   4.752   2.038   5.499
 2332SOL    HW1 7895   4.792   2.127   5.517
 2332SOL    HW2 7896   4.808   1.967   5.542
 2333SOL     OW 7897   0.326   4.820   2.961
 2333SOL    HW1 7898   0.400   4.754   2.954
 2333SOL    HW2 7899   0.363   4.909   2.988
 2334SOL     OW 7900   2.701   6.745   6.975
 2334SOL    HW1 7901   2.606   6.715   6.977
 2334SOL    HW2 7902   2.761   6.667   6.988
 2335SOL     OW 7903   6.074   1.275   3.270
 2335SOL    HW1 7904   6.039   1.349   3.327
 2335SOL    HW2 7905   6.014   1.196   3.277
 2336SOL     OW 7906   4.407   1.465   5.106
 2336SOL    HW1 7907   4.421   1.417   5.193
 2336SOL    HW2 7908   4.482   1.444   5.044
 2337SOL     OW 7909   4.911   1.039   3.597
 2337SOL    HW1 7910   4.894   0.979   3.518
 2337SOL    HW2 7911   4.896   1.134   3.570
 2338SOL     OW 7912   1.018   0.149   6.505
 2338SOL    HW1 7913   0.968   0.133   6.590
 2338SOL    HW2 7914   1.116   0.136   6.521
 2339SOL     OW 7915   3.435   3.763   5.340
 2339SOL    HW1 7916   3.356   3.813   5.302
 2339SOL    HW2 7917   3.518   3.817   5.326
 2340SOL     OW 7918   4.683   6.677   5.653
 2340SOL    HW1 7919   4.607   6.741   5.636
 2340SOL    HW2 7920   4.687   6.610   5.579
 2341SOL     OW 7921   5.522   3.989   0.639
 2341SOL    HW1 7922   5.438   3.970   0.589
 2341SOL    HW2 7923   5.500   4.008   0.735
 2342SOL     OW 7924   0.300   6.297   5.432
 2342SOL    HW1 7925   0.376   6.276   5.493
 2342SOL    HW2 7926   0.332   6.357   5.358
 2343SOL     OW 7927   1.808   6.850   1.195
 2343SOL    HW1 7928   1.820   6.803   1.108
 2343SOL    HW2 7929   1.714   6.884   1.202
 2344SOL     OW 7930   2.132   1.652   1.406
 2344SOL    HW1 7931   2.046   1.614   1.374
 2344SOL    HW2 7932   2.197   1.579   1.425
 2345SOL     OW 7933   1.658   6.730   5.382
 2345SOL    HW1 7934   1.644   6.679   5.467
 2345SOL    HW2 7935   1.617   6.679   5.306
 2346SOL     OW 7936   4.716   3.018   5.228
 2346SOL    HW1 7937   4.716   2.938   5.168
 2346SOL    HW2 7938   4.801   3.069   5.216
 2347SOL     OW 7939   1.618   4.359   2.370
 2347SOL    HW1 7940   1.631   4.398   2.461
 2347SOL    HW2 7941   1.524   4.374   2.340
 2348SOL     OW 7942   2.316   5.874   3.401
 2348SOL    HW1 7943   2.277   5.951   3.451
 2348SOL    HW2 7944   2.273   5.789   3.431
 2349SOL     OW 7945   0.996   6.223   7.022
 2349SOL    HW1 7946   1.064   6.249   0.067
 2349SOL    HW2 7947   1.001   6.288   6.945
 2350SOL     OW 7948   3.760   6.698   5.836
 2350SOL    HW1 7949   3.745   6.792   5.867
 2350SOL    HW2 7950   3.847   6.665   5.872
 2351SOL     OW 7951   3.486   5.242   3.583
 2351SOL    HW1 7952   3.465   5.298   3.503
 2351SOL    HW2 7953   3.472   5.297   3.666
 2352SOL     OW 7954   0.333   4.539   3.139
 2352SOL    HW1 7955   0.369   4.475   3.207
 2352SOL    HW2 7956   0.235   4.551   3.153
 2353SOL     OW 7957   2.614   4.614   4.626
 2353SOL    HW1 7958   2.641   4.607   4.722
 2353SOL    HW2 7959   2.675   4.678   4.579
 2354SOL     OW 7960   3.781   2.203   6.480
 2354SOL    HW1 7961   3.796   2.107   6.458
 2354SOL    HW2 7962   3.786   2.216   6.579
 2355SOL     OW 7963   0.243   5.964   0.483
 2355SOL    HW1 7964   0.313   5.983   0.415
 2355SOL    HW2 7965   0.161   5.929   0.436
 2356SOL     OW 7966   2.348   4.048   1.697
 2356SOL    HW1 7967   2.438   4.092   1.692
 2356SOL    HW2 7968   2.289   4.082   1.625
 2357SOL     OW 7969   4.369   5.213   4.095
 2357SOL    HW1 7970   4.324   5.131   4.060
 2357SOL    HW2 7971   4.308   5.292   4.086
 2358SOL     OW 7972   3.147   6.526   3.953
 2358SOL    HW1 7973   3.217   6.460   3.979
 2358SOL    HW2 7974   3.180   6.582   3.878
 2359SOL     OW 7975   2.279   0.967   6.045
 2359SOL    HW1 7976   2.248   1.061   6.063
 2359SOL    HW2 7977   2.353   0.944   6.108
 2360SOL     OW 7978   4.440   4.476   6.675
 2360SOL    HW1 7979   4.444   4.490   6.774
 2360SOL    HW2 7980   4.481   4.554   6.629
 2361SOL     OW 7981   2.738   6.710   3.845
 2361SOL    HW1 7982   2.668   6.747   3.907
 2361SOL    HW2 7983   2.695   6.684   3.759
 2362SOL     OW 7984   4.320   6.507   5.352
 2362SOL    HW1 7985   4.294   6.436   5.286
 2362SOL    HW2 7986   4.289   6.596   5.319
 2363SOL     OW 7987   4.784   2.657   5.392
 2363SOL    HW1 7988   4.746   2.632   5.481
 2363SOL    HW2 7989   4.816   2.752   5.395
 2364SOL     OW 7990   5.804   2.087   2.281
 2364SOL    HW1 7991   5.899   2.113   2.298
 2364SOL    HW2 7992   5.800   2.017   2.210
 2365SOL     OW 7993   5.693   4.530   5.869
 2365SOL    HW1 7994   5.782   4.531   5.824
 2365SOL    HW2 7995   5.633   4.465   5.822
 2366SOL     OW 7996   0.931   4.070   5.871
 2366SOL    HW1 7997   1.027   4.067   5.900
 2366SOL    HW2 7998   0.902   3.980   5.840
 2367SOL     OW 7999   0.741   3.137   6.088
 2367SOL    HW1 8000   0.701   3.048   6.065
 2367SOL    HW2 8001   0.742   3.196   6.007
 2368SOL     OW 8002   4.414   1.150   5.063
 2368SOL    HW1 8003   4.430   1.095   5.145
 2368SOL    HW2 8004   4.493   1.209   5.048
 2369SOL     OW 8005   2.394   1.715   4.069
 2369SOL    HW1 8006   2.436   1.736   4.158
 2369SOL    HW2 8007   2.400   1.795   4.010
 2370SOL     OW 8008   4.722   3.156   0.564
 2370SOL    HW1 8009   4.686   3.119   0.479
 2370SOL    HW2 8010   4.672   3.239   0.588
 2371SOL     OW 8011   1.484   5.749   2.593
 2371SOL    HW1 8012   1.549   5.825   2.596
 2371SOL    HW2 8013   1.418   5.764   2.520
 2372SOL     OW 8014   0.083   1.289   7.004
 2372SOL    HW1 8015   0.166   1.314   6.953
 2372SOL    HW2 8016   0.033   1.219   6.952
 2373SOL     OW 8017   6.579   1.211   5.928
 2373SOL    HW1 8018   6.542   1.135   5.875
 2373SOL    HW2 8019   6.542   1.207   6.021
 2374SOL     OW 8020   6.030   5.967   3.371
 2374SOL    HW1 8021   5.967   5.984   3.447
 2374SOL    HW2 8022   6.107   5.912   3.403
 2375SOL     OW 8023   0.816   0.545   4.209
 2375SOL    HW1 8024   0.867   0.623   4.244
 2375SOL    HW2 8025   0.840   0.529   4.113
 2376SOL     OW 8026   6.298   2.691   2.897
 2376SOL    HW1 8027   6.322   2.594   2.895
 2376SOL    HW2 8028   6.326   2.731   2.985
 2377SOL     OW 8029   3.161   3.556   4.700
 2377SOL    HW1 8030   3.175   3.543   4.602
 2377SOL    HW2 8031   3.088   3.496   4.731
 2378SOL     OW 8032   5.255   2.045   0.049
 2378SOL    HW1 8033   5.283   2.058   0.144
 2378SOL    HW2 8034   5.327   1.996   7.024
 2379SOL     OW 8035   6.282   3.802   6.964
 2379SOL    HW1 8036   6.285   3.821   0.038
 2379SOL    HW2 8037   6.337   3.720   6.945
 2380SOL     OW 8038   6.045   1.203   5.424
 2380SOL    HW1 8039   5.965   1.154   5.460
 2380SOL    HW2 8040   6.095   1.244   5.501
 2381SOL     OW 8041   1.515   4.394   5.504
 2381SOL    HW1 8042   1.566   4.316   5.538
 2381SOL    HW2 8043   1.577   4.471   5.490
 2382SOL     OW 8044   2.487   5.611   2.487
 2382SOL    HW1 8045   2.513   5.707   2.491
 2382SOL    HW2 8046   2.395   5.600   2.526
 2383SOL     OW 8047   5.547   6.384   6.511
 2383SOL    HW1 8048   5.576   6.341   6.597
 2383SOL    HW2 8049   5.627   6.399   6.453
 2384SOL     OW 8050   1.144   2.789   1.228
 2384SOL    HW1 8051   1.212   2.760   1.161
 2384SOL    HW2 8052   1.177   2.871   1.275
 2385SOL     OW 8053   0.616   0.907   0.342
 2385SOL    HW1 8054   0.615   0.883   0.439
 2385SOL    HW2 8055   0.613   0.823   0.287
 2386SOL     OW 8056   3.267   5.555   4.278
 2386SOL    HW1 8057   3.204   5.478   4.286
 2386SOL    HW2 8058   3.349   5.538   4.332
 2387SOL     OW 8059   6.921   3.342   4.380
 2387SOL    HW1 8060   6.899   3.422   4.324
 2387SOL    HW2 8061   6.893   3.259   4.331
 2388SOL     OW 8062   0.618   1.465   5.727
 2388SOL    HW1 8063   0.524   1.452   5.760
 2388SOL    HW2 8064   0.629   1.559   5.694
 2389SOL     OW 8065   4.298   4.829   3.609
 2389SOL    HW1 8066   4.389   4.870   3.601
 2389SOL    HW2 8067   4.231   4.887   3.563
 2390SOL     OW 8068   3.686   3.806   4.752
 2390SOL    HW1 8069   3.615   3.799   4.683
 2390SOL    HW2 8070   3.758   3.738   4.734
 2391SOL     OW 8071   3.761   3.951   6.091
 2391SOL    HW1 8072   3.769   3.861   6.134
 2391SOL    HW2 8073   3.677   3.954   6.036
 2392SOL     OW 8074   2.913   3.943   6.432
 2392SOL    HW1 8075   2.930   3.914   6.338
 2392SOL    HW2 8076   2.828   3.996   6.436
 2393SOL     OW 8077   3.898   5.182   1.165
 2393SOL    HW1 8078   3.850   5.124   1.231
 2393SOL    HW2 8079   3.849   5.183   1.078
 2394SOL     OW 8080   0.898   3.982   4.188
 2394SOL    HW1 8081   0.997   3.990   4.181
 2394SOL    HW2 8082   0.872   3.886   4.182
 2395SOL     OW 8083   6.972   3.087   6.582
 2395SOL    HW1 8084   0.024   3.022   6.579
 2395SOL    HW2 8085   6.947   3.112   6.488
 2396SOL     OW 8086   5.898   6.367   0.829
 2396SOL    HW1 8087   5.896   6.427   0.748
 2396SOL    HW2 8088   5.804   6.344   0.855
 2397SOL     OW 8089   6.883   4.721   0.467
 2397SOL    HW1 8090   6.885   4.782   0.547
 2397SOL    HW2 8091   6.805   4.744   0.410
 2398SOL     OW 8092   2.884   4.847   4.855
 2398SOL    HW1 8093   2.982   4.867   4.853
 2398SOL    HW2 8094   2.863   4.793   4.937
 2399SOL     OW 8095   3.664   2.127   3.247
 2399SOL    HW1 8096   3.654   2.118   3.346
 2399SOL    HW2 8097   3.746   2.179   3.225
 2400SOL     OW 8098   2.745   3.984   0.713
 2400SOL    HW1 8099   2.692   3.901   0.694
 2400SOL    HW2 8100   2.838   3.959   0.738
 2401SOL     OW 8101   3.477   0.277   4.278
 2401SOL    HW1 8102   3.439   0.294   4.369
 2401SOL    HW2 8103   3.402   0.273   4.211
 2402SOL     OW 8104   0.223   1.544   3.897
 2402SOL    HW1 8105   0.131   1.554   3.935
 2402SOL    HW2 8106   0.291   1.550   3.971
 2403SOL     OW 8107   3.274   3.175   0.780
 2403SOL    HW1 8108   3.339   3.104   0.751
 2403SOL    HW2 8109   3.259   3.168   0.879
 2404SOL     OW 8110   5.736   2.092   1.662
 2404SOL    HW1 8111   5.807   2.065   1.727
 2404SOL    HW2 8112   5.701   2.010   1.616
 2405SOL     OW 8113   3.325   4.347   5.590
 2405SOL    HW1 8114   3.319   4.272   5.656
 2405SOL    HW2 8115   3.367   4.314   5.506
 2406SOL     OW 8116   2.171   0.264   4.404
 2406SOL    HW1 8117   2.226   0.181   4.399
 2406SOL    HW2 8118   2.118   0.275   4.320
 2407SOL     OW 8119   4.270   2.337   3.267
 2407SOL    HW1 8120   4.358   2.372   3.296
 2407SOL    HW2 8121   4.249   2.371   3.175
 2408SOL     OW 8122   2.900   4.828   3.018
 2408SOL    HW1 8123   2.964   4.807   2.944
 2408SOL    HW2 8124   2.820   4.769   3.011
 2409SOL     OW 8125   2.402   2.778   1.420
 2409SOL    HW1 8126   2.456   2.829   1.487
 2409SOL    HW2 8127   2.417   2.817   1.329
 2410SOL     OW 8128   6.222   3.694   5.605
 2410SOL    HW1 8129   6.233   3.739   5.516
 2410SOL    HW2 8130   6.125   3.683   5.625
 2411SOL     OW 8131   3.201   3.519   5.667
 2411SOL    HW1 8132   3.150   3.575   5.732
 2411SOL    HW2 8133   3.139   3.452   5.626
 2412SOL     OW 8134   2.798   2.816   0.619
 2412SOL    HW1 8135   2.713   2.763   0.614
 2412SOL    HW2 8136   2.776   2.913   0.627
 2413SOL     OW 8137   5.621   3.815   6.208
 2413SOL    HW1 8138   5.594   3.738   6.150
 2413SOL    HW2 8139   5.543   3.844   6.263
 2414SOL     OW 8140   5.503   3.524   3.643
 2414SOL    HW1 8141   5.480   3.516   3.740
 2414SOL    HW2 8142   5.583   3.469   3.622
 2415SOL     OW 8143   1.934   0.038   1.590
 2415SOL    HW1 8144   1.885   0.122   1.570
 2415SOL    HW2 8145   1.983   0.047   1.677
 2416SOL     OW 8146   1.492   2.100   4.728
 2416SOL    HW1 8147   1.481   2.006   4.760
 2416SOL    HW2 8148   1.418   2.124   4.666
 2417SOL     OW 8149   5.158   2.101   0.712
 2417SOL    HW1 8150   5.077   2.158   0.728
 2417SOL    HW2 8151   5.140   2.036   0.639
 2418SOL     OW 8152   3.387   3.297   4.942
 2418SOL    HW1 8153   3.447   3.293   5.022
 2418SOL    HW2 8154   3.304   3.246   4.960
 2419SOL     OW 8155   1.624   0.009   4.575
 2419SOL    HW1 8156   1.546   6.981   4.608
 2419SOL    HW2 8157   1.592   0.081   4.514
 2420SOL     OW 8158   3.835   6.357   1.646
 2420SOL    HW1 8159   3.874   6.327   1.559
 2420SOL    HW2 8160   3.737   6.375   1.634
 2421SOL     OW 8161   3.518   6.706   3.667
 2421SOL    HW1 8162   3.507   6.661   3.756
 2421SOL    HW2 8163   3.427   6.723   3.628
 2422SOL     OW 8164   4.775   0.026   0.591
 2422SOL    HW1 8165   4.767   0.109   0.646
 2422SOL    HW2 8166   4.812   0.049   0.501
 2423SOL     OW 8167   2.080   5.162   1.517
 2423SOL    HW1 8168   2.133   5.126   1.594
 2423SOL    HW2 8169   2.055   5.257   1.536
 2424SOL     OW 8170   5.583   6.774   6.966
 2424SOL    HW1 8171   5.674   6.809   6.989
 2424SOL    HW2 8172   5.589   6.716   6.885
 2425SOL     OW 8173   5.886   6.837   5.852
 2425SOL    HW1 8174   5.963   6.781   5.881
 2425SOL    HW2 8175   5.883   6.921   5.907
 2426SOL     OW 8176   1.372   5.330   4.412
 2426SOL    HW1 8177   1.353   5.298   4.319
 2426SOL    HW2 8178   1.294   5.309   4.471
 2427SOL     OW 8179   5.066   5.694   0.350
 2427SOL    HW1 8180   5.007   5.649   0.283
 2427SOL    HW2 8181   5.145   5.733   0.305
 2428SOL     OW 8182   0.276   0.555   2.917
 2428SOL    HW1 8183   0.353   0.619   2.924
 2428SOL    HW2 8184   0.290   0.479   2.982
 2429SOL     OW 8185   6.077   4.928   3.406
 2429SOL    HW1 8186   6.161   4.893   3.365
 2429SOL    HW2 8187   6.092   4.945   3.504
 2430SOL     OW 8188   5.527   3.229   0.226
 2430SOL    HW1 8189   5.559   3.255   0.135
 2430SOL    HW2 8190   5.452   3.289   0.253
 2431SOL     OW 8191   4.587   0.909   0.895
 2431SOL    HW1 8192   4.636   0.965   0.962
 2431SOL    HW2 8193   4.638   0.824   0.880
 2432SOL     OW 8194   3.008   6.568   2.422
 2432SOL    HW1 8195   3.100   6.587   2.389
 2432SOL    HW2 8196   2.962   6.654   2.445
 2433SOL     OW 8197   1.686   6.553   0.173
 2433SOL    HW1 8198   1.658   6.549   0.269
 2433SOL    HW2 8199   1.752   6.481   0.154
 2434SOL     OW 8200   5.634   1.939   3.142
 2434SOL    HW1 8201   5.714   1.895   3.183
 2434SOL    HW2 8202   5.555   1.879   3.153
 2435SOL     OW 8203   5.304   5.121   0.113
 2435SOL    HW1 8204   5.376   5.176   0.072
 2435SOL    HW2 8205   5.216   5.146   0.073
 2436SOL     OW 8206   1.815   6.812   1.471
 2436SOL    HW1 8207   1.816   6.827   1.372
 2436SOL    HW2 8208   1.848   6.894   1.518
 2437SOL     OW 8209   4.966   6.545   1.649
 2437SOL    HW1 8210   4.890   6.587   1.699
 2437SOL    HW2 8211   4.988   6.601   1.569
 2438SOL     OW 8212   3.891   0.958   4.112
 2438SOL    HW1 8213   3.952   1.031   4.080
 2438SOL    HW2 8214   3.916   0.933   4.206
 2439SOL     OW 8215   0.899   4.234   0.693
 2439SOL    HW1 8216   0.981   4.284   0.721
 2439SOL    HW2 8217   0.906   4.139   0.724
 2440SOL     OW 8218   4.002   6.602   5.955
 2440SOL    HW1 8219   4.088   6.636   5.993
 2440SOL    HW2 8220   4.012   6.507   5.928
 2441SOL     OW 8221   6.125   1.212   6.869
 2441SOL    HW1 8222   6.031   1.247   6.878
 2441SOL    HW2 8223   6.132   1.158   6.785
 2442SOL     OW 8224   5.248   5.588   3.157
 2442SOL    HW1 8225   5.223   5.553   3.247
 2442SOL    HW2 8226   5.339   5.630   3.161
 2443SOL     OW 8227   3.323   0.058   6.669
 2443SOL    HW1 8228   3.358   0.145   6.635
 2443SOL    HW2 8229   3.362   0.040   6.759
 2444SOL     OW 8230   3.723   3.635   0.725
 2444SOL    HW1 8231   3.641   3.655   0.778
 2444SOL    HW2 8232   3.704   3.561   0.661
 2445SOL     OW 8233   6.227   1.680   1.963
 2445SOL    HW1 8234   6.275   1.737   1.896
 2445SOL    HW2 8235   6.292   1.650   2.033
 2446SOL     OW 8236   0.975   3.087   4.875
 2446SOL    HW1 8237   0.890   3.062   4.923
 2446SOL    HW2 8238   1.047   3.103   4.942
 2447SOL     OW 8239   2.625   1.166   1.119
 2447SOL    HW1 8240   2.617   1.074   1.081
 2447SOL    HW2 8241   2.695   1.166   1.191
 2448SOL     OW 8242   6.744   0.965   4.209
 2448SOL    HW1 8243   6.757   1.054   4.253
 2448SOL    HW2 8244   6.787   0.966   4.118
 2449SOL     OW 8245   0.829   3.779   2.022
 2449SOL    HW1 8246   0.856   3.797   2.117
 2449SOL    HW2 8247   0.884   3.835   1.960
 2450SOL     OW 8248   3.662   4.540   6.074
 2450SOL    HW1 8249   3.614   4.453   6.087
 2450SOL    HW2 8250   3.654   4.568   5.978
 2451SOL     OW 8251   1.817   0.175   3.853
 2451SOL    HW1 8252   1.851   0.267   3.873
 2451SOL    HW2 8253   1.854   0.144   3.765
 2452SOL     OW 8254   2.881   1.979   4.063
 2452SOL    HW1 8255   2.845   1.979   3.970
 2452SOL    HW2 8256   2.951   2.051   4.072
 2453SOL     OW 8257   0.704   3.683   0.715
 2453SOL    HW1 8258   0.664   3.681   0.624
 2453SOL    HW2 8259   0.758   3.600   0.730
 2454SOL     OW 8260   2.768   0.224   0.359
 2454SOL    HW1 8261   2.841   0.252   0.297
 2454SOL    HW2 8262   2.782   0.129   0.387
 2455SOL     OW 8263   3.829   0.496   0.322
 2455SOL    HW1 8264   3.752   0.514   0.261
 2455SOL    HW2 8265   3.805   0.424   0.386
 2456SOL     OW 8266   6.865   2.697   6.620
 2456SOL    HW1 8267   6.821   2.710   6.531
 2456SOL    HW2 8268   6.858   2.781   6.674
 2457SOL     OW 8269   6.656   0.844   6.567
 2457SOL    HW1 8270   6.752   0.816   6.576
 2457SOL    HW2 8271   6.630   0.899   6.646
 2458SOL     OW 8272   1.654   6.501   3.813
 2458SOL    HW1 8273   1.602   6.546   3.885
 2458SOL    HW2 8274   1.624   6.534   3.724
 2459SOL     OW 8275   3.009   6.224   5.726
 2459SOL    HW1 8276   2.978   6.314   5.697
 2459SOL    HW2 8277   2.997   6.214   5.825
 2460SOL     OW 8278   1.478   1.540   1.102
 2460SOL    HW1 8279   1.386   1.534   1.065
 2460SOL    HW2 8280   1.501   1.454   1.148
 2461SOL     OW 8281   5.172   0.704   3.410
 2461SOL    HW1 8282   5.147   0.674   3.318
 2461SOL    HW2 8283   5.128   0.644   3.478
 2462SOL     OW 8284   2.379   5.365   6.999
 2462SOL    HW1 8285   2.409   5.270   6.986
 2462SOL    HW2 8286   2.449   5.415   0.027
 2463SOL     OW 8287   5.862   2.002   6.764
 2463SOL    HW1 8288   5.835   1.911   6.733
 2463SOL    HW2 8289   5.861   2.066   6.687
 2464SOL     OW 8290   1.958   4.117   2.649
 2464SOL    HW1 8291   1.964   4.216   2.663
 2464SOL    HW2 8292   2.048   4.081   2.625
 2465SOL     OW 8293   1.025   6.711   6.713
 2465SOL    HW1 8294   0.929   6.730   6.689
 2465SOL    HW2 8295   1.039   6.727   6.810
 2466SOL     OW 8296   2.641   1.676   3.137
 2466SOL    HW1 8297   2.738   1.657   3.155
 2466SOL    HW2 8298   2.599   1.712   3.220
 2467SOL     OW 8299   5.382   1.750   4.514
 2467SOL    HW1 8300   5.291   1.734   4.475
 2467SOL    HW2 8301   5.436   1.805   4.450
 2468SOL     OW 8302   4.495   6.661   1.745
 2468SOL    HW1 8303   4.457   6.744   1.786
 2468SOL    HW2 8304   4.594   6.672   1.734
 2469SOL     OW 8305   4.296   3.552   5.199
 2469SOL    HW1 8306   4.375   3.613   5.204
 2469SOL    HW2 8307   4.226   3.594   5.140
 2470SOL     OW 8308   4.449   4.523   6.146
 2470SOL    HW1 8309   4.443   4.562   6.053
 2470SOL    HW2 8310   4.514   4.447   6.146
 2471SOL     OW 8311   3.017   6.210   0.698
 2471SOL    HW1 8312   3.078   6.130   0.696
 2471SOL    HW2 8313   2.973   6.217   0.787
 2472SOL     OW 8314   4.607   2.199   3.376
 2472SOL    HW1 8315   4.551   2.268   3.422
 2472SOL    HW2 8316   4.667   2.243   3.309
 2473SOL     OW 8317   1.690   3.952   4.866
 2473SOL    HW1 8318   1.751   3.886   4.910
 2473SOL    HW2 8319   1.745   4.023   4.822
 2474SOL     OW 8320   0.325   6.089   1.600
 2474SOL    HW1 8321   0.300   6.172   1.551
 2474SOL    HW2 8322   0.417   6.061   1.573
 2475SOL     OW 8323   3.735   0.310   2.642
 2475SOL    HW1 8324   3.695   0.402   2.641
 2475SOL    HW2 8325   3.830   0.316   2.671
 2476SOL     OW 8326   6.687   1.168   2.548
 2476SOL    HW1 8327   6.656   1.074   2.559
 2476SOL    HW2 8328   6.634   1.213   2.477
 2477SOL     OW 8329   4.595   1.120   2.604
 2477SOL    HW1 8330   4.592   1.091   2.508
 2477SOL    HW2 8331   4.587   1.040   2.664
 2478SOL     OW 8332   6.144   1.050   1.835
 2478SOL    HW1 8333   6.173   0.970   1.782
 2478SOL    HW2 8334   6.181   1.044   1.927
 2479SOL     OW 8335   1.058   3.467   2.211
 2479SOL    HW1 8336   0.983   3.530   2.230
 2479SOL    HW2 8337   1.067   3.455   2.112
 2480SOL     OW 8338   4.678   3.958   0.427
 2480SOL    HW1 8339   4.752   3.937   0.491
 2480SOL    HW2 8340   4.591   3.927   0.465
 2481SOL     OW 8341   3.694   6.327   0.167
 2481SOL    HW1 8342   3.767   6.346   0.102
 2481SOL    HW2 8343   3.607   6.358   0.130
 2482SOL     OW 8344   5.383   4.304   6.019
 2482SOL    HW1 8345   5.467   4.251   6.008
 2482SOL    HW2 8346   5.396   4.372   6.092
 2483SOL     OW 8347   1.896   1.242   0.540
 2483SOL    HW1 8348   1.987   1.264   0.575
 2483SOL    HW2 8349   1.865   1.315   0.480
 2484SOL     OW 8350   3.220   0.793   0.090
 2484SOL    HW1 8351   3.302   0.763   0.040
 2484SOL    HW2 8352   3.233   0.887   0.121
 2485SOL     OW 8353   6.317   3.459   1.284
 2485SOL    HW1 8354   6.293   3.391   1.215
 2485SOL    HW2 8355   6.407   3.436   1.323
 2486SOL     OW 8356   1.918   4.900   4.317
 2486SOL    HW1 8357   1.946   4.851   4.400
 2486SOL    HW2 8358   1.960   4.991   4.316
 2487SOL     OW 8359   3.912   6.164   0.376
 2487SOL    HW1 8360   3.950   6.072   0.386
 2487SOL    HW2 8361   3.822   6.168   0.420
 2488SOL     OW 8362   1.776   4.711   2.566
 2488SOL    HW1 8363   1.757   4.780   2.637
 2488SOL    HW2 8364   1.800   4.757   2.481
 2489SOL     OW 8365   1.389   5.764   3.501
 2489SOL    HW1 8366   1.320   5.820   3.454
 2489SOL    HW2 8367   1.348   5.721   3.581
 2490SOL     OW 8368   6.874   4.832   1.560
 2490SOL    HW1 8369   6.959   4.784   1.541
 2490SOL    HW2 8370   6.832   4.795   1.643
 2491SOL     OW 8371   2.133   5.290   0.741
 2491SOL    HW1 8372   2.097   5.276   0.834
 2491SOL    HW2 8373   2.209   5.355   0.744
 2492SOL     OW 8374   4.625   2.742   1.033
 2492SOL    HW1 8375   4.545   2.741   1.092
 2492SOL    HW2 8376   4.628   2.658   0.980
 2493SOL     OW 8377   5.842   0.587   1.803
 2493SOL    HW1 8378   5.834   0.554   1.897
 2493SOL    HW2 8379   5.935   0.572   1.770
 2494SOL     OW 8380   5.404   4.111   2.668
 2494SOL    HW1 8381   5.371   4.017   2.664
 2494SOL    HW2 8382   5.328   4.174   2.658
 2495SOL     OW 8383   5.196   0.391   4.489
 2495SOL    HW1 8384   5.253   0.365   4.567
 2495SOL    HW2 8385   5.174   0.489   4.496
 2496SOL     OW 8386   6.915   3.378   5.898
 2496SOL    HW1 8387   7.003   3.331   5.904
 2496SOL    HW2 8388   6.903   3.416   5.806
 2497SOL     OW 8389   0.262   0.609   0.546
 2497SOL    HW1 8390   0.228   0.702   0.557
 2497SOL    HW2 8391   0.320   0.603   0.465
 2498SOL     OW 8392   2.586   1.608   4.350
 2498SOL    HW1 8393   2.650   1.665   4.298
 2498SOL    HW2 8394   2.588   1.515   4.314
 2499SOL     OW 8395   6.186   2.836   1.927
 2499SOL    HW1 8396   6.159   2.805   2.019
 2499SOL    HW2 8397   6.124   2.797   1.859
 2500SOL     OW 8398   4.357   3.101   6.980
 2500SOL    HW1 8399   4.275   3.081   0.010
 2500SOL    HW2 8400   4.341   3.076   6.885
 2501SOL     OW 8401   5.884   4.969   0.824
 2501SOL    HW1 8402   5.798   4.979   0.774
 2501SOL    HW2 8403   5.955   5.024   0.781
 2502SOL     OW 8404   1.262   6.132   3.701
 2502SOL    HW1 8405   1.325   6.183   3.642
 2502SOL    HW2 8406   1.236   6.047   3.656
 2503SOL     OW 8407   2.611   6.043   4.242
 2503SOL    HW1 8408   2.599   6.018   4.338
 2503SOL    HW2 8409   2.696   6.094   4.232
 2504SOL     OW 8410   3.914   5.736   4.627
 2504SOL    HW1 8411   3.836   5.798   4.639
 2504SOL    HW2 8412   3.882   5.648   4.592
 2505SOL     OW 8413   1.369   6.192   2.987
 2505SOL    HW1 8414   1.320   6.122   3.038
 2505SOL    HW2 8415   1.445   6.226   3.042
 2506SOL     OW 8416   6.124   4.033   5.044
 2506SOL    HW1 8417   6.163   4.114   5.001
 2506SOL    HW2 8418   6.087   4.057   5.133
 2507SOL     OW 8419   1.195   4.165   0.729
 2507SOL    HW1 8420   1.289   4.182   0.760
 2507SOL    HW2 8421   1.187   4.070   0.699
 2508SOL     OW 8422   2.355   1.378   2.551
 2508SOL    HW1 8423   2.299   1.448   2.596
 2508SOL    HW2 8424   2.401   1.418   2.472
 2509SOL     OW 8425   6.559   2.755   1.414
 2509SOL    HW1 8426   6.570   2.662   1.379
 2509SOL    HW2 8427   6.642   2.782   1.463
 2510SOL     OW 8428   2.988   4.342   1.436
 2510SOL    HW1 8429   3.001   4.427   1.386
 2510SOL    HW2 8430   3.007   4.356   1.533
 2511SOL     OW 8431   2.812   2.297   4.301
 2511SOL    HW1 8432   2.725   2.347   4.301
 2511SOL    HW2 8433   2.838   2.276   4.395
 2512SOL     OW 8434   5.473   4.247   5.404
 2512SOL    HW1 8435   5.403   4.282   5.466
 2512SOL    HW2 8436   5.480   4.307   5.324
 2513SOL     OW 8437   1.437   4.016   5.401
 2513SOL    HW1 8438   1.532   4.019   5.431
 2513SOL    HW2 8439   1.431   4.045   5.305
 2514SOL     OW 8440   6.294   3.417   4.848
 2514SOL    HW1 8441   6.307   3.459   4.758
 2514SOL    HW2 8442   6.198   3.393   4.859
 2515SOL     OW 8443   2.231   6.753   0.299
 2515SOL    HW1 8444   2.138   6.739   0.264
 2515SOL    HW2 8445   2.227   6.804   0.385
 2516SOL     OW 8446   6.190   1.305   2.640
 2516SOL    HW1 8447   6.099   1.291   2.601
 2516SOL    HW2 8448   6.214   1.402   2.636
 2517SOL     OW 8449   0.843   5.862   5.606
 2517SOL    HW1 8450   0.806   5.818   5.688
 2517SOL    HW2 8451   0.894   5.944   5.632
 2518SOL     OW 8452   1.140   4.701   0.004
 2518SOL    HW1 8453   1.157   4.602   7.024
 2518SOL    HW2 8454   1.225   4.751   7.013
 2519SOL     OW 8455   4.555   6.560   3.157
 2519SOL    HW1 8456   4.490   6.604   3.094
 2519SOL    HW2 8457   4.518   6.472   3.186
 2520SOL     OW 8458   2.409   2.246   0.399
 2520SOL    HW1 8459   2.326   2.278   0.445
 2520SOL    HW2 8460   2.489   2.282   0.446
 2521SOL     OW 8461   1.380   0.587   5.100
 2521SOL    HW1 8462   1.363   0.677   5.060
 2521SOL    HW2 8463   1.473   0.583   5.137
 2522SOL     OW 8464   0.519   3.711   5.296
 2522SOL    HW1 8465   0.510   3.657   5.212
 2522SOL    HW2 8466   0.605   3.688   5.341
 2523SOL     OW 8467   0.005   2.811   1.414
 2523SOL    HW1 8468   0.071   2.885   1.405
 2523SOL    HW2 8469   6.977   2.823   1.499
 2524SOL     OW 8470   1.044   6.584   4.893
 2524SOL    HW1 8471   1.092   6.496   4.891
 2524SOL    HW2 8472   1.100   6.654   4.850
 2525SOL     OW 8473   1.145   2.130   5.412
 2525SOL    HW1 8474   1.181   2.107   5.322
 2525SOL    HW2 8475   1.122   2.228   5.415
 2526SOL     OW 8476   1.507   3.991   5.753
 2526SOL    HW1 8477   1.456   4.064   5.798
 2526SOL    HW2 8478   1.460   3.904   5.768
 2527SOL     OW 8479   5.112   5.936   4.952
 2527SOL    HW1 8480   5.180   5.955   5.022
 2527SOL    HW2 8481   5.154   5.882   4.879
 2528SOL     OW 8482   5.531   5.112   1.390
 2528SOL    HW1 8483   5.558   5.165   1.310
 2528SOL    HW2 8484   5.494   5.024   1.360
 2529SOL     OW 8485   6.863   6.764   6.056
 2529SOL    HW1 8486   6.774   6.792   6.020
 2529SOL    HW2 8487   6.857   6.757   6.156
 2530SOL     OW 8488   2.480   6.887   5.668
 2530SOL    HW1 8489   2.510   6.982   5.659
 2530SOL    HW2 8490   2.433   6.874   5.755
 2531SOL     OW 8491   4.905   5.824   4.326
 2531SOL    HW1 8492   4.870   5.795   4.416
 2531SOL    HW2 8493   4.853   5.779   4.254
 2532SOL     OW 8494   0.745   6.729   1.264
 2532SOL    HW1 8495   0.680   6.803   1.280
 2532SOL    HW2 8496   0.802   6.751   1.185
 2533SOL     OW 8497   3.331   6.490   3.534
 2533SOL    HW1 8498   3.329   6.548   3.615
 2533SOL    HW2 8499   3.358   6.544   3.455
 2534SOL     OW 8500   3.546   0.430   3.462
 2534SOL    HW1 8501   3.501   0.422   3.374
 2534SOL    HW2 8502   3.477   0.432   3.535
 2535SOL     OW 8503   3.330   1.759   5.112
 2535SOL    HW1 8504   3.417   1.710   5.120
 2535SOL    HW2 8505   3.342   1.854   5.142
 2536SOL     OW 8506   0.810   2.122   4.826
 2536SOL    HW1 8507   0.765   2.210   4.846
 2536SOL    HW2 8508   0.897   2.139   4.780
 2537SOL     OW 8509   3.578   0.569   6.525
 2537SOL    HW1 8510   3.487   0.532   6.543
 2537SOL    HW2 8511   3.646   0.516   6.576
 2538SOL     OW 8512   1.073   4.935   5.137
 2538SOL    HW1 8513   1.145   5.004   5.135
 2538SOL    HW2 8514   1.080   4.882   5.222
 2539SOL     OW 8515   5.183   1.008   5.101
 2539SOL    HW1 8516   5.216   1.006   5.007
 2539SOL    HW2 8517   5.255   1.042   5.161
 2540SOL     OW 8518   4.132   0.907   2.535
 2540SOL    HW1 8519   4.070   0.980   2.564
 2540SOL    HW2 8520   4.195   0.943   2.466
 2541SOL     OW 8521   2.273   6.859   5.183
 2541SOL    HW1 8522   2.286   6.816   5.093
 2541SOL    HW2 8523   2.350   6.918   5.203
 2542SOL     OW 8524   4.482   1.785   6.384
 2542SOL    HW1 8525   4.405   1.774   6.447
 2542SOL    HW2 8526   4.556   1.835   6.430
 2543SOL     OW 8527   1.013   1.343   2.873
 2543SOL    HW1 8528   1.097   1.380   2.834
 2543SOL    HW2 8529   0.938   1.407   2.859
 2544SOL     OW 8530   0.316   5.794   1.019
 2544SOL    HW1 8531   0.251   5.809   1.094
 2544SOL    HW2 8532   0.324   5.695   1.002
 2545SOL     OW 8533   2.148   0.922   1.347
 2545SOL    HW1 8534   2.193   0.833   1.352
 2545SOL    HW2 8535   2.216   0.993   1.331
 2546SOL     OW 8536   6.955   1.524   1.316
 2546SOL    HW1 8537   6.878   1.565   1.266
 2546SOL    HW2 8538   6.974   1.434   1.279
 2547SOL     OW 8539   6.176   4.487   0.685
 2547SOL    HW1 8540   6.102   4.471   0.620
 2547SOL    HW2 8541   6.163   4.429   0.766
 2548SOL     OW 8542   2.268   6.386   5.845
 2548SOL    HW1 8543   2.271   6.407   5.747
 2548SOL    HW2 8544   2.350   6.423   5.890
 2549SOL     OW 8545   2.038   0.956   0.857
 2549SOL    HW1 8546   1.941   0.947   0.876
 2549SOL    HW2 8547   2.061   1.053   0.846
 2550SOL     OW 8548   6.977   0.311   6.043
 2550SOL    HW1 8549   7.011   0.313   5.949
 2550SOL    HW2 8550   6.993   0.220   6.081
 2551SOL     OW 8551   3.699   4.671   0.925
 2551SOL    HW1 8552   3.608   4.642   0.895
 2551SOL    HW2 8553   3.768   4.627   0.867
 2552SOL     OW 8554   2.076   5.888   5.785
 2552SOL    HW1 8555   2.061   5.978   5.826
 2552SOL    HW2 8556   1.997   5.863   5.729
 2553SOL     OW 8557   4.251   2.974   6.093
 2553SOL    HW1 8558   4.225   2.889   6.047
 2553SOL    HW2 8559   4.283   2.954   6.186
 2554SOL     OW 8560   2.095   6.029   0.903
 2554SOL    HW1 8561   2.004   6.006   0.868
 2554SOL    HW2 8562   2.098   6.014   1.002
 2555SOL     OW 8563   5.660   6.970   6.654
 2555SOL    HW1 8564   5.725   6.954   6.581
 2555SOL    HW2 8565   5.620   0.036   6.644
 2556SOL     OW 8566   4.747   5.731   0.248
 2556SOL    HW1 8567   4.736   5.774   0.158
 2556SOL    HW2 8568   4.763   5.801   0.317
 2557SOL     OW 8569   2.639   3.438   6.051
 2557SOL    HW1 8570   2.629   3.479   5.960
 2557SOL    HW2 8571   2.687   3.351   6.042
 2558SOL     OW 8572   4.714   2.485   5.888
 2558SOL    HW1 8573   4.761   2.397   5.900
 2558SOL    HW2 8574   4.739   2.546   5.963
 2559SOL     OW 8575   6.322   4.398   4.027
 2559SOL    HW1 8576   6.315   4.298   4.019
 2559SOL    HW2 8577   6.233   4.439   4.007
 2560SOL     OW 8578   5.980   3.183   4.304
 2560SOL    HW1 8579   5.883   3.170   4.327
 2560SOL    HW2 8580   5.991   3.187   4.205
 2561SOL     OW 8581   2.658   6.316   4.952
 2561SOL    HW1 8582   2.587   6.321   4.882
 2561SOL    HW2 8583   2.744   6.353   4.916
 2562SOL     OW 8584   0.814   5.255   2.015
 2562SOL    HW1 8585   0.717   5.237   2.033
 2562SOL    HW2 8586   0.829   5.258   1.916
 2563SOL     OW 8587   3.850   2.093   0.778
 2563SOL    HW1 8588   3.839   2.122   0.873
 2563SOL    HW2 8589   3.797   2.010   0.761
 2564SOL     OW 8590   1.966   6.175   5.808
 2564SOL    HW1 8591   1.992   6.197   5.902
 2564SOL    HW2 8592   1.873   6.207   5.790
 2565SOL     OW 8593   0.261   7.022   6.994
 2565SOL    HW1 8594   0.161   7.018   6.992
 2565SOL    HW2 8595   0.294   0.051   6.916
 2566SOL     OW 8596   2.259   0.008   0.853
 2566SOL    HW1 8597   2.165   0.027   0.826
 2566SOL    HW2 8598   2.289   6.946   0.813
 2567SOL     OW 8599   0.654   1.463   1.162
 2567SOL    HW1 8600   0.599   1.497   1.085
 2567SOL    HW2 8601   0.743   1.433   1.127
 2568SOL     OW 8602   3.260   6.647   0.302
 2568SOL    HW1 8603   3.305   6.582   0.364
 2568SOL    HW2 8604   3.220   6.597   0.225
 2569SOL     OW 8605   2.949   1.450   1.814
 2569SOL    HW1 8606   2.893   1.445   1.896
 2569SOL    HW2 8607   2.987   1.359   1.795
 2570SOL     OW 8608   5.560   0.076   6.204
 2570SOL    HW1 8609   5.470   0.037   6.222
 2570SOL    HW2 8610   5.556   0.135   6.124
 2571SOL     OW 8611   2.318   4.542   4.982
 2571SOL    HW1 8612   2.334   4.480   4.905
 2571SOL    HW2 8613   2.403   4.590   5.003
 2572SOL     OW 8614   2.479   5.706   0.215
 2572SOL    HW1 8615   2.526   5.737   0.297
 2572SOL    HW2 8616   2.523   5.623   0.180
 2573SOL     OW 8617   6.548   2.376   1.630
 2573SOL    HW1 8618   6.545   2.449   1.699
 2573SOL    HW2 8619   6.574   2.415   1.542
 2574SOL     OW 8620   6.081   4.142   0.051
 2574SOL    HW1 8621   6.158   4.184   0.002
 2574SOL    HW2 8622   6.108   4.122   0.145
 2575SOL     OW 8623   5.495   5.541   0.446
 2575SOL    HW1 8624   5.445   5.527   0.531
 2575SOL    HW2 8625   5.507   5.638   0.430
 2576SOL     OW 8626   3.662   0.077   4.369
 2576SOL    HW1 8627   3.626   0.167   4.345
 2576SOL    HW2 8628   3.599   0.031   4.431
 2577SOL     OW 8629   3.434   0.055   1.651
 2577SOL    HW1 8630   3.498   0.040   1.726
 2577SOL    HW2 8631   3.341   0.060   1.686
 2578SOL     OW 8632   4.650   1.627   3.857
 2578SOL    HW1 8633   4.662   1.528   3.854
 2578SOL    HW2 8634   4.614   1.659   3.769
 2579SOL     OW 8635   1.307   6.214   2.604
 2579SOL    HW1 8636   1.361   6.169   2.675
 2579SOL    HW2 8637   1.218   6.240   2.642
 2580SOL     OW 8638   2.595   2.744   6.444
 2580SOL    HW1 8639   2.537   2.717   6.367
 2580SOL    HW2 8640   2.679   2.786   6.410
 2581SOL     OW 8641   0.930   4.583   0.693
 2581SOL    HW1 8642   0.982   4.624   0.619
 2581SOL    HW2 8643   0.989   4.521   0.745
 2582SOL     OW 8644   0.796   4.765   2.127
 2582SOL    HW1 8645   0.819   4.668   2.118
 2582SOL    HW2 8646   0.768   4.801   2.038
 2583SOL     OW 8647   1.108   0.932   0.333
 2583SOL    HW1 8648   1.156   0.856   0.289
 2583SOL    HW2 8649   1.126   1.017   0.283
 2584SOL     OW 8650   4.006   5.743   0.102
 2584SOL    HW1 8651   3.910   5.769   0.101
 2584SOL    HW2 8652   4.021   5.667   0.038
 2585SOL     OW 8653   4.954   2.265   0.726
 2585SOL    HW1 8654   4.916   2.323   0.798
 2585SOL    HW2 8655   4.921   2.297   0.637
 2586SOL     OW 8656   3.498   1.183   3.839
 2586SOL    HW1 8657   3.496   1.238   3.756
 2586SOL    HW2 8658   3.592   1.154   3.858
 2587SOL     OW 8659   0.263   0.772   3.576
 2587SOL    HW1 8660   0.215   0.701   3.525
 2587SOL    HW2 8661   0.209   0.799   3.656
 2588SOL     OW 8662   4.370   0.811   6.537
 2588SOL    HW1 8663   4.316   0.815   6.621
 2588SOL    HW2 8664   4.309   0.806   6.458
 2589SOL     OW 8665   0.352   6.127   6.504
 2589SOL    HW1 8666   0.433   6.121   6.446
 2589SOL    HW2 8667   0.309   6.037   6.510
 2590SOL     OW 8668   3.749   5.675   0.663
 2590SOL    HW1 8669   3.843   5.659   0.693
 2590SOL    HW2 8670   3.746   5.753   0.600
 2591SOL     OW 8671   7.023   5.373   2.585
 2591SOL    HW1 8672   0.069   5.424   2.534
 2591SOL    HW2 8673   6.936   5.422   2.581
 2592SOL     OW 8674   3.321   4.947   0.657
 2592SOL    HW1 8675   3.280   5.033   0.627
 2592SOL    HW2 8676   3.416   4.963   0.683
 2593SOL     OW 8677   3.246   5.223   0.538
 2593SOL    HW1 8678   3.249   5.315   0.577
 2593SOL    HW2 8679   3.224   5.229   0.440
 2594SOL     OW 8680   1.078   5.274   6.327
 2594SOL    HW1 8681   1.084   5.342   6.254
 2594SOL    HW2 8682   1.004   5.210   6.308
 2595SOL     OW 8683   6.564   1.271   4.157
 2595SOL    HW1 8684   6.543   1.204   4.229
 2595SOL    HW2 8685   6.633   1.335   4.190
 2596SOL     OW 8686   2.978   1.701   1.725
 2596SOL    HW1 8687   2.985   1.618   1.781
 2596SOL    HW2 8688   2.892   1.747   1.745
 2597SOL     OW 8689   1.434   4.934   5.925
 2597SOL    HW1 8690   1.532   4.938   5.906
 2597SOL    HW2 8691   1.386   4.900   5.844
 2598SOL     OW 8692   6.703   1.280   2.797
 2598SOL    HW1 8693   6.780   1.342   2.812
 2598SOL    HW2 8694   6.688   1.268   2.699
 2599SOL     OW 8695   2.181   6.380   1.053
 2599SOL    HW1 8696   2.161   6.403   0.958
 2599SOL    HW2 8697   2.245   6.303   1.055
 2600SOL     OW 8698   5.575   3.213   5.159
 2600SOL    HW1 8699   5.493   3.265   5.133
 2600SOL    HW2 8700   5.643   3.219   5.087
 2601SOL     OW 8701   2.635   1.331   1.502
 2601SOL    HW1 8702   2.627   1.393   1.580
 2601SOL    HW2 8703   2.638   1.383   1.417
 2602SOL     OW 8704   1.297   4.101   4.897
 2602SOL    HW1 8705   1.221   4.165   4.883
 2602SOL    HW2 8706   1.269   4.029   4.959
 2603SOL     OW 8707   2.256   1.287   3.784
 2603SOL    HW1 8708   2.198   1.237   3.849
 2603SOL    HW2 8709   2.289   1.371   3.827
 2604SOL     OW 8710   4.359   1.522   2.830
 2604SOL    HW1 8711   4.359   1.423   2.844
 2604SOL    HW2 8712   4.281   1.548   2.773
 2605SOL     OW 8713   1.846   2.978   3.259
 2605SOL    HW1 8714   1.799   3.066   3.267
 2605SOL    HW2 8715   1.882   2.968   3.166
 2606SOL     OW 8716   5.194   4.334   2.310
 2606SOL    HW1 8717   5.228   4.412   2.258
 2606SOL    HW2 8718   5.268   4.267   2.322
 2607SOL     OW 8719   1.563   1.795   1.122
 2607SOL    HW1 8720   1.473   1.838   1.135
 2607SOL    HW2 8721   1.559   1.700   1.152
 2608SOL     OW 8722   4.690   5.404   1.178
 2608SOL    HW1 8723   4.648   5.314   1.190
 2608SOL    HW2 8724   4.626   5.475   1.205
 2609SOL     OW 8725   6.513   1.204   1.669
 2609SOL    HW1 8726   6.606   1.224   1.639
 2609SOL    HW2 8727   6.478   1.125   1.618
 2610SOL     OW 8728   1.308   4.541   4.913
 2610SOL    HW1 8729   1.401   4.552   4.879
 2610SOL    HW2 8730   1.282   4.622   4.966
 2611SOL     OW 8731   4.532   6.830   1.065
 2611SOL    HW1 8732   4.461   6.791   1.124
 2611SOL    HW2 8733   4.559   6.763   0.996
 2612SOL     OW 8734   6.392   0.238   5.927
 2612SOL    HW1 8735   6.475   0.204   5.971
 2612SOL    HW2 8736   6.407   0.244   5.828
 2613SOL     OW 8737   3.112   5.795   6.143
 2613SOL    HW1 8738   3.082   5.848   6.222
 2613SOL    HW2 8739   3.088   5.699   6.155
 2614SOL     OW 8740   6.656   1.233   5.591
 2614SOL    HW1 8741   6.724   1.293   5.548
 2614SOL    HW2 8742   6.689   1.139   5.589
 2615SOL     OW 8743   6.968   3.351   2.215
 2615SOL    HW1 8744   6.910   3.320   2.290
 2615SOL    HW2 8745   7.009   3.439   2.238
 2616SOL     OW 8746   3.289   2.852   6.028
 2616SOL    HW1 8747   3.206   2.835   6.082
 2616SOL    HW2 8748   3.317   2.768   5.982
 2617SOL     OW 8749   4.028   6.641   0.267
 2617SOL    HW1 8750   3.941   6.608   0.304
 2617SOL    HW2 8751   4.079   6.564   0.229
 2618SOL     OW 8752   6.686   0.237   3.854
 2618SOL    HW1 8753   6.777   0.202   3.832
 2618SOL    HW2 8754   6.626   0.160   3.877
 2619SOL     OW 8755   3.782   1.866   3.166
 2619SOL    HW1 8756   3.789   1.835   3.071
 2619SOL    HW2 8757   3.744   1.959   3.168
 2620SOL     OW 8758   6.735   6.830   3.690
 2620SOL    HW1 8759   6.668   6.868   3.626
 2620SOL    HW2 8760   6.799   6.772   3.640
 2621SOL     OW 8761   0.808   5.262   2.582
 2621SOL    HW1 8762   0.760   5.342   2.615
 2621SOL    HW2 8763   0.791   5.250   2.484
 2622SOL     OW 8764   1.641   3.554   5.073
 2622SOL    HW1 8765   1.674   3.537   4.980
 2622SOL    HW2 8766   1.557   3.503   5.089
 2623SOL     OW 8767   0.972   1.165   5.696
 2623SOL    HW1 8768   0.965   1.134   5.791
 2623SOL    HW2 8769   1.049   1.229   5.688
 2624SOL     OW 8770   6.865   1.104   5.158
 2624SOL    HW1 8771   6.768   1.129   5.163
 2624SOL    HW2 8772   6.873   1.006   5.146
 2625SOL     OW 8773   2.467   3.439   5.587
 2625SOL    HW1 8774   2.413   3.476   5.511
 2625SOL    HW2 8775   2.529   3.369   5.553
 2626SOL     OW 8776   0.337   0.614   5.846
 2626SOL    HW1 8777   0.409   0.682   5.840
 2626SOL    HW2 8778   0.302   0.610   5.940
 2627SOL     OW 8779   0.600   1.108   6.160
 2627SOL    HW1 8780   0.628   1.204   6.163
 2627SOL    HW2 8781   0.567   1.087   6.068
 2628SOL     OW 8782   2.005   4.898   5.843
 2628SOL    HW1 8783   1.958   4.841   5.910
 2628SOL    HW2 8784   2.026   4.845   5.761
 2629SOL     OW 8785   3.685   3.266   2.429
 2629SOL    HW1 8786   3.728   3.302   2.347
 2629SOL    HW2 8787   3.630   3.186   2.406
 2630SOL     OW 8788   3.125   1.832   2.593
 2630SOL    HW1 8789   3.141   1.835   2.494
 2630SOL    HW2 8790   3.043   1.885   2.615
 2631SOL     OW 8791   5.315   0.738   6.002
 2631SOL    HW1 8792   5.298   0.694   5.914
 2631SOL    HW2 8793   5.293   0.835   5.996
 2632SOL     OW 8794   4.993   3.257   6.390
 2632SOL    HW1 8795   4.900   3.280   6.418
 2632SOL    HW2 8796   5.059   3.310   6.443
 2633SOL     OW 8797   0.461   2.297   4.161
 2633SOL    HW1 8798   0.379   2.318   4.109
 2633SOL    HW2 8799   0.490   2.203   4.141
 2634SOL     OW 8800   0.565   4.605   3.415
 2634SOL    HW1 8801   0.629   4.644   3.482
 2634SOL    HW2 8802   0.510   4.679   3.375
 2635SOL     OW 8803   6.688   5.931   5.594
 2635SOL    HW1 8804   6.719   5.958   5.503
 2635SOL    HW2 8805   6.718   5.999   5.661
 2636SOL     OW 8806   3.826   0.669   4.918
 2636SOL    HW1 8807   3.741   0.625   4.947
 2636SOL    HW2 8808   3.820   0.767   4.935
 2637SOL     OW 8809   5.622   1.519   3.187
 2637SOL    HW1 8810   5.598   1.484   3.278
 2637SOL    HW2 8811   5.541   1.559   3.144
 2638SOL     OW 8812   0.128   6.994   3.805
 2638SOL    HW1 8813   0.039   6.948   3.810
 2638SOL    HW2 8814   0.193   6.935   3.757
 2639SOL     OW 8815   0.767   5.982   0.692
 2639SOL    HW1 8816   0.737   5.893   0.660
 2639SOL    HW2 8817   0.757   6.049   0.618
 2640SOL     OW 8818   0.449   6.245   5.702
 2640SOL    HW1 8819   0.537   6.203   5.679
 2640SOL    HW2 8820   0.422   6.217   5.794
 2641SOL     OW 8821   5.984   3.261   2.072
 2641SOL    HW1 8822   6.070   3.309   2.052
 2641SOL    HW2 8823   5.913   3.328   2.093
 2642SOL     OW 8824   5.185   0.550   3.666
 2642SOL    HW1 8825   5.139   0.638   3.685
 2642SOL    HW2 8826   5.275   0.567   3.625
 2643SOL     OW 8827   0.604   3.645   3.305
 2643SOL    HW1 8828   0.551   3.726   3.330
 2643SOL    HW2 8829   0.542   3.567   3.294
 2644SOL     OW 8830   5.328   5.952   5.100
 2644SOL    HW1 8831   5.279   5.918   5.181
 2644SOL    HW2 8832   5.332   6.052   5.103
 2645SOL     OW 8833   4.169   5.697   3.653
 2645SOL    HW1 8834   4.204   5.645   3.575
 2645SOL    HW2 8835   4.070   5.706   3.644
 2646SOL     OW 8836   6.278   1.458   7.013
 2646SOL    HW1 8837   6.208   1.389   6.996
 2646SOL    HW2 8838   6.354   1.416   0.039
 2647SOL     OW 8839   6.617   0.146   1.916
 2647SOL    HW1 8840   6.531   0.096   1.903
 2647SOL    HW2 8841   6.613   0.233   1.867
 2648SOL     OW 8842   0.834   6.698   3.521
 2648SOL    HW1 8843   0.912   6.739   3.570
 2648SOL    HW2 8844   0.775   6.651   3.586
 2649SOL     OW 8845   6.633   3.432   0.292
 2649SOL    HW1 8846   6.663   3.513   0.241
 2649SOL    HW2 8847   6.534   3.421   0.282
 2650SOL     OW 8848   0.863   4.696   3.884
 2650SOL    HW1 8849   0.911   4.617   3.846
 2650SOL    HW2 8850   0.891   4.711   3.978
 2651SOL     OW 8851   2.305   1.413   1.410
 2651SOL    HW1 8852   2.361   1.387   1.332
 2651SOL    HW2 8853   2.355   1.477   1.468
 2652SOL     OW 8854   4.272   3.257   5.240
 2652SOL    HW1 8855   4.357   3.207   5.258
 2652SOL    HW2 8856   4.275   3.345   5.287
 2653SOL     OW 8857   4.846   6.733   5.866
 2653SOL    HW1 8858   4.869   6.642   5.900
 2653SOL    HW2 8859   4.758   6.730   5.819
 2654SOL     OW 8860   4.885   0.214   2.245
 2654SOL    HW1 8861   4.865   0.233   2.341
 2654SOL    HW2 8862   4.979   0.243   2.225
 2655SOL     OW 8863   5.421   6.975   4.293
 2655SOL    HW1 8864   5.368   0.029   4.260
 2655SOL    HW2 8865   5.361   6.911   4.340
 2656SOL     OW 8866   3.538   5.280   4.572
 2656SOL    HW1 8867   3.570   5.187   4.591
 2656SOL    HW2 8868   3.494   5.317   4.654
 2657SOL     OW 8869   1.210   4.239   0.136
 2657SOL    HW1 8870   1.161   4.152   0.130
 2657SOL    HW2 8871   1.283   4.232   0.203
 2658SOL     OW 8872   4.974   4.593   0.491
 2658SOL    HW1 8873   5.022   4.626   0.572
 2658SOL    HW2 8874   5.036   4.592   0.413
 2659SOL     OW 8875   5.205   2.942   4.889
 2659SOL    HW1 8876   5.249   3.031   4.873
 2659SOL    HW2 8877   5.107   2.952   4.878
 2660SOL     OW 8878   1.730   6.721   1.728
 2660SOL    HW1 8879   1.753   6.716   1.631
 2660SOL    HW2 8880   1.778   6.648   1.777
 2661SOL     OW 8881   2.396   6.976   1.745
 2661SOL    HW1 8882   2.359   6.954   1.655
 2661SOL    HW2 8883   2.321   6.994   1.809
 2662SOL     OW 8884   4.269   6.469   5.634
 2662SOL    HW1 8885   4.278   6.473   5.534
 2662SOL    HW2 8886   4.298   6.379   5.666
 2663SOL     OW 8887   3.549   4.190   6.377
 2663SOL    HW1 8888   3.472   4.129   6.364
 2663SOL    HW2 8889   3.632   4.137   6.393
 2664SOL     OW 8890   4.744   3.384   5.324
 2664SOL    HW1 8891   4.739   3.461   5.259
 2664SOL    HW2 8892   4.660   3.380   5.377
 2665SOL     OW 8893   2.732   2.986   5.381
 2665SOL    HW1 8894   2.669   3.020   5.311
 2665SOL    HW2 8895   2.693   2.904   5.424
 2666SOL     OW 8896   0.283   5.263   1.661
 2666SOL    HW1 8897   0.361   5.324   1.674
 2666SOL    HW2 8898   0.303   5.199   1.587
 2667SOL     OW 8899   0.919   5.629   4.343
 2667SOL    HW1 8900   0.969   5.685   4.409
 2667SOL    HW2 8901   0.823   5.659   4.341
 2668SOL     OW 8902   0.347   3.223   5.259
 2668SOL    HW1 8903   0.302   3.161   5.323
 2668SOL    HW2 8904   0.279   3.267   5.200
 2669SOL     OW 8905   2.972   4.890   5.851
 2669SOL    HW1 8906   2.887   4.847   5.883
 2669SOL    HW2 8907   2.968   4.900   5.751
 2670SOL     OW 8908   5.463   3.752   5.780
 2670SOL    HW1 8909   5.547   3.780   5.828
 2670SOL    HW2 8910   5.479   3.753   5.682
 2671SOL     OW 8911   4.397   5.237   6.833
 2671SOL    HW1 8912   4.302   5.266   6.849
 2671SOL    HW2 8913   4.459   5.305   6.869
 2672SOL     OW 8914   2.011   4.827   0.774
 2672SOL    HW1 8915   1.979   4.894   0.707
 2672SOL    HW2 8916   2.085   4.868   0.828
 2673SOL     OW 8917   6.918   1.183   1.890
 2673SOL    HW1 8918   6.855   1.161   1.966
 2673SOL    HW2 8919   6.910   1.280   1.869
 2674SOL     OW 8920   1.446   5.086   3.887
 2674SOL    HW1 8921   1.530   5.042   3.918
 2674SOL    HW2 8922   1.367   5.027   3.907
 2675SOL     OW 8923   6.003   5.324   4.005
 2675SOL    HW1 8924   5.930   5.269   4.046
 2675SOL    HW2 8925   6.002   5.416   4.044
 2676SOL     OW 8926   3.895   2.737   1.267
 2676SOL    HW1 8927   3.826   2.717   1.198
 2676SOL    HW2 8928   3.858   2.716   1.358
 2677SOL     OW 8929   2.791   4.071   6.973
 2677SOL    HW1 8930   2.855   4.045   0.021
 2677SOL    HW2 8931   2.744   4.156   6.999
 2678SOL     OW 8932   0.353   2.537   1.635
 2678SOL    HW1 8933   0.365   2.483   1.717
 2678SOL    HW2 8934   0.271   2.506   1.586
 2679SOL     OW 8935   1.991   4.823   1.874
 2679SOL    HW1 8936   1.983   4.757   1.949
 2679SOL    HW2 8937   1.937   4.905   1.896
 2680SOL     OW 8938   1.233   1.563   0.971
 2680SOL    HW1 8939   1.171   1.513   0.910
 2680SOL    HW2 8940   1.217   1.661   0.963
 2681SOL     OW 8941   1.718   2.264   5.336
 2681SOL    HW1 8942   1.697   2.233   5.429
 2681SOL    HW2 8943   1.640   2.244   5.276
 2682SOL     OW 8944   4.575   4.344   3.422
 2682SOL    HW1 8945   4.593   4.429   3.374
 2682SOL    HW2 8946   4.623   4.269   3.376
 2683SOL     OW 8947   3.015   5.481   1.677
 2683SOL    HW1 8948   2.943   5.548   1.692
 2683SOL    HW2 8949   2.976   5.389   1.674
 2684SOL     OW 8950   4.779   6.136   1.650
 2684SOL    HW1 8951   4.721   6.195   1.593
 2684SOL    HW2 8952   4.874   6.141   1.618
 2685SOL     OW 8953   6.025   6.215   6.025
 2685SOL    HW1 8954   5.993   6.157   6.099
 2685SOL    HW2 8955   5.952   6.229   5.959
 2686SOL     OW 8956   2.206   1.220   6.007
 2686SOL    HW1 8957   2.126   1.205   5.949
 2686SOL    HW2 8958   2.269   1.283   5.963
 2687SOL     OW 8959   5.154   5.401   1.303
 2687SOL    HW1 8960   5.187   5.346   1.380
 2687SOL    HW2 8961   5.174   5.497   1.319
 2688SOL     OW 8962   2.973   3.874   0.560
 2688SOL    HW1 8963   2.938   3.813   0.489
 2688SOL    HW2 8964   2.968   3.968   0.528
 2689SOL     OW 8965   1.101   4.060   2.757
 2689SOL    HW1 8966   1.161   4.007   2.698
 2689SOL    HW2 8967   1.039   3.998   2.806
 2690SOL     OW 8968   3.551   3.311   5.148
 2690SOL    HW1 8969   3.518   3.380   5.213
 2690SOL    HW2 8970   3.536   3.220   5.186
 2691SOL     OW 8971   1.104   5.079   3.647
 2691SOL    HW1 8972   1.104   5.076   3.747
 2691SOL    HW2 8973   1.147   5.164   3.616
 2692SOL     OW 8974   2.645   5.871   3.136
 2692SOL    HW1 8975   2.698   5.848   3.217
 2692SOL    HW2 8976   2.707   5.899   3.062
 2693SOL     OW 8977   2.170   4.961   3.367
 2693SOL    HW1 8978   2.114   5.014   3.431
 2693SOL    HW2 8979   2.223   5.023   3.309
 2694SOL     OW 8980   4.018   6.409   2.928
 2694SOL    HW1 8981   4.012   6.456   3.017
 2694SOL    HW2 8982   4.114   6.395   2.905
 2695SOL     OW 8983   6.068   1.550   2.332
 2695SOL    HW1 8984   6.032   1.465   2.370
 2695SOL    HW2 8985   5.992   1.612   2.311
 2696SOL     OW 8986   3.574   3.198   5.846
 2696SOL    HW1 8987   3.485   3.159   5.867
 2696SOL    HW2 8988   3.567   3.256   5.764
 2697SOL     OW 8989   3.289   1.044   3.503
 2697SOL    HW1 8990   3.337   1.110   3.560
 2697SOL    HW2 8991   3.355   0.986   3.456
 2698SOL     OW 8992   2.289   4.682   0.828
 2698SOL    HW1 8993   2.290   4.782   0.837
 2698SOL    HW2 8994   2.195   4.651   0.815
 2699SOL     OW 8995   2.558   5.647   0.852
 2699SOL    HW1 8996   2.630   5.716   0.862
 2699SOL    HW2 8997   2.468   5.691   0.863
 2700SOL     OW 8998   2.929   3.146   6.812
 2700SOL    HW1 8999   2.987   3.211   6.861
 2700SOL    HW2 9000   2.968   3.127   6.722
 2701SOL     OW 9001   5.245   1.587   5.730
 2701SOL    HW1 9002   5.261   1.660   5.664
 2701SOL    HW2 9003   5.333   1.544   5.753
 2702SOL     OW 9004   0.438   2.814   3.253
 2702SOL    HW1 9005   0.340   2.821   3.271
 2702SOL    HW2 9006   0.486   2.889   3.298
 2703SOL     OW 9007   0.990   0.027   0.917
 2703SOL    HW1 9008   0.934   7.013   0.843
 2703SOL    HW2 9009   1.036   0.110   0.885
 2704SOL     OW 9010   6.583   5.737   2.232
 2704SOL    HW1 9011   6.623   5.799   2.300
 2704SOL    HW2 9012   6.512   5.682   2.276
 2705SOL     OW 9013   6.803   6.532   4.570
 2705SOL    HW1 9014   6.823   6.446   4.617
 2705SOL    HW2 9015   6.827   6.523   4.473
 2706SOL     OW 9016   6.575   5.126   2.626
 2706SOL    HW1 9017   6.657   5.120   2.569
 2706SOL    HW2 9018   6.573   5.215   2.671
 2707SOL     OW 9019   3.967   0.652   4.381
 2707SOL    HW1 9020   3.985   0.560   4.416
 2707SOL    HW2 9021   4.011   0.663   4.291
 2708SOL     OW 9022   0.172   2.648   0.966
 2708SOL    HW1 9023   0.212   2.737   0.944
 2708SOL    HW2 9024   0.242   2.578   0.961
 2709SOL     OW 9025   4.816   0.248   0.195
 2709SOL    HW1 9026   4.755   0.324   0.217
 2709SOL    HW2 9027   4.779   0.197   0.117
 2710SOL     OW 9028   1.146   3.080   4.222
 2710SOL    HW1 9029   1.205   3.139   4.278
 2710SOL    HW2 9030   1.085   3.028   4.281
 2711SOL     OW 9031   2.476   0.411   3.866
 2711SOL    HW1 9032   2.484   0.329   3.809
 2711SOL    HW2 9033   2.529   0.486   3.825
 2712SOL     OW 9034   2.704   4.322   1.498
 2712SOL    HW1 9035   2.655   4.397   1.455
 2712SOL    HW2 9036   2.803   4.332   1.481
 2713SOL     OW 9037   2.248   2.711   5.492
 2713SOL    HW1 9038   2.158   2.743   5.463
 2713SOL    HW2 9039   2.316   2.732   5.422
 2714SOL     OW 9040   3.988   2.636   0.072
 2714SOL    HW1 9041   3.994   2.681   0.161
 2714SOL    HW2 9042   3.932   2.553   0.080
 2715SOL     OW 9043   5.029   2.297   1.096
 2715SOL    HW1 9044   4.962   2.306   1.022
 2715SOL    HW2 9045   5.120   2.320   1.062
 2716SOL     OW 9046   5.457   3.117   3.042
 2716SOL    HW1 9047   5.495   3.156   3.126
 2716SOL    HW2 9048   5.366   3.080   3.060
 2717SOL     OW 9049   0.225   0.228   2.733
 2717SOL    HW1 9050   0.248   0.143   2.685
 2717SOL    HW2 9051   0.282   0.303   2.698
 2718SOL     OW 9052   1.588   1.319   4.874
 2718SOL    HW1 9053   1.611   1.415   4.861
 2718SOL    HW2 9054   1.553   1.305   4.966
 2719SOL     OW 9055   0.438   5.004   1.719
 2719SOL    HW1 9056   0.352   4.988   1.767
 2719SOL    HW2 9057   0.419   5.022   1.622
 2720SOL     OW 9058   2.016   6.040   2.078
 2720SOL    HW1 9059   2.083   5.977   2.038
 2720SOL    HW2 9060   1.963   5.992   2.148
 2721SOL     OW 9061   3.328   6.275   3.294
 2721SOL    HW1 9062   3.273   6.297   3.375
 2721SOL    HW2 9063   3.398   6.346   3.281
 2722SOL     OW 9064   6.497   4.925   0.613
 2722SOL    HW1 9065   6.539   4.931   0.522
 2722SOL    HW2 9066   6.427   4.854   0.612
 2723SOL     OW 9067   0.867   5.849   6.357
 2723SOL    HW1 9068   0.864   5.924   6.424
 2723SOL    HW2 9069   0.956   5.848   6.312
 2724SOL     OW 9070   1.880   5.729   6.861
 2724SOL    HW1 9071   1.856   5.732   6.764
 2724SOL    HW2 9072   1.832   5.802   6.909
 2725SOL     OW 9073   5.060   4.866   5.092
 2725SOL    HW1 9074   5.088   4.774   5.063
 2725SOL    HW2 9075   5.109   4.934   5.038
 2726SOL     OW 9076   7.017   1.847   1.193
 2726SOL    HW1 9077   0.001   1.819   1.097
 2726SOL    HW2 9078   0.062   1.916   1.214
 2727SOL     OW 9079   1.178   4.677   3.709
 2727SOL    HW1 9080   1.183   4.710   3.615
 2727SOL    HW2 9081   1.121   4.595   3.713
 2728SOL     OW 9082   4.761   6.722   5.355
 2728SOL    HW1 9083   4.707   6.638   5.353
 2728SOL    HW2 9084   4.858   6.700   5.353
 2729SOL     OW 9085   7.022   5.954   0.650
 2729SOL    HW1 9086   6.978   5.956   0.560
 2729SOL    HW2 9087   0.096   5.962   0.639
 2730SOL     OW 9088   2.014   5.435   1.524
 2730SOL    HW1 9089   2.026   5.468   1.618
 2730SOL    HW2 9090   2.079   5.482   1.465
 2731SOL     OW 9091   3.262   3.433   3.222
 2731SOL    HW1 9092   3.319   3.508   3.190
 2731SOL    HW2 9093   3.181   3.426   3.164
 2732SOL     OW 9094   5.178   2.885   1.887
 2732SOL    HW1 9095   5.085   2.915   1.866
 2732SOL    HW2 9096   5.204   2.811   1.825
 2733SOL     OW 9097   6.422   2.320   4.677
 2733SOL    HW1 9098   6.434   2.384   4.753
 2733SOL    HW2 9099   6.336   2.341   4.630
 2734SOL     OW 9100   3.504   5.584   0.622
 2734SOL    HW1 9101   3.596   5.622   0.634
 2734SOL    HW2 9102   3.464   5.564   0.711
 2735SOL     OW 9103   1.796   3.392   1.704
 2735SOL    HW1 9104   1.699   3.370   1.707
 2735SOL    HW2 9105   1.845   3.319   1.656
 2736SOL     OW 9106   5.584   6.062   4.958
 2736SOL    HW1 9107   5.587   5.965   4.981
 2736SOL    HW2 9108   5.622   6.115   5.034
 2737SOL     OW 9109   2.725   4.219   5.496
 2737SOL    HW1 9110   2.752   4.309   5.531
 2737SOL    HW2 9111   2.647   4.229   5.435
 2738SOL     OW 9112   4.861   6.033   1.911
 2738SOL    HW1 9113   4.835   6.078   1.826
 2738SOL    HW2 9114   4.801   5.954   1.927
 2739SOL     OW 9115   1.329   4.480   1.314
 2739SOL    HW1 9116   1.295   4.485   1.220
 2739SOL    HW2 9117   1.416   4.528   1.321
 2740SOL     OW 9118   6.617   4.192   2.070
 2740SOL    HW1 9119   6.698   4.136   2.053
 2740SOL    HW2 9120   6.537   4.133   2.080
 2741SOL     OW 9121   6.707   0.591   4.760
 2741SOL    HW1 9122   6.795   0.544   4.768
 2741SOL    HW2 9123   6.722   0.682   4.722
 2742SOL     OW 9124   2.248   5.613   0.056
 2742SOL    HW1 9125   2.273   5.517   0.040
 2742SOL    HW2 9126   2.327   5.662   0.093
 2743SOL     OW 9127   6.248   4.595   2.352
 2743SOL    HW1 9128   6.343   4.627   2.357
 2743SOL    HW2 9129   6.206   4.627   2.267
 2744SOL     OW 9130   4.598   2.264   0.646
 2744SOL    HW1 9131   4.545   2.179   0.647
 2744SOL    HW2 9132   4.614   2.294   0.739
 2745SOL     OW 9133   6.998   0.583   5.153
 2745SOL    HW1 9134   0.062   0.572   5.199
 2745SOL    HW2 9135   6.996   0.527   5.070
 2746SOL     OW 9136   1.586   2.345   4.790
 2746SOL    HW1 9137   1.527   2.398   4.851
 2746SOL    HW2 9138   1.534   2.267   4.755
 2747SOL     OW 9139   4.759   4.435   6.527
 2747SOL    HW1 9140   4.710   4.349   6.540
 2747SOL    HW2 9141   4.765   4.456   6.429
 2748SOL     OW 9142   4.770   1.533   2.140
 2748SOL    HW1 9143   4.713   1.536   2.058
 2748SOL    HW2 9144   4.860   1.572   2.120
 2749SOL     OW 9145   0.195   4.396   1.208
 2749SOL    HW1 9146   0.223   4.399   1.304
 2749SOL    HW2 9147   0.095   4.393   1.202
 2750SOL     OW 9148   1.294   3.794   1.250
 2750SOL    HW1 9149   1.219   3.729   1.237
 2750SOL    HW2 9150   1.320   3.834   1.162
 2751SOL     OW 9151   1.170   3.539   1.940
 2751SOL    HW1 9152   1.188   3.446   1.972
 2751SOL    HW2 9153   1.073   3.549   1.921
 2752SOL     OW 9154   3.895   5.159   5.258
 2752SOL    HW1 9155   3.939   5.132   5.344
 2752SOL    HW2 9156   3.833   5.235   5.275
 2753SOL     OW 9157   0.453   6.366   5.073
 2753SOL    HW1 9158   0.501   6.444   5.033
 2753SOL    HW2 9159   0.360   6.392   5.097
 2754SOL     OW 9160   0.931   0.853   1.654
 2754SOL    HW1 9161   0.942   0.894   1.563
 2754SOL    HW2 9162   0.844   0.805   1.658
 2755SOL     OW 9163   2.247   0.038   2.662
 2755SOL    HW1 9164   2.204   0.125   2.638
 2755SOL    HW2 9165   2.181   6.989   2.654
 2756SOL     OW 9166   5.944   5.213   7.012
 2756SOL    HW1 9167   5.854   5.241   6.976
 2756SOL    HW2 9168   5.932   5.175   0.080
 2757SOL     OW 9169   2.446   0.214   6.731
 2757SOL    HW1 9170   2.520   0.166   6.777
 2757SOL    HW2 9171   2.419   0.294   6.785
 2758SOL     OW 9172   3.705   6.408   3.996
 2758SOL    HW1 9173   3.799   6.424   4.024
 2758SOL    HW2 9174   3.649   6.388   4.077
 2759SOL     OW 9175   5.266   6.973   5.723
 2759SOL    HW1 9176   5.311   6.955   5.635
 2759SOL    HW2 9177   5.194   0.017   5.710
 2760SOL     OW 9178   0.492   5.895   1.960
 2760SOL    HW1 9179   0.470   5.797   1.953
 2760SOL    HW2 9180   0.546   5.910   2.043
 2761SOL     OW 9181   2.045   5.811   4.724
 2761SOL    HW1 9182   1.992   5.893   4.705
 2761SOL    HW2 9183   2.006   5.763   4.802
 2762SOL     OW 9184   1.291   1.409   4.957
 2762SOL    HW1 9185   1.348   1.393   5.038
 2762SOL    HW2 9186   1.200   1.438   4.986
 2763SOL     OW 9187   4.915   1.594   3.353
 2763SOL    HW1 9188   4.868   1.608   3.266
 2763SOL    HW2 9189   4.883   1.510   3.395
 2764SOL     OW 9190   5.799   1.303   0.980
 2764SOL    HW1 9191   5.775   1.276   0.887
 2764SOL    HW2 9192   5.825   1.400   0.981
 2765SOL     OW 9193   5.923   0.203   1.127
 2765SOL    HW1 9194   5.829   0.169   1.122
 2765SOL    HW2 9195   5.938   0.272   1.057
 2766SOL     OW 9196   5.421   2.208   0.783
 2766SOL    HW1 9197   5.323   2.202   0.768
 2766SOL    HW2 9198   5.440   2.260   0.866
 2767SOL     OW 9199   6.713   5.554   0.132
 2767SOL    HW1 9200   6.647   5.551   0.058
 2767SOL    HW2 9201   6.668   5.530   0.218
 2768SOL     OW 9202   4.459   0.898   1.270
 2768SOL    HW1 9203   4.405   0.873   1.351
 2768SOL    HW2 9204   4.408   0.875   1.188
 2769SOL     OW 9205   2.087   4.180   4.440
 2769SOL    HW1 9206   2.095   4.245   4.365
 2769SOL    HW2 9207   2.135   4.216   4.520
 2770SOL     OW 9208   4.766   6.014   5.904
 2770SOL    HW1 9209   4.815   6.004   5.991
 2770SOL    HW2 9210   4.810   6.084   5.849
 2771SOL     OW 9211   6.884   0.711   4.044
 2771SOL    HW1 9212   6.838   0.767   3.976
 2771SOL    HW2 9213   6.853   0.616   4.036
 2772SOL     OW 9214   4.219   1.150   0.871
 2772SOL    HW1 9215   4.289   1.148   0.943
 2772SOL    HW2 9216   4.257   1.110   0.788
 2773SOL     OW 9217   5.945   2.182   5.118
 2773SOL    HW1 9218   5.971   2.198   5.213
 2773SOL    HW2 9219   5.932   2.084   5.103
 2774SOL     OW 9220   5.640   3.230   2.864
 2774SOL    HW1 9221   5.584   3.193   2.937
 2774SOL    HW2 9222   5.636   3.330   2.866
 2775SOL     OW 9223   6.843   5.511   6.094
 2775SOL    HW1 9224   6.827   5.431   6.036
 2775SOL    HW2 9225   6.887   5.583   6.040
 2776SOL     OW 9226   4.031   5.118   5.503
 2776SOL    HW1 9227   4.039   5.203   5.554
 2776SOL    HW2 9228   4.103   5.054   5.533
 2777SOL     OW 9229   2.866   1.101   2.358
 2777SOL    HW1 9230   2.819   1.029   2.307
 2777SOL    HW2 9231   2.936   1.143   2.300
 2778SOL     OW 9232   1.511   6.976   5.385
 2778SOL    HW1 9233   1.560   0.030   5.423
 2778SOL    HW2 9234   1.573   6.899   5.375
 2779SOL     OW 9235   4.707   6.550   1.382
 2779SOL    HW1 9236   4.634   6.617   1.398
 2779SOL    HW2 9237   4.774   6.589   1.319
 2780SOL     OW 9238   6.316   6.458   6.805
 2780SOL    HW1 9239   6.398   6.470   6.860
 2780SOL    HW2 9240   6.315   6.365   6.766
 2781SOL     OW 9241   5.507   6.518   2.321
 2781SOL    HW1 9242   5.410   6.526   2.341
 2781SOL    HW2 9243   5.545   6.609   2.300
 2782SOL     OW 9244   4.429   2.503   6.546
 2782SOL    HW1 9245   4.422   2.501   6.446
 2782SOL    HW2 9246   4.499   2.570   6.573
 2783SOL     OW 9247   5.424   4.200   3.909
 2783SOL    HW1 9248   5.437   4.166   3.816
 2783SOL    HW2 9249   5.498   4.167   3.967
 2784SOL     OW 9250   3.323   1.002   2.332
 2784SOL    HW1 9251   3.337   0.944   2.252
 2784SOL    HW2 9252   3.254   1.071   2.312
 2785SOL     OW 9253   5.002   1.358   0.627
 2785SOL    HW1 9254   4.943   1.408   0.689
 2785SOL    HW2 9255   4.956   1.346   0.539
 2786SOL     OW 9256   4.999   0.155   1.963
 2786SOL    HW1 9257   5.067   0.213   1.919
 2786SOL    HW2 9258   5.028   0.135   2.057
 2787SOL     OW 9259   4.842   1.539   6.153
 2787SOL    HW1 9260   4.881   1.454   6.189
 2787SOL    HW2 9261   4.908   1.613   6.165
 2788SOL     OW 9262   2.112   5.422   6.056
 2788SOL    HW1 9263   2.121   5.518   6.033
 2788SOL    HW2 9264   2.090   5.413   6.153
 2789SOL     OW 9265   1.721   2.100   3.835
 2789SOL    HW1 9266   1.698   2.069   3.927
 2789SOL    HW2 9267   1.679   2.189   3.818
 2790SOL     OW 9268   3.430   5.602   2.359
 2790SOL    HW1 9269   3.456   5.639   2.270
 2790SOL    HW2 9270   3.456   5.506   2.364
 2791SOL     OW 9271   0.655   3.044   3.742
 2791SOL    HW1 9272   0.661   3.093   3.655
 2791SOL    HW2 9273   0.747   3.028   3.777
 2792SOL     OW 9274   2.093   6.692   3.875
 2792SOL    HW1 9275   2.043   6.731   3.797
 2792SOL    HW2 9276   2.047   6.719   3.960
 2793SOL     OW 9277   5.697   4.056   2.528
 2793SOL    HW1 9278   5.656   3.969   2.555
 2793SOL    HW2 9279   5.704   4.060   2.428
 2794SOL     OW 9280   0.338   2.604   6.441
 2794SOL    HW1 9281   0.381   2.659   6.512
 2794SOL    HW2 9282   0.246   2.577   6.471
 2795SOL     OW 9283   1.257   3.469   0.585
 2795SOL    HW1 9284   1.310   3.546   0.550
 2795SOL    HW2 9285   1.214   3.420   0.509
 2796SOL     OW 9286   6.813   6.389   3.185
 2796SOL    HW1 9287   6.810   6.448   3.105
 2796SOL    HW2 9288   6.905   6.350   3.194
 2797SOL     OW 9289   5.154   5.194   4.446
 2797SOL    HW1 9290   5.133   5.115   4.503
 2797SOL    HW2 9291   5.252   5.197   4.429
 2798SOL     OW 9292   0.140   5.119   2.099
 2798SOL    HW1 9293   0.230   5.076   2.113
 2798SOL    HW2 9294   0.123   5.185   2.172
 2799SOL     OW 9295   5.974   5.459   6.602
 2799SOL    HW1 9296   5.883   5.427   6.578
 2799SOL    HW2 9297   5.989   5.446   6.700
 2800SOL     OW 9298   4.809   6.408   0.341
 2800SOL    HW1 9299   4.898   6.413   0.387
 2800SOL    HW2 9300   4.805   6.476   0.268
 2801SOL     OW 9301   6.514   5.613   6.290
 2801SOL    HW1 9302   6.499   5.520   6.325
 2801SOL    HW2 9303   6.602   5.646   6.324
 2802SOL     OW 9304   5.139   1.284   5.113
 2802SOL    HW1 9305   5.107   1.326   5.198
 2802SOL    HW2 9306   5.099   1.194   5.103
 2803SOL     OW 9307   4.056   5.480   6.716
 2803SOL    HW1 9308   4.061   5.384   6.743
 2803SOL    HW2 9309   4.054   5.486   6.616
 2804SOL     OW 9310   0.220   5.112   5.538
 2804SOL    HW1 9311   0.128   5.143   5.512
 2804SOL    HW2 9312   0.212   5.033   5.599
 2805SOL     OW 9313   5.688   3.323   1.560
 2805SOL    HW1 9314   5.646   3.386   1.626
 2805SOL    HW2 9315   5.715   3.374   1.478
 2806SOL     OW 9316   6.816   4.692   5.861
 2806SOL    HW1 9317   6.770   4.778   5.839
 2806SOL    HW2 9318   6.779   4.655   5.946
 2807SOL     OW 9319   4.648   6.276   4.616
 2807SOL    HW1 9320   4.747   6.265   4.624
 2807SOL    HW2 9321   4.610   6.197   4.567
 2808SOL     OW 9322   5.853   4.587   2.033
 2808SOL    HW1 9323   5.787   4.527   1.988
 2808SOL    HW2 9324   5.833   4.682   2.011
 2809SOL     OW 9325   5.685   2.981   0.915
 2809SOL    HW1 9326   5.676   3.039   0.996
 2809SOL    HW2 9327   5.639   3.026   0.838
 2810SOL     OW 9328   3.406   4.929   3.777
 2810SOL    HW1 9329   3.441   4.956   3.687
 2810SOL    HW2 9330   3.460   4.973   3.849
 2811SOL     OW 9331   1.033   1.906   3.121
 2811SOL    HW1 9332   1.021   1.843   3.045
 2811SOL    HW2 9333   0.946   1.917   3.169
 2812SOL     OW 9334   5.190   3.734   6.672
 2812SOL    HW1 9335   5.257   3.671   6.634
 2812SOL    HW2 9336   5.109   3.683   6.702
 2813SOL     OW 9337   6.999   0.155   6.400
 2813SOL    HW1 9338   0.040   0.080   6.406
 2813SOL    HW2 9339   6.942   0.156   6.482
 2814SOL     OW 9340   4.188   3.614   5.446
 2814SOL    HW1 9341   4.254   3.593   5.374
 2814SOL    HW2 9342   4.125   3.686   5.414
 2815SOL     OW 9343   5.974   0.316   5.681
 2815SOL    HW1 9344   6.047   0.374   5.717
 2815SOL    HW2 9345   5.905   0.302   5.753
 2816SOL     OW 9346   6.562   5.490   3.501
 2816SOL    HW1 9347   6.507   5.517   3.580
 2816SOL    HW2 9348   6.504   5.489   3.420
 2817SOL     OW 9349   2.691   6.846   1.484
 2817SOL    HW1 9350   2.716   6.850   1.387
 2817SOL    HW2 9351   2.633   6.766   1.499
 2818SOL     OW 9352   0.554   0.261   1.039
 2818SOL    HW1 9353   0.536   0.163   1.045
 2818SOL    HW2 9354   0.471   0.308   1.007
 2819SOL     OW 9355   0.877   1.140   1.194
 2819SOL    HW1 9356   0.783   1.172   1.195
 2819SOL    HW2 9357   0.933   1.198   1.254
 2820SOL     OW 9358   0.818   2.726   3.123
 2820SOL    HW1 9359   0.801   2.689   3.214
 2820SOL    HW2 9360   0.746   2.695   3.061
 2821SOL     OW 9361   4.063   3.288   6.909
 2821SOL    HW1 9362   4.108   3.252   6.991
 2821SOL    HW2 9363   4.076   3.225   6.833
 2822SOL     OW 9364   3.846   1.807   0.301
 2822SOL    HW1 9365   3.789   1.731   0.330
 2822SOL    HW2 9366   3.894   1.846   0.381
 2823SOL     OW 9367   4.601   0.467   0.191
 2823SOL    HW1 9368   4.557   0.448   0.103
 2823SOL    HW2 9369   4.641   0.558   0.189
 2824SOL     OW 9370   2.188   1.164   3.540
 2824SOL    HW1 9371   2.218   1.219   3.618
 2824SOL    HW2 9372   2.268   1.123   3.496
 2825SOL     OW 9373   5.699   0.368   6.720
 2825SOL    HW1 9374   5.696   0.468   6.722
 2825SOL    HW2 9375   5.793   0.337   6.734
 2826SOL     OW 9376   4.870   1.180   6.445
 2826SOL    HW1 9377   4.861   1.267   6.494
 2826SOL    HW2 9378   4.796   1.118   6.473
 2827SOL     OW 9379   0.152   0.840   5.395
 2827SOL    HW1 9380   0.143   0.828   5.494
 2827SOL    HW2 9381   0.239   0.803   5.364
 2828SOL     OW 9382   2.350   1.263   0.099
 2828SOL    HW1 9383   2.429   1.255   0.159
 2828SOL    HW2 9384   2.270   1.224   0.144
 2829SOL     OW 9385   3.221   3.851   5.217
 2829SOL    HW1 9386   3.151   3.788   5.186
 2829SOL    HW2 9387   3.285   3.871   5.142
 2830SOL     OW 9388   1.551   2.730   6.012
 2830SOL    HW1 9389   1.507   2.646   6.045
 2830SOL    HW2 9390   1.641   2.708   5.974
 2831SOL     OW 9391   0.781   4.740   3.622
 2831SOL    HW1 9392   0.791   4.701   3.714
 2831SOL    HW2 9393   0.857   4.709   3.565
 2832SOL     OW 9394   0.848   2.860   2.228
 2832SOL    HW1 9395   0.849   2.954   2.264
 2832SOL    HW2 9396   0.863   2.796   2.303
 2833SOL     OW 9397   3.311   1.983   2.411
 2833SOL    HW1 9398   3.397   2.030   2.391
 2833SOL    HW2 9399   3.254   1.981   2.330
 2834SOL     OW 9400   4.052   5.501   5.844
 2834SOL    HW1 9401   4.135   5.555   5.858
 2834SOL    HW2 9402   4.030   5.499   5.747
 2835SOL     OW 9403   0.552   6.908   2.350
 2835SOL    HW1 9404   0.553   7.004   2.320
 2835SOL    HW2 9405   0.593   6.850   2.279
 2836SOL     OW 9406   6.730   7.003   2.614
 2836SOL    HW1 9407   6.715   0.030   2.699
 2836SOL    HW2 9408   6.826   6.973   2.609
 2837SOL     OW 9409   5.502   4.720   2.463
 2837SOL    HW1 9410   5.419   4.682   2.504
 2837SOL    HW2 9411   5.561   4.758   2.534
 2838SOL     OW 9412   2.755   4.010   1.192
 2838SOL    HW1 9413   2.831   4.056   1.239
 2838SOL    HW2 9414   2.791   3.955   1.117
 2839SOL     OW 9415   6.826   2.227   2.351
 2839SOL    HW1 9416   6.858   2.153   2.292
 2839SOL    HW2 9417   6.884   2.307   2.340
 2840SOL     OW 9418   1.414   0.398   3.041
 2840SOL    HW1 9419   1.342   0.387   2.973
 2840SOL    HW2 9420   1.375   0.431   3.126
 2841SOL     OW 9421   0.632   0.865   6.340
 2841SOL    HW1 9422   0.620   0.947   6.284
 2841SOL    HW2 9423   0.547   0.844   6.387
 2842SOL     OW 9424   0.320   4.291   4.108
 2842SOL    HW1 9425   0.340   4.381   4.068
 2842SOL    HW2 9426   0.288   4.302   4.202
 2843SOL     OW 9427   2.298   2.387   2.730
 2843SOL    HW1 9428   2.312   2.305   2.786
 2843SOL    HW2 9429   2.202   2.415   2.735
 2844SOL     OW 9430   6.909   4.921   0.641
 2844SOL    HW1 9431   6.954   4.983   0.705
 2844SOL    HW2 9432   6.862   4.974   0.570
 2845SOL     OW 9433   6.103   2.884   0.935
 2845SOL    HW1 9434   6.015   2.841   0.914
 2845SOL    HW2 9435   6.087   2.970   0.982
 2846SOL     OW 9436   3.868   1.128   0.306
 2846SOL    HW1 9437   3.821   1.207   0.346
 2846SOL    HW2 9438   3.947   1.159   0.254
 2847SOL     OW 9439   4.882   3.337   3.694
 2847SOL    HW1 9440   4.882   3.429   3.734
 2847SOL    HW2 9441   4.908   3.342   3.598
 2848SOL     OW 9442   1.850   2.314   5.095
 2848SOL    HW1 9443   1.815   2.297   5.187
 2848SOL    HW2 9444   1.896   2.233   5.061
 2849SOL     OW 9445   4.443   6.560   0.694
 2849SOL    HW1 9446   4.530   6.527   0.657
 2849SOL    HW2 9447   4.390   6.483   0.728
 2850SOL     OW 9448   1.651   0.165   2.497
 2850SOL    HW1 9449   1.730   0.177   2.558
 2850SOL    HW2 9450   1.636   0.250   2.446
 2851SOL     OW 9451   6.344   1.423   6.045
 2851SOL    HW1 9452   6.413   1.417   6.116
 2851SOL    HW2 9453   6.266   1.476   6.079
 2852SOL     OW 9454   5.813   4.453   6.884
 2852SOL    HW1 9455   5.730   4.425   6.932
 2852SOL    HW2 9456   5.881   4.380   6.888
 2853SOL     OW 9457   1.548   1.555   6.633
 2853SOL    HW1 9458   1.525   1.615   6.557
 2853SOL    HW2 9459   1.623   1.495   6.607
 2854SOL     OW 9460   4.217   1.390   4.665
 2854SOL    HW1 9461   4.187   1.372   4.759
 2854SOL    HW2 9462   4.290   1.458   4.666
 2855SOL     OW 9463   2.242   1.400   6.661
 2855SOL    HW1 9464   2.278   1.311   6.690
 2855SOL    HW2 9465   2.143   1.392   6.649
 2856SOL     OW 9466   0.794   2.715   5.564
 2856SOL    HW1 9467   0.772   2.761   5.650
 2856SOL    HW2 9468   0.775   2.776   5.488
 2857SOL     OW 9469   2.365   2.289   2.452
 2857SOL    HW1 9470   2.410   2.200   2.463
 2857SOL    HW2 9471   2.361   2.335   2.541
 2858SOL     OW 9472   4.705   4.227   2.247
 2858SOL    HW1 9473   4.705   4.128   2.233
 2858SOL    HW2 9474   4.641   4.270   2.183
 2859SOL     OW 9475   5.840   0.950   6.798
 2859SOL    HW1 9476   5.794   0.908   6.719
 2859SOL    HW2 9477   5.937   0.963   6.778
 2860SOL     OW 9478   2.942   1.142   1.795
 2860SOL    HW1 9479   2.931   1.044   1.810
 2860SOL    HW2 9480   3.032   1.170   1.829
 2861SOL     OW 9481   4.087   3.761   5.697
 2861SOL    HW1 9482   4.169   3.741   5.643
 2861SOL    HW2 9483   4.094   3.855   5.733
 2862SOL     OW 9484   5.966   1.793   2.623
 2862SOL    HW1 9485   5.947   1.696   2.641
 2862SOL    HW2 9486   6.057   1.802   2.583
 2863SOL     OW 9487   4.974   1.568   6.457
 2863SOL    HW1 9488   5.072   1.555   6.468
 2863SOL    HW2 9489   4.924   1.495   6.504
 2864SOL     OW 9490   4.532   1.432   1.977
 2864SOL    HW1 9491   4.470   1.473   1.911
 2864SOL    HW2 9492   4.516   1.333   1.981
 2865SOL     OW 9493   3.926   4.385   6.498
 2865SOL    HW1 9494   3.834   4.409   6.529
 2865SOL    HW2 9495   3.920   4.335   6.411
 2866SOL     OW 9496   6.573   5.479   0.361
 2866SOL    HW1 9497   6.570   5.482   0.461
 2866SOL    HW2 9498   6.577   5.383   0.331
 2867SOL     OW 9499   0.047   5.565   3.026
 2867SOL    HW1 9500   0.045   5.657   2.986
 2867SOL    HW2 9501   0.051   5.572   3.125
 2868SOL     OW 9502   0.840   1.814   5.399
 2868SOL    HW1 9503   0.759   1.858   5.438
 2868SOL    HW2 9504   0.820   1.718   5.382
 2869SOL     OW 9505   6.659   1.238   3.878
 2869SOL    HW1 9506   6.652   1.249   3.779
 2869SOL    HW2 9507   6.570   1.256   3.920
 2870SOL     OW 9508   0.539   1.751   4.599
 2870SOL    HW1 9509   0.469   1.743   4.670
 2870SOL    HW2 9510   0.587   1.664   4.590
 2871SOL     OW 9511   0.428   2.274   6.676
 2871SOL    HW1 9512   0.363   2.292   6.750
 2871SOL    HW2 9513   0.429   2.176   6.655
 2872SOL     OW 9514   2.486   2.080   2.568
 2872SOL    HW1 9515   2.574   2.054   2.529
 2872SOL    HW2 9516   2.446   2.002   2.616
 2873SOL     OW 9517   0.176   5.452   2.765
 2873SOL    HW1 9518   0.148   5.540   2.803
 2873SOL    HW2 9519   0.105   5.419   2.703
 2874SOL     OW 9520   4.001   6.567   3.146
 2874SOL    HW1 9521   4.063   6.537   3.218
 2874SOL    HW2 9522   4.029   6.658   3.114
 2875SOL     OW 9523   4.440   6.887   0.561
 2875SOL    HW1 9524   4.521   6.828   0.565
 2875SOL    HW2 9525   4.439   6.948   0.640
 2876SOL     OW 9526   1.825   0.757   1.802
 2876SOL    HW1 9527   1.802   0.671   1.849
 2876SOL    HW2 9528   1.766   0.768   1.723
 2877SOL     OW 9529   3.203   2.602   5.329
 2877SOL    HW1 9530   3.173   2.512   5.298
 2877SOL    HW2 9531   3.222   2.599   5.427
 2878SOL     OW 9532   3.435   5.150   5.019
 2878SOL    HW1 9533   3.467   5.081   5.084
 2878SOL    HW2 9534   3.388   5.223   5.068
 2879SOL     OW 9535   5.630   4.980   0.383
 2879SOL    HW1 9536   5.581   5.067   0.395
 2879SOL    HW2 9537   5.603   4.938   0.297
 2880SOL     OW 9538   0.042   0.658   1.968
 2880SOL    HW1 9539   0.058   0.559   1.966
 2880SOL    HW2 9540   7.000   0.680   2.040
 2881SOL     OW 9541   5.495   6.033   7.015
 2881SOL    HW1 9542   5.443   6.066   6.936
 2881SOL    HW2 9543   5.438   5.972   0.045
 2882SOL     OW 9544   0.748   4.880   2.368
 2882SOL    HW1 9545   0.765   4.841   2.277
 2882SOL    HW2 9546   0.650   4.889   2.383
 2883SOL     OW 9547   5.583   0.172   3.170
 2883SOL    HW1 9548   5.594   0.074   3.150
 2883SOL    HW2 9549   5.490   0.200   3.148
 2884SOL     OW 9550   1.200   0.254   2.628
 2884SOL    HW1 9551   1.140   0.183   2.590
 2884SOL    HW2 9552   1.283   0.261   2.572
 2885SOL     OW 9553   0.989   3.330   3.601
 2885SOL    HW1 9554   0.934   3.393   3.656
 2885SOL    HW2 9555   0.962   3.338   3.505
 2886SOL     OW 9556   1.757   4.289   6.064
 2886SOL    HW1 9557   1.661   4.282   6.040
 2886SOL    HW2 9558   1.766   4.303   6.162
 2887SOL     OW 9559   0.317   0.680   5.056
 2887SOL    HW1 9560   0.317   0.588   5.017
 2887SOL    HW2 9561   0.265   0.741   4.997
 2888SOL     OW 9562   0.661   4.213   0.208
 2888SOL    HW1 9563   0.728   4.235   0.279
 2888SOL    HW2 9564   0.575   4.187   0.251
 2889SOL     OW 9565   2.105   6.289   2.542
 2889SOL    HW1 9566   2.118   6.202   2.495
 2889SOL    HW2 9567   2.154   6.362   2.494
 2890SOL     OW 9568   2.282   6.060   0.712
 2890SOL    HW1 9569   2.208   6.074   0.777
 2890SOL    HW2 9570   2.324   5.971   0.728
 2891SOL     OW 9571   1.072   4.369   3.701
 2891SOL    HW1 9572   1.068   4.279   3.657
 2891SOL    HW2 9573   0.980   4.404   3.716
 2892SOL     OW 9574   5.650   3.073   0.001
 2892SOL    HW1 9575   5.607   3.011   0.068
 2892SOL    HW2 9576   5.749   3.069   0.013
 2893SOL     OW 9577   6.871   6.303   4.684
 2893SOL    HW1 9578   6.964   6.323   4.655
 2893SOL    HW2 9579   6.871   6.219   4.739
 2894SOL     OW 9580   1.048   3.259   2.368
 2894SOL    HW1 9581   0.972   3.204   2.334
 2894SOL    HW2 9582   1.056   3.342   2.314
 2895SOL     OW 9583   5.148   2.689   5.532
 2895SOL    HW1 9584   5.236   2.736   5.536
 2895SOL    HW2 9585   5.153   2.604   5.585
 2896SOL     OW 9586   4.966   5.596   6.549
 2896SOL    HW1 9587   4.974   5.497   6.551
 2896SOL    HW2 9588   4.877   5.622   6.513
 2897SOL     OW 9589   4.205   5.049   3.029
 2897SOL    HW1 9590   4.195   5.135   3.079
 2897SOL    HW2 9591   4.301   5.036   3.003
 2898SOL     OW 9592   4.602   4.984   4.745
 2898SOL    HW1 9593   4.576   4.901   4.697
 2898SOL    HW2 9594   4.521   5.036   4.770
 2899SOL     OW 9595   1.342   1.411   0.299
 2899SOL    HW1 9596   1.340   1.447   0.206
 2899SOL    HW2 9597   1.435   1.418   0.335
 2900SOL     OW 9598   1.806   4.007   5.852
 2900SOL    HW1 9599   1.707   4.020   5.840
 2900SOL    HW2 9600   1.829   4.020   5.948
 2901SOL     OW 9601   2.972   5.437   3.642
 2901SOL    HW1 9602   2.909   5.385   3.583
 2901SOL    HW2 9603   3.043   5.376   3.677
 2902SOL     OW 9604   5.122   6.890   2.981
 2902SOL    HW1 9605   5.092   6.974   3.026
 2902SOL    HW2 9606   5.094   6.811   3.035
 2903SOL     OW 9607   3.121   0.655   0.786
 2903SOL    HW1 9608   3.137   0.685   0.880
 2903SOL    HW2 9609   3.208   0.651   0.737
 2904SOL     OW 9610   2.115   3.799   4.720
 2904SOL    HW1 9611   2.107   3.743   4.802
 2904SOL    HW2 9612   2.151   3.889   4.745
 2905SOL     OW 9613   1.664   2.663   4.714
 2905SOL    HW1 9614   1.752   2.641   4.754
 2905SOL    HW2 9615   1.671   2.662   4.614
 2906SOL     OW 9616   4.128   5.363   1.510
 2906SOL    HW1 9617   4.092   5.282   1.556
 2906SOL    HW2 9618   4.064   5.392   1.439
 2907SOL     OW 9619   0.534   1.143   3.322
 2907SOL    HW1 9620   0.579   1.230   3.302
 2907SOL    HW2 9621   0.575   1.070   3.267
 2908SOL     OW 9622   4.963   6.215   3.967
 2908SOL    HW1 9623   4.989   6.146   3.899
 2908SOL    HW2 9624   4.990   6.305   3.935
 2909SOL     OW 9625   1.381   5.600   3.737
 2909SOL    HW1 9626   1.475   5.599   3.703
 2909SOL    HW2 9627   1.371   5.672   3.806
 2910SOL     OW 9628   4.802   0.211   4.480
 2910SOL    HW1 9629   4.885   0.198   4.426
 2910SOL    HW2 9630   4.791   0.309   4.501
 2911SOL     OW 9631   0.760   5.198   3.645
 2911SOL    HW1 9632   0.842   5.193   3.587
 2911SOL    HW2 9633   0.704   5.117   3.631
 2912SOL     OW 9634   4.686   0.702   0.037
 2912SOL    HW1 9635   4.672   0.674   6.966
 2912SOL    HW2 9636   4.620   0.773   0.061
 2913SOL     OW 9637   2.739   4.792   2.693
 2913SOL    HW1 9638   2.749   4.838   2.605
 2913SOL    HW2 9639   2.822   4.807   2.747
 2914SOL     OW 9640   6.453   6.382   0.148
 2914SOL    HW1 9641   6.501   6.434   0.077
 2914SOL    HW2 9642   6.434   6.290   0.115
 2915SOL     OW 9643   5.403   2.106   3.689
 2915SOL    HW1 9644   5.478   2.059   3.736
 2915SOL    HW2 9645   5.409   2.204   3.708
 2916SOL     OW 9646   1.478   6.488   0.435
 2916SOL    HW1 9647   1.410   6.512   0.504
 2916SOL    HW2 9648   1.563   6.538   0.453
 2917SOL     OW 9649   2.915   6.902   3.391
 2917SOL    HW1 9650   2.951   6.815   3.425
 2917SOL    HW2 9651   2.816   6.893   3.375
 2918SOL     OW 9652   6.316   5.399   4.942
 2918SOL    HW1 9653   6.367   5.325   4.899
 2918SOL    HW2 9654   6.311   5.384   5.041
 2919SOL     OW 9655   6.907   0.954   2.392
 2919SOL    HW1 9656   6.988   0.966   2.335
 2919SOL    HW2 9657   6.933   0.958   2.489
 2920SOL     OW 9658   2.579   1.495   1.715
 2920SOL    HW1 9659   2.529   1.578   1.689
 2920SOL    HW2 9660   2.644   1.517   1.787
 2921SOL     OW 9661   0.969   0.224   4.038
 2921SOL    HW1 9662   0.893   0.225   3.974
 2921SOL    HW2 9663   0.968   0.139   4.090
 2922SOL     OW 9664   4.947   0.901   0.489
 2922SOL    HW1 9665   5.005   0.954   0.552
 2922SOL    HW2 9666   4.914   0.819   0.536
 2923SOL     OW 9667   6.557   5.170   2.244
 2923SOL    HW1 9668   6.460   5.158   2.223
 2923SOL    HW2 9669   6.607   5.191   2.161
 2924SOL     OW 9670   6.601   2.269   5.362
 2924SOL    HW1 9671   6.671   2.321   5.311
 2924SOL    HW2 9672   6.514   2.276   5.314
 2925SOL     OW 9673   4.651   1.051   2.334
 2925SOL    HW1 9674   4.730   1.089   2.286
 2925SOL    HW2 9675   4.595   0.998   2.270
 2926SOL     OW 9676   6.738   1.914   4.330
 2926SOL    HW1 9677   6.817   1.854   4.341
 2926SOL    HW2 9678   6.712   1.917   4.233
 2927SOL     OW 9679   1.150   3.252   1.965
 2927SOL    HW1 9680   1.126   3.202   1.882
 2927SOL    HW2 9681   1.202   3.193   2.026
 2928SOL     OW 9682   0.048   1.527   6.172
 2928SOL    HW1 9683   0.097   1.531   6.085
 2928SOL    HW2 9684   6.974   1.516   6.155
 2929SOL     OW 9685   0.058   2.237   6.698
 2929SOL    HW1 9686   0.014   2.269   6.614
 2929SOL    HW2 9687   0.103   2.314   6.744
 2930SOL     OW 9688   4.271   0.698   4.933
 2930SOL    HW1 9689   4.318   0.689   4.845
 2930SOL    HW2 9690   4.200   0.629   4.940
 2931SOL     OW 9691   5.357   4.798   0.481
 2931SOL    HW1 9692   5.409   4.727   0.433
 2931SOL    HW2 9693   5.360   4.883   0.428
 2932SOL     OW 9694   0.852   5.386   1.421
 2932SOL    HW1 9695   0.892   5.477   1.411
 2932SOL    HW2 9696   0.924   5.319   1.434
 2933SOL     OW 9697   6.983   4.895   2.899
 2933SOL    HW1 9698   6.922   4.951   2.843
 2933SOL    HW2 9699   0.045   4.943   2.912
 2934SOL     OW 9700   4.714   1.184   7.023
 2934SOL    HW1 9701   4.644   1.192   0.070
 2934SOL    HW2 9702   4.710   1.093   6.982
 2935SOL     OW 9703   6.067   3.238   0.236
 2935SOL    HW1 9704   6.005   3.316   0.239
 2935SOL    HW2 9705   6.061   3.186   0.321
 2936SOL     OW 9706   4.219   6.447   1.012
 2936SOL    HW1 9707   4.269   6.443   0.925
 2936SOL    HW2 9708   4.163   6.530   1.014
 2937SOL     OW 9709   4.792   4.806   0.452
 2937SOL    HW1 9710   4.846   4.723   0.463
 2937SOL    HW2 9711   4.728   4.795   0.376
 2938SOL     OW 9712   4.779   4.971   6.633
 2938SOL    HW1 9713   4.733   4.965   6.722
 2938SOL    HW2 9714   4.839   4.892   6.620
 2939SOL     OW 9715   0.878   1.216   3.109
 2939SOL    HW1 9716   0.782   1.241   3.108
 2939SOL    HW2 9717   0.928   1.270   3.041
 2940SOL     OW 9718   5.494   5.340   6.395
 2940SOL    HW1 9719   5.546   5.325   6.312
 2940SOL    HW2 9720   5.400   5.367   6.372
 2941SOL     OW 9721   1.991   2.704   4.473
 2941SOL    HW1 9722   1.907   2.650   4.474
 2941SOL    HW2 9723   1.982   2.779   4.408
 2942SOL     OW 9724   2.975   2.757   0.834
 2942SOL    HW1 9725   2.943   2.773   0.740
 2942SOL    HW2 9726   2.900   2.721   0.889
 2943SOL     OW 9727   4.602   4.643   3.380
 2943SOL    HW1 9728   4.664   4.639   3.459
 2943SOL    HW2 9729   4.555   4.731   3.379
 2944SOL     OW 9730   2.898   6.023   4.481
 2944SOL    HW1 9731   2.866   6.078   4.403
 2944SOL    HW2 9732   2.889   5.926   4.459
 2945SOL     OW 9733   3.585   4.146   3.985
 2945SOL    HW1 9734   3.522   4.184   4.053
 2945SOL    HW2 9735   3.662   4.102   4.033
 2946SOL     OW 9736   0.937   5.026   6.066
 2946SOL    HW1 9737   0.917   5.056   6.160
 2946SOL    HW2 9738   1.036   5.014   6.056
 2947SOL     OW 9739   0.336   3.762   0.907
 2947SOL    HW1 9740   0.332   3.675   0.955
 2947SOL    HW2 9741   0.375   3.748   0.815
 2948SOL     OW 9742   0.935   4.312   5.715
 2948SOL    HW1 9743   0.996   4.370   5.769
 2948SOL    HW2 9744   0.917   4.227   5.763
 2949SOL     OW 9745   3.209   5.271   1.042
 2949SOL    HW1 9746   3.222   5.332   1.120
 2949SOL    HW2 9747   3.284   5.283   0.977
 2950SOL     OW 9748   5.029   4.203   4.434
 2950SOL    HW1 9749   4.961   4.137   4.403
 2950SOL    HW2 9750   5.062   4.178   4.525
 2951SOL     OW 9751   5.856   1.566   0.984
 2951SOL    HW1 9752   5.768   1.579   0.938
 2951SOL    HW2 9753   5.930   1.588   0.920
 2952SOL     OW 9754   0.925   5.300   5.178
 2952SOL    HW1 9755   0.855   5.371   5.168
 2952SOL    HW2 9756   0.899   5.220   5.122
 2953SOL     OW 9757   5.324   3.052   2.359
 2953SOL    HW1 9758   5.349   3.071   2.454
 2953SOL    HW2 9759   5.265   2.972   2.356
 2954SOL     OW 9760   0.189   5.483   2.026
 2954SOL    HW1 9761   0.223   5.561   2.078
 2954SOL    HW2 9762   0.158   5.412   2.089
 2955SOL     OW 9763   0.786   4.188   1.632
 2955SOL    HW1 9764   0.764   4.186   1.534
 2955SOL    HW2 9765   0.754   4.105   1.676
 2956SOL     OW 9766   5.584   6.345   3.402
 2956SOL    HW1 9767   5.609   6.265   3.457
 2956SOL    HW2 9768   5.657   6.413   3.408
 2957SOL     OW 9769   6.069   2.973   1.241
 2957SOL    HW1 9770   5.971   2.959   1.254
 2957SOL    HW2 9771   6.119   2.933   1.318
 2958SOL     OW 9772   2.084   5.151   3.870
 2958SOL    HW1 9773   2.082   5.130   3.968
 2958SOL    HW2 9774   1.997   5.193   3.844
 2959SOL     OW 9775   4.960   4.035   0.560
 2959SOL    HW1 9776   4.939   4.129   0.534
 2959SOL    HW2 9777   4.990   3.984   0.480
 2960SOL     OW 9778   3.297   0.793   6.810
 2960SOL    HW1 9779   3.228   0.861   6.785
 2960SOL    HW2 9780   3.263   0.702   6.790
 2961SOL     OW 9781   4.898   3.344   3.159
 2961SOL    HW1 9782   4.962   3.343   3.082
 2961SOL    HW2 9783   4.889   3.437   3.193
 2962SOL     OW 9784   4.567   0.598   3.172
 2962SOL    HW1 9785   4.559   0.695   3.146
 2962SOL    HW2 9786   4.506   0.543   3.114
 2963SOL     OW 9787   2.187   0.469   6.492
 2963SOL    HW1 9788   2.094   0.472   6.528
 2963SOL    HW2 9789   2.185   0.439   6.397
 2964SOL     OW 9790   0.899   0.795   2.875
 2964SOL    HW1 9791   0.856   0.880   2.905
 2964SOL    HW2 9792   0.847   0.717   2.911
 2965SOL     OW 9793   6.685   2.200   4.605
 2965SOL    HW1 9794   6.594   2.227   4.635
 2965SOL    HW2 9795   6.739   2.171   4.683
 2966SOL     OW 9796   5.491   6.332   4.099
 2966SOL    HW1 9797   5.517   6.272   4.024
 2966SOL    HW2 9798   5.428   6.284   4.160
 2967SOL     OW 9799   6.180   0.530   4.769
 2967SOL    HW1 9800   6.216   0.554   4.859
 2967SOL    HW2 9801   6.252   0.483   4.717
 2968SOL     OW 9802   0.954   3.606   6.283
 2968SOL    HW1 9803   0.866   3.631   6.242
 2968SOL    HW2 9804   0.963   3.506   6.284
 2969SOL     OW 9805   5.249   1.365   3.846
 2969SOL    HW1 9806   5.215   1.315   3.767
 2969SOL    HW2 9807   5.172   1.402   3.898
 2970SOL     OW 9808   1.762   5.143   6.096
 2970SOL    HW1 9809   1.778   5.044   6.100
 2970SOL    HW2 9810   1.830   5.185   6.035
 2971SOL     OW 9811   4.849   4.108   0.279
 2971SOL    HW1 9812   4.863   4.197   0.235
 2971SOL    HW2 9813   4.776   4.116   0.347
 2972SOL     OW 9814   6.324   4.785   6.443
 2972SOL    HW1 9815   6.346   4.699   6.489
 2972SOL    HW2 9816   6.226   4.787   6.421
 2973SOL     OW 9817   5.456   6.953   2.831
 2973SOL    HW1 9818   5.468   0.028   2.828
 2973SOL    HW2 9819   5.512   6.911   2.760
 2974SOL     OW 9820   0.618   4.702   2.838
 2974SOL    HW1 9821   0.667   4.753   2.767
 2974SOL    HW2 9822   0.607   4.607   2.809
 2975SOL     OW 9823   5.692   3.263   4.654
 2975SOL    HW1 9824   5.763   3.250   4.585
 2975SOL    HW2 9825   5.617   3.199   4.637
 2976SOL     OW 9826   3.883   2.158   3.487
 2976SOL    HW1 9827   3.790   2.124   3.499
 2976SOL    HW2 9828   3.908   2.153   3.390
 2977SOL     OW 9829   2.584   6.778   3.368
 2977SOL    HW1 9830   2.601   6.876   3.381
 2977SOL    HW2 9831   2.632   6.747   3.286
 2978SOL     OW 9832   4.934   4.323   0.149
 2978SOL    HW1 9833   5.031   4.316   0.173
 2978SOL    HW2 9834   4.905   4.419   0.154
 2979SOL     OW 9835   3.733   0.777   3.956
 2979SOL    HW1 9836   3.769   0.821   4.039
 2979SOL    HW2 9837   3.707   0.683   3.978
 2980SOL     OW 9838   1.358   6.118   4.172
 2980SOL    HW1 9839   1.367   6.208   4.214
 2980SOL    HW2 9840   1.274   6.075   4.204
 2981SOL     OW 9841   2.095   0.920   5.808
 2981SOL    HW1 9842   2.137   0.896   5.720
 2981SOL    HW2 9843   2.160   0.976   5.861
 2982SOL     OW 9844   4.266   5.439   2.984
 2982SOL    HW1 9845   4.264   5.387   3.070
 2982SOL    HW2 9846   4.333   5.398   2.922
 2983SOL     OW 9847   0.702   1.560   3.154
 2983SOL    HW1 9848   0.763   1.585   3.229
 2983SOL    HW2 9849   0.618   1.614   3.160
 2984SOL     OW 9850   5.427   5.694   1.668
 2984SOL    HW1 9851   5.369   5.634   1.723
 2984SOL    HW2 9852   5.420   5.669   1.571
 2985SOL     OW 9853   1.369   2.520   6.060
 2985SOL    HW1 9854   1.395   2.424   6.056
 2985SOL    HW2 9855   1.319   2.545   5.977
 2986SOL     OW 9856   3.232   4.126   4.942
 2986SOL    HW1 9857   3.184   4.207   4.974
 2986SOL    HW2 9858   3.169   4.048   4.939
 2987SOL     OW 9859   6.263   1.483   4.220
 2987SOL    HW1 9860   6.319   1.490   4.137
 2987SOL    HW2 9861   6.318   1.447   4.295
 2988SOL     OW 9862   1.053   5.926   2.925
 2988SOL    HW1 9863   1.131   5.882   2.880
 2988SOL    HW2 9864   1.083   5.965   3.012
 2989SOL     OW 9865   6.562   5.962   6.496
 2989SOL    HW1 9866   6.614   5.935   6.415
 2989SOL    HW2 9867   6.529   6.055   6.485
 2990SOL     OW 9868   3.900   1.961   4.656
 2990SOL    HW1 9869   3.970   1.890   4.663
 2990SOL    HW2 9870   3.826   1.943   4.720
 2991SOL     OW 9871   6.646   4.461   5.447
 2991SOL    HW1 9872   6.703   4.446   5.527
 2991SOL    HW2 9873   6.555   4.490   5.476
 2992SOL     OW 9874   2.802   5.908   4.945
 2992SOL    HW1 9875   2.787   5.829   4.885
 2992SOL    HW2 9876   2.890   5.949   4.924
 2993SOL     OW 9877   0.333   5.335   1.170
 2993SOL    HW1 9878   0.411   5.395   1.151
 2993SOL    HW2 9879   0.270   5.381   1.232
 2994SOL     OW 9880   4.176   6.795   6.966
 2994SOL    HW1 9881   4.201   6.820   0.035
 2994SOL    HW2 9882   4.208   6.702   6.946
 2995SOL     OW 9883   2.806   2.587   6.165
 2995SOL    HW1 9884   2.840   2.671   6.206
 2995SOL    HW2 9885   2.795   2.516   6.235
 2996SOL     OW 9886   1.787   0.971   3.099
 2996SOL    HW1 9887   1.883   1.000   3.096
 2996SOL    HW2 9888   1.729   1.043   3.063
 2997SOL     OW 9889   5.785   0.551   2.607
 2997SOL    HW1 9890   5.756   0.633   2.658
 2997SOL    HW2 9891   5.769   0.565   2.510
 2998SOL     OW 9892   4.191   0.216   4.491
 2998SOL    HW1 9893   4.223   0.147   4.426
 2998SOL    HW2 9894   4.252   0.295   4.489
 2999SOL     OW 9895   3.136   4.926   4.890
 2999SOL    HW1 9896   3.206   4.952   4.824
 2999SOL    HW2 9897   3.179   4.893   4.974
 3000SOL     OW 9898   2.591   3.454   6.769
 3000SOL    HW1 9899   2.507   3.404   6.749
 3000SOL    HW2 9900   2.668   3.390   6.767
 3001SOL     OW 9901   5.363   6.945   6.465
 3001SOL    HW1 9902   5.264   6.935   6.473
 3001SOL    HW2 9903   5.392   0.001   6.518
 3002SOL     OW 9904   3.710   0.933   0.220
 3002SOL    HW1 9905   3.689   0.855   0.279
 3002SOL    HW2 9906   3.785   0.985   0.260
 3003SOL     OW 9907   1.706   6.144   0.138
 3003SOL    HW1 9908   1.659   6.178   0.219
 3003SOL    HW2 9909   1.794   6.105   0.164
 3004SOL     OW 9910   1.157   4.609   2.859
 3004SOL    HW1 9911   1.070   4.640   2.896
 3004SOL    HW2 9912   1.167   4.510   2.874
 3005SOL     OW 9913   3.205   1.927   0.247
 3005SOL    HW1 9914   3.297   1.933   0.207
 3005SOL    HW2 9915   3.192   2.002   0.312
 3006SOL     OW 9916   5.007   1.554   5.527
 3006SOL    HW1 9917   4.953   1.632   5.558
 3006SOL    HW2 9918   5.103   1.568   5.552
 3007SOL     OW 9919   5.635   5.371   1.483
 3007SOL    HW1 9920   5.601   5.278   1.468
 3007SOL    HW2 9921   5.717   5.385   1.428
 3008SOL     OW 9922   3.884   1.930   6.024
 3008SOL    HW1 9923   3.907   2.027   6.012
 3008SOL    HW2 9924   3.855   1.913   6.118
 3009SOL     OW 9925   0.475   1.541   2.767
 3009SOL    HW1 9926   0.481   1.570   2.863
 3009SOL    HW2 9927   0.543   1.469   2.750
 3010SOL     OW 9928   3.901   5.600   3.284
 3010SOL    HW1 9929   3.989   5.559   3.310
 3010SOL    HW2 9930   3.846   5.531   3.236
 3011SOL     OW 9931   5.872   1.881   1.370
 3011SOL    HW1 9932   5.897   1.788   1.341
 3011SOL    HW2 9933   5.914   1.901   1.459
 3012SOL     OW 9934   1.184   3.967   5.938
 3012SOL    HW1 9935   1.246   3.889   5.931
 3012SOL    HW2 9936   1.236   4.052   5.928
 3013SOL     OW 9937   5.684   6.217   5.185
 3013SOL    HW1 9938   5.767   6.241   5.136
 3013SOL    HW2 9939   5.624   6.297   5.190
 3014SOL     OW 9940   4.689   2.488   4.595
 3014SOL    HW1 9941   4.690   2.582   4.630
 3014SOL    HW2 9942   4.629   2.483   4.515
 3015SOL     OW 9943   3.292   1.711   0.638
 3015SOL    HW1 9944   3.236   1.791   0.660
 3015SOL    HW2 9945   3.285   1.692   0.540
 3016SOL     OW 9946   2.431   5.861   3.815
 3016SOL    HW1 9947   2.372   5.873   3.895
 3016SOL    HW2 9948   2.463   5.951   3.784
 3017SOL     OW 9949   6.496   4.750   2.385
 3017SOL    HW1 9950   6.544   4.776   2.301
 3017SOL    HW2 9951   6.563   4.728   2.456
 3018SOL     OW 9952   3.321   6.050   5.873
 3018SOL    HW1 9953   3.320   5.985   5.798
 3018SOL    HW2 9954   3.227   6.062   5.907
 3019SOL     OW 9955   0.610   0.051   6.721
 3019SOL    HW1 9956   0.526   7.023   6.735
 3019SOL    HW2 9957   0.590   0.134   6.669
 3020SOL     OW 9958   4.120   3.003   1.667
 3020SOL    HW1 9959   4.135   2.904   1.669
 3020SOL    HW2 9960   4.184   3.045   1.603
 3021SOL     OW 9961   3.246   6.578   6.585
 3021SOL    HW1 9962   3.199   6.568   6.497
 3021SOL    HW2 9963   3.185   6.549   6.659
 3022SOL     OW 9964   3.653   5.614   4.057
 3022SOL    HW1 9965   3.673   5.554   3.979
 3022SOL    HW2 9966   3.630   5.706   4.023
 3023SOL     OW 9967   4.017   0.664   3.033
 3023SOL    HW1 9968   3.983   0.706   2.949
 3023SOL    HW2 9969   4.010   0.730   3.108
 3024SOL     OW 9970   4.267   6.739   5.200
 3024SOL    HW1 9971   4.345   6.741   5.136
 3024SOL    HW2 9972   4.281   6.808   5.271
 3025SOL     OW 9973   3.198   1.126   0.380
 3025SOL    HW1 9974   3.130   1.197   0.359
 3025SOL    HW2 9975   3.171   1.077   0.462
 3026SOL     OW 9976   1.344   0.504   0.564
 3026SOL    HW1 9977   1.385   0.590   0.533
 3026SOL    HW2 9978   1.406   0.428   0.547
 3027SOL     OW 9979   3.711   0.282   3.045
 3027SOL    HW1 9980   3.737   0.329   3.130
 3027SOL    HW2 9981   3.750   0.331   2.967
 3028SOL     OW 9982   1.249   4.026   5.593
 3028SOL    HW1 9983   1.233   3.931   5.621
 3028SOL    HW2 9984   1.309   4.027   5.513
 3029SOL     OW 9985   0.086   2.788   4.711
 3029SOL    HW1 9986   0.046   2.716   4.768
 3029SOL    HW2 9987   0.079   2.763   4.615
 3030SOL     OW 9988   0.494   3.235   6.516
 3030SOL    HW1 9989   0.435   3.168   6.561
 3030SOL    HW2 9990   0.480   3.325   6.557
 3031SOL     OW 9991   0.372   3.764   0.295
 3031SOL    HW1 9992   0.296   3.790   0.236
 3031SOL    HW2 9993   0.454   3.749   0.240
 3032SOL     OW 9994   3.719   6.957   1.317
 3032SOL    HW1 9995   3.705   0.031   1.317
 3032SOL    HW2 9996   3.745   6.927   1.409
 3033SOL     OW 9997   6.156   2.075   2.010
 3033SOL    HW1 9998   6.150   2.168   2.046
 3033SOL    HW2 9999   6.240   2.065   1.956
 3034SOL     OW10000   1.457   5.871   3.013
 3034SOL    HW110001   1.433   5.951   3.068
 3034SOL    HW210002   1.447   5.789   3.068
 3035SOL     OW10003   0.732   3.196   6.796
 3035SOL    HW110004   0.726   3.181   6.697
 3035SOL    HW210005   0.820   3.162   6.829
 3036SOL     OW10006   1.787   1.501   6.495
 3036SOL    HW110007   1.755   1.407   6.499
 3036SOL    HW210008   1.869   1.506   6.438
 3037SOL     OW10009   6.402   5.445   5.676
 3037SOL    HW110010   6.488   5.494   5.689
 3037SOL    HW210011   6.326   5.505   5.701
 3038SOL     OW10012   5.791   6.440   6.366
 3038SOL    HW110013   5.881   6.474   6.337
 3038SOL    HW210014   5.753   6.382   6.294
 3039SOL     OW10015   0.155   3.929   0.755
 3039SOL    HW110016   0.225   3.879   0.807
 3039SOL    HW210017   0.108   3.992   0.816
 3040SOL     OW10018   3.815   3.271   6.417
 3040SOL    HW110019   3.879   3.302   6.346
 3040SOL    HW210020   3.754   3.347   6.442
 3041SOL     OW10021   2.336   2.799   4.075
 3041SOL    HW110022   2.314   2.719   4.131
 3041SOL    HW210023   2.365   2.874   4.134
 3042SOL     OW10024   4.120   5.994   1.897
 3042SOL    HW110025   4.150   5.899   1.888
 3042SOL    HW210026   4.148   6.046   1.816
 3043SOL     OW10027   2.508   5.010   1.569
 3043SOL    HW110028   2.526   5.011   1.667
 3043SOL    HW210029   2.481   5.101   1.539
 3044SOL     OW10030   3.847   3.738   5.807
 3044SOL    HW110031   3.927   3.727   5.748
 3044SOL    HW210032   3.865   3.694   5.895
 3045SOL     OW10033   4.872   0.775   3.002
 3045SOL    HW110034   4.832   0.690   2.968
 3045SOL    HW210035   4.932   0.755   3.080
 3046SOL     OW10036   2.106   0.856   6.409
 3046SOL    HW110037   2.122   0.804   6.325
 3046SOL    HW210038   2.012   0.842   6.441
 3047SOL     OW10039   5.674   0.914   1.968
 3047SOL    HW110040   5.753   0.868   2.009
 3047SOL    HW210041   5.674   0.898   1.869
 3048SOL     OW10042   3.877   2.178   1.757
 3048SOL    HW110043   3.811   2.233   1.810
 3048SOL    HW210044   3.854   2.185   1.660
 3049SOL     OW10045   1.355   6.290   2.298
 3049SOL    HW110046   1.359   6.334   2.208
 3049SOL    HW210047   1.335   6.193   2.287
 3050SOL     OW10048   3.180   1.227   1.846
 3050SOL    HW110049   3.213   1.294   1.912
 3050SOL    HW210050   3.203   1.256   1.753
 3051SOL     OW10051   2.219   3.909   0.267
 3051SOL    HW110052   2.220   3.919   0.367
 3051SOL    HW210053   2.162   3.980   0.227
 3052SOL     OW10054   5.511   0.158   1.680
 3052SOL    HW110055   5.470   0.243   1.646
 3052SOL    HW210056   5.456   0.080   1.649
 3053SOL     OW10057   0.116   1.687   6.697
 3053SOL    HW110058   0.045   1.754   6.675
 3053SOL    HW210059   0.198   1.706   6.643
 3054SOL     OW10060   6.567   1.984   0.411
 3054SOL    HW110061   6.470   1.964   0.395
 3054SOL    HW210062   6.623   1.908   0.381
 3055SOL     OW10063   4.943   0.232   4.109
 3055SOL    HW110064   5.009   0.289   4.158
 3055SOL    HW210065   4.909   0.161   4.170
 3056SOL     OW10066   6.006   0.299   4.685
 3056SOL    HW110067   5.946   0.284   4.763
 3056SOL    HW210068   6.046   0.390   4.690
 3057SOL     OW10069   4.097   5.992   2.695
 3057SOL    HW110070   4.046   6.018   2.776
 3057SOL    HW210071   4.190   6.027   2.700
 3058SOL     OW10072   0.482   5.091   1.239
 3058SOL    HW110073   0.436   5.173   1.204
 3058SOL    HW210074   0.579   5.111   1.254
 3059SOL     OW10075   2.462   2.301   4.304
 3059SOL    HW110076   2.523   2.224   4.282
 3059SOL    HW210077   2.398   2.315   4.228
 3060SOL     OW10078   0.696   5.445   0.178
 3060SOL    HW110079   0.596   5.451   0.179
 3060SOL    HW210080   0.728   5.434   0.084
 3061SOL     OW10081   0.168   6.964   5.244
 3061SOL    HW110082   0.236   7.023   5.201
 3061SOL    HW210083   0.196   6.868   5.235
 3062SOL     OW10084   1.773   6.957   6.908
 3062SOL    HW110085   1.736   6.868   6.933
 3062SOL    HW210086   1.728   6.991   6.825
 3063SOL     OW10087   2.842   5.048   1.999
 3063SOL    HW110088   2.799   4.994   1.927
 3063SOL    HW210089   2.771   5.082   2.061
 3064SOL     OW10090   5.829   4.286   3.161
 3064SOL    HW110091   5.867   4.339   3.236
 3064SOL    HW210092   5.877   4.307   3.076
 3065SOL     OW10093   2.520   0.828   0.522
 3065SOL    HW110094   2.613   0.847   0.554
 3065SOL    HW210095   2.517   0.736   0.482
 3066SOL     OW10096   5.165   5.243   0.838
 3066SOL    HW110097   5.204   5.274   0.924
 3066SOL    HW210098   5.154   5.143   0.840
 3067SOL     OW10099   3.893   2.331   5.235
 3067SOL    HW110100   3.869   2.308   5.140
 3067SOL    HW210101   3.866   2.255   5.295
 3068SOL     OW10102   6.313   6.992   1.421
 3068SOL    HW110103   6.222   6.950   1.424
 3068SOL    HW210104   6.370   6.943   1.355
 3069SOL     OW10105   6.540   6.060   1.601
 3069SOL    HW110106   6.482   6.058   1.520
 3069SOL    HW210107   6.483   6.073   1.682
 3070SOL     OW10108   2.039   1.806   0.839
 3070SOL    HW110109   2.031   1.763   0.749
 3070SOL    HW210110   2.081   1.896   0.829
 3071SOL     OW10111   5.842   6.503   3.375
 3071SOL    HW110112   5.861   6.601   3.375
 3071SOL    HW210113   5.923   6.453   3.345
 3072SOL     OW10114   1.598   6.247   0.395
 3072SOL    HW110115   1.541   6.321   0.431
 3072SOL    HW210116   1.690   6.254   0.433
 3073SOL     OW10117   6.312   3.209   4.044
 3073SOL    HW110118   6.386   3.262   4.003
 3073SOL    HW210119   6.324   3.208   4.143
 3074SOL     OW10120   6.004   3.732   1.387
 3074SOL    HW110121   6.049   3.654   1.431
 3074SOL    HW210122   6.035   3.739   1.292
 3075SOL     OW10123   2.902   6.063   1.829
 3075SOL    HW110124   2.890   6.103   1.920
 3075SOL    HW210125   2.838   5.988   1.817
 3076SOL     OW10126   6.944   0.297   4.688
 3076SOL    HW110127   7.024   0.242   4.664
 3076SOL    HW210128   6.864   0.264   4.637
 3077SOL     OW10129   4.720   5.816   2.278
 3077SOL    HW110130   4.702   5.719   2.290
 3077SOL    HW210131   4.639   5.860   2.238
 3078SOL     OW10132   0.395   2.850   1.995
 3078SOL    HW110133   0.493   2.834   2.000
 3078SOL    HW210134   0.356   2.851   2.087
 3079SOL     OW10135   2.431   2.605   3.659
 3079SOL    HW110136   2.468   2.588   3.568
 3079SOL    HW210137   2.481   2.550   3.726
 3080SOL     OW10138   4.860   3.845   3.233
 3080SOL    HW110139   4.792   3.907   3.272
 3080SOL    HW210140   4.922   3.896   3.174
 3081SOL     OW10141   0.292   2.635   5.660
 3081SOL    HW110142   0.352   2.571   5.611
 3081SOL    HW210143   0.347   2.707   5.702
 3082SOL     OW10144   2.868   6.312   3.856
 3082SOL    HW110145   2.796   6.272   3.913
 3082SOL    HW210146   2.883   6.407   3.884
 3083SOL     OW10147   3.884   5.694   3.555
 3083SOL    HW110148   3.883   5.646   3.468
 3083SOL    HW210149   3.796   5.741   3.568
 3084SOL     OW10150   5.967   4.032   4.801
 3084SOL    HW110151   6.011   4.023   4.890
 3084SOL    HW210152   6.026   3.993   4.730
 3085SOL     OW10153   6.279   4.208   1.255
 3085SOL    HW110154   6.315   4.175   1.168
 3085SOL    HW210155   6.229   4.134   1.301
 3086SOL     OW10156   4.655   1.500   1.455
 3086SOL    HW110157   4.560   1.529   1.445
 3086SOL    HW210158   4.660   1.400   1.456
 3087SOL     OW10159   0.344   5.517   3.761
 3087SOL    HW110160   0.327   5.471   3.674
 3087SOL    HW210161   0.300   5.465   3.835
 3088SOL     OW10162   1.668   4.654   5.075
 3088SOL    HW110163   1.679   4.713   5.155
 3088SOL    HW210164   1.755   4.609   5.054
 3089SOL     OW10165   1.268   3.577   6.690
 3089SOL    HW110166   1.254   3.481   6.715
 3089SOL    HW210167   1.179   3.624   6.687
 3090SOL     OW10168   2.215   2.045   1.739
 3090SOL    HW110169   2.244   2.140   1.732
 3090SOL    HW210170   2.294   1.986   1.754
 3091SOL     OW10171   1.812   1.150   0.780
 3091SOL    HW110172   1.835   1.234   0.829
 3091SOL    HW210173   1.835   1.161   0.683
 3092SOL     OW10174   4.927   0.613   0.169
 3092SOL    HW110175   4.831   0.640   0.161
 3092SOL    HW210176   4.954   0.562   0.087
 3093SOL     OW10177   5.694   6.691   5.682
 3093SOL    HW110178   5.703   6.700   5.583
 3093SOL    HW210179   5.749   6.762   5.727
 3094SOL     OW10180   2.002   6.860   4.084
 3094SOL    HW110181   1.993   6.947   4.133
 3094SOL    HW210182   1.915   6.812   4.085
 3095SOL     OW10183   1.813   5.101   5.526
 3095SOL    HW110184   1.906   5.070   5.544
 3095SOL    HW210185   1.811   5.201   5.525
 3096SOL     OW10186   1.538   6.116   5.031
 3096SOL    HW110187   1.609   6.046   5.035
 3096SOL    HW210188   1.564   6.186   4.964
 3097SOL     OW10189   6.361   2.162   6.943
 3097SOL    HW110190   6.275   2.139   6.897
 3097SOL    HW210191   6.349   2.149   0.018
 3098SOL     OW10192   2.906   3.187   0.885
 3098SOL    HW110193   2.829   3.240   0.920
 3098SOL    HW210194   2.910   3.098   0.931
 3099SOL     OW10195   0.855   6.732   2.853
 3099SOL    HW110196   0.860   6.719   2.754
 3099SOL    HW210197   0.789   6.804   2.874
 3100SOL     OW10198   6.368   6.024   4.201
 3100SOL    HW110199   6.388   5.929   4.225
 3100SOL    HW210200   6.359   6.078   4.284
 3101SOL     OW10201   5.469   6.710   6.414
 3101SOL    HW110202   5.421   6.798   6.416
 3101SOL    HW210203   5.560   6.723   6.375
 3102SOL     OW10204   6.988   5.091   1.880
 3102SOL    HW110205   6.998   5.177   1.830
 3102SOL    HW210206   0.016   5.096   1.965
 3103SOL     OW10207   4.187   0.422   2.513
 3103SOL    HW110208   4.128   0.500   2.494
 3103SOL    HW210209   4.184   0.359   2.435
 3104SOL     OW10210   5.149   0.455   4.821
 3104SOL    HW110211   5.184   0.361   4.819
 3104SOL    HW210212   5.157   0.491   4.914
 3105SOL     OW10213   6.056   4.860   1.586
 3105SOL    HW110214   5.963   4.823   1.587
 3105SOL    HW210215   6.120   4.790   1.616
 3106SOL     OW10216   6.616   1.411   3.102
 3106SOL    HW110217   6.591   1.463   3.183
 3106SOL    HW210218   6.707   1.439   3.071
 3107SOL     OW10219   4.419   1.184   4.806
 3107SOL    HW110220   4.406   1.154   4.900
 3107SOL    HW210221   4.367   1.125   4.744
 3108SOL     OW10222   1.192   6.268   4.374
 3108SOL    HW110223   1.181   6.314   4.286
 3108SOL    HW210224   1.287   6.238   4.384
 3109SOL     OW10225   6.049   6.170   3.002
 3109SOL    HW110226   5.976   6.116   2.962
 3109SOL    HW210227   6.017   6.264   3.016
 3110SOL     OW10228   1.713   2.122   3.069
 3110SOL    HW110229   1.690   2.025   3.068
 3110SOL    HW210230   1.680   2.165   2.985
 3111SOL     OW10231   6.503   5.564   3.906
 3111SOL    HW110232   6.594   5.604   3.915
 3111SOL    HW210233   6.511   5.468   3.878
 3112SOL     OW10234   5.289   2.358   6.614
 3112SOL    HW110235   5.338   2.427   6.667
 3112SOL    HW210236   5.236   2.402   6.541
 3113SOL     OW10237   2.590   5.867   3.546
 3113SOL    HW110238   2.587   5.770   3.566
 3113SOL    HW210239   2.512   5.892   3.488
 3114SOL     OW10240   4.265   1.611   0.955
 3114SOL    HW110241   4.325   1.533   0.939
 3114SOL    HW210242   4.178   1.580   0.993
 3115SOL     OW10243   4.065   3.452   6.684
 3115SOL    HW110244   4.053   3.458   6.784
 3115SOL    HW210245   4.028   3.365   6.651
 3116SOL     OW10246   0.904   2.973   6.615
 3116SOL    HW110247   0.837   2.912   6.572
 3116SOL    HW210248   0.914   3.056   6.560
 3117SOL     OW10249   4.520   3.693   5.314
 3117SOL    HW110250   4.556   3.665   5.404
 3117SOL    HW210251   4.575   3.650   5.242
 3118SOL     OW10252   0.458   5.396   2.024
 3118SOL    HW110253   0.358   5.398   2.016
 3118SOL    HW210254   0.494   5.320   1.970
 3119SOL     OW10255   1.729   3.455   5.950
 3119SOL    HW110256   1.715   3.359   5.972
 3119SOL    HW210257   1.827   3.473   5.940
 3120SOL     OW10258   3.019   6.474   4.769
 3120SOL    HW110259   2.959   6.504   4.695
 3120SOL    HW210260   2.975   6.493   4.857
 3121SOL     OW10261   0.315   1.066   3.783
 3121SOL    HW110262   0.328   1.071   3.684
 3121SOL    HW210263   0.242   1.001   3.804
 3122SOL     OW10264   3.694   6.632   6.107
 3122SOL    HW110265   3.717   6.624   6.010
 3122SOL    HW210266   3.758   6.694   6.151
 3123SOL     OW10267   3.372   1.517   4.094
 3123SOL    HW110268   3.421   1.442   4.048
 3123SOL    HW210269   3.411   1.604   4.066
 3124SOL     OW10270   3.695   0.163   4.731
 3124SOL    HW110271   3.768   0.221   4.693
 3124SOL    HW210272   3.691   0.175   4.830
 3125SOL     OW10273   6.708   2.528   4.851
 3125SOL    HW110274   6.618   2.492   4.873
 3125SOL    HW210275   6.701   2.589   4.772
 3126SOL     OW10276   5.235   5.066   5.681
 3126SOL    HW110277   5.164   5.000   5.707
 3126SOL    HW210278   5.214   5.103   5.590
 3127SOL     OW10279   1.410   3.154   4.321
 3127SOL    HW110280   1.438   3.076   4.377
 3127SOL    HW210281   1.470   3.160   4.241
 3128SOL     OW10282   2.666   0.563   6.443
 3128SOL    HW110283   2.645   0.497   6.515
 3128SOL    HW210284   2.703   0.515   6.364
 3129SOL     OW10285   6.516   3.860   6.297
 3129SOL    HW110286   6.497   3.771   6.254
 3129SOL    HW210287   6.493   3.855   6.394
 3130SOL     OW10288   2.038   4.009   1.747
 3130SOL    HW110289   1.953   3.960   1.768
 3130SOL    HW210290   2.073   4.052   1.830
 3131SOL     OW10291   6.901   2.236   1.333
 3131SOL    HW110292   6.959   2.303   1.285
 3131SOL    HW210293   6.952   2.198   1.410
 3132SOL     OW10294   4.431   5.380   5.975
 3132SOL    HW110295   4.477   5.382   6.063
 3132SOL    HW210296   4.414   5.285   5.949
 3133SOL     OW10297   3.412   1.687   4.546
 3133SOL    HW110298   3.364   1.605   4.575
 3133SOL    HW210299   3.478   1.664   4.475
 3134SOL     OW10300   4.769   3.933   1.506
 3134SOL    HW110301   4.803   3.936   1.600
 3134SOL    HW210302   4.686   3.878   1.502
 3135SOL     OW10303   4.952   0.668   5.668
 3135SOL    HW110304   5.008   0.595   5.629
 3135SOL    HW210305   4.955   0.664   5.767
 3136SOL     OW10306   5.427   0.857   0.805
 3136SOL    HW110307   5.399   0.780   0.747
 3136SOL    HW210308   5.450   0.824   0.896
 3137SOL     OW10309   6.601   0.896   3.334
 3137SOL    HW110310   6.552   0.826   3.281
 3137SOL    HW210311   6.648   0.958   3.272
 3138SOL     OW10312   6.409   4.015   4.268
 3138SOL    HW110313   6.379   3.957   4.192
 3138SOL    HW210314   6.473   4.084   4.234
 3139SOL     OW10315   5.158   6.343   0.515
 3139SOL    HW110316   5.101   6.269   0.480
 3139SOL    HW210317   5.197   6.394   0.438
 3140SOL     OW10318   5.692   0.145   6.942
 3140SOL    HW110319   5.692   0.220   6.875
 3140SOL    HW210320   5.694   0.058   6.893
 3141SOL     OW10321   6.918   6.170   6.684
 3141SOL    HW110322   6.967   6.091   6.721
 3141SOL    HW210323   6.959   6.197   6.597
 3142SOL     OW10324   3.194   6.743   2.154
 3142SOL    HW110325   3.171   6.767   2.248
 3142SOL    HW210326   3.172   6.820   2.094
 3143SOL     OW10327   6.735   1.736   6.540
 3143SOL    HW110328   6.751   1.814   6.601
 3143SOL    HW210329   6.809   1.731   6.472
 3144SOL     OW10330   4.626   3.947   1.810
 3144SOL    HW110331   4.594   4.041   1.824
 3144SOL    HW210332   4.561   3.899   1.752
 3145SOL     OW10333   2.451   5.976   1.348
 3145SOL    HW110334   2.361   6.016   1.360
 3145SOL    HW210335   2.521   6.045   1.367
 3146SOL     OW10336   1.100   6.861   3.193
 3146SOL    HW110337   1.198   6.853   3.174
 3146SOL    HW210338   1.063   6.771   3.215
 3147SOL     OW10339   3.668   4.999   0.581
 3147SOL    HW110340   3.757   4.997   0.626
 3147SOL    HW210341   3.663   4.926   0.513
 3148SOL     OW10342   5.262   5.754   4.814
 3148SOL    HW110343   5.217   5.685   4.756
 3148SOL    HW210344   5.310   5.708   4.889
 3149SOL     OW10345   2.644   1.047   5.919
 3149SOL    HW110346   2.699   0.968   5.947
 3149SOL    HW210347   2.566   1.016   5.866
 3150SOL     OW10348   5.754   6.069   4.089
 3150SOL    HW110349   5.757   5.974   4.056
 3150SOL    HW210350   5.659   6.097   4.103
 3151SOL     OW10351   5.211   1.156   5.574
 3151SOL    HW110352   5.137   1.201   5.624
 3151SOL    HW210353   5.270   1.226   5.532
 3152SOL     OW10354   1.278   5.869   0.337
 3152SOL    HW110355   1.210   5.845   0.407
 3152SOL    HW210356   1.282   5.796   0.269
 3153SOL     OW10357   6.090   4.934   2.157
 3153SOL    HW110358   6.037   4.957   2.075
 3153SOL    HW210359   6.131   4.843   2.146
 3154SOL     OW10360   5.904   1.091   6.440
 3154SOL    HW110361   5.958   1.007   6.436
 3154SOL    HW210362   5.807   1.069   6.433
 3155SOL     OW10363   6.121   4.291   1.532
 3155SOL    HW110364   6.188   4.365   1.541
 3155SOL    HW210365   6.162   4.216   1.479
 3156SOL     OW10366   3.311   3.141   3.580
 3156SOL    HW110367   3.387   3.077   3.589
 3156SOL    HW210368   3.239   3.117   3.645
 3157SOL     OW10369   2.684   2.433   4.925
 3157SOL    HW110370   2.621   2.461   4.853
 3157SOL    HW210371   2.776   2.423   4.888
 3158SOL     OW10372   4.173   0.450   2.969
 3158SOL    HW110373   4.243   0.447   3.040
 3158SOL    HW210374   4.117   0.532   2.981
 3159SOL     OW10375   5.433   1.527   6.705
 3159SOL    HW110376   5.369   1.468   6.754
 3159SOL    HW210377   5.434   1.617   6.747
 3160SOL     OW10378   0.370   6.493   5.736
 3160SOL    HW110379   0.424   6.538   5.808
 3160SOL    HW210380   0.411   6.405   5.715
 3161SOL     OW10381   1.705   1.603   3.099
 3161SOL    HW110382   1.788   1.604   3.042
 3161SOL    HW210383   1.670   1.510   3.105
 3162SOL     OW10384   1.203   6.229   2.023
 3162SOL    HW110385   1.118   6.219   1.971
 3162SOL    HW210386   1.229   6.326   2.024
 3163SOL     OW10387   4.534   2.297   6.178
 3163SOL    HW110388   4.438   2.279   6.201
 3163SOL    HW210389   4.549   2.278   6.081
 3164SOL     OW10390   4.891   4.281   1.031
 3164SOL    HW110391   4.845   4.193   1.039
 3164SOL    HW210392   4.826   4.354   1.051
 3165SOL     OW10393   0.518   6.115   0.829
 3165SOL    HW110394   0.573   6.102   0.746
 3165SOL    HW210395   0.577   6.150   0.902
 3166SOL     OW10396   4.520   2.006   5.350
 3166SOL    HW110397   4.615   1.983   5.371
 3166SOL    HW210398   4.478   2.051   5.428
 3167SOL     OW10399   6.593   3.667   1.403
 3167SOL    HW110400   6.619   3.731   1.330
 3167SOL    HW210401   6.495   3.674   1.420
 3168SOL     OW10402   4.321   2.257   6.918
 3168SOL    HW110403   4.411   2.237   6.958
 3168SOL    HW210404   4.250   2.243   6.987
 3169SOL     OW10405   1.357   3.710   5.148
 3169SOL    HW110406   1.383   3.614   5.158
 3169SOL    HW210407   1.403   3.749   5.069
 3170SOL     OW10408   3.843   0.676   0.989
 3170SOL    HW110409   3.827   0.630   0.902
 3170SOL    HW210410   3.884   0.611   1.053
 3171SOL     OW10411   0.478   6.909   1.344
 3171SOL    HW110412   0.429   6.984   1.300
 3171SOL    HW210413   0.413   6.840   1.376
 3172SOL     OW10414   0.281   5.059   6.911
 3172SOL    HW110415   0.340   4.984   6.883
 3172SOL    HW210416   0.321   5.146   6.880
 3173SOL     OW10417   2.851   2.116   0.466
 3173SOL    HW110418   2.943   2.094   0.496
 3173SOL    HW210419   2.838   2.086   0.371
 3174SOL     OW10420   3.067   2.746   6.153
 3174SOL    HW110421   3.059   2.795   6.239
 3174SOL    HW210422   3.100   2.653   6.170
 3175SOL     OW10423   6.933   0.487   0.656
 3175SOL    HW110424   6.874   0.445   0.587
 3175SOL    HW210425   6.892   0.475   0.747
 3176SOL     OW10426   1.328   4.819   4.842
 3176SOL    HW110427   1.240   4.782   4.812
 3176SOL    HW210428   1.316   4.911   4.879
 3177SOL     OW10429   4.668   4.289   4.063
 3177SOL    HW110430   4.701   4.382   4.051
 3177SOL    HW210431   4.634   4.277   4.156
 3178SOL     OW10432   6.272   1.914   0.359
 3178SOL    HW110433   6.195   1.870   0.312
 3178SOL    HW210434   6.244   1.940   0.452
 3179SOL     OW10435   1.754   3.057   2.376
 3179SOL    HW110436   1.810   3.039   2.456
 3179SOL    HW210437   1.658   3.038   2.397
 3180SOL     OW10438   4.010   1.424   0.032
 3180SOL    HW110439   3.938   1.442   0.098
 3180SOL    HW210440   4.078   1.498   0.035
 3181SOL     OW10441   0.922   1.522   2.648
 3181SOL    HW110442   0.942   1.565   2.560
 3181SOL    HW210443   0.941   1.586   2.722
 3182SOL     OW10444   2.358   1.505   5.082
 3182SOL    HW110445   2.299   1.583   5.100
 3182SOL    HW210446   2.355   1.482   4.985
 3183SOL     OW10447   4.455   4.131   1.645
 3183SOL    HW110448   4.356   4.132   1.657
 3183SOL    HW210449   4.498   4.172   1.726
 3184SOL     OW10450   1.284   2.544   2.591
 3184SOL    HW110451   1.296   2.445   2.598
 3184SOL    HW210452   1.372   2.588   2.579
 3185SOL     OW10453   6.166   5.671   0.169
 3185SOL    HW110454   6.217   5.674   0.083
 3185SOL    HW210455   6.224   5.633   0.241
 3186SOL     OW10456   4.004   1.902   2.166
 3186SOL    HW110457   3.975   1.830   2.228
 3186SOL    HW210458   4.070   1.962   2.213
 3187SOL     OW10459   4.909   3.635   0.543
 3187SOL    HW110460   4.889   3.568   0.614
 3187SOL    HW210461   4.823   3.677   0.512
 3188SOL     OW10462   3.687   6.660   4.549
 3188SOL    HW110463   3.696   6.759   4.538
 3188SOL    HW210464   3.749   6.630   4.622
 3189SOL     OW10465   2.066   1.751   1.866
 3189SOL    HW110466   2.040   1.757   1.769
 3189SOL    HW210467   2.032   1.832   1.914
 3190SOL     OW10468   0.099   6.513   0.599
 3190SOL    HW110469   0.165   6.445   0.570
 3190SOL    HW210470   0.009   6.492   0.559
 3191SOL     OW10471   4.199   6.711   0.697
 3191SOL    HW110472   4.185   6.784   0.630
 3191SOL    HW210473   4.257   6.640   0.658
 3192SOL     OW10474   0.299   2.830   0.517
 3192SOL    HW110475   0.221   2.832   0.579
 3192SOL    HW210476   0.267   2.819   0.423
 3193SOL     OW10477   3.908   1.669   6.289
 3193SOL    HW110478   3.808   1.670   6.276
 3193SOL    HW210479   3.946   1.587   6.245
 3194SOL     OW10480   0.467   3.285   5.679
 3194SOL    HW110481   0.407   3.362   5.702
 3194SOL    HW210482   0.530   3.313   5.606
 3195SOL     OW10483   2.553   2.248   3.502
 3195SOL    HW110484   2.624   2.190   3.463
 3195SOL    HW210485   2.582   2.279   3.593
 3196SOL     OW10486   0.647   0.595   5.318
 3196SOL    HW110487   0.621   0.506   5.281
 3196SOL    HW210488   0.669   0.585   5.415
 3197SOL     OW10489   1.458   6.063   3.906
 3197SOL    HW110490   1.397   6.106   3.839
 3197SOL    HW210491   1.431   6.090   3.998
 3198SOL     OW10492   5.997   2.007   5.574
 3198SOL    HW110493   6.011   2.072   5.649
 3198SOL    HW210494   5.917   1.951   5.592
 3199SOL     OW10495   4.766   2.734   2.011
 3199SOL    HW110496   4.707   2.678   2.069
 3199SOL    HW210497   4.777   2.825   2.051
 3200SOL     OW10498   6.806   2.623   1.767
 3200SOL    HW110499   6.716   2.582   1.783
 3200SOL    HW210500   6.870   2.552   1.738
 3201SOL     OW10501   4.767   4.109   4.384
 3201SOL    HW110502   4.750   4.064   4.472
 3201SOL    HW210503   4.710   4.191   4.377
 3202SOL     OW10504   1.191   4.467   1.562
 3202SOL    HW110505   1.220   4.388   1.616
 3202SOL    HW210506   1.253   4.478   1.484
 3203SOL     OW10507   6.225   2.906   6.361
 3203SOL    HW110508   6.250   2.932   6.455
 3203SOL    HW210509   6.142   2.956   6.335
 3204SOL     OW10510   4.407   6.424   2.117
 3204SOL    HW110511   4.501   6.444   2.091
 3204SOL    HW210512   4.347   6.497   2.083
 3205SOL     OW10513   6.957   3.699   6.970
 3205SOL    HW110514   6.969   3.797   6.984
 3205SOL    HW210515   6.865   3.682   6.935
 3206SOL     OW10516   0.255   6.976   5.922
 3206SOL    HW110517   0.219   6.893   5.965
 3206SOL    HW210518   0.344   6.956   5.881
 3207SOL     OW10519   0.862   1.027   5.964
 3207SOL    HW110520   0.770   1.018   5.926
 3207SOL    HW210521   0.925   0.971   5.912
 3208SOL     OW10522   5.016   6.644   5.366
 3208SOL    HW110523   5.051   6.649   5.459
 3208SOL    HW210524   5.040   6.556   5.326
 3209SOL     OW10525   4.234   5.275   3.225
 3209SOL    HW110526   4.304   5.340   3.256
 3209SOL    HW210527   4.153   5.284   3.283
 3210SOL     OW10528   0.512   4.243   1.175
 3210SOL    HW110529   0.464   4.330   1.166
 3210SOL    HW210530   0.454   4.177   1.223
 3211SOL     OW10531   2.084   3.211   1.111
 3211SOL    HW110532   2.013   3.143   1.091
 3211SOL    HW210533   2.081   3.283   1.042
 3212SOL     OW10534   2.962   1.238   0.321
 3212SOL    HW110535   2.979   1.291   0.238
 3212SOL    HW210536   2.914   1.154   0.298
 3213SOL     OW10537   6.538   6.029   2.661
 3213SOL    HW110538   6.545   5.930   2.645
 3213SOL    HW210539   6.510   6.045   2.756
 3214SOL     OW10540   4.692   5.753   0.669
 3214SOL    HW110541   4.767   5.789   0.613
 3214SOL    HW210542   4.675   5.658   0.644
 3215SOL     OW10543   0.538   3.371   0.811
 3215SOL    HW110544   0.487   3.456   0.802
 3215SOL    HW210545   0.508   3.308   0.739
 3216SOL     OW10546   5.674   5.717   1.729
 3216SOL    HW110547   5.705   5.622   1.726
 3216SOL    HW210548   5.575   5.721   1.712
 3217SOL     OW10549   0.436   5.603   2.661
 3217SOL    HW110550   0.435   5.690   2.612
 3217SOL    HW210551   0.394   5.614   2.751
 3218SOL     OW10552   3.951   6.937   4.255
 3218SOL    HW110553   3.889   6.897   4.187
 3218SOL    HW210554   4.025   6.985   4.208
 3219SOL     OW10555   0.124   2.051   3.453
 3219SOL    HW110556   0.064   1.994   3.510
 3219SOL    HW210557   0.172   2.117   3.511
 3220SOL     OW10558   6.517   6.556   5.954
 3220SOL    HW110559   6.539   6.636   6.010
 3220SOL    HW210560   6.601   6.518   5.917
 3221SOL     OW10561   2.870   6.841   1.699
 3221SOL    HW110562   2.956   6.861   1.653
 3221SOL    HW210563   2.795   6.844   1.633
 3222SOL     OW10564   4.178   1.349   3.045
 3222SOL    HW110565   4.120   1.362   2.965
 3222SOL    HW210566   4.135   1.394   3.124
 3223SOL     OW10567   1.976   5.622   0.082
 3223SOL    HW110568   1.934   5.619   7.016
 3223SOL    HW210569   2.074   5.605   0.074
 3224SOL     OW10570   4.492   3.468   6.298
 3224SOL    HW110571   4.412   3.512   6.340
 3224SOL    HW210572   4.471   3.445   6.203
 3225SOL     OW10573   4.491   3.363   5.439
 3225SOL    HW110574   4.467   3.266   5.441
 3225SOL    HW210575   4.477   3.403   5.530
 3226SOL     OW10576   1.560   2.036   4.322
 3226SOL    HW110577   1.539   2.134   4.316
 3226SOL    HW210578   1.475   1.986   4.341
 3227SOL     OW10579   2.909   2.215   6.113
 3227SOL    HW110580   2.855   2.179   6.036
 3227SOL    HW210581   2.861   2.293   6.153
 3228SOL     OW10582   5.587   3.951   3.107
 3228SOL    HW110583   5.579   4.033   3.051
 3228SOL    HW210584   5.594   3.978   3.204
 3229SOL     OW10585   3.084   1.667   5.182
 3229SOL    HW110586   3.163   1.720   5.151
 3229SOL    HW210587   3.116   1.586   5.233
 3230SOL     OW10588   1.551   2.975   3.970
 3230SOL    HW110589   1.589   3.030   3.896
 3230SOL    HW210590   1.460   3.007   3.993
 3231SOL     OW10591   2.233   0.371   1.964
 3231SOL    HW110592   2.157   0.309   1.986
 3231SOL    HW210593   2.263   0.354   1.870
 3232SOL     OW10594   4.057   5.414   4.828
 3232SOL    HW110595   4.038   5.460   4.741
 3232SOL    HW210596   3.975   5.366   4.859
 3233SOL     OW10597   1.162   2.769   1.666
 3233SOL    HW110598   1.158   2.765   1.766
 3233SOL    HW210599   1.240   2.825   1.639
 3234SOL     OW10600   7.000   1.721   0.462
 3234SOL    HW110601   7.019   1.643   0.523
 3234SOL    HW210602   0.052   1.733   0.399
 3235SOL     OW10603   4.949   0.716   1.504
 3235SOL    HW110604   4.960   0.791   1.570
 3235SOL    HW210605   5.009   0.730   1.426
 3236SOL     OW10606   1.606   3.395   0.400
 3236SOL    HW110607   1.543   3.465   0.434
 3236SOL    HW210608   1.650   3.427   0.316
 3237SOL     OW10609   5.631   1.019   3.413
 3237SOL    HW110610   5.565   1.001   3.339
 3237SOL    HW210611   5.624   0.947   3.481
 3238SOL     OW10612   0.269   4.846   0.852
 3238SOL    HW110613   0.332   4.881   0.920
 3238SOL    HW210614   0.175   4.861   0.883
 3239SOL     OW10615   6.077   1.610   0.504
 3239SOL    HW110616   6.157   1.551   0.501
 3239SOL    HW210617   6.070   1.662   0.419
 3240SOL     OW10618   1.040   5.945   5.164
 3240SOL    HW110619   1.113   5.896   5.117
 3240SOL    HW210620   0.998   5.885   5.233
 3241SOL     OW10621   4.755   1.321   4.269
 3241SOL    HW110622   4.779   1.406   4.224
 3241SOL    HW210623   4.814   1.247   4.237
 3242SOL     OW10624   3.179   4.526   1.160
 3242SOL    HW110625   3.106   4.553   1.223
 3242SOL    HW210626   3.176   4.584   1.079
 3243SOL     OW10627   5.489   4.911   0.173
 3243SOL    HW110628   5.550   4.909   0.094
 3243SOL    HW210629   5.404   4.957   0.149
 3244SOL     OW10630   5.227   5.982   0.632
 3244SOL    HW110631   5.139   6.022   0.607
 3244SOL    HW210632   5.212   5.899   0.685
 3245SOL     OW10633   5.234   2.429   5.546
 3245SOL    HW110634   5.191   2.447   5.458
 3245SOL    HW210635   5.231   2.331   5.565
 3246SOL     OW10636   5.939   0.941   2.939
 3246SOL    HW110637   6.013   1.009   2.943
 3246SOL    HW210638   5.865   0.976   2.882
 3247SOL     OW10639   6.622   4.466   3.371
 3247SOL    HW110640   6.579   4.376   3.373
 3247SOL    HW210641   6.652   4.492   3.463
 3248SOL     OW10642   6.180   3.269   1.651
 3248SOL    HW110643   6.119   3.340   1.685
 3248SOL    HW210644   6.158   3.182   1.695
 3249SOL     OW10645   3.297   3.559   4.951
 3249SOL    HW110646   3.257   3.562   4.859
 3249SOL    HW210647   3.342   3.471   4.965
 3250SOL     OW10648   5.231   0.194   2.463
 3250SOL    HW110649   5.235   0.095   2.454
 3250SOL    HW210650   5.323   0.232   2.465
 3251SOL     OW10651   3.758   0.858   2.030
 3251SOL    HW110652   3.731   0.781   1.973
 3251SOL    HW210653   3.682   0.922   2.039
 3252SOL     OW10654   2.586   1.960   1.990
 3252SOL    HW110655   2.532   1.920   2.064
 3252SOL    HW210656   2.613   2.053   2.015
 3253SOL     OW10657   5.997   3.291   2.743
 3253SOL    HW110658   6.003   3.218   2.811
 3253SOL    HW210659   5.973   3.253   2.654
 3254SOL     OW10660   4.764   5.685   6.154
 3254SOL    HW110661   4.771   5.731   6.066
 3254SOL    HW210662   4.830   5.725   6.218
 3255SOL     OW10663   5.171   6.318   1.975
 3255SOL    HW110664   5.231   6.358   1.906
 3255SOL    HW210665   5.078   6.353   1.963
 3256SOL     OW10666   5.151   0.414   0.256
 3256SOL    HW110667   5.076   0.428   0.191
 3256SOL    HW210668   5.215   0.347   0.218
 3257SOL     OW10669   1.410   2.341   1.265
 3257SOL    HW110670   1.495   2.295   1.289
 3257SOL    HW210671   1.387   2.409   1.335
 3258SOL     OW10672   3.839   4.885   1.926
 3258SOL    HW110673   3.749   4.847   1.944
 3258SOL    HW210674   3.907   4.838   1.982
 3259SOL     OW10675   4.534   5.682   3.920
 3259SOL    HW110676   4.579   5.725   3.999
 3259SOL    HW210677   4.578   5.712   3.836
 3260SOL     OW10678   1.876   1.924   1.302
 3260SOL    HW110679   1.802   1.908   1.367
 3260SOL    HW210680   1.860   1.868   1.220
 3261SOL     OW10681   4.701   6.441   0.608
 3261SOL    HW110682   4.710   6.434   0.509
 3261SOL    HW210683   4.793   6.442   0.649
 3262SOL     OW10684   3.494   2.087   2.669
 3262SOL    HW110685   3.454   2.030   2.598
 3262SOL    HW210686   3.540   2.166   2.626
 3263SOL     OW10687   3.580   1.462   4.350
 3263SOL    HW110688   3.498   1.422   4.392
 3263SOL    HW210689   3.661   1.425   4.395
 3264SOL     OW10690   1.281   4.442   1.043
 3264SOL    HW110691   1.380   4.448   1.027
 3264SOL    HW210692   1.253   4.346   1.037
 3265SOL     OW10693   4.459   2.028   5.712
 3265SOL    HW110694   4.460   1.938   5.669
 3265SOL    HW210695   4.399   2.089   5.660
 3266SOL     OW10696   0.621   2.963   0.256
 3266SOL    HW110697   0.565   2.917   0.187
 3266SOL    HW210698   0.717   2.962   0.228
 3267SOL     OW10699   4.149   1.196   0.171
 3267SOL    HW110700   4.201   1.220   0.252
 3267SOL    HW210701   4.137   1.278   0.114
 3268SOL     OW10702   1.564   4.609   0.283
 3268SOL    HW110703   1.631   4.555   0.334
 3268SOL    HW210704   1.510   4.663   0.347
 3269SOL     OW10705   4.229   4.911   1.413
 3269SOL    HW110706   4.197   4.855   1.338
 3269SOL    HW210707   4.210   5.007   1.393
 3270SOL     OW10708   1.343   4.826   5.655
 3270SOL    HW110709   1.307   4.751   5.601
 3270SOL    HW210710   1.399   4.885   5.596
 3271SOL     OW10711   5.521   3.744   2.888
 3271SOL    HW110712   5.515   3.812   2.961
 3271SOL    HW210713   5.578   3.667   2.918
 3272SOL     OW10714   3.468   3.789   0.054
 3272SOL    HW110715   3.478   3.887   0.037
 3272SOL    HW210716   3.465   3.740   6.991
 3273SOL     OW10717   0.488   6.114   2.259
 3273SOL    HW110718   0.497   6.028   2.209
 3273SOL    HW210719   0.558   6.178   2.228
 3274SOL     OW10720   3.646   1.499   1.108
 3274SOL    HW110721   3.695   1.546   1.181
 3274SOL    HW210722   3.685   1.407   1.096
 3275SOL     OW10723   1.088   0.628   6.698
 3275SOL    HW110724   1.086   0.608   6.600
 3275SOL    HW210725   0.997   0.654   6.729
 3276SOL     OW10726   3.367   5.423   6.959
 3276SOL    HW110727   3.375   5.356   6.885
 3276SOL    HW210728   3.369   5.515   6.922
 3277SOL     OW10729   5.050   0.236   6.818
 3277SOL    HW110730   5.147   0.233   6.843
 3277SOL    HW210731   5.001   0.165   6.869
 3278SOL     OW10732   0.104   0.902   5.859
 3278SOL    HW110733   0.046   0.979   5.831
 3278SOL    HW210734   0.138   0.855   5.778
 3279SOL     OW10735   6.925   0.888   1.007
 3279SOL    HW110736   6.987   0.875   0.929
 3279SOL    HW210737   6.833   0.860   0.981
 3280SOL     OW10738   3.587   4.782   5.432
 3280SOL    HW110739   3.600   4.852   5.503
 3280SOL    HW210740   3.530   4.708   5.468
 3281SOL     OW10741   1.921   5.683   0.722
 3281SOL    HW110742   1.859   5.728   0.785
 3281SOL    HW210743   1.952   5.748   0.653
 3282SOL     OW10744   1.983   5.483   4.646
 3282SOL    HW110745   1.903   5.457   4.593
 3282SOL    HW210746   2.051   5.523   4.585
 3283SOL     OW10747   3.175   1.513   1.243
 3283SOL    HW110748   3.170   1.414   1.255
 3283SOL    HW210749   3.235   1.535   1.166
 3284SOL     OW10750   6.094   6.212   0.354
 3284SOL    HW110751   6.131   6.280   0.290
 3284SOL    HW210752   6.148   6.128   0.348
 3285SOL     OW10753   5.726   3.019   3.134
 3285SOL    HW110754   5.743   3.011   3.036
 3285SOL    HW210755   5.683   2.935   3.167
 3286SOL     OW10756   4.100   3.692   2.718
 3286SOL    HW110757   4.026   3.733   2.771
 3286SOL    HW210758   4.188   3.725   2.752
 3287SOL     OW10759   1.468   5.984   0.541
 3287SOL    HW110760   1.501   6.038   0.464
 3287SOL    HW210761   1.414   5.907   0.507
 3288SOL     OW10762   0.783   5.361   6.543
 3288SOL    HW110763   0.733   5.444   6.518
 3288SOL    HW210764   0.880   5.382   6.553
 3289SOL     OW10765   2.209   6.686   5.409
 3289SOL    HW110766   2.202   6.760   5.342
 3289SOL    HW210767   2.201   6.723   5.501
 3290SOL     OW10768   0.211   6.666   1.657
 3290SOL    HW110769   0.282   6.723   1.699
 3290SOL    HW210770   0.211   6.679   1.558
 3291SOL     OW10771   0.745   5.803   0.005
 3291SOL    HW110772   0.818   5.755   6.980
 3291SOL    HW210773   0.685   5.849   6.964
 3292SOL     OW10774   0.519   0.897   6.752
 3292SOL    HW110775   0.453   0.837   6.706
 3292SOL    HW210776   0.503   0.894   6.851
 3293SOL     OW10777   6.683   3.531   3.459
 3293SOL    HW110778   6.664   3.446   3.508
 3293SOL    HW210779   6.668   3.516   3.361
 3294SOL     OW10780   0.480   1.346   6.296
 3294SOL    HW110781   0.578   1.353   6.275
 3294SOL    HW210782   0.457   1.252   6.321
 3295SOL     OW10783   1.677   3.156   2.130
 3295SOL    HW110784   1.747   3.221   2.101
 3295SOL    HW210785   1.710   3.105   2.209
 3296SOL     OW10786   2.027   6.175   1.794
 3296SOL    HW110787   1.961   6.250   1.805
 3296SOL    HW210788   2.037   6.127   1.881
 3297SOL     OW10789   2.769   7.007   4.858
 3297SOL    HW110790   2.694   6.989   4.795
 3297SOL    HW210791   2.758   0.072   4.901
 3298SOL     OW10792   6.258   1.905   3.942
 3298SOL    HW110793   6.185   1.969   3.919
 3298SOL    HW210794   6.249   1.879   4.038
 3299SOL     OW10795   2.264   6.348   4.098
 3299SOL    HW110796   2.215   6.346   4.011
 3299SOL    HW210797   2.325   6.427   4.099
 3300SOL     OW10798   0.570   0.744   5.891
 3300SOL    HW110799   0.568   0.731   5.990
 3300SOL    HW210800   0.626   0.673   5.849
 3301SOL     OW10801   2.136   3.270   3.682
 3301SOL    HW110802   2.149   3.314   3.771
 3301SOL    HW210803   2.141   3.339   3.610
 3302SOL     OW10804   1.441   5.719   5.474
 3302SOL    HW110805   1.452   5.795   5.410
 3302SOL    HW210806   1.514   5.721   5.541
 3303SOL     OW10807   3.779   2.957   1.556
 3303SOL    HW110808   3.794   2.858   1.561
 3303SOL    HW210809   3.717   2.984   1.630
 3304SOL     OW10810   1.656   5.541   4.046
 3304SOL    HW110811   1.576   5.502   4.002
 3304SOL    HW210812   1.644   5.538   4.146
 3305SOL     OW10813   2.510   1.289   3.116
 3305SOL    HW110814   2.417   1.320   3.096
 3305SOL    HW210815   2.540   1.329   3.203
 3306SOL     OW10816   2.242   5.646   3.579
 3306SOL    HW110817   2.302   5.637   3.659
 3306SOL    HW210818   2.150   5.618   3.604
 3307SOL     OW10819   6.968   5.838   6.440
 3307SOL    HW110820   6.890   5.834   6.378
 3307SOL    HW210821   0.025   5.801   6.394
 3308SOL     OW10822   4.664   6.385   6.758
 3308SOL    HW110823   4.761   6.361   6.762
 3308SOL    HW210824   4.613   6.330   6.825
 3309SOL     OW10825   0.800   5.283   2.304
 3309SOL    HW110826   0.778   5.374   2.269
 3309SOL    HW210827   0.756   5.214   2.247
 3310SOL     OW10828   6.356   4.298   4.714
 3310SOL    HW110829   6.318   4.363   4.648
 3310SOL    HW210830   6.366   4.208   4.671
 3311SOL     OW10831   2.385   4.284   2.035
 3311SOL    HW110832   2.366   4.196   1.991
 3311SOL    HW210833   2.459   4.330   1.986
 3312SOL     OW10834   3.738   4.248   5.852
 3312SOL    HW110835   3.652   4.246   5.903
 3312SOL    HW210836   3.786   4.334   5.871
 3313SOL     OW10837   0.005   5.681   2.486
 3313SOL    HW110838   0.054   5.731   2.557
 3313SOL    HW210839   0.067   5.661   2.410
 3314SOL     OW10840   1.646   1.719   4.472
 3314SOL    HW110841   1.656   1.766   4.559
 3314SOL    HW210842   1.737   1.700   4.434
 3315SOL     OW10843   6.369   3.641   4.143
 3315SOL    HW110844   6.428   3.565   4.169
 3315SOL    HW210845   6.422   3.725   4.136
 3316SOL     OW10846   3.640   1.689   6.223
 3316SOL    HW110847   3.662   1.701   6.126
 3316SOL    HW210848   3.548   1.651   6.233
 3317SOL     OW10849   4.733   3.159   1.681
 3317SOL    HW110850   4.824   3.195   1.702
 3317SOL    HW210851   4.699   3.109   1.761
 3318SOL     OW10852   3.092   0.258   0.614
 3318SOL    HW110853   3.092   0.225   0.520
 3318SOL    HW210854   3.001   0.292   0.638
 3319SOL     OW10855   6.154   6.917   4.407
 3319SOL    HW110856   6.146   6.984   4.481
 3319SOL    HW210857   6.122   6.828   4.439
 3320SOL     OW10858   5.375   1.017   5.321
 3320SOL    HW110859   5.440   1.090   5.299
 3320SOL    HW210860   5.402   0.973   5.407
 3321SOL     OW10861   3.420   2.203   1.762
 3321SOL    HW110862   3.363   2.166   1.835
 3321SOL    HW210863   3.512   2.222   1.798
 3322SOL     OW10864   5.135   3.115   1.642
 3322SOL    HW110865   5.060   3.050   1.632
 3322SOL    HW210866   5.174   3.135   1.552
 3323SOL     OW10867   2.353   4.123   6.343
 3323SOL    HW110868   2.421   4.063   6.385
 3323SOL    HW210869   2.368   4.127   6.244
 3324SOL     OW10870   0.985   4.184   6.300
 3324SOL    HW110871   0.912   4.207   6.235
 3324SOL    HW210872   0.966   4.093   6.339
 3325SOL     OW10873   2.169   2.735   6.583
 3325SOL    HW110874   2.208   2.731   6.675
 3325SOL    HW210875   2.176   2.829   6.548
 3326SOL     OW10876   5.723   1.519   2.049
 3326SOL    HW110877   5.802   1.577   2.031
 3326SOL    HW210878   5.721   1.496   2.147
 3327SOL     OW10879   3.484   6.536   1.702
 3327SOL    HW110880   3.527   6.536   1.793
 3327SOL    HW210881   3.494   6.446   1.661
 3328SOL     OW10882   4.099   1.854   2.486
 3328SOL    HW110883   4.164   1.914   2.438
 3328SOL    HW210884   4.149   1.777   2.527
 3329SOL     OW10885   4.892   0.815   4.780
 3329SOL    HW110886   4.944   0.793   4.863
 3329SOL    HW210887   4.940   0.886   4.729
 3330SOL     OW10888   6.054   6.330   1.430
 3330SOL    HW110889   6.094   6.325   1.522
 3330SOL    HW210890   6.049   6.425   1.401
 3331SOL     OW10891   0.608   3.526   2.172
 3331SOL    HW110892   0.551   3.594   2.126
 3331SOL    HW210893   0.679   3.572   2.225
 3332SOL     OW10894   6.170   4.394   0.339
 3332SOL    HW110895   6.086   4.433   0.378
 3332SOL    HW210896   6.236   4.468   0.322
 3333SOL     OW10897   3.132   3.776   6.779
 3333SOL    HW110898   3.033   3.785   6.766
 3333SOL    HW210899   3.165   3.852   6.835
 3334SOL     OW10900   1.999   3.455   2.538
 3334SOL    HW110901   2.027   3.501   2.454
 3334SOL    HW210902   2.074   3.398   2.572
 3335SOL     OW10903   4.663   6.848   6.423
 3335SOL    HW110904   4.716   6.790   6.361
 3335SOL    HW210905   4.612   6.790   6.487
 3336SOL     OW10906   1.951   6.622   4.298
 3336SOL    HW110907   2.018   6.679   4.251
 3336SOL    HW210908   1.859   6.657   4.279
 3337SOL     OW10909   2.570   4.110   1.431
 3337SOL    HW110910   2.608   4.202   1.438
 3337SOL    HW210911   2.640   4.043   1.453
 3338SOL     OW10912   0.134   2.598   1.315
 3338SOL    HW110913   0.066   2.667   1.339
 3338SOL    HW210914   0.225   2.638   1.319
 3339SOL     OW10915   1.218   6.979   6.566
 3339SOL    HW110916   1.201   6.949   6.660
 3339SOL    HW210917   1.205   6.901   6.504
 3340SOL     OW10918   3.323   0.977   3.832
 3340SOL    HW110919   3.349   0.886   3.799
 3340SOL    HW210920   3.402   1.039   3.825
 3341SOL     OW10921   1.913   4.323   3.940
 3341SOL    HW110922   1.984   4.281   3.883
 3341SOL    HW210923   1.926   4.423   3.940
 3342SOL     OW10924   1.357   0.208   3.519
 3342SOL    HW110925   1.313   0.182   3.605
 3342SOL    HW210926   1.300   0.179   3.442
 3343SOL     OW10927   5.410   4.428   6.581
 3343SOL    HW110928   5.444   4.359   6.516
 3343SOL    HW210929   5.484   4.491   6.605
 3344SOL     OW10930   5.959   3.875   4.316
 3344SOL    HW110931   5.884   3.914   4.369
 3344SOL    HW210932   5.970   3.926   4.231
 3345SOL     OW10933   1.099   4.424   6.163
 3345SOL    HW110934   1.193   4.437   6.196
 3345SOL    HW210935   1.047   4.372   6.230
 3346SOL     OW10936   0.835   0.689   0.141
 3346SOL    HW110937   0.744   0.725   0.123
 3346SOL    HW210938   0.903   0.761   0.124
 3347SOL     OW10939   1.001   3.341   5.965
 3347SOL    HW110940   0.945   3.327   6.047
 3347SOL    HW210941   1.096   3.318   5.986
 3348SOL     OW10942   4.038   3.329   4.897
 3348SOL    HW110943   3.946   3.366   4.881
 3348SOL    HW210944   4.044   3.292   4.989
 3349SOL     OW10945   2.151   5.136   2.825
 3349SOL    HW110946   2.110   5.158   2.736
 3349SOL    HW210947   2.143   5.215   2.885
 3350SOL     OW10948   0.345   3.042   5.638
 3350SOL    HW110949   0.246   3.052   5.641
 3350SOL    HW210950   0.388   3.131   5.655
 3351SOL     OW10951   4.787   1.305   1.816
 3351SOL    HW110952   4.820   1.395   1.788
 3351SOL    HW210953   4.690   1.296   1.792
 3352SOL     OW10954   6.044   2.361   0.695
 3352SOL    HW110955   6.012   2.406   0.778
 3352SOL    HW210956   6.098   2.425   0.640
 3353SOL     OW10957   3.265   5.860   1.524
 3353SOL    HW110958   3.210   5.902   1.596
 3353SOL    HW210959   3.237   5.765   1.512
 3354SOL     OW10960   4.542   2.577   5.243
 3354SOL    HW110961   4.627   2.628   5.258
 3354SOL    HW210962   4.468   2.621   5.294
 3355SOL     OW10963   2.034   1.814   5.825
 3355SOL    HW110964   2.000   1.723   5.805
 3355SOL    HW210965   2.085   1.849   5.747
 3356SOL     OW10966   0.768   5.741   5.886
 3356SOL    HW110967   0.719   5.828   5.888
 3356SOL    HW210968   0.705   5.668   5.859
 3357SOL     OW10969   3.307   3.410   2.060
 3357SOL    HW110970   3.399   3.378   2.078
 3357SOL    HW210971   3.266   3.443   2.145
 3358SOL     OW10972   4.580   1.569   2.692
 3358SOL    HW110973   4.598   1.493   2.629
 3358SOL    HW210974   4.494   1.552   2.741
 3359SOL     OW10975   0.020   6.053   3.023
 3359SOL    HW110976   0.057   5.960   3.019
 3359SOL    HW210977   6.960   6.053   3.077
 3360SOL     OW10978   0.795   1.474   6.467
 3360SOL    HW110979   0.854   1.433   6.535
 3360SOL    HW210980   0.842   1.550   6.422
 3361SOL     OW10981   6.958   5.481   4.765
 3361SOL    HW110982   6.996   5.431   4.688
 3361SOL    HW210983   6.943   5.419   4.842
 3362SOL     OW10984   3.462   1.773   2.551
 3362SOL    HW110985   3.404   1.845   2.512
 3362SOL    HW210986   3.407   1.691   2.566
 3363SOL     OW10987   6.782   2.210   1.700
 3363SOL    HW110988   6.702   2.214   1.639
 3363SOL    HW210989   6.751   2.199   1.794
 3364SOL     OW10990   2.060   4.515   3.716
 3364SOL    HW110991   2.057   4.504   3.616
 3364SOL    HW210992   2.087   4.609   3.738
 3365SOL     OW10993   6.710   3.118   5.232
 3365SOL    HW110994   6.658   3.079   5.156
 3365SOL    HW210995   6.808   3.115   5.211
 3366SOL     OW10996   5.325   4.780   4.271
 3366SOL    HW110997   5.230   4.772   4.240
 3366SOL    HW210998   5.327   4.834   4.356
 3367SOL     OW10999   3.916   3.840   2.874
 3367SOL    HW111000   3.927   3.909   2.945
 3367SOL    HW211001   3.841   3.779   2.899
 3368SOL     OW11002   0.311   5.694   6.410
 3368SOL    HW111003   0.340   5.599   6.424
 3368SOL    HW211004   0.336   5.749   6.489
 3369SOL     OW11005   3.832   1.873   0.969
 3369SOL    HW111006   3.769   1.874   1.047
 3369SOL    HW211007   3.878   1.962   0.963
 3370SOL     OW11008   6.663   6.337   1.488
 3370SOL    HW111009   6.752   6.293   1.482
 3370SOL    HW211010   6.612   6.299   1.566
 3371SOL     OW11011   2.228   3.212   1.795
 3371SOL    HW111012   2.214   3.308   1.816
 3371SOL    HW211013   2.323   3.197   1.767
 3372SOL     OW11014   6.856   2.012   7.003
 3372SOL    HW111015   6.906   1.928   0.001
 3372SOL    HW211016   6.761   2.003   0.007
 3373SOL     OW11017   0.214   2.128   4.107
 3373SOL    HW111018   0.302   2.080   4.109
 3373SOL    HW211019   0.157   2.089   4.035
 3374SOL     OW11020   0.774   6.760   4.126
 3374SOL    HW111021   0.680   6.770   4.158
 3374SOL    HW211022   0.817   6.682   4.171
 3375SOL     OW11023   0.129   4.749   0.515
 3375SOL    HW111024   0.036   4.761   0.480
 3375SOL    HW211025   0.170   4.839   0.533
 3376SOL     OW11026   3.618   2.850   4.884
 3376SOL    HW111027   3.563   2.768   4.867
 3376SOL    HW211028   3.619   2.869   4.982
 3377SOL     OW11029   0.112   5.340   5.842
 3377SOL    HW111030   0.056   5.261   5.816
 3377SOL    HW211031   0.124   5.340   5.942
 3378SOL     OW11032   1.319   6.151   0.304
 3378SOL    HW111033   1.328   6.052   0.309
 3378SOL    HW211034   1.403   6.194   0.336
 3379SOL     OW11035   0.736   1.885   4.698
 3379SOL    HW111036   0.701   1.975   4.721
 3379SOL    HW211037   0.662   1.829   4.659
 3380SOL     OW11038   4.963   6.328   5.257
 3380SOL    HW111039   4.927   6.373   5.176
 3380SOL    HW211040   4.888   6.285   5.307
 3381SOL     OW11041   6.689   2.565   0.909
 3381SOL    HW111042   6.705   2.664   0.907
 3381SOL    HW211043   6.592   2.548   0.926
 3382SOL     OW11044   0.674   2.938   6.462
 3382SOL    HW111045   0.704   3.032   6.443
 3382SOL    HW211046   0.690   2.882   6.381
 3383SOL     OW11047   3.405   5.227   0.851
 3383SOL    HW111048   3.347   5.254   0.775
 3383SOL    HW211049   3.501   5.235   0.825
 3384SOL     OW11050   1.776   3.655   0.858
 3384SOL    HW111051   1.806   3.659   0.953
 3384SOL    HW211052   1.836   3.593   0.807
 3385SOL     OW11053   0.131   3.633   4.647
 3385SOL    HW111054   0.143   3.547   4.598
 3385SOL    HW211055   0.037   3.639   4.682
 3386SOL     OW11056   5.465   3.785   6.687
 3386SOL    HW111057   5.415   3.756   6.606
 3386SOL    HW211058   5.484   3.883   6.682
 3387SOL     OW11059   4.885   0.090   3.562
 3387SOL    HW111060   4.912   0.182   3.588
 3387SOL    HW211061   4.787   0.088   3.539
 3388SOL     OW11062   5.901   3.318   2.446
 3388SOL    HW111063   5.917   3.417   2.444
 3388SOL    HW211064   5.811   3.300   2.487
 3389SOL     OW11065   6.418   5.995   5.912
 3389SOL    HW111066   6.422   6.094   5.927
 3389SOL    HW211067   6.446   5.947   5.995
 3390SOL     OW11068   5.102   0.142   6.025
 3390SOL    HW111069   5.055   0.071   5.972
 3390SOL    HW211070   5.143   0.208   5.963
 3391SOL     OW11071   4.913   2.282   3.726
 3391SOL    HW111072   4.974   2.205   3.745
 3391SOL    HW211073   4.887   2.282   3.630
 3392SOL     OW11074   3.482   6.341   4.251
 3392SOL    HW111075   3.483   6.245   4.282
 3392SOL    HW211076   3.498   6.401   4.329
 3393SOL     OW11077   6.044   6.066   0.822
 3393SOL    HW111078   6.021   6.163   0.836
 3393SOL    HW211079   6.109   6.058   0.747
 3394SOL     OW11080   4.853   4.034   0.808
 3394SOL    HW111081   4.923   4.019   0.738
 3394SOL    HW211082   4.772   4.074   0.765
 3395SOL     OW11083   5.075   2.244   3.080
 3395SOL    HW111084   5.120   2.174   3.025
 3395SOL    HW211085   5.044   2.204   3.167
 3396SOL     OW11086   5.894   0.972   3.811
 3396SOL    HW111087   5.989   0.941   3.809
 3396SOL    HW211088   5.887   1.060   3.764
 3397SOL     OW11089   3.649   4.912   6.520
 3397SOL    HW111090   3.643   4.855   6.438
 3397SOL    HW211091   3.570   4.895   6.578
 3398SOL     OW11092   1.370   0.539   4.800
 3398SOL    HW111093   1.463   0.539   4.838
 3398SOL    HW211094   1.308   0.497   4.865
 3399SOL     OW11095   5.541   5.491   3.270
 3399SOL    HW111096   5.615   5.525   3.212
 3399SOL    HW211097   5.511   5.402   3.236
 3400SOL     OW11098   5.335   3.337   6.784
 3400SOL    HW111099   5.326   3.419   6.840
 3400SOL    HW211100   5.280   3.263   6.824
 3401SOL     OW11101   6.283   4.205   6.878
 3401SOL    HW111102   6.293   4.121   6.824
 3401SOL    HW211103   6.200   4.253   6.849
 3402SOL     OW11104   5.719   5.788   6.369
 3402SOL    HW111105   5.720   5.856   6.442
 3402SOL    HW211106   5.813   5.770   6.338
 3403SOL     OW11107   5.303   5.324   6.701
 3403SOL    HW111108   5.258   5.320   6.612
 3403SOL    HW211109   5.254   5.265   6.766
 3404SOL     OW11110   5.226   2.349   0.583
 3404SOL    HW111111   5.194   2.277   0.645
 3404SOL    HW211112   5.254   2.429   0.637
 3405SOL     OW11113   5.691   4.285   6.621
 3405SOL    HW111114   5.782   4.286   6.578
 3405SOL    HW211115   5.696   4.235   6.707
 3406SOL     OW11116   0.853   3.216   2.604
 3406SOL    HW111117   0.931   3.231   2.543
 3406SOL    HW211118   0.806   3.131   2.579
 3407SOL     OW11119   1.975   4.317   0.210
 3407SOL    HW111120   2.034   4.356   0.281
 3407SOL    HW211121   2.003   4.354   0.121
 3408SOL     OW11122   5.229   2.855   4.604
 3408SOL    HW111123   5.136   2.893   4.610
 3408SOL    HW211124   5.271   2.856   4.695
 3409SOL     OW11125   3.947   6.148   0.110
 3409SOL    HW111126   3.917   6.181   0.199
 3409SOL    HW211127   3.894   6.193   0.038
 3410SOL     OW11128   6.880   6.641   1.974
 3410SOL    HW111129   6.962   6.602   1.932
 3410SOL    HW211130   6.800   6.589   1.943
 3411SOL     OW11131   0.436   3.041   0.444
 3411SOL    HW111132   0.500   3.025   0.369
 3411SOL    HW211133   0.387   2.957   0.465
 3412SOL     OW11134   5.072   3.667   1.549
 3412SOL    HW111135   4.975   3.657   1.570
 3412SOL    HW211136   5.099   3.763   1.561
 3413SOL     OW11137   6.332   1.246   0.708
 3413SOL    HW111138   6.317   1.147   0.708
 3413SOL    HW211139   6.388   1.271   0.787
 3414SOL     OW11140   3.437   1.899   5.590
 3414SOL    HW111141   3.374   1.863   5.521
 3414SOL    HW211142   3.499   1.964   5.548
 3415SOL     OW11143   2.180   2.091   3.982
 3415SOL    HW111144   2.114   2.103   4.057
 3415SOL    HW211145   2.133   2.103   3.895
 3416SOL     OW11146   5.351   0.559   0.379
 3416SOL    HW111147   5.427   0.566   0.314
 3416SOL    HW211148   5.273   0.516   0.335
 3417SOL     OW11149   0.400   6.469   4.389
 3417SOL    HW111150   0.416   6.489   4.292
 3417SOL    HW211151   0.375   6.373   4.399
 3418SOL     OW11152   3.927   6.101   3.291
 3418SOL    HW111153   3.873   6.018   3.274
 3418SOL    HW211154   3.939   6.114   3.389
 3419SOL     OW11155   3.479   5.224   5.870
 3419SOL    HW111156   3.400   5.240   5.810
 3419SOL    HW211157   3.560   5.268   5.831
 3420SOL     OW11158   5.778   3.440   3.649
 3420SOL    HW111159   5.846   3.512   3.637
 3420SOL    HW211160   5.819   3.351   3.628
 3421SOL     OW11161   5.082   1.776   3.502
 3421SOL    HW111162   5.134   1.848   3.457
 3421SOL    HW211163   5.013   1.740   3.439
 3422SOL     OW11164   2.361   0.290   0.146
 3422SOL    HW111165   2.431   0.238   0.097
 3422SOL    HW211166   2.385   0.296   0.243
 3423SOL     OW11167   7.001   4.716   6.230
 3423SOL    HW111168   7.023   4.813   6.241
 3423SOL    HW211169   0.022   4.681   6.148
 3424SOL     OW11170   3.053   6.814   1.094
 3424SOL    HW111171   3.051   6.795   1.192
 3424SOL    HW211172   3.006   6.901   1.076
 3425SOL     OW11173   5.119   4.551   2.653
 3425SOL    HW111174   5.169   4.625   2.609
 3425SOL    HW211175   5.034   4.587   2.693
 3426SOL     OW11176   5.125   2.703   1.241
 3426SOL    HW111177   5.029   2.683   1.221
 3426SOL    HW211178   5.145   2.677   1.335
 3427SOL     OW11179   1.074   1.909   1.373
 3427SOL    HW111180   1.004   1.907   1.443
 3427SOL    HW211181   1.075   1.999   1.329
 3428SOL     OW11182   3.758   4.659   0.071
 3428SOL    HW111183   3.731   4.575   0.118
 3428SOL    HW211184   3.807   4.636   7.011
 3429SOL     OW11185   0.395   1.867   1.094
 3429SOL    HW111186   0.368   1.873   0.998
 3429SOL    HW211187   0.393   1.771   1.123
 3430SOL     OW11188   2.325   5.434   5.263
 3430SOL    HW111189   2.257   5.441   5.190
 3430SOL    HW211190   2.361   5.525   5.284
 3431SOL     OW11191   1.620   6.132   1.779
 3431SOL    HW111192   1.521   6.117   1.781
 3431SOL    HW211193   1.660   6.099   1.865
 3432SOL     OW11194   2.492   4.683   5.936
 3432SOL    HW111195   2.495   4.758   6.003
 3432SOL    HW211196   2.417   4.698   5.872
 3433SOL     OW11197   1.153   0.882   4.751
 3433SOL    HW111198   1.200   0.967   4.731
 3433SOL    HW211199   1.068   0.877   4.698
 3434SOL     OW11200   3.595   1.834   1.805
 3434SOL    HW111201   3.661   1.898   1.844
 3434SOL    HW211202   3.560   1.870   1.719
 3435SOL     OW11203   2.259   1.339   1.083
 3435SOL    HW111204   2.210   1.426   1.075
 3435SOL    HW211205   2.353   1.351   1.053
 3436SOL     OW11206   3.459   5.762   0.130
 3436SOL    HW111207   3.464   5.714   0.042
 3436SOL    HW211208   3.530   5.728   0.190
 3437SOL     OW11209   2.549   6.077   5.508
 3437SOL    HW111210   2.575   6.034   5.594
 3437SOL    HW211211   2.450   6.075   5.498
 3438SOL     OW11212   0.733   3.723   1.413
 3438SOL    HW111213   0.766   3.654   1.478
 3438SOL    HW211214   0.644   3.757   1.443
 3439SOL     OW11215   3.323   6.262   3.962
 3439SOL    HW111216   3.233   6.219   3.953
 3439SOL    HW211217   3.381   6.234   3.886
 3440SOL     OW11218   3.854   2.957   2.183
 3440SOL    HW111219   3.765   2.964   2.138
 3440SOL    HW211220   3.884   2.861   2.182
 3441SOL     OW11221   6.728   5.883   6.274
 3441SOL    HW111222   6.714   5.852   6.181
 3441SOL    HW211223   6.774   5.972   6.274
 3442SOL     OW11224   2.518   3.755   1.388
 3442SOL    HW111225   2.453   3.761   1.464
 3442SOL    HW211226   2.482   3.805   1.310
 3443SOL     OW11227   3.733   6.246   1.992
 3443SOL    HW111228   3.775   6.252   2.083
 3443SOL    HW211229   3.800   6.213   1.926
 3444SOL     OW11230   4.805   5.467   0.228
 3444SOL    HW111231   4.869   5.472   0.152
 3444SOL    HW211232   4.734   5.537   0.217
 3445SOL     OW11233   6.183   5.136   2.956
 3445SOL    HW111234   6.123   5.141   3.036
 3445SOL    HW211235   6.253   5.207   2.961
 3446SOL     OW11236   6.101   0.528   1.699
 3446SOL    HW111237   6.180   0.471   1.680
 3446SOL    HW211238   6.097   0.603   1.633
 3447SOL     OW11239   4.963   6.437   0.652
 3447SOL    HW111240   5.050   6.423   0.606
 3447SOL    HW211241   4.969   6.403   0.746
 3448SOL     OW11242   3.442   6.628   6.041
 3448SOL    HW111243   3.539   6.640   6.062
 3448SOL    HW211244   3.405   6.714   6.006
 3449SOL     OW11245   5.857   5.056   4.924
 3449SOL    HW111246   5.943   5.098   4.953
 3449SOL    HW211247   5.864   4.957   4.930
 3450SOL     OW11248   1.010   1.897   6.508
 3450SOL    HW111249   0.973   1.961   6.441
 3450SOL    HW211250   1.108   1.885   6.493
 3451SOL     OW11251   2.324   6.135   0.050
 3451SOL    HW111252   2.385   6.057   0.037
 3451SOL    HW211253   2.348   6.207   7.009
 3452SOL     OW11254   5.426   0.651   6.471
 3452SOL    HW111255   5.436   0.589   6.392
 3452SOL    HW211256   5.389   0.601   6.548
 3453SOL     OW11257   5.629   5.649   6.624
 3453SOL    HW111258   5.639   5.693   6.713
 3453SOL    HW211259   5.681   5.701   6.556
 3454SOL     OW11260   0.994   3.788   5.103
 3454SOL    HW111261   0.979   3.739   5.188
 3454SOL    HW211262   0.906   3.814   5.063
 3455SOL     OW11263   2.749   1.662   3.998
 3455SOL    HW111264   2.791   1.717   3.925
 3455SOL    HW211265   2.735   1.720   4.079
 3456SOL     OW11266   5.569   4.921   2.211
 3456SOL    HW111267   5.575   4.873   2.298
 3456SOL    HW211268   5.610   5.012   2.219
 3457SOL     OW11269   4.677   5.765   4.150
 3457SOL    HW111270   4.609   5.719   4.206
 3457SOL    HW211271   4.658   5.864   4.148
 3458SOL     OW11272   4.172   1.574   2.112
 3458SOL    HW111273   4.075   1.594   2.125
 3458SOL    HW211274   4.225   1.659   2.116
 3459SOL     OW11275   4.846   2.410   3.451
 3459SOL    HW111276   4.817   2.369   3.365
 3459SOL    HW211277   4.910   2.485   3.433
 3460SOL     OW11278   3.033   1.822   6.578
 3460SOL    HW111279   3.013   1.795   6.484
 3460SOL    HW211280   3.116   1.878   6.580
 3461SOL     OW11281   4.682   3.763   6.896
 3461SOL    HW111282   4.679   3.851   6.942
 3461SOL    HW211283   4.646   3.692   6.957
 3462SOL     OW11284   1.203   3.937   5.108
 3462SOL    HW111285   1.129   3.870   5.094
 3462SOL    HW211286   1.283   3.891   5.145
 3463SOL     OW11287   0.772   4.351   1.175
 3463SOL    HW111288   0.673   4.337   1.181
 3463SOL    HW211289   0.795   4.387   1.085
 3464SOL     OW11290   6.932   4.427   6.689
 3464SOL    HW111291   6.938   4.372   6.605
 3464SOL    HW211292   7.015   4.414   6.743
 3465SOL     OW11293   1.969   2.609   2.018
 3465SOL    HW111294   2.006   2.698   2.047
 3465SOL    HW211295   1.939   2.615   1.923
 3466SOL     OW11296   6.788   5.240   6.234
 3466SOL    HW111297   6.791   5.258   6.135
 3466SOL    HW211298   6.705   5.189   6.256
 3467SOL     OW11299   1.527   2.927   6.484
 3467SOL    HW111300   1.483   3.010   6.453
 3467SOL    HW211301   1.615   2.916   6.438
 3468SOL     OW11302   4.294   6.430   2.903
 3468SOL    HW111303   4.355   6.383   2.839
 3468SOL    HW211304   4.300   6.529   2.891
 3469SOL     OW11305   6.332   1.554   2.579
 3469SOL    HW111306   6.370   1.609   2.653
 3469SOL    HW211307   6.257   1.603   2.536
 3470SOL     OW11308   6.963   4.437   0.607
 3470SOL    HW111309   6.941   4.467   0.514
 3470SOL    HW211310   6.917   4.351   0.626
 3471SOL     OW11311   4.284   5.221   4.946
 3471SOL    HW111312   4.222   5.265   4.882
 3471SOL    HW211313   4.256   5.241   5.040
 3472SOL     OW11314   2.315   0.449   2.886
 3472SOL    HW111315   2.326   0.362   2.934
 3472SOL    HW211316   2.363   0.445   2.798
 3473SOL     OW11317   6.558   1.543   6.429
 3473SOL    HW111318   6.484   1.610   6.440
 3473SOL    HW211319   6.643   1.582   6.463
 3474SOL     OW11320   3.401   5.165   2.218
 3474SOL    HW111321   3.449   5.229   2.158
 3474SOL    HW211322   3.405   5.073   2.178
 3475SOL     OW11323   1.002   6.305   4.620
 3475SOL    HW111324   1.024   6.257   4.535
 3475SOL    HW211325   1.032   6.400   4.612
 3476SOL     OW11326   3.226   1.522   3.317
 3476SOL    HW111327   3.238   1.554   3.223
 3476SOL    HW211328   3.231   1.423   3.319
 3477SOL     OW11329   3.143   5.625   1.472
 3477SOL    HW111330   3.112   5.565   1.545
 3477SOL    HW211331   3.196   5.572   1.405
 3478SOL     OW11332   2.702   5.697   5.554
 3478SOL    HW111333   2.667   5.733   5.468
 3478SOL    HW211334   2.681   5.599   5.560
 3479SOL     OW11335   0.596   0.442   3.443
 3479SOL    HW111336   0.631   0.377   3.375
 3479SOL    HW211337   0.653   0.437   3.525
 3480SOL     OW11338   6.955   0.498   4.862
 3480SOL    HW111339   6.971   0.589   4.823
 3480SOL    HW211340   6.939   0.433   4.788
 3481SOL     OW11341   4.372   0.193   0.050
 3481SOL    HW111342   4.352   0.194   0.148
 3481SOL    HW211343   4.427   0.273   0.027
 3482SOL     OW11344   5.646   1.647   0.534
 3482SOL    HW111345   5.699   1.679   0.455
 3482SOL    HW211346   5.550   1.641   0.509
 3483SOL     OW11347   3.564   0.899   1.647
 3483SOL    HW111348   3.590   0.965   1.577
 3483SOL    HW211349   3.520   0.947   1.723
 3484SOL     OW11350   2.951   3.603   1.939
 3484SOL    HW111351   3.013   3.571   1.868
 3484SOL    HW211352   2.957   3.702   1.948
 3485SOL     OW11353   1.120   0.408   4.647
 3485SOL    HW111354   1.141   0.316   4.680
 3485SOL    HW211355   1.182   0.474   4.690
 3486SOL     OW11356   3.122   1.308   2.512
 3486SOL    HW111357   3.024   1.288   2.511
 3486SOL    HW211358   3.156   1.313   2.417
 3487SOL     OW11359   6.189   2.069   5.895
 3487SOL    HW111360   6.241   1.999   5.846
 3487SOL    HW211361   6.236   2.157   5.889
 3488SOL     OW11362   5.749   2.812   4.089
 3488SOL    HW111363   5.728   2.896   4.039
 3488SOL    HW211364   5.784   2.744   4.025
 3489SOL     OW11365   2.781   6.569   0.676
 3489SOL    HW111366   2.807   6.499   0.609
 3489SOL    HW211367   2.843   6.647   0.669
 3490SOL     OW11368   4.676   4.157   6.519
 3490SOL    HW111369   4.602   4.159   6.586
 3490SOL    HW211370   4.741   4.084   6.543
 3491SOL     OW11371   6.158   2.996   3.988
 3491SOL    HW111372   6.210   3.079   4.011
 3491SOL    HW211373   6.091   3.017   3.917
 3492SOL     OW11374   1.079   5.840   1.122
 3492SOL    HW111375   1.152   5.841   1.053
 3492SOL    HW211376   1.008   5.906   1.096
 3493SOL     OW11377   6.528   5.510   6.953
 3493SOL    HW111378   6.440   5.483   6.992
 3493SOL    HW211379   6.530   5.488   6.856
 3494SOL     OW11380   3.986   0.248   1.255
 3494SOL    HW111381   3.953   0.283   1.167
 3494SOL    HW211382   3.913   0.254   1.322
 3495SOL     OW11383   4.296   4.674   2.442
 3495SOL    HW111384   4.310   4.595   2.382
 3495SOL    HW211385   4.378   4.732   2.440
 3496SOL     OW11386   0.321   3.336   1.463
 3496SOL    HW111387   0.357   3.243   1.474
 3496SOL    HW211388   0.346   3.391   1.542
 3497SOL     OW11389   4.144   0.119   3.146
 3497SOL    HW111390   4.109   0.053   3.080
 3497SOL    HW211391   4.076   0.191   3.161
 3498SOL     OW11392   2.641   2.531   0.316
 3498SOL    HW111393   2.732   2.523   0.275
 3498SOL    HW211394   2.641   2.485   0.405
 3499SOL     OW11395   5.488   2.573   4.553
 3499SOL    HW111396   5.397   2.548   4.519
 3499SOL    HW211397   5.558   2.535   4.493
 3500SOL     OW11398   0.261   4.215   5.369
 3500SOL    HW111399   0.354   4.230   5.336
 3500SOL    HW211400   0.262   4.149   5.444
 3501SOL     OW11401   0.551   5.200   4.065
 3501SOL    HW111402   0.483   5.210   3.992
 3501SOL    HW211403   0.535   5.115   4.115
 3502SOL     OW11404   0.172   2.433   2.061
 3502SOL    HW111405   0.125   2.519   2.040
 3502SOL    HW211406   0.114   2.356   2.034
 3503SOL     OW11407   5.543   6.449   5.167
 3503SOL    HW111408   5.445   6.469   5.173
 3503SOL    HW211409   5.587   6.515   5.107
 3504SOL     OW11410   2.680   2.920   1.484
 3504SOL    HW111411   2.657   2.964   1.571
 3504SOL    HW211412   2.713   2.827   1.501
 3505SOL     OW11413   5.648   5.057   5.157
 3505SOL    HW111414   5.624   5.133   5.217
 3505SOL    HW211415   5.730   5.080   5.105
 3506SOL     OW11416   4.560   5.855   5.452
 3506SOL    HW111417   4.657   5.837   5.471
 3506SOL    HW211418   4.506   5.836   5.533
 3507SOL     OW11419   1.922   0.605   6.899
 3507SOL    HW111420   2.020   0.586   6.895
 3507SOL    HW211421   1.901   0.659   6.980
 3508SOL     OW11422   3.846   2.383   6.118
 3508SOL    HW111423   3.836   2.305   6.057
 3508SOL    HW211424   3.855   2.467   6.065
 3509SOL     OW11425   4.993   6.560   6.474
 3509SOL    HW111426   5.077   6.579   6.422
 3509SOL    HW211427   4.999   6.604   6.564
 3510SOL     OW11428   1.888   2.660   1.733
 3510SOL    HW111429   1.964   2.603   1.703
 3510SOL    HW211430   1.819   2.666   1.660
 3511SOL     OW11431   1.680   4.560   7.016
 3511SOL    HW111432   1.734   4.644   7.012
 3511SOL    HW211433   1.704   4.509   0.075
 3512SOL     OW11434   0.814   4.246   0.442
 3512SOL    HW111435   0.843   4.240   0.537
 3512SOL    HW211436   0.893   4.268   0.385
 3513SOL     OW11437   5.792   4.514   0.880
 3513SOL    HW111438   5.854   4.580   0.922
 3513SOL    HW211439   5.758   4.551   0.793
 3514SOL     OW11440   0.568   0.959   1.978
 3514SOL    HW111441   0.638   1.019   1.938
 3514SOL    HW211442   0.519   0.912   1.905
 3515SOL     OW11443   3.931   6.685   2.455
 3515SOL    HW111444   3.985   6.640   2.385
 3515SOL    HW211445   3.948   6.643   2.543
 3516SOL     OW11446   4.347   0.871   1.023
 3516SOL    HW111447   4.262   0.843   0.977
 3516SOL    HW211448   4.424   0.861   0.960
 3517SOL     OW11449   0.592   2.068   6.827
 3517SOL    HW111450   0.522   2.104   6.889
 3517SOL    HW211451   0.641   1.993   6.871
 3518SOL     OW11452   5.051   4.046   5.300
 3518SOL    HW111453   5.040   3.975   5.230
 3518SOL    HW211454   4.997   4.022   5.381
 3519SOL     OW11455   1.987   0.314   6.704
 3519SOL    HW111456   1.967   0.408   6.676
 3519SOL    HW211457   1.902   0.262   6.708
 3520SOL     OW11458   3.464   4.543   0.848
 3520SOL    HW111459   3.497   4.453   0.875
 3520SOL    HW211460   3.392   4.573   0.911
 3521SOL     OW11461   5.326   3.127   1.220
 3521SOL    HW111462   5.358   3.146   1.313
 3521SOL    HW211463   5.245   3.184   1.201
 3522SOL     OW11464   3.688   5.606   2.124
 3522SOL    HW111465   3.630   5.686   2.140
 3522SOL    HW211466   3.742   5.587   2.207
 3523SOL     OW11467   3.021   4.372   5.580
 3523SOL    HW111468   3.007   4.329   5.491
 3523SOL    HW211469   3.119   4.377   5.600
 3524SOL     OW11470   2.490   0.896   1.233
 3524SOL    HW111471   2.505   0.826   1.304
 3524SOL    HW211472   2.451   0.978   1.274
 3525SOL     OW11473   0.525   3.341   2.340
 3525SOL    HW111474   0.535   3.412   2.271
 3525SOL    HW211475   0.442   3.288   2.323
 3526SOL     OW11476   1.273   0.093   3.745
 3526SOL    HW111477   1.304   7.024   3.725
 3526SOL    HW211478   1.258   0.102   3.843
 3527SOL     OW11479   5.595   3.223   5.888
 3527SOL    HW111480   5.502   3.249   5.864
 3527SOL    HW211481   5.595   3.129   5.923
 3528SOL     OW11482   1.114   5.611   3.527
 3528SOL    HW111483   1.146   5.550   3.600
 3528SOL    HW211484   1.086   5.557   3.448
 3529SOL     OW11485   4.061   6.623   5.537
 3529SOL    HW111486   4.101   6.713   5.522
 3529SOL    HW211487   4.120   6.570   5.599
 3530SOL     OW11488   2.282   5.011   2.508
 3530SOL    HW111489   2.322   5.099   2.536
 3530SOL    HW211490   2.355   4.944   2.498
 3531SOL     OW11491   4.954   4.858   1.477
 3531SOL    HW111492   4.941   4.806   1.562
 3531SOL    HW211493   5.046   4.843   1.443
 3532SOL     OW11494   3.190   0.419   0.405
 3532SOL    HW111495   3.242   0.489   0.357
 3532SOL    HW211496   3.177   0.447   0.500
 3533SOL     OW11497   1.092   2.072   3.335
 3533SOL    HW111498   1.100   2.010   3.257
 3533SOL    HW211499   1.058   2.161   3.304
 3534SOL     OW11500   5.740   0.800   5.329
 3534SOL    HW111501   5.789   0.750   5.257
 3534SOL    HW211502   5.746   0.749   5.415
 3535SOL     OW11503   6.741   5.655   0.607
 3535SOL    HW111504   6.672   5.602   0.656
 3535SOL    HW211505   6.771   5.731   0.664
 3536SOL     OW11506   2.233   3.071   3.863
 3536SOL    HW111507   2.263   2.979   3.839
 3536SOL    HW211508   2.224   3.126   3.780
 3537SOL     OW11509   2.915   4.645   0.063
 3537SOL    HW111510   2.908   4.561   0.118
 3537SOL    HW211511   2.824   4.684   0.051
 3538SOL     OW11512   2.442   0.721   4.064
 3538SOL    HW111513   2.383   0.769   3.999
 3538SOL    HW211514   2.435   0.622   4.049
 3539SOL     OW11515   6.062   3.709   6.132
 3539SOL    HW111516   6.017   3.714   6.221
 3539SOL    HW211517   6.143   3.768   6.133
 3540SOL     OW11518   2.195   1.674   6.025
 3540SOL    HW111519   2.190   1.758   6.078
 3540SOL    HW211520   2.282   1.671   5.976
 3541SOL     OW11521   2.477   2.924   6.705
 3541SOL    HW111522   2.516   2.875   6.627
 3541SOL    HW211523   2.518   2.889   6.789
 3542SOL     OW11524   6.218   2.575   0.585
 3542SOL    HW111525   6.264   2.636   0.649
 3542SOL    HW211526   6.281   2.549   0.512
 3543SOL     OW11527   1.642   3.100   3.758
 3543SOL    HW111528   1.588   3.184   3.748
 3543SOL    HW211529   1.640   3.049   3.672
 3544SOL     OW11530   2.048   4.822   6.451
 3544SOL    HW111531   1.975   4.791   6.513
 3544SOL    HW211532   2.093   4.902   6.491
 3545SOL     OW11533   3.852   4.852   0.252
 3545SOL    HW111534   3.831   4.806   0.166
 3545SOL    HW211535   3.842   4.951   0.240
 3546SOL     OW11536   6.784   5.214   2.827
 3546SOL    HW111537   6.794   5.304   2.869
 3546SOL    HW211538   6.869   5.189   2.781
 3547SOL     OW11539   6.709   4.326   4.978
 3547SOL    HW111540   6.658   4.367   5.054
 3547SOL    HW211541   6.742   4.235   5.006
 3548SOL     OW11542   5.922   0.615   4.880
 3548SOL    HW111543   6.017   0.587   4.864
 3548SOL    HW211544   5.902   0.609   4.978
 3549SOL     OW11545   2.080   4.637   5.657
 3549SOL    HW111546   2.149   4.638   5.585
 3549SOL    HW211547   2.005   4.577   5.632
 3550SOL     OW11548   5.641   2.521   4.338
 3550SOL    HW111549   5.553   2.554   4.303
 3550SOL    HW211550   5.711   2.531   4.267
 3551SOL     OW11551   3.285   1.789   4.767
 3551SOL    HW111552   3.353   1.759   4.834
 3551SOL    HW211553   3.307   1.750   4.677
 3552SOL     OW11554   5.877   5.712   2.203
 3552SOL    HW111555   5.959   5.762   2.231
 3552SOL    HW211556   5.830   5.677   2.284
 3553SOL     OW11557   3.710   5.276   6.418
 3553SOL    HW111558   3.625   5.314   6.382
 3553SOL    HW211559   3.701   5.263   6.517
 3554SOL     OW11560   5.034   2.608   0.761
 3554SOL    HW111561   5.069   2.652   0.678
 3554SOL    HW211562   5.071   2.654   0.841
 3555SOL     OW11563   1.261   1.806   3.851
 3555SOL    HW111564   1.163   1.812   3.833
 3555SOL    HW211565   1.302   1.896   3.839
 3556SOL     OW11566   3.440   0.840   3.395
 3556SOL    HW111567   3.500   0.842   3.314
 3556SOL    HW211568   3.488   0.797   3.471
 3557SOL     OW11569   1.283   6.688   3.752
 3557SOL    HW111570   1.348   6.718   3.822
 3557SOL    HW211571   1.268   6.761   3.686
 3558SOL     OW11572   2.798   4.502   1.108
 3558SOL    HW111573   2.850   4.424   1.071
 3558SOL    HW211574   2.703   4.474   1.121
 3559SOL     OW11575   1.746   5.846   4.365
 3559SOL    HW111576   1.694   5.928   4.343
 3559SOL    HW211577   1.838   5.871   4.395
 3560SOL     OW11578   1.969   4.796   3.188
 3560SOL    HW111579   1.971   4.838   3.098
 3560SOL    HW211580   2.024   4.851   3.252
 3561SOL     OW11581   4.947   4.067   5.796
 3561SOL    HW111582   4.853   4.100   5.800
 3561SOL    HW211583   5.004   4.123   5.856
 3562SOL     OW11584   3.424   1.920   4.195
 3562SOL    HW111585   3.443   1.861   4.117
 3562SOL    HW211586   3.385   1.866   4.270
 3563SOL     OW11587   5.988   1.886   5.923
 3563SOL    HW111588   6.048   1.963   5.901
 3563SOL    HW211589   5.974   1.882   6.022
 3564SOL     OW11590   0.369   4.750   3.299
 3564SOL    HW111591   0.323   4.837   3.282
 3564SOL    HW211592   0.345   4.685   3.227
 3565SOL     OW11593   3.809   5.362   3.142
 3565SOL    HW111594   3.818   5.278   3.196
 3565SOL    HW211595   3.813   5.339   3.044
 3566SOL     OW11596   6.463   1.045   5.771
 3566SOL    HW111597   6.479   1.074   5.677
 3566SOL    HW211598   6.419   0.956   5.772
 3567SOL     OW11599   0.611   2.262   5.936
 3567SOL    HW111600   0.709   2.245   5.946
 3567SOL    HW211601   0.585   2.343   5.989
 3568SOL     OW11602   6.139   3.899   4.648
 3568SOL    HW111603   6.205   3.863   4.714
 3568SOL    HW211604   6.099   3.823   4.596
 3569SOL     OW11605   3.216   2.089   5.599
 3569SOL    HW111606   3.260   1.999   5.607
 3569SOL    HW211607   3.225   2.121   5.505
 3570SOL     OW11608   4.607   0.670   6.199
 3570SOL    HW111609   4.596   0.572   6.218
 3570SOL    HW211610   4.673   0.709   6.263
 3571SOL     OW11611   0.454   5.433   0.023
 3571SOL    HW111612   0.480   5.353   6.993
 3571SOL    HW211613   0.439   5.511   6.987
 3572SOL     OW11614   5.553   4.103   3.666
 3572SOL    HW111615   5.470   4.138   3.623
 3572SOL    HW211616   5.633   4.141   3.621
 3573SOL     OW11617   0.592   4.697   3.990
 3573SOL    HW111618   0.680   4.654   3.970
 3573SOL    HW211619   0.552   4.733   3.905
 3574SOL     OW11620   0.363   4.536   0.400
 3574SOL    HW111621   0.385   4.633   0.406
 3574SOL    HW211622   0.442   4.482   0.431
 3575SOL     OW11623   5.620   4.943   2.952
 3575SOL    HW111624   5.606   4.916   3.047
 3575SOL    HW211625   5.647   4.864   2.897
 3576SOL     OW11626   2.014   1.656   5.517
 3576SOL    HW111627   2.105   1.644   5.556
 3576SOL    HW211628   2.007   1.604   5.432
 3577SOL     OW11629   0.999   3.583   5.851
 3577SOL    HW111630   0.974   3.497   5.896
 3577SOL    HW211631   0.991   3.572   5.752
 3578SOL     OW11632   3.459   2.450   0.420
 3578SOL    HW111633   3.402   2.532   0.422
 3578SOL    HW211634   3.430   2.392   0.344
 3579SOL     OW11635   6.345   4.052   4.608
 3579SOL    HW111636   6.260   4.018   4.646
 3579SOL    HW211637   6.404   3.976   4.582
 3580SOL     OW11638   5.763   2.336   1.042
 3580SOL    HW111639   5.684   2.355   1.100
 3580SOL    HW211640   5.828   2.412   1.048
 3581SOL     OW11641   6.756   6.719   4.296
 3581SOL    HW111642   6.756   6.775   4.379
 3581SOL    HW211643   6.665   6.681   4.281
 3582SOL     OW11644   0.617   1.743   5.690
 3582SOL    HW111645   0.674   1.765   5.769
 3582SOL    HW211646   0.608   1.823   5.631
 3583SOL     OW11647   1.402   3.913   6.410
 3583SOL    HW111648   1.468   3.877   6.475
 3583SOL    HW211649   1.330   3.846   6.393
 3584SOL     OW11650   5.797   5.447   0.497
 3584SOL    HW111651   5.873   5.470   0.559
 3584SOL    HW211652   5.770   5.528   0.447
 3585SOL     OW11653   4.073   5.784   5.243
 3585SOL    HW111654   4.171   5.770   5.257
 3585SOL    HW211655   4.036   5.709   5.190
 3586SOL     OW11656   0.139   2.225   4.969
 3586SOL    HW111657   0.160   2.137   5.011
 3586SOL    HW211658   0.071   2.212   4.896
 3587SOL     OW11659   3.111   4.880   6.264
 3587SOL    HW111660   3.091   4.864   6.167
 3587SOL    HW211661   3.188   4.822   6.291
 3588SOL     OW11662   1.433   2.729   4.815
 3588SOL    HW111663   1.393   2.760   4.729
 3588SOL    HW211664   1.517   2.678   4.796
 3589SOL     OW11665   4.183   1.843   4.139
 3589SOL    HW111666   4.218   1.924   4.185
 3589SOL    HW211667   4.214   1.843   4.043
 3590SOL     OW11668   0.569   3.550   5.919
 3590SOL    HW111669   0.505   3.569   5.993
 3590SOL    HW211670   0.591   3.453   5.918
 3591SOL     OW11671   5.279   3.517   6.159
 3591SOL    HW111672   5.201   3.468   6.118
 3591SOL    HW211673   5.260   3.615   6.160
 3592SOL     OW11674   6.465   4.261   2.551
 3592SOL    HW111675   6.427   4.225   2.636
 3592SOL    HW211676   6.390   4.288   2.490
 3593SOL     OW11677   1.998   5.972   3.901
 3593SOL    HW111678   1.907   6.011   3.882
 3593SOL    HW211679   2.068   6.031   3.862
 3594SOL     OW11680   4.312   0.762   3.287
 3594SOL    HW111681   4.398   0.812   3.288
 3594SOL    HW211682   4.328   0.667   3.259
 3595SOL     OW11683   2.674   5.277   6.498
 3595SOL    HW111684   2.620   5.327   6.566
 3595SOL    HW211685   2.767   5.314   6.495
 3596SOL     OW11686   6.343   2.400   2.883
 3596SOL    HW111687   6.262   2.344   2.867
 3596SOL    HW211688   6.393   2.413   2.798
 3597SOL     OW11689   1.725   0.215   5.424
 3597SOL    HW111690   1.814   0.172   5.406
 3597SOL    HW211691   1.682   0.172   5.503
 3598SOL     OW11692   1.207   6.073   6.305
 3598SOL    HW111693   1.203   5.979   6.338
 3598SOL    HW211694   1.126   6.093   6.250
 3599SOL     OW11695   0.622   1.947   5.527
 3599SOL    HW111696   0.636   2.034   5.573
 3599SOL    HW211697   0.553   1.958   5.455
 3600SOL     OW11698   1.295   3.574   0.245
 3600SOL    HW111699   1.306   3.632   0.165
 3600SOL    HW211700   1.200   3.547   0.255
 3601SOL     OW11701   5.958   4.501   0.451
 3601SOL    HW111702   5.873   4.452   0.470
 3601SOL    HW211703   5.968   4.576   0.517
 3602SOL     OW11704   1.448   2.037   0.584
 3602SOL    HW111705   1.378   2.061   0.652
 3602SOL    HW211706   1.534   2.081   0.608
 3603SOL     OW11707   3.503   6.215   3.761
 3603SOL    HW111708   3.480   6.161   3.680
 3603SOL    HW211709   3.570   6.285   3.737
 3604SOL     OW11710   0.212   5.003   4.115
 3604SOL    HW111711   0.290   5.051   4.157
 3604SOL    HW211712   0.225   4.904   4.126
 3605SOL     OW11713   5.329   4.016   5.353
 3605SOL    HW111714   5.233   4.042   5.344
 3605SOL    HW211715   5.382   4.096   5.383
 3606SOL     OW11716   6.966   6.583   5.595
 3606SOL    HW111717   6.953   6.665   5.651
 3606SOL    HW211718   6.914   6.591   5.510
 3607SOL     OW11719   5.126   6.299   1.320
 3607SOL    HW111720   5.054   6.313   1.252
 3607SOL    HW211721   5.175   6.214   1.298
 3608SOL     OW11722   6.811   2.004   2.673
 3608SOL    HW111723   6.770   1.922   2.714
 3608SOL    HW211724   6.817   2.076   2.743
 3609SOL     OW11725   0.573   0.377   4.158
 3609SOL    HW111726   0.628   0.458   4.177
 3609SOL    HW211727   0.614   0.298   4.204
 3610SOL     OW11728   1.211   6.961   5.603
 3610SOL    HW111729   1.273   6.956   5.681
 3610SOL    HW211730   1.191   0.033   5.583
 3611SOL     OW11731   4.292   6.291   6.030
 3611SOL    HW111732   4.289   6.354   6.107
 3611SOL    HW211733   4.205   6.295   5.980
 3612SOL     OW11734   5.917   0.276   6.138
 3612SOL    HW111735   5.842   0.334   6.169
 3612SOL    HW211736   5.997   0.333   6.117
 3613SOL     OW11737   4.313   5.036   1.882
 3613SOL    HW111738   4.277   4.956   1.928
 3613SOL    HW211739   4.413   5.034   1.884
 3614SOL     OW11740   3.524   3.620   2.612
 3614SOL    HW111741   3.596   3.624   2.543
 3614SOL    HW211742   3.438   3.595   2.568
 3615SOL     OW11743   5.466   6.230   0.344
 3615SOL    HW111744   5.454   6.170   0.423
 3615SOL    HW211745   5.536   6.191   0.283
 3616SOL     OW11746   0.014   2.788   5.557
 3616SOL    HW111747   0.008   2.884   5.586
 3616SOL    HW211748   0.031   2.730   5.636
 3617SOL     OW11749   4.242   0.854   6.808
 3617SOL    HW111750   4.148   0.883   6.788
 3617SOL    HW211751   4.293   0.932   6.845
 3618SOL     OW11752   2.000   2.100   5.013
 3618SOL    HW111753   1.988   2.065   4.920
 3618SOL    HW211754   2.052   2.185   5.011
 3619SOL     OW11755   6.114   3.308   3.872
 3619SOL    HW111756   6.199   3.282   3.917
 3619SOL    HW211757   6.127   3.306   3.772
 3620SOL     OW11758   6.415   6.094   6.255
 3620SOL    HW111759   6.329   6.130   6.289
 3620SOL    HW211760   6.451   6.153   6.183
 3621SOL     OW11761   3.387   2.640   5.897
 3621SOL    HW111762   3.475   2.600   5.870
 3621SOL    HW211763   3.313   2.589   5.853
 3622SOL     OW11764   1.804   2.242   4.147
 3622SOL    HW111765   1.712   2.277   4.166
 3622SOL    HW211766   1.844   2.294   4.071
 3623SOL     OW11767   6.020   5.470   4.346
 3623SOL    HW111768   5.967   5.401   4.298
 3623SOL    HW211769   6.117   5.458   4.325
 3624SOL     OW11770   1.820   6.886   2.182
 3624SOL    HW111771   1.825   6.838   2.095
 3624SOL    HW211772   1.755   6.962   2.175
 3625SOL     OW11773   5.447   3.803   7.007
 3625SOL    HW111774   5.436   3.888   6.955
 3625SOL    HW211775   5.406   3.727   6.957
 3626SOL     OW11776   1.612   3.694   5.972
 3626SOL    HW111777   1.683   3.758   5.943
 3626SOL    HW211778   1.650   3.601   5.976
 3627SOL     OW11779   3.529   2.939   3.543
 3627SOL    HW111780   3.624   2.950   3.512
 3627SOL    HW211781   3.526   2.937   3.643
 3628SOL     OW11782   1.461   0.443   1.723
 3628SOL    HW111783   1.496   0.404   1.807
 3628SOL    HW211784   1.363   0.462   1.733
 3629SOL     OW11785   6.869   2.287   4.266
 3629SOL    HW111786   6.797   2.351   4.292
 3629SOL    HW211787   6.828   2.212   4.213
 3630SOL     OW11788   5.011   2.930   3.324
 3630SOL    HW111789   5.010   2.833   3.349
 3630SOL    HW211790   4.946   2.981   3.381
 3631SOL     OW11791   1.934   0.189   3.561
 3631SOL    HW111792   2.029   0.203   3.534
 3631SOL    HW211793   1.890   0.127   3.497
 3632SOL     OW11794   4.889   6.726   1.265
 3632SOL    HW111795   4.931   6.732   1.174
 3632SOL    HW211796   4.844   6.812   1.287
 3633SOL     OW11797   3.289   1.760   5.407
 3633SOL    HW111798   3.288   1.795   5.314
 3633SOL    HW211799   3.237   1.674   5.411
 3634SOL     OW11800   0.364   5.380   4.651
 3634SOL    HW111801   0.335   5.395   4.745
 3634SOL    HW211802   0.413   5.292   4.645
 3635SOL     OW11803   2.643   6.172   6.501
 3635SOL    HW111804   2.669   6.171   6.405
 3635SOL    HW211805   2.572   6.240   6.516
 3636SOL     OW11806   0.186   5.528   6.946
 3636SOL    HW111807   0.197   5.479   0.008
 3636SOL    HW211808   0.098   5.576   6.945
 3637SOL     OW11809   6.149   1.607   1.508
 3637SOL    HW111810   6.151   1.565   1.599
 3637SOL    HW211811   6.229   1.665   1.496
 3638SOL     OW11812   0.496   4.617   4.665
 3638SOL    HW111813   0.453   4.558   4.733
 3638SOL    HW211814   0.533   4.698   4.711
 3639SOL     OW11815   3.461   4.267   1.596
 3639SOL    HW111816   3.412   4.243   1.513
 3639SOL    HW211817   3.457   4.190   1.661
 3640SOL     OW11818   3.300   0.636   0.321
 3640SOL    HW111819   3.328   0.702   0.391
 3640SOL    HW211820   3.263   0.685   0.242
 3641SOL     OW11821   5.363   2.814   4.084
 3641SOL    HW111822   5.348   2.842   4.179
 3641SOL    HW211823   5.426   2.737   4.082
 3642SOL     OW11824   4.663   0.600   0.587
 3642SOL    HW111825   4.657   0.666   0.512
 3642SOL    HW211826   4.746   0.617   0.639
 3643SOL     OW11827   3.112   5.917   5.004
 3643SOL    HW111828   3.099   5.934   4.906
 3643SOL    HW211829   3.199   5.958   5.033
 3644SOL     OW11830   6.703   1.533   1.631
 3644SOL    HW111831   6.714   1.632   1.641
 3644SOL    HW211832   6.606   1.509   1.644
 3645SOL     OW11833   0.049   3.461   3.648
 3645SOL    HW111834   0.024   3.387   3.586
 3645SOL    HW211835   0.148   3.478   3.641
 3646SOL     OW11836   6.548   4.564   6.976
 3646SOL    HW111837   6.620   4.592   0.015
 3646SOL    HW211838   6.459   4.598   7.009
 3647SOL     OW11839   2.442   3.068   0.089
 3647SOL    HW111840   2.414   3.077   0.184
 3647SOL    HW211841   2.390   3.132   0.033
 3648SOL     OW11842   3.286   4.983   2.830
 3648SOL    HW111843   3.319   5.029   2.913
 3648SOL    HW211844   3.357   4.922   2.795
 3649SOL     OW11845   4.887   3.219   2.146
 3649SOL    HW111846   4.821   3.152   2.113
 3649SOL    HW211847   4.979   3.189   2.125
 3650SOL     OW11848   0.434   5.116   0.774
 3650SOL    HW111849   0.519   5.168   0.786
 3650SOL    HW211850   0.367   5.145   0.842
 3651SOL     OW11851   0.455   6.767   3.885
 3651SOL    HW111852   0.497   6.848   3.925
 3651SOL    HW211853   0.372   6.792   3.837
 3652SOL     OW11854   5.704   6.285   3.136
 3652SOL    HW111855   5.701   6.256   3.232
 3652SOL    HW211856   5.632   6.238   3.085
 3653SOL     OW11857   0.813   1.663   4.400
 3653SOL    HW111858   0.912   1.654   4.388
 3653SOL    HW211859   0.785   1.618   4.484
 3654SOL     OW11860   2.368   5.450   0.800
 3654SOL    HW111861   2.358   5.382   0.873
 3654SOL    HW211862   2.454   5.499   0.812
 3655SOL     OW11863   1.752   0.098   3.362
 3655SOL    HW111864   1.711   0.177   3.408
 3655SOL    HW211865   1.763   0.118   3.265
 3656SOL     OW11866   0.843   3.649   2.358
 3656SOL    HW111867   0.750   3.679   2.379
 3656SOL    HW211868   0.882   3.601   2.437
 3657SOL     OW11869   5.042   4.750   6.349
 3657SOL    HW111870   5.100   4.677   6.384
 3657SOL    HW211871   5.084   4.790   6.268
 3658SOL     OW11872   1.670   5.870   5.076
 3658SOL    HW111873   1.762   5.840   5.100
 3658SOL    HW211874   1.619   5.794   5.035
 3659SOL     OW11875   1.889   3.216   5.332
 3659SOL    HW111876   1.833   3.154   5.278
 3659SOL    HW211877   1.983   3.215   5.298
 3660SOL     OW11878   4.967   0.493   3.203
 3660SOL    HW111879   4.924   0.415   3.157
 3660SOL    HW211880   5.056   0.512   3.161
 3661SOL     OW11881   5.614   1.476   5.915
 3661SOL    HW111882   5.711   1.457   5.905
 3661SOL    HW211883   5.572   1.490   5.825
 3662SOL     OW11884   4.506   0.453   3.950
 3662SOL    HW111885   4.441   0.481   3.880
 3662SOL    HW211886   4.577   0.523   3.960
 3663SOL     OW11887   1.677   2.894   0.731
 3663SOL    HW111888   1.759   2.950   0.750
 3663SOL    HW211889   1.685   2.855   0.640
 3664SOL     OW11890   5.435   1.997   2.177
 3664SOL    HW111891   5.412   1.972   2.271
 3664SOL    HW211892   5.454   2.095   2.172
 3665SOL     OW11893   2.166   5.858   5.503
 3665SOL    HW111894   2.241   5.830   5.564
 3665SOL    HW211895   2.108   5.924   5.550
 3666SOL     OW11896   0.942   3.832   3.474
 3666SOL    HW111897   0.905   3.924   3.455
 3666SOL    HW211898   1.028   3.841   3.524
 3667SOL     OW11899   0.443   1.242   1.995
 3667SOL    HW111900   0.376   1.168   1.988
 3667SOL    HW211901   0.533   1.208   1.970
 3668SOL     OW11902   1.780   1.222   2.038
 3668SOL    HW111903   1.734   1.290   1.982
 3668SOL    HW211904   1.801   1.142   1.982
 3669SOL     OW11905   5.341   1.400   3.052
 3669SOL    HW111906   5.278   1.326   3.028
 3669SOL    HW211907   5.310   1.444   3.136
 3670SOL     OW11908   2.747   4.762   0.282
 3670SOL    HW111909   2.698   4.701   0.344
 3670SOL    HW211910   2.703   4.762   0.193
 3671SOL     OW11911   6.125   0.804   3.773
 3671SOL    HW111912   6.214   0.759   3.769
 3671SOL    HW211913   6.054   0.738   3.749
 3672SOL     OW11914   5.629   2.236   1.430
 3672SOL    HW111915   5.651   2.173   1.355
 3672SOL    HW211916   5.669   2.200   1.515
 3673SOL     OW11917   4.121   6.320   6.517
 3673SOL    HW111918   4.203   6.262   6.515
 3673SOL    HW211919   4.140   6.402   6.572
 3674SOL     OW11920   0.758   7.008   5.431
 3674SOL    HW111921   0.815   6.987   5.351
 3674SOL    HW211922   0.809   6.989   5.515
 3675SOL     OW11923   2.058   3.398   4.685
 3675SOL    HW111924   2.103   3.435   4.603
 3675SOL    HW211925   1.979   3.454   4.707
 3676SOL     OW11926   5.584   4.372   4.163
 3676SOL    HW111927   5.504   4.418   4.202
 3676SOL    HW211928   5.655   4.362   4.233
 3677SOL     OW11929   1.798   6.048   3.309
 3677SOL    HW111930   1.710   6.063   3.264
 3677SOL    HW211931   1.862   6.120   3.283
 3678SOL     OW11932   0.029   2.616   5.142
 3678SOL    HW111933   0.106   2.676   5.121
 3678SOL    HW211934   6.977   2.638   5.082
 3679SOL     OW11935   1.755   0.589   2.653
 3679SOL    HW111936   1.757   0.689   2.660
 3679SOL    HW211937   1.684   0.553   2.713
 3680SOL     OW11938   5.396   2.368   3.739
 3680SOL    HW111939   5.440   2.423   3.669
 3680SOL    HW211940   5.365   2.427   3.814
 3681SOL     OW11941   0.404   0.196   5.923
 3681SOL    HW111942   0.341   0.119   5.916
 3681SOL    HW211943   0.454   0.207   5.837
 3682SOL     OW11944   6.143   2.064   6.771
 3682SOL    HW111945   6.163   2.109   6.684
 3682SOL    HW211946   6.045   2.061   6.785
 3683SOL     OW11947   0.220   6.959   2.905
 3683SOL    HW111948   0.260   6.878   2.863
 3683SOL    HW211949   0.232   0.014   2.845
 3684SOL     OW11950   1.865   4.759   0.055
 3684SOL    HW111951   1.929   4.724   0.124
 3684SOL    HW211952   1.845   4.855   0.073
 3685SOL     OW11953   6.664   6.506   6.506
 3685SOL    HW111954   6.590   6.483   6.443
 3685SOL    HW211955   6.644   6.592   6.552
 3686SOL     OW11956   5.554   6.192   3.862
 3686SOL    HW111957   5.585   6.228   3.774
 3686SOL    HW211958   5.492   6.116   3.847
 3687SOL     OW11959   3.799   5.840   5.177
 3687SOL    HW111960   3.891   5.833   5.215
 3687SOL    HW211961   3.780   5.934   5.151
 3688SOL     OW11962   6.428   3.838   6.539
 3688SOL    HW111963   6.340   3.859   6.582
 3688SOL    HW211964   6.500   3.841   6.608
 3689SOL     OW11965   2.439   0.353   6.486
 3689SOL    HW111966   2.347   0.392   6.485
 3689SOL    HW211967   2.454   0.303   6.571
 3690SOL     OW11968   4.865   5.846   0.484
 3690SOL    HW111969   4.918   5.930   0.483
 3690SOL    HW211970   4.923   5.769   0.456
 3691SOL     OW11971   2.925   3.281   6.459
 3691SOL    HW111972   2.832   3.292   6.493
 3691SOL    HW211973   2.937   3.333   6.375
 3692SOL     OW11974   0.098   6.009   5.208
 3692SOL    HW111975   0.048   6.094   5.192
 3692SOL    HW211976   0.196   6.028   5.211
 3693SOL     OW11977   2.245   3.001   2.676
 3693SOL    HW111978   2.262   2.930   2.608
 3693SOL    HW211979   2.305   2.987   2.755
 3694SOL     OW11980   1.093   5.566   3.056
 3694SOL    HW111981   1.116   5.628   2.981
 3694SOL    HW211982   1.118   5.473   3.030
 3695SOL     OW11983   6.471   2.920   1.629
 3695SOL    HW111984   6.551   2.979   1.627
 3695SOL    HW211985   6.474   2.856   1.553
 3696SOL     OW11986   3.849   5.581   5.380
 3696SOL    HW111987   3.925   5.572   5.315
 3696SOL    HW211988   3.786   5.652   5.348
 3697SOL     OW11989   0.383   6.319   2.641
 3697SOL    HW111990   0.333   6.284   2.562
 3697SOL    HW211991   0.480   6.298   2.631
 3698SOL     OW11992   2.220   0.772   5.147
 3698SOL    HW111993   2.279   0.833   5.095
 3698SOL    HW211994   2.260   0.680   5.149
 3699SOL     OW11995   0.869   2.634   3.935
 3699SOL    HW111996   0.825   2.580   4.007
 3699SOL    HW211997   0.799   2.678   3.879
 3700SOL     OW11998   0.330   0.039   4.840
 3700SOL    HW111999   0.250   0.029   4.781
 3700SOL    HW212000   0.382   0.120   4.812
 3701SOL     OW12001   1.540   0.395   3.991
 3701SOL    HW112002   1.537   0.493   4.011
 3701SOL    HW212003   1.526   0.381   3.893
 3702SOL     OW12004   5.309   6.598   2.632
 3702SOL    HW112005   5.298   6.544   2.548
 3702SOL    HW212006   5.288   6.694   2.613
 3703SOL     OW12007   5.136   1.246   5.953
 3703SOL    HW112008   5.075   1.284   6.022
 3703SOL    HW212009   5.096   1.259   5.862
 3704SOL     OW12010   3.219   1.351   1.587
 3704SOL    HW112011   3.262   1.439   1.603
 3704SOL    HW212012   3.164   1.355   1.503
 3705SOL     OW12013   4.741   5.443   3.762
 3705SOL    HW112014   4.815   5.455   3.828
 3705SOL    HW212015   4.656   5.422   3.809
 3706SOL     OW12016   1.412   3.643   6.412
 3706SOL    HW112017   1.453   3.604   6.330
 3706SOL    HW212018   1.433   3.584   6.491
 3707SOL     OW12019   5.217   3.994   5.034
 3707SOL    HW112020   5.266   4.003   5.121
 3707SOL    HW212021   5.129   4.040   5.041
 3708SOL     OW12022   6.901   0.680   6.010
 3708SOL    HW112023   6.964   0.634   5.947
 3708SOL    HW212024   6.909   0.779   5.997
 3709SOL     OW12025   3.379   0.747   1.260
 3709SOL    HW112026   3.457   0.774   1.204
 3709SOL    HW212027   3.396   0.658   1.301
 3710SOL     OW12028   6.523   5.439   6.712
 3710SOL    HW112029   6.567   5.523   6.677
 3710SOL    HW212030   6.566   5.360   6.670
 3711SOL     OW12031   0.428   0.023   3.601
 3711SOL    HW112032   0.387   0.063   3.519
 3711SOL    HW212033   0.514   7.002   3.577
 3712SOL     OW12034   6.880   5.882   0.090
 3712SOL    HW112035   6.892   5.790   0.051
 3712SOL    HW212036   6.891   5.950   0.017
 3713SOL     OW12037   1.170   6.350   4.912
 3713SOL    HW112038   1.176   6.294   4.829
 3713SOL    HW212039   1.206   6.299   4.990
 3714SOL     OW12040   5.258   5.587   5.987
 3714SOL    HW112041   5.254   5.668   6.045
 3714SOL    HW212042   5.290   5.612   5.896
 3715SOL     OW12043   6.260   4.076   2.697
 3715SOL    HW112044   6.181   4.134   2.677
 3715SOL    HW212045   6.242   4.024   2.781
 3716SOL     OW12046   6.451   0.064   5.092
 3716SOL    HW112047   6.353   0.052   5.076
 3716SOL    HW212048   6.482   0.149   5.050
 3717SOL     OW12049   5.855   6.112   6.804
 3717SOL    HW112050   5.881   6.203   6.772
 3717SOL    HW212051   5.937   6.057   6.820
 3718SOL     OW12052   1.772   0.612   0.185
 3718SOL    HW112053   1.694   0.618   0.122
 3718SOL    HW212054   1.817   0.523   0.172
 3719SOL     OW12055   5.165   5.057   1.344
 3719SOL    HW112056   5.191   4.965   1.374
 3719SOL    HW212057   5.164   5.118   1.423
 3720SOL     OW12058   6.167   2.406   6.274
 3720SOL    HW112059   6.075   2.385   6.241
 3720SOL    HW212060   6.168   2.497   6.315
 3721SOL     OW12061   5.653   4.439   1.915
 3721SOL    HW112062   5.627   4.359   1.860
 3721SOL    HW212063   5.576   4.466   1.973
 3722SOL     OW12064   6.429   5.976   0.993
 3722SOL    HW112065   6.504   6.012   1.050
 3722SOL    HW212066   6.385   6.052   0.945
 3723SOL     OW12067   6.443   6.092   1.868
 3723SOL    HW112068   6.408   6.178   1.905
 3723SOL    HW212069   6.482   6.038   1.942
 3724SOL     OW12070   1.919   4.183   5.102
 3724SOL    HW112071   2.018   4.183   5.112
 3724SOL    HW212072   1.878   4.127   5.173
 3725SOL     OW12073   6.254   4.864   1.182
 3725SOL    HW112074   6.323   4.833   1.246
 3725SOL    HW212075   6.202   4.786   1.147
 3726SOL     OW12076   5.807   4.286   0.758
 3726SOL    HW112077   5.804   4.372   0.810
 3726SOL    HW212078   5.850   4.215   0.814
 3727SOL     OW12079   6.652   2.221   5.024
 3727SOL    HW112080   6.706   2.163   5.086
 3727SOL    HW212081   6.706   2.301   4.998
 3728SOL     OW12082   1.080   3.996   6.773
 3728SOL    HW112083   1.122   4.045   6.697
 3728SOL    HW212084   1.019   3.925   6.738
 3729SOL     OW12085   1.389   2.295   3.726
 3729SOL    HW112086   1.343   2.382   3.711
 3729SOL    HW212087   1.374   2.234   3.648
 3730SOL     OW12088   2.461   5.072   5.952
 3730SOL    HW112089   2.435   5.160   5.990
 3730SOL    HW212090   2.461   5.003   6.024
 3731SOL     OW12091   6.133   0.467   0.828
 3731SOL    HW112092   6.150   0.504   0.919
 3731SOL    HW212093   6.154   0.370   0.827
 3732SOL     OW12094   2.977   1.669   6.373
 3732SOL    HW112095   3.001   1.660   6.276
 3732SOL    HW212096   3.016   1.592   6.423
 3733SOL     OW12097   1.330   3.820   2.303
 3733SOL    HW112098   1.369   3.912   2.305
 3733SOL    HW212099   1.349   3.777   2.215
 3734SOL     OW12100   4.985   1.506   1.686
 3734SOL    HW112101   4.943   1.587   1.646
 3734SOL    HW212102   4.995   1.435   1.615
 3735SOL     OW12103   2.290   0.651   3.694
 3735SOL    HW112104   2.382   0.621   3.721
 3735SOL    HW212105   2.291   0.675   3.597
 3736SOL     OW12106   6.891   2.364   0.272
 3736SOL    HW112107   6.861   2.402   0.184
 3736SOL    HW212108   6.893   2.264   0.266
 3737SOL     OW12109   4.799   0.674   3.288
 3737SOL    HW112110   4.869   0.603   3.285
 3737SOL    HW212111   4.715   0.640   3.247
 3738SOL     OW12112   0.065   5.916   2.117
 3738SOL    HW112113   0.023   5.955   2.035
 3738SOL    HW212114   0.062   5.984   2.191
 3739SOL     OW12115   2.751   4.631   1.642
 3739SOL    HW112116   2.748   4.552   1.704
 3739SOL    HW212117   2.683   4.619   1.570
 3740SOL     OW12118   5.916   0.945   0.494
 3740SOL    HW112119   5.820   0.934   0.521
 3740SOL    HW212120   5.940   1.041   0.497
 3741SOL     OW12121   5.535   3.525   1.157
 3741SOL    HW112122   5.493   3.466   1.088
 3741SOL    HW212123   5.490   3.510   1.245
 3742SOL     OW12124   2.201   1.955   6.807
 3742SOL    HW112125   2.135   1.910   6.867
 3742SOL    HW212126   2.158   2.036   6.765
 3743SOL     OW12127   4.956   3.145   1.065
 3743SOL    HW112128   4.866   3.159   1.024
 3743SOL    HW212129   4.954   3.065   1.125
 3744SOL     OW12130   0.828   5.758   3.225
 3744SOL    HW112131   0.890   5.692   3.266
 3744SOL    HW212132   0.847   5.766   3.127
 3745SOL     OW12133   3.695   5.004   1.632
 3745SOL    HW112134   3.704   4.910   1.599
 3745SOL    HW212135   3.611   5.014   1.685
 3746SOL     OW12136   5.624   0.790   3.084
 3746SOL    HW112137   5.581   0.880   3.089
 3746SOL    HW212138   5.683   0.785   3.003
 3747SOL     OW12139   2.546   6.657   5.566
 3747SOL    HW112140   2.527   6.647   5.468
 3747SOL    HW212141   2.507   6.743   5.598
 3748SOL     OW12142   5.868   0.806   1.077
 3748SOL    HW112143   5.881   0.717   1.033
 3748SOL    HW212144   5.859   0.877   1.006
 3749SOL     OW12145   1.701   5.905   4.052
 3749SOL    HW112146   1.781   5.846   4.035
 3749SOL    HW212147   1.622   5.848   4.074
 3750SOL     OW12148   1.343   3.875   0.782
 3750SOL    HW112149   1.273   3.892   0.712
 3750SOL    HW212150   1.321   3.790   0.830
 3751SOL     OW12151   0.096   3.607   1.792
 3751SOL    HW112152   0.017   3.556   1.757
 3751SOL    HW212153   0.167   3.609   1.722
 3752SOL     OW12154   5.391   0.829   6.797
 3752SOL    HW112155   5.315   0.847   6.859
 3752SOL    HW212156   5.370   0.748   6.741
 3753SOL     OW12157   6.744   0.456   5.722
 3753SOL    HW112158   6.836   0.437   5.758
 3753SOL    HW212159   6.728   0.401   5.640
 3754SOL     OW12160   2.452   0.441   1.060
 3754SOL    HW112161   2.371   0.431   1.003
 3754SOL    HW212162   2.436   0.400   1.150
 3755SOL     OW12163   4.825   4.785   5.175
 3755SOL    HW112164   4.834   4.685   5.166
 3755SOL    HW212165   4.916   4.826   5.179
 3756SOL     OW12166   3.059   5.128   5.948
 3756SOL    HW112167   3.021   5.200   5.891
 3756SOL    HW212168   3.052   5.040   5.901
 3757SOL     OW12169   6.197   5.077   1.695
 3757SOL    HW112170   6.292   5.047   1.692
 3757SOL    HW212171   6.140   5.010   1.648
 3758SOL     OW12172   2.340   1.451   4.816
 3758SOL    HW112173   2.296   1.412   4.735
 3758SOL    HW212174   2.313   1.547   4.825
 3759SOL     OW12175   4.247   0.383   5.933
 3759SOL    HW112176   4.304   0.442   5.876
 3759SOL    HW212177   4.180   0.439   5.982
 3760SOL     OW12178   1.489   1.358   3.932
 3760SOL    HW112179   1.467   1.381   4.027
 3760SOL    HW212180   1.458   1.432   3.872
 3761SOL     OW12181   0.195   1.020   5.181
 3761SOL    HW112182   0.168   1.107   5.223
 3761SOL    HW212183   0.190   0.947   5.248
 3762SOL     OW12184   2.052   4.497   0.821
 3762SOL    HW112185   2.079   4.403   0.800
 3762SOL    HW212186   2.014   4.501   0.914
 3763SOL     OW12187   0.500   3.407   6.858
 3763SOL    HW112188   0.571   3.342   6.829
 3763SOL    HW212189   0.412   3.378   6.821
 3764SOL     OW12190   1.414   6.786   2.244
 3764SOL    HW112191   1.484   6.774   2.173
 3764SOL    HW212192   1.405   6.883   2.264
 3765SOL     OW12193   5.548   1.852   0.987
 3765SOL    HW112194   5.480   1.782   1.007
 3765SOL    HW212195   5.636   1.808   0.968
 3766SOL     OW12196   1.791   2.010   4.470
 3766SOL    HW112197   1.853   1.940   4.433
 3766SOL    HW212198   1.706   2.010   4.417
 3767SOL     OW12199   2.959   4.156   6.757
 3767SOL    HW112200   2.912   4.132   6.842
 3767SOL    HW212201   2.978   4.072   6.705
 3768SOL     OW12202   0.617   6.917   4.569
 3768SOL    HW112203   0.529   6.879   4.540
 3768SOL    HW212204   0.666   6.951   4.489
 3769SOL     OW12205   6.105   5.134   5.041
 3769SOL    HW112206   6.144   5.205   5.100
 3769SOL    HW212207   6.175   5.103   4.976
 3770SOL     OW12208   1.208   0.361   6.742
 3770SOL    HW112209   1.228   0.383   6.647
 3770SOL    HW212210   1.113   0.383   6.763
 3771SOL     OW12211   5.270   3.939   0.535
 3771SOL    HW112212   5.210   3.870   0.574
 3771SOL    HW212213   5.226   3.983   0.457
 3772SOL     OW12214   0.429   0.571   0.304
 3772SOL    HW112215   0.510   0.549   0.359
 3772SOL    HW212216   0.405   0.491   0.247
 3773SOL     OW12217   5.751   3.627   5.448
 3773SOL    HW112218   5.804   3.601   5.367
 3773SOL    HW212219   5.654   3.630   5.424
 3774SOL     OW12220   6.008   5.734   1.706
 3774SOL    HW112221   5.960   5.810   1.750
 3774SOL    HW212222   6.068   5.770   1.634
 3775SOL     OW12223   4.554   5.476   2.521
 3775SOL    HW112224   4.629   5.498   2.460
 3775SOL    HW212225   4.554   5.538   2.600
 3776SOL     OW12226   4.163   2.254   6.511
 3776SOL    HW112227   4.086   2.208   6.555
 3776SOL    HW212228   4.229   2.282   6.580
 3777SOL     OW12229   3.250   4.924   3.436
 3777SOL    HW112230   3.338   4.906   3.479
 3777SOL    HW212231   3.213   5.011   3.468
 3778SOL     OW12232   2.680   5.026   2.455
 3778SOL    HW112233   2.753   5.047   2.390
 3778SOL    HW212234   2.601   5.085   2.438
 3779SOL     OW12235   0.883   5.147   0.878
 3779SOL    HW112236   0.893   5.162   0.779
 3779SOL    HW212237   0.788   5.164   0.904
 3780SOL     OW12238   6.091   4.702   4.736
 3780SOL    HW112239   6.022   4.738   4.673
 3780SOL    HW212240   6.174   4.758   4.730
 3781SOL     OW12241   0.261   6.505   3.357
 3781SOL    HW112242   0.204   6.465   3.429
 3781SOL    HW212243   0.224   6.481   3.267
 3782SOL     OW12244   2.628   0.584   2.801
 3782SOL    HW112245   2.723   0.609   2.824
 3782SOL    HW212246   2.567   0.657   2.829
 3783SOL     OW12247   5.687   5.420   3.805
 3783SOL    HW112248   5.695   5.322   3.788
 3783SOL    HW212249   5.627   5.461   3.736
 3784SOL     OW12250   5.544   2.998   2.218
 3784SOL    HW112251   5.467   3.035   2.270
 3784SOL    HW212252   5.519   2.992   2.122
 3785SOL     OW12253   1.491   3.477   5.661
 3785SOL    HW112254   1.578   3.518   5.686
 3785SOL    HW212255   1.460   3.514   5.574
 3786SOL     OW12256   2.304   4.296   3.292
 3786SOL    HW112257   2.328   4.327   3.384
 3786SOL    HW212258   2.279   4.375   3.236
 3787SOL     OW12259   6.053   1.183   2.331
 3787SOL    HW112260   6.009   1.258   2.379
 3787SOL    HW212261   6.012   1.096   2.360
 3788SOL     OW12262   0.318   4.442   4.770
 3788SOL    HW112263   0.287   4.378   4.700
 3788SOL    HW212264   0.359   4.391   4.846
 3789SOL     OW12265   0.871   3.911   4.773
 3789SOL    HW112266   0.931   3.978   4.730
 3789SOL    HW212267   0.831   3.852   4.703
 3790SOL     OW12268   1.004   4.773   5.905
 3790SOL    HW112269   0.985   4.862   5.863
 3790SOL    HW212270   1.096   4.743   5.880
 3791SOL     OW12271   5.243   1.599   6.510
 3791SOL    HW112272   5.295   1.558   6.435
 3791SOL    HW212273   5.287   1.577   6.597
 3792SOL     OW12274   1.298   1.871   3.086
 3792SOL    HW112275   1.201   1.889   3.099
 3792SOL    HW212276   1.340   1.948   3.039
 3793SOL     OW12277   4.572   0.051   2.551
 3793SOL    HW112278   4.549   0.142   2.584
 3793SOL    HW212279   4.489   0.003   2.522
 3794SOL     OW12280   2.541   2.580   1.692
 3794SOL    HW112281   2.571   2.675   1.701
 3794SOL    HW212282   2.451   2.577   1.650
 3795SOL     OW12283   4.741   6.044   1.352
 3795SOL    HW112284   4.710   6.121   1.407
 3795SOL    HW212285   4.839   6.029   1.367
 3796SOL     OW12286   4.086   1.794   2.770
 3796SOL    HW112287   4.106   1.851   2.690
 3796SOL    HW212288   4.118   1.841   2.852
 3797SOL     OW12289   0.453   3.315   2.811
 3797SOL    HW112290   0.469   3.307   2.712
 3797SOL    HW212291   0.491   3.235   2.858
 3798SOL     OW12292   2.407   5.495   2.783
 3798SOL    HW112293   2.436   5.402   2.803
 3798SOL    HW212294   2.482   5.558   2.802
 3799SOL     OW12295   6.455   2.898   3.583
 3799SOL    HW112296   6.509   2.958   3.524
 3799SOL    HW212297   6.517   2.850   3.645
 3800SOL     OW12298   5.259   1.763   3.705
 3800SOL    HW112299   5.174   1.775   3.653
 3800SOL    HW212300   5.238   1.759   3.803
 3801SOL     OW12301   6.172   6.768   1.653
 3801SOL    HW112302   6.120   6.812   1.580
 3801SOL    HW212303   6.267   6.757   1.624
 3802SOL     OW12304   1.579   2.312   1.542
 3802SOL    HW112305   1.527   2.244   1.490
 3802SOL    HW212306   1.525   2.343   1.620
 3803SOL     OW12307   3.966   3.623   2.246
 3803SOL    HW112308   3.987   3.596   2.152
 3803SOL    HW212309   4.026   3.698   2.273
 3804SOL     OW12310   4.321   1.115   3.088
 3804SOL    HW112311   4.282   1.201   3.053
 3804SOL    HW212312   4.287   1.039   3.033
 3805SOL     OW12313   2.106   2.822   1.767
 3805SOL    HW112314   2.010   2.793   1.762
 3805SOL    HW212315   2.118   2.882   1.846
 3806SOL     OW12316   3.839   3.743   6.257
 3806SOL    HW112317   3.878   3.683   6.187
 3806SOL    HW212318   3.910   3.803   6.294
 3807SOL     OW12319   2.060   5.656   2.411
 3807SOL    HW112320   2.119   5.657   2.492
 3807SOL    HW212321   1.965   5.668   2.439
 3808SOL     OW12322   4.339   0.790   0.350
 3808SOL    HW112323   4.310   0.701   0.386
 3808SOL    HW212324   4.285   0.813   0.269
 3809SOL     OW12325   5.347   2.391   1.845
 3809SOL    HW112326   5.407   2.313   1.863
 3809SOL    HW212327   5.347   2.410   1.746
 3810SOL     OW12328   5.661   2.784   3.314
 3810SOL    HW112329   5.682   2.747   3.405
 3810SOL    HW212330   5.566   2.816   3.313
 3811SOL     OW12331   6.828   5.954   4.570
 3811SOL    HW112332   6.834   5.855   4.582
 3811SOL    HW212333   6.881   6.000   4.641
 3812SOL     OW12334   4.329   5.319   5.502
 3812SOL    HW112335   4.349   5.241   5.442
 3812SOL    HW212336   4.230   5.327   5.514
 3813SOL     OW12337   4.820   3.613   0.213
 3813SOL    HW112338   4.805   3.529   0.266
 3813SOL    HW212339   4.908   3.653   0.239
 3814SOL     OW12340   6.361   0.063   5.584
 3814SOL    HW112341   6.354   0.156   5.621
 3814SOL    HW212342   6.269   0.028   5.568
 3815SOL     OW12343   3.485   1.846   0.946
 3815SOL    HW112344   3.538   1.766   0.920
 3815SOL    HW212345   3.484   1.911   0.870
 3816SOL     OW12346   1.090   5.344   6.580
 3816SOL    HW112347   1.077   5.315   6.485
 3816SOL    HW212348   1.188   5.339   6.602
 3817SOL     OW12349   5.160   3.752   2.449
 3817SOL    HW112350   5.081   3.807   2.423
 3817SOL    HW212351   5.135   3.655   2.449
 3818SOL     OW12352   6.772   0.861   0.385
 3818SOL    HW112353   6.682   0.899   0.366
 3818SOL    HW212354   6.763   0.781   0.443
 3819SOL     OW12355   5.937   5.746   2.582
 3819SOL    HW112356   6.001   5.785   2.517
 3819SOL    HW212357   5.897   5.819   2.638
 3820SOL     OW12358   5.170   0.402   4.231
 3820SOL    HW112359   5.190   0.393   4.329
 3820SOL    HW212360   5.213   0.327   4.181
 3821SOL     OW12361   1.985   0.937   1.562
 3821SOL    HW112362   2.038   0.937   1.478
 3821SOL    HW212363   2.026   0.873   1.628
 3822SOL     OW12364   2.176   6.858   0.546
 3822SOL    HW112365   2.259   6.869   0.601
 3822SOL    HW212366   2.095   6.872   0.603
 3823SOL     OW12367   2.832   3.775   5.922
 3823SOL    HW112368   2.771   3.724   5.861
 3823SOL    HW212369   2.791   3.783   6.012
 3824SOL     OW12370   0.614   3.368   0.219
 3824SOL    HW112371   0.537   3.432   0.208
 3824SOL    HW212372   0.594   3.283   0.170
 3825SOL     OW12373   0.398   5.371   0.385
 3825SOL    HW112374   0.418   5.305   0.312
 3825SOL    HW212375   0.346   5.326   0.457
 3826SOL     OW12376   1.143   3.905   0.609
 3826SOL    HW112377   1.048   3.905   0.639
 3826SOL    HW212378   1.149   3.868   0.516
 3827SOL     OW12379   1.818   1.252   1.711
 3827SOL    HW112380   1.907   1.207   1.705
 3827SOL    HW212381   1.831   1.351   1.699
 3828SOL     OW12382   3.797   3.345   3.329
 3828SOL    HW112383   3.837   3.263   3.288
 3828SOL    HW212384   3.810   3.423   3.268
 3829SOL     OW12385   1.122   4.809   2.116
 3829SOL    HW112386   1.028   4.826   2.145
 3829SOL    HW212387   1.128   4.814   2.017
 3830SOL     OW12388   0.878   0.283   5.425
 3830SOL    HW112389   0.893   0.377   5.395
 3830SOL    HW212390   0.845   0.228   5.348
 3831SOL     OW12391   4.699   2.378   2.691
 3831SOL    HW112392   4.630   2.306   2.706
 3831SOL    HW212393   4.765   2.376   2.766
 3832SOL     OW12394   0.390   0.886   3.152
 3832SOL    HW112395   0.293   0.912   3.150
 3832SOL    HW212396   0.446   0.969   3.142
 3833SOL     OW12397   6.977   5.745   6.724
 3833SOL    HW112398   0.030   5.791   6.768
 3833SOL    HW212399   6.962   5.785   6.634
 3834SOL     OW12400   4.157   4.159   1.229
 3834SOL    HW112401   4.068   4.135   1.189
 3834SOL    HW212402   4.204   4.075   1.258
 3835SOL     OW12403   3.547   6.162   4.478
 3835SOL    HW112404   3.585   6.253   4.499
 3835SOL    HW212405   3.518   6.118   4.563
 3836SOL     OW12406   0.265   4.690   5.566
 3836SOL    HW112407   0.313   4.754   5.507
 3836SOL    HW212408   0.331   4.639   5.622
 3837SOL     OW12409   4.206   4.070   6.659
 3837SOL    HW112410   4.215   3.983   6.707
 3837SOL    HW212411   4.291   4.121   6.666
 3838SOL     OW12412   0.768   3.489   3.974
 3838SOL    HW112413   0.781   3.529   3.883
 3838SOL    HW212414   0.806   3.396   3.974
 3839SOL     OW12415   5.769   1.530   2.936
 3839SOL    HW112416   5.703   1.598   2.904
 3839SOL    HW212417   5.753   1.511   3.033
 3840SOL     OW12418   2.694   1.671   6.723
 3840SOL    HW112419   2.692   1.712   6.632
 3840SOL    HW212420   2.779   1.619   6.734
 3841SOL     OW12421   0.410   3.507   5.110
 3841SOL    HW112422   0.355   3.487   5.029
 3841SOL    HW212423   0.419   3.424   5.166
 3842SOL     OW12424   2.109   2.401   2.106
 3842SOL    HW112425   2.049   2.464   2.056
 3842SOL    HW212426   2.186   2.452   2.143
 3843SOL     OW12427   5.719   5.208   2.952
 3843SOL    HW112428   5.683   5.116   2.937
 3843SOL    HW212429   5.759   5.213   3.044
 3844SOL     OW12430   1.140   2.390   5.372
 3844SOL    HW112431   1.127   2.489   5.375
 3844SOL    HW212432   1.232   2.370   5.338
 3845SOL     OW12433   3.369   4.068   5.343
 3845SOL    HW112434   3.417   4.060   5.256
 3845SOL    HW212435   3.322   4.156   5.348
 3846SOL     OW12436   6.915   5.241   3.153
 3846SOL    HW112437   6.913   5.320   3.092
 3846SOL    HW212438   6.970   5.263   3.233
 3847SOL     OW12439   5.496   2.580   4.064
 3847SOL    HW112440   5.583   2.538   4.039
 3847SOL    HW212441   5.421   2.523   4.031
 3848SOL     OW12442   4.397   5.256   2.536
 3848SOL    HW112443   4.313   5.281   2.486
 3848SOL    HW212444   4.467   5.325   2.521
 3849SOL     OW12445   0.734   1.346   6.239
 3849SOL    HW112446   0.760   1.366   6.333
 3849SOL    HW212447   0.809   1.370   6.177
 3850SOL     OW12448   2.754   3.439   1.728
 3850SOL    HW112449   2.775   3.492   1.811
 3850SOL    HW212450   2.657   3.450   1.706
 3851SOL     OW12451   0.714   4.408   2.408
 3851SOL    HW112452   0.710   4.448   2.316
 3851SOL    HW212453   0.777   4.461   2.465
 3852SOL     OW12454   4.014   6.607   4.027
 3852SOL    HW112455   3.991   6.513   4.053
 3852SOL    HW212456   4.097   6.635   4.075
 3853SOL     OW12457   0.731   4.399   3.465
 3853SOL    HW112458   0.826   4.430   3.462
 3853SOL    HW212459   0.672   4.471   3.427
 3854SOL     OW12460   1.830   2.708   2.915
 3854SOL    HW112461   1.768   2.630   2.924
 3854SOL    HW212462   1.918   2.685   2.958
 3855SOL     OW12463   5.342   6.519   6.649
 3855SOL    HW112464   5.393   6.597   6.686
 3855SOL    HW212465   5.387   6.486   6.566
 3856SOL     OW12466   6.580   0.369   6.401
 3856SOL    HW112467   6.557   0.467   6.405
 3856SOL    HW212468   6.649   0.354   6.331
 3857SOL     OW12469   0.237   6.570   0.082
 3857SOL    HW112470   0.270   6.633   0.153
 3857SOL    HW212471   0.275   6.479   0.098
 3858SOL     OW12472   2.552   0.638   5.953
 3858SOL    HW112473   2.508   0.717   5.910
 3858SOL    HW212474   2.510   0.620   6.042
 3859SOL     OW12475   5.939   1.343   2.501
 3859SOL    HW112476   5.923   1.404   2.579
 3859SOL    HW212477   5.851   1.309   2.467
 3860SOL     OW12478   2.483   0.837   5.450
 3860SOL    HW112479   2.477   0.899   5.371
 3860SOL    HW212480   2.547   0.763   5.430
 3861SOL     OW12481   4.431   4.848   3.258
 3861SOL    HW112482   4.351   4.810   3.212
 3861SOL    HW212483   4.401   4.909   3.331
 3862SOL     OW12484   0.606   0.538   5.017
 3862SOL    HW112485   0.594   0.635   5.034
 3862SOL    HW212486   0.524   0.501   4.971
 3863SOL     OW12487   5.574   2.819   6.710
 3863SOL    HW112488   5.503   2.885   6.733
 3863SOL    HW212489   5.664   2.858   6.733
 3864SOL     OW12490   2.586   0.493   5.576
 3864SOL    HW112491   2.504   0.528   5.621
 3864SOL    HW212492   2.607   0.551   5.497
 3865SOL     OW12493   2.959   0.326   0.190
 3865SOL    HW112494   2.988   0.397   0.127
 3865SOL    HW212495   3.029   0.312   0.260
 3866SOL     OW12496   3.243   0.141   1.102
 3866SOL    HW112497   3.323   0.119   1.046
 3866SOL    HW212498   3.166   0.164   1.043
 3867SOL     OW12499   1.167   4.913   3.923
 3867SOL    HW112500   1.084   4.967   3.920
 3867SOL    HW212501   1.176   4.860   3.838
 3868SOL     OW12502   2.865   6.981   0.259
 3868SOL    HW112503   2.912   7.002   0.173
 3868SOL    HW212504   2.839   6.885   0.261
 3869SOL     OW12505   5.592   4.013   4.896
 3869SOL    HW112506   5.585   4.012   4.796
 3869SOL    HW212507   5.553   4.099   4.930
 3870SOL     OW12508   5.717   6.173   0.158
 3870SOL    HW112509   5.764   6.113   0.223
 3870SOL    HW212510   5.667   6.117   0.092
 3871SOL     OW12511   3.159   0.325   3.168
 3871SOL    HW112512   3.108   0.242   3.193
 3871SOL    HW212513   3.102   0.405   3.185
 3872SOL     OW12514   3.859   3.008   3.936
 3872SOL    HW112515   3.833   2.975   4.027
 3872SOL    HW212516   3.928   3.080   3.946
 3873SOL     OW12517   6.764   2.639   0.391
 3873SOL    HW112518   6.779   2.727   0.437
 3873SOL    HW212519   6.831   2.572   0.424
 3874SOL     OW12520   4.146   5.976   0.125
 3874SOL    HW112521   4.087   6.050   0.093
 3874SOL    HW212522   4.101   5.888   0.110
 3875SOL     OW12523   1.937   3.006   2.130
 3875SOL    HW112524   1.864   2.938   2.119
 3875SOL    HW212525   1.940   3.036   2.225
 3876SOL     OW12526   3.994   5.584   0.945
 3876SOL    HW112527   3.995   5.607   0.848
 3876SOL    HW212528   4.066   5.635   0.992
 3877SOL     OW12529   6.070   3.060   0.515
 3877SOL    HW112530   6.059   3.124   0.591
 3877SOL    HW212531   6.157   3.012   0.524
 3878SOL     OW12532   3.495   6.844   4.347
 3878SOL    HW112533   3.454   6.918   4.399
 3878SOL    HW212534   3.590   6.867   4.326
 3879SOL     OW12535   5.159   5.268   1.540
 3879SOL    HW112536   5.223   5.213   1.594
 3879SOL    HW212537   5.068   5.227   1.544
 3880SOL     OW12538   5.971   4.819   3.846
 3880SOL    HW112539   6.040   4.762   3.889
 3880SOL    HW212540   5.893   4.831   3.908
 3881SOL     OW12541   1.139   3.682   1.699
 3881SOL    HW112542   1.209   3.742   1.661
 3881SOL    HW212543   1.176   3.633   1.778
 3882SOL     OW12544   1.291   1.287   5.540
 3882SOL    HW112545   1.256   1.207   5.491
 3882SOL    HW212546   1.214   1.340   5.576
 3883SOL     OW12547   3.893   0.733   3.346
 3883SOL    HW112548   3.878   0.747   3.443
 3883SOL    HW212549   3.970   0.789   3.315
 3884SOL     OW12550   0.125   4.921   3.597
 3884SOL    HW112551   0.063   4.999   3.596
 3884SOL    HW212552   0.195   4.934   3.668
 3885SOL     OW12553   6.533   0.293   2.805
 3885SOL    HW112554   6.606   0.243   2.852
 3885SOL    HW212555   6.571   0.371   2.757
 3886SOL     OW12556   6.258   6.149   4.831
 3886SOL    HW112557   6.253   6.054   4.860
 3886SOL    HW212558   6.286   6.154   4.735
 3887SOL     OW12559   0.223   0.486   6.069
 3887SOL    HW112560   0.291   0.428   6.023
 3887SOL    HW212561   0.135   0.439   6.072
 3888SOL     OW12562   6.455   0.362   5.364
 3888SOL    HW112563   6.398   0.318   5.294
 3888SOL    HW212564   6.543   0.387   5.324
 3889SOL     OW12565   6.939   3.671   5.764
 3889SOL    HW112566   6.887   3.610   5.705
 3889SOL    HW212567   6.876   3.733   5.811
 3890SOL     OW12568   5.518   5.549   2.709
 3890SOL    HW112569   5.567   5.465   2.685
 3890SOL    HW212570   5.578   5.608   2.763
 3891SOL     OW12571   5.514   4.409   5.156
 3891SOL    HW112572   5.612   4.431   5.161
 3891SOL    HW212573   5.502   4.326   5.102
 3892SOL     OW12574   0.182   1.580   1.223
 3892SOL    HW112575   0.189   1.589   1.124
 3892SOL    HW212576   0.086   1.572   1.250
 3893SOL     OW12577   4.422   4.350   1.112
 3893SOL    HW112578   4.392   4.445   1.116
 3893SOL    HW212579   4.377   4.298   1.185
 3894SOL     OW12580   3.380   2.403   1.031
 3894SOL    HW112581   3.431   2.341   0.971
 3894SOL    HW212582   3.304   2.444   0.980
 3895SOL     OW12583   1.765   0.631   6.078
 3895SOL    HW112584   1.831   0.698   6.112
 3895SOL    HW212585   1.773   0.547   6.133
 3896SOL     OW12586   0.001   0.582   5.791
 3896SOL    HW112587   0.006   0.482   5.789
 3896SOL    HW212588   0.025   0.618   5.700
 3897SOL     OW12589   3.650   5.916   2.328
 3897SOL    HW112590   3.734   5.885   2.283
 3897SOL    HW212591   3.575   5.913   2.262
 3898SOL     OW12592   3.446   3.507   4.522
 3898SOL    HW112593   3.542   3.527   4.504
 3898SOL    HW212594   3.437   3.413   4.554
 3899SOL     OW12595   5.662   0.634   4.434
 3899SOL    HW112596   5.584   0.664   4.489
 3899SOL    HW212597   5.744   0.630   4.491
 3900SOL     OW12598   6.002   2.687   3.881
 3900SOL    HW112599   5.976   2.647   3.794
 3900SOL    HW212600   6.009   2.787   3.871
 3901SOL     OW12601   3.071   0.220   5.372
 3901SOL    HW112602   3.078   0.160   5.452
 3901SOL    HW212603   2.978   0.217   5.337
 3902SOL     OW12604   6.030   3.775   2.533
 3902SOL    HW112605   5.990   3.714   2.464
 3902SOL    HW212606   6.079   3.849   2.487
 3903SOL     OW12607   4.635   5.511   0.522
 3903SOL    HW112608   4.549   5.557   0.501
 3903SOL    HW212609   4.695   5.514   0.442
 3904SOL     OW12610   1.775   6.630   4.934
 3904SOL    HW112611   1.729   6.618   5.023
 3904SOL    HW212612   1.873   6.637   4.948
 3905SOL     OW12613   6.616   0.035   5.486
 3905SOL    HW112614   6.517   0.023   5.493
 3905SOL    HW212615   6.642   0.125   5.521
 3906SOL     OW12616   4.113   5.274   5.168
 3906SOL    HW112617   4.023   5.236   5.189
 3906SOL    HW212618   4.183   5.216   5.208
 3907SOL     OW12619   6.572   6.582   5.538
 3907SOL    HW112620   6.629   6.663   5.525
 3907SOL    HW212621   6.487   6.608   5.583
 3908SOL     OW12622   0.934   0.344   0.597
 3908SOL    HW112623   0.969   0.382   0.511
 3908SOL    HW212624   0.950   0.409   0.671
 3909SOL     OW12625   0.629   5.635   5.326
 3909SOL    HW112626   0.698   5.707   5.322
 3909SOL    HW212627   0.542   5.673   5.358
 3910SOL     OW12628   3.683   3.669   1.794
 3910SOL    HW112629   3.589   3.693   1.816
 3910SOL    HW212630   3.745   3.738   1.832
 3911SOL     OW12631   4.053   0.979   0.075
 3911SOL    HW112632   3.977   0.994   0.011
 3911SOL    HW212633   4.093   1.067   0.100
 3912SOL     OW12634   3.102   0.972   6.755
 3912SOL    HW112635   3.166   1.046   6.777
 3912SOL    HW212636   3.057   0.991   6.668
 3913SOL     OW12637   1.791   5.825   6.592
 3913SOL    HW112638   1.839   5.849   6.508
 3913SOL    HW212639   1.729   5.900   6.618
 3914SOL     OW12640   3.886   0.910   0.695
 3914SOL    HW112641   3.909   0.876   0.786
 3914SOL    HW212642   3.958   0.885   0.631
 3915SOL     OW12643   4.266   6.285   1.849
 3915SOL    HW112644   4.169   6.310   1.844
 3915SOL    HW212645   4.319   6.345   1.789
 3916SOL     OW12646   1.585   6.318   3.106
 3916SOL    HW112647   1.610   6.396   3.163
 3916SOL    HW212648   1.637   6.322   3.021
 3917SOL     OW12649   1.525   4.987   6.948
 3917SOL    HW112650   1.485   4.915   7.003
 3917SOL    HW212651   1.545   4.953   6.856
 3918SOL     OW12652   5.139   6.787   2.203
 3918SOL    HW112653   5.141   6.808   2.105
 3918SOL    HW212654   5.100   6.695   2.216
 3919SOL     OW12655   3.159   6.172   6.445
 3919SOL    HW112656   3.174   6.074   6.430
 3919SOL    HW212657   3.069   6.186   6.486
 3920SOL     OW12658   2.860   2.373   6.584
 3920SOL    HW112659   2.909   2.324   6.656
 3920SOL    HW212660   2.865   2.471   6.601
 3921SOL     OW12661   0.114   3.049   0.613
 3921SOL    HW112662   0.158   3.042   0.703
 3921SOL    HW212663   0.080   2.959   0.585
 3922SOL     OW12664   5.621   4.742   1.387
 3922SOL    HW112665   5.700   4.726   1.328
 3922SOL    HW212666   5.538   4.751   1.331
 3923SOL     OW12667   6.488   1.418   0.128
 3923SOL    HW112668   6.562   1.368   0.171
 3923SOL    HW212669   6.487   1.512   0.161
 3924SOL     OW12670   0.591   5.455   3.151
 3924SOL    HW112671   0.588   5.498   3.242
 3924SOL    HW212672   0.502   5.465   3.107
 3925SOL     OW12673   3.832   4.309   0.778
 3925SOL    HW112674   3.899   4.242   0.747
 3925SOL    HW212675   3.855   4.339   0.870
 3926SOL     OW12676   6.653   6.341   2.866
 3926SOL    HW112677   6.748   6.370   2.873
 3926SOL    HW212678   6.645   6.245   2.890
 3927SOL     OW12679   6.949   3.810   4.179
 3927SOL    HW112680   6.934   3.895   4.230
 3927SOL    HW212681   7.007   3.829   4.100
 3928SOL     OW12682   3.305   5.361   4.747
 3928SOL    HW112683   3.276   5.352   4.843
 3928SOL    HW212684   3.228   5.338   4.687
 3929SOL     OW12685   0.500   2.361   6.433
 3929SOL    HW112686   0.494   2.461   6.428
 3929SOL    HW212687   0.481   2.330   6.526
 3930SOL     OW12688   1.609   2.008   4.061
 3930SOL    HW112689   1.628   1.912   4.044
 3930SOL    HW212690   1.622   2.029   4.158
 3931SOL     OW12691   2.651   1.227   2.852
 3931SOL    HW112692   2.603   1.241   2.938
 3931SOL    HW212693   2.608   1.152   2.801
 3932SOL     OW12694   1.736   4.375   3.240
 3932SOL    HW112695   1.703   4.289   3.200
 3932SOL    HW212696   1.681   4.398   3.320
 3933SOL     OW12697   2.417   6.846   6.709
 3933SOL    HW112698   2.516   6.840   6.705
 3933SOL    HW212699   2.389   6.941   6.693
 3934SOL     OW12700   0.560   1.281   1.433
 3934SOL    HW112701   0.567   1.186   1.402
 3934SOL    HW212702   0.493   1.330   1.377
 3935SOL     OW12703   2.002   0.035   5.318
 3935SOL    HW112704   2.056   7.020   5.393
 3935SOL    HW212705   2.007   6.998   5.239
 3936SOL     OW12706   0.118   5.670   5.504
 3936SOL    HW112707   0.095   5.627   5.592
 3936SOL    HW212708   0.066   5.755   5.494
 3937SOL     OW12709   0.725   0.096   2.312
 3937SOL    HW112710   0.730   0.192   2.285
 3937SOL    HW212711   0.817   0.058   2.317
 3938SOL     OW12712   0.212   2.806   4.176
 3938SOL    HW112713   0.268   2.854   4.245
 3938SOL    HW212714   0.271   2.748   4.120
 3939SOL     OW12715   3.073   1.407   3.024
 3939SOL    HW112716   3.121   1.494   3.016
 3939SOL    HW212717   3.108   1.357   3.103
 3940SOL     OW12718   4.034   4.830   2.194
 3940SOL    HW112719   4.001   4.920   2.220
 3940SOL    HW212720   4.028   4.768   2.272
 3941SOL     OW12721   5.703   1.290   5.556
 3941SOL    HW112722   5.780   1.347   5.585
 3941SOL    HW212723   5.633   1.347   5.514
 3942SOL     OW12724   0.760   6.595   5.196
 3942SOL    HW112725   0.680   6.555   5.242
 3942SOL    HW212726   0.806   6.524   5.142
 3943SOL     OW12727   0.874   3.537   2.987
 3943SOL    HW112728   0.809   3.608   3.017
 3943SOL    HW212729   0.961   3.579   2.964
 3944SOL     OW12730   5.655   3.981   5.353
 3944SOL    HW112731   5.727   3.921   5.389
 3944SOL    HW212732   5.573   3.971   5.410
 3945SOL     OW12733   1.175   2.595   2.355
 3945SOL    HW112734   1.227   2.594   2.441
 3945SOL    HW212735   1.091   2.542   2.366
 3946SOL     OW12736   6.391   4.443   6.003
 3946SOL    HW112737   6.460   4.394   5.950
 3946SOL    HW212738   6.347   4.512   5.945
 3947SOL     OW12739   5.917   5.496   2.012
 3947SOL    HW112740   5.904   5.572   2.076
 3947SOL    HW212741   5.916   5.410   2.063
 3948SOL     OW12742   0.744   4.905   0.749
 3948SOL    HW112743   0.777   4.904   0.844
 3948SOL    HW212744   0.677   4.978   0.737
 3949SOL     OW12745   5.661   0.424   2.822
 3949SOL    HW112746   5.730   0.392   2.887
 3949SOL    HW212747   5.702   0.436   2.732
 3950SOL     OW12748   3.241   3.902   1.623
 3950SOL    HW112749   3.304   3.975   1.648
 3950SOL    HW212750   3.151   3.940   1.604
 3951SOL     OW12751   6.862   6.894   6.740
 3951SOL    HW112752   6.797   6.835   6.789
 3951SOL    HW212753   6.852   6.879   6.642
 3952SOL     OW12754   6.609   3.892   4.499
 3952SOL    HW112755   6.571   3.915   4.409
 3952SOL    HW212756   6.650   3.801   4.496
 3953SOL     OW12757   3.302   4.248   0.498
 3953SOL    HW112758   3.310   4.320   0.566
 3953SOL    HW212759   3.344   4.164   0.533
 3954SOL     OW12760   5.769   5.598   5.609
 3954SOL    HW112761   5.694   5.557   5.662
 3954SOL    HW212762   5.827   5.652   5.670
 3955SOL     OW12763   4.300   6.550   6.956
 3955SOL    HW112764   4.400   6.550   6.954
 3955SOL    HW212765   4.268   6.490   0.005
 3956SOL     OW12766   0.490   2.112   3.383
 3956SOL    HW112767   0.480   2.035   3.447
 3956SOL    HW212768   0.583   2.149   3.391
 3957SOL     OW12769   4.579   6.749   3.591
 3957SOL    HW112770   4.574   6.784   3.684
 3957SOL    HW212771   4.487   6.737   3.555
 3958SOL     OW12772   5.449   0.486   6.248
 3958SOL    HW112773   5.444   0.405   6.305
 3958SOL    HW212774   5.527   0.478   6.186
 3959SOL     OW12775   3.757   6.309   0.723
 3959SOL    HW112776   3.678   6.361   0.689
 3959SOL    HW212777   3.803   6.362   0.795
 3960SOL     OW12778   5.276   1.777   5.987
 3960SOL    HW112779   5.343   1.807   5.920
 3960SOL    HW212780   5.213   1.852   6.008
 3961SOL     OW12781   5.485   2.730   2.050
 3961SOL    HW112782   5.510   2.720   2.146
 3961SOL    HW212783   5.400   2.680   2.033
 3962SOL     OW12784   1.780   5.331   6.759
 3962SOL    HW112785   1.841   5.275   6.816
 3962SOL    HW212786   1.763   5.418   6.804
 3963SOL     OW12787   4.412   4.640   3.776
 3963SOL    HW112788   4.400   4.544   3.751
 3963SOL    HW212789   4.384   4.699   3.700
 3964SOL     OW12790   4.447   4.898   4.356
 3964SOL    HW112791   4.366   4.947   4.323
 3964SOL    HW212792   4.518   4.964   4.380
 3965SOL     OW12793   4.014   3.338   6.197
 3965SOL    HW112794   3.991   3.320   6.101
 3965SOL    HW212795   4.039   3.434   6.208
 3966SOL     OW12796   6.309   5.570   0.379
 3966SOL    HW112797   6.312   5.627   0.461
 3966SOL    HW212798   6.397   5.525   0.366
 3967SOL     OW12799   1.379   4.233   2.760
 3967SOL    HW112800   1.320   4.190   2.828
 3967SOL    HW212801   1.333   4.315   2.724
 3968SOL     OW12802   0.040   0.379   0.961
 3968SOL    HW112803   0.002   0.467   0.990
 3968SOL    HW212804   0.059   0.382   0.862
 3969SOL     OW12805   1.045   3.705   2.831
 3969SOL    HW112806   0.974   3.773   2.847
 3969SOL    HW212807   1.085   3.718   2.740
 3970SOL     OW12808   4.814   5.244   4.123
 3970SOL    HW112809   4.843   5.336   4.099
 3970SOL    HW212810   4.719   5.231   4.095
 3971SOL     OW12811   2.167   4.608   2.445
 3971SOL    HW112812   2.172   4.526   2.387
 3971SOL    HW212813   2.075   4.647   2.440
 3972SOL     OW12814   1.575   5.062   1.046
 3972SOL    HW112815   1.513   5.138   1.064
 3972SOL    HW212816   1.522   4.978   1.031
 3973SOL     OW12817   1.915   4.456   5.579
 3973SOL    HW112818   1.844   4.386   5.590
 3973SOL    HW212819   1.985   4.422   5.516
 3974SOL     OW12820   1.276   0.118   5.301
 3974SOL    HW112821   1.336   0.038   5.304
 3974SOL    HW212822   1.310   0.182   5.233
 3975SOL     OW12823   5.110   0.629   6.365
 3975SOL    HW112824   5.066   0.569   6.432
 3975SOL    HW212825   5.177   0.687   6.412
 3976SOL     OW12826   1.588   5.193   1.781
 3976SOL    HW112827   1.629   5.233   1.862
 3976SOL    HW212828   1.492   5.171   1.799
 3977SOL     OW12829   3.019   4.674   5.371
 3977SOL    HW112830   2.988   4.614   5.297
 3977SOL    HW212831   2.945   4.686   5.437
 3978SOL     OW12832   5.249   0.214   4.744
 3978SOL    HW112833   5.343   0.245   4.729
 3978SOL    HW212834   5.251   0.120   4.778
 3979SOL     OW12835   2.357   5.730   1.619
 3979SOL    HW112836   2.268   5.769   1.599
 3979SOL    HW212837   2.408   5.718   1.534
 3980SOL     OW12838   0.133   4.457   6.803
 3980SOL    HW112839   0.220   4.435   6.847
 3980SOL    HW212840   0.134   4.553   6.775
 3981SOL     OW12841   1.886   1.217   6.264
 3981SOL    HW112842   1.905   1.145   6.197
 3981SOL    HW212843   1.971   1.266   6.285
 3982SOL     OW12844   1.817   0.982   4.471
 3982SOL    HW112845   1.877   0.930   4.532
 3982SOL    HW212846   1.863   1.067   4.443
 3983SOL     OW12847   3.912   5.458   4.026
 3983SOL    HW112848   4.009   5.454   4.049
 3983SOL    HW212849   3.895   5.537   3.967
 3984SOL     OW12850   1.708   0.862   2.759
 3984SOL    HW112851   1.713   0.959   2.734
 3984SOL    HW212852   1.643   0.850   2.833
 3985SOL     OW12853   3.421   4.780   6.623
 3985SOL    HW112854   3.357   4.752   6.552
 3985SOL    HW212855   3.416   4.716   6.700
 3986SOL     OW12856   0.135   2.269   2.279
 3986SOL    HW112857   0.192   2.291   2.358
 3986SOL    HW212858   0.110   2.354   2.232
 3987SOL     OW12859   2.850   5.523   4.483
 3987SOL    HW112860   2.880   5.457   4.414
 3987SOL    HW212861   2.872   5.489   4.574
 3988SOL     OW12862   3.242   3.123   6.756
 3988SOL    HW112863   3.318   3.121   6.821
 3988SOL    HW212864   3.193   3.035   6.760
 3989SOL     OW12865   6.653   1.275   0.272
 3989SOL    HW112866   6.636   1.308   0.365
 3989SOL    HW212867   6.738   1.223   0.271
 3990SOL     OW12868   5.696   2.429   3.362
 3990SOL    HW112869   5.793   2.414   3.382
 3990SOL    HW212870   5.687   2.484   3.279
 3991SOL     OW12871   5.813   1.684   2.305
 3991SOL    HW112872   5.803   1.734   2.391
 3991SOL    HW212873   5.749   1.720   2.238
 3992SOL     OW12874   3.863   2.718   6.812
 3992SOL    HW112875   3.802   2.750   6.740
 3992SOL    HW212876   3.822   2.735   6.902
 3993SOL     OW12877   0.461   2.303   2.845
 3993SOL    HW112878   0.547   2.310   2.896
 3993SOL    HW212879   0.396   2.247   2.896
 3994SOL     OW12880   0.816   2.626   5.986
 3994SOL    HW112881   0.885   2.560   5.957
 3994SOL    HW212882   0.857   2.717   5.994
 3995SOL     OW12883   2.121   3.837   4.060
 3995SOL    HW112884   2.163   3.878   4.142
 3995SOL    HW212885   2.140   3.895   3.981
 3996SOL     OW12886   0.746   1.108   4.264
 3996SOL    HW112887   0.717   1.203   4.264
 3996SOL    HW212888   0.670   1.050   4.294
 3997SOL     OW12889   4.762   2.707   3.116
 3997SOL    HW112890   4.834   2.759   3.070
 3997SOL    HW212891   4.719   2.644   3.051
 3998SOL     OW12892   4.498   0.950   2.790
 3998SOL    HW112893   4.529   0.855   2.795
 3998SOL    HW212894   4.409   0.958   2.834
 3999SOL     OW12895   5.458   3.161   3.840
 3999SOL    HW112896   5.466   3.125   3.933
 3999SOL    HW212897   5.540   3.135   3.787
 4000SOL     OW12898   2.913   5.106   3.023
 4000SOL    HW112899   2.918   5.008   3.006
 4000SOL    HW212900   2.859   5.123   3.106
 4001SOL     OW12901   1.891   1.795   3.919
 4001SOL    HW112902   1.903   1.733   3.841
 4001SOL    HW212903   1.979   1.816   3.960
 4002SOL     OW12904   2.622   2.959   0.282
 4002SOL    HW112905   2.718   2.937   0.262
 4002SOL    HW212906   2.569   2.954   0.197
 4003SOL     OW12907   2.478   6.647   5.290
 4003SOL    HW112908   2.491   6.567   5.232
 4003SOL    HW212909   2.380   6.666   5.299
 4004SOL     OW12910   6.482   1.993   3.642
 4004SOL    HW112911   6.497   2.092   3.641
 4004SOL    HW212912   6.386   1.973   3.624
 4005SOL     OW12913   5.313   5.285   1.079
 4005SOL    HW112914   5.408   5.263   1.103
 4005SOL    HW212915   5.263   5.311   1.161
 4006SOL     OW12916   3.926   5.072   2.292
 4006SOL    HW112917   3.947   5.115   2.379
 4006SOL    HW212918   3.836   5.029   2.296
 4007SOL     OW12919   0.777   3.317   1.121
 4007SOL    HW112920   0.863   3.310   1.172
 4007SOL    HW212921   0.751   3.414   1.112
 4008SOL     OW12922   3.597   2.107   4.312
 4008SOL    HW112923   3.655   2.114   4.231
 4008SOL    HW212924   3.519   2.047   4.293
 4009SOL     OW12925   5.300   2.592   0.371
 4009SOL    HW112926   5.362   2.569   0.295
 4009SOL    HW212927   5.220   2.533   0.366
 4010SOL     OW12928   2.105   3.406   0.886
 4010SOL    HW112929   2.031   3.431   0.824
 4010SOL    HW212930   2.144   3.489   0.926
 4011SOL     OW12931   0.926   0.923   1.384
 4011SOL    HW112932   0.883   1.011   1.400
 4011SOL    HW212933   1.012   0.937   1.334
 4012SOL     OW12934   4.229   4.808   2.023
 4012SOL    HW112935   4.264   4.720   1.992
 4012SOL    HW212936   4.150   4.792   2.082
 4013SOL     OW12937   2.674   0.488   0.962
 4013SOL    HW112938   2.581   0.469   0.995
 4013SOL    HW212939   2.675   0.578   0.918
 4014SOL     OW12940   4.377   6.329   3.149
 4014SOL    HW112941   4.306   6.264   3.177
 4014SOL    HW212942   4.345   6.380   3.068
 4015SOL     OW12943   4.495   5.804   6.434
 4015SOL    HW112944   4.414   5.786   6.489
 4015SOL    HW212945   4.559   5.727   6.441
 4016SOL     OW12946   1.600   5.946   6.181
 4016SOL    HW112947   1.684   5.943   6.126
 4016SOL    HW212948   1.574   5.852   6.206
 4017SOL     OW12949   0.047   6.513   6.874
 4017SOL    HW112950   0.140   6.531   6.905
 4017SOL    HW212951   0.020   6.580   6.805
 4018SOL     OW12952   5.679   6.684   2.114
 4018SOL    HW112953   5.668   6.699   2.016
 4018SOL    HW212954   5.625   6.751   2.164
 4019SOL     OW12955   5.655   3.506   2.961
 4019SOL    HW112956   5.749   3.479   2.941
 4019SOL    HW212957   5.642   3.512   3.060
 4020SOL     OW12958   5.596   2.517   5.524
 4020SOL    HW112959   5.664   2.527   5.451
 4020SOL    HW212960   5.613   2.587   5.594
 4021SOL     OW12961   3.109   3.247   5.648
 4021SOL    HW112962   3.113   3.216   5.743
 4021SOL    HW212963   3.040   3.194   5.599
 4022SOL     OW12964   4.275   0.548   6.892
 4022SOL    HW112965   4.178   0.531   6.907
 4022SOL    HW212966   4.288   0.642   6.858
 4023SOL     OW12967   6.422   1.715   5.005
 4023SOL    HW112968   6.374   1.628   4.991
 4023SOL    HW212969   6.506   1.698   5.056
 4024SOL     OW12970   3.016   5.131   4.354
 4024SOL    HW112971   2.951   5.171   4.290
 4024SOL    HW212972   3.049   5.043   4.319
 4025SOL     OW12973   0.735   6.254   4.709
 4025SOL    HW112974   0.759   6.193   4.785
 4025SOL    HW212975   0.817   6.273   4.655
 4026SOL     OW12976   6.196   6.104   4.027
 4026SOL    HW112977   6.271   6.080   4.088
 4026SOL    HW212978   6.111   6.109   4.079
 4027SOL     OW12979   3.199   3.986   2.175
 4027SOL    HW112980   3.116   3.935   2.196
 4027SOL    HW212981   3.238   4.023   2.259
 4028SOL     OW12982   1.916   2.238   3.519
 4028SOL    HW112983   1.841   2.296   3.552
 4028SOL    HW212984   1.955   2.277   3.436
 4029SOL     OW12985   2.371   4.430   6.042
 4029SOL    HW112986   2.407   4.520   6.018
 4029SOL    HW212987   2.290   4.441   6.101
 4030SOL     OW12988   1.647   1.829   6.845
 4030SOL    HW112989   1.564   1.773   6.842
 4030SOL    HW212990   1.633   1.906   6.907
 4031SOL     OW12991   4.813   5.916   3.035
 4031SOL    HW112992   4.799   5.823   3.071
 4031SOL    HW212993   4.897   5.954   3.074
 4032SOL     OW12994   6.095   0.251   2.961
 4032SOL    HW112995   6.179   0.282   2.916
 4032SOL    HW212996   6.019   0.257   2.897
 4033SOL     OW12997   2.966   3.506   2.885
 4033SOL    HW112998   2.967   3.472   2.791
 4033SOL    HW212999   2.964   3.429   2.949
 4034SOL     OW13000   6.010   1.742   4.996
 4034SOL    HW113001   6.017   1.697   4.907
 4034SOL    HW213002   6.089   1.802   5.009
 4035SOL     OW13003   0.442   2.419   0.788
 4035SOL    HW113004   0.487   2.437   0.875
 4035SOL    HW213005   0.354   2.468   0.785
 4036SOL     OW13006   5.238   6.897   2.687
 4036SOL    HW113007   5.147   6.883   2.725
 4036SOL    HW213008   5.301   6.920   2.761
 4037SOL     OW13009   1.869   2.561   0.489
 4037SOL    HW113010   1.854   2.658   0.471
 4037SOL    HW213011   1.812   2.507   0.426
 4038SOL     OW13012   4.566   4.694   2.125
 4038SOL    HW113013   4.527   4.620   2.179
 4038SOL    HW213014   4.526   4.692   2.033
 4039SOL     OW13015   4.543   4.767   1.737
 4039SOL    HW113016   4.550   4.672   1.766
 4039SOL    HW213017   4.585   4.827   1.805
 4040SOL     OW13018   3.366   6.921   5.929
 4040SOL    HW113019   3.326   6.909   5.838
 4040SOL    HW213020   3.410   7.011   5.934
 4041SOL     OW13021   2.369   5.651   1.200
 4041SOL    HW113022   2.445   5.688   1.253
 4041SOL    HW213023   2.375   5.682   1.106
 4042SOL     OW13024   6.363   4.922   2.939
 4042SOL    HW113025   6.290   4.854   2.949
 4042SOL    HW213026   6.323   5.014   2.943
 4043SOL     OW13027   5.204   2.598   4.492
 4043SOL    HW113028   5.129   2.592   4.427
 4043SOL    HW213029   5.198   2.684   4.542
 4044SOL     OW13030   5.047   0.739   4.395
 4044SOL    HW113031   5.075   0.679   4.469
 4044SOL    HW213032   5.105   0.820   4.393
 4045SOL     OW13033   2.812   4.466   6.259
 4045SOL    HW113034   2.735   4.525   6.235
 4045SOL    HW213035   2.778   4.375   6.284
 4046SOL     OW13036   0.904   1.123   3.585
 4046SOL    HW113037   0.820   1.069   3.595
 4046SOL    HW213038   0.888   1.198   3.521
 4047SOL     OW13039   2.700   2.745   0.973
 4047SOL    HW113040   2.609   2.727   0.937
 4047SOL    HW213041   2.720   2.682   1.048
 4048SOL     OW13042   5.419   1.700   2.136
 4048SOL    HW113043   5.408   1.751   2.050
 4048SOL    HW213044   5.359   1.740   2.206
 4049SOL     OW13045   6.340   6.048   0.386
 4049SOL    HW113046   6.369   6.047   0.290
 4049SOL    HW213047   6.385   5.974   0.435
 4050SOL     OW13048   2.232   6.500   0.514
 4050SOL    HW113049   2.316   6.448   0.494
 4050SOL    HW213050   2.244   6.594   0.483
 4051SOL     OW13051   3.666   2.971   0.372
 4051SOL    HW113052   3.625   3.062   0.363
 4051SOL    HW213053   3.596   2.902   0.355
 4052SOL     OW13054   0.517   0.519   1.705
 4052SOL    HW113055   0.512   0.420   1.689
 4052SOL    HW213056   0.455   0.544   1.779
 4053SOL     OW13057   3.336   5.250   3.855
 4053SOL    HW113058   3.430   5.252   3.889
 4053SOL    HW213059   3.276   5.212   3.926
 4054SOL     OW13060   1.259   3.020   1.334
 4054SOL    HW113061   1.266   3.120   1.341
 4054SOL    HW213062   1.327   2.978   1.394
 4055SOL     OW13063   3.593   3.659   5.803
 4055SOL    HW113064   3.559   3.619   5.718
 4055SOL    HW213065   3.687   3.691   5.790
 4056SOL     OW13066   4.523   2.805   0.226
 4056SOL    HW113067   4.426   2.822   0.241
 4056SOL    HW213068   4.541   2.799   0.127
 4057SOL     OW13069   5.598   2.663   0.123
 4057SOL    HW113070   5.557   2.579   0.158
 4057SOL    HW213071   5.691   2.645   0.090
 4058SOL     OW13072   1.445   1.212   4.393
 4058SOL    HW113073   1.404   1.272   4.324
 4058SOL    HW213074   1.390   1.130   4.403
 4059SOL     OW13075   1.696   2.360   3.208
 4059SOL    HW113076   1.789   2.371   3.242
 4059SOL    HW213077   1.690   2.278   3.151
 4060SOL     OW13078   4.631   5.570   5.494
 4060SOL    HW113079   4.621   5.532   5.402
 4060SOL    HW213080   4.562   5.530   5.554
 4061SOL     OW13081   3.388   4.855   1.785
 4061SOL    HW113082   3.414   4.946   1.817
 4061SOL    HW213083   3.467   4.794   1.793
 4062SOL     OW13084   3.192   1.249   3.268
 4062SOL    HW113085   3.126   1.193   3.319
 4062SOL    HW213086   3.282   1.206   3.271
 4063SOL     OW13087   5.084   0.271   5.211
 4063SOL    HW113088   4.997   0.242   5.170
 4063SOL    HW213089   5.067   0.350   5.271
 4064SOL     OW13090   1.536   6.909   3.614
 4064SOL    HW113091   1.615   6.896   3.554
 4064SOL    HW213092   1.495   6.998   3.596
 4065SOL     OW13093   1.134   6.651   0.225
 4065SOL    HW113094   1.225   6.681   0.197
 4065SOL    HW213095   1.121   6.669   0.322
 4066SOL     OW13096   5.276   5.084   2.644
 4066SOL    HW113097   5.278   5.053   2.739
 4066SOL    HW213098   5.253   5.181   2.641
 4067SOL     OW13099   6.185   3.454   2.303
 4067SOL    HW113100   6.266   3.502   2.269
 4067SOL    HW213101   6.138   3.512   2.370
 4068SOL     OW13102   3.944   0.329   4.418
 4068SOL    HW113103   4.031   0.293   4.451
 4068SOL    HW213104   3.882   0.345   4.496
 4069SOL     OW13105   4.084   3.767   6.678
 4069SOL    HW113106   4.127   3.755   6.588
 4069SOL    HW213107   4.132   3.711   6.745
 4070SOL     OW13108   1.173   3.253   3.241
 4070SOL    HW113109   1.144   3.344   3.270
 4070SOL    HW213110   1.260   3.230   3.286
 4071SOL     OW13111   1.309   0.812   4.979
 4071SOL    HW113112   1.405   0.830   4.958
 4071SOL    HW213113   1.253   0.840   4.901
 4072SOL     OW13114   0.461   6.506   4.108
 4072SOL    HW113115   0.402   6.525   4.030
 4072SOL    HW213116   0.541   6.454   4.078
 4073SOL     OW13117   2.155   5.432   5.499
 4073SOL    HW113118   2.225   5.413   5.430
 4073SOL    HW213119   2.197   5.469   5.581
 4074SOL     OW13120   1.091   2.221   2.248
 4074SOL    HW113121   1.188   2.235   2.227
 4074SOL    HW213122   1.080   2.135   2.297
 4075SOL     OW13123   4.668   2.715   2.364
 4075SOL    HW113124   4.682   2.788   2.296
 4075SOL    HW213125   4.714   2.740   2.449
 4076SOL     OW13126   2.044   3.813   5.973
 4076SOL    HW113127   1.959   3.858   5.999
 4076SOL    HW213128   2.113   3.882   5.950
 4077SOL     OW13129   3.100   6.530   6.844
 4077SOL    HW113130   3.140   6.526   6.936
 4077SOL    HW213131   3.001   6.518   6.851
 4078SOL     OW13132   6.639   5.599   1.657
 4078SOL    HW113133   6.725   5.551   1.673
 4078SOL    HW213134   6.577   5.541   1.604
 4079SOL     OW13135   1.143   1.408   3.344
 4079SOL    HW113136   1.196   1.424   3.427
 4079SOL    HW213137   1.205   1.405   3.265
 4080SOL     OW13138   2.671   3.713   0.696
 4080SOL    HW113139   2.600   3.693   0.764
 4080SOL    HW213140   2.756   3.668   0.723
 4081SOL     OW13141   1.661   1.172   3.822
 4081SOL    HW113142   1.582   1.222   3.859
 4081SOL    HW213143   1.645   1.074   3.834
 4082SOL     OW13144   1.596   1.828   0.859
 4082SOL    HW113145   1.569   1.823   0.955
 4082SOL    HW213146   1.626   1.921   0.837
 4083SOL     OW13147   6.026   4.190   3.804
 4083SOL    HW113148   5.946   4.248   3.821
 4083SOL    HW213149   5.998   4.109   3.753
 4084SOL     OW13150   4.972   2.858   3.040
 4084SOL    HW113151   4.965   2.854   3.140
 4084SOL    HW213152   4.943   2.948   3.008
 4085SOL     OW13153   2.813   5.309   0.550
 4085SOL    HW113154   2.736   5.344   0.497
 4085SOL    HW213155   2.811   5.209   0.551
 4086SOL     OW13156   0.023   4.914   0.955
 4086SOL    HW113157   6.973   4.857   0.919
 4086SOL    HW213158   7.017   4.959   1.039
 4087SOL     OW13159   2.451   0.907   3.175
 4087SOL    HW113160   2.401   0.824   3.203
 4087SOL    HW213161   2.386   0.972   3.136
 4088SOL     OW13162   6.862   1.456   5.639
 4088SOL    HW113163   6.819   1.523   5.699
 4088SOL    HW213164   6.905   1.502   5.562
 4089SOL     OW13165   6.288   5.680   4.810
 4089SOL    HW113166   6.383   5.690   4.780
 4089SOL    HW213167   6.266   5.583   4.820
 4090SOL     OW13168   2.007   5.451   5.147
 4090SOL    HW113169   1.908   5.446   5.165
 4090SOL    HW213170   2.043   5.536   5.183
 4091SOL     OW13171   0.353   5.699   6.849
 4091SOL    HW113172   0.297   5.617   6.862
 4091SOL    HW213173   0.359   5.750   6.934
 4092SOL     OW13174   6.064   2.077   3.795
 4092SOL    HW113175   6.087   2.128   3.878
 4092SOL    HW213176   5.965   2.074   3.784
 4093SOL     OW13177   5.352   6.537   1.195
 4093SOL    HW113178   5.326   6.458   1.251
 4093SOL    HW213179   5.298   6.617   1.223
 4094SOL     OW13180   0.921   5.034   6.321
 4094SOL    HW113181   0.987   4.972   6.363
 4094SOL    HW213182   0.840   5.041   6.380
 4095SOL     OW13183   0.859   3.756   0.277
 4095SOL    HW113184   0.766   3.723   0.262
 4095SOL    HW213185   0.859   3.827   0.347
 4096SOL     OW13186   3.109   0.904   6.294
 4096SOL    HW113187   3.114   0.883   6.196
 4096SOL    HW213188   3.180   0.852   6.342
 4097SOL     OW13189   5.651   5.147   5.778
 4097SOL    HW113190   5.743   5.126   5.813
 4097SOL    HW213191   5.596   5.064   5.777
 4098SOL     OW13192   1.115   3.338   1.132
 4098SOL    HW113193   1.104   3.352   1.034
 4098SOL    HW213194   1.076   3.415   1.182
 4099SOL     OW13195   3.361   4.981   0.953
 4099SOL    HW113196   3.262   4.974   0.971
 4099SOL    HW213197   3.385   5.077   0.942
 4100SOL     OW13198   1.110   0.330   4.240
 4100SOL    HW113199   1.207   0.339   4.218
 4100SOL    HW213200   1.058   0.315   4.156
 4101SOL     OW13201   0.613   1.745   6.799
 4101SOL    HW113202   0.666   1.797   6.866
 4101SOL    HW213203   0.662   1.746   6.711
 4102SOL     OW13204   1.841   0.582   0.598
 4102SOL    HW113205   1.910   0.644   0.635
 4102SOL    HW213206   1.783   0.631   0.534
 4103SOL     OW13207   0.376   6.790   1.947
 4103SOL    HW113208   0.463   6.772   1.994
 4103SOL    HW213209   0.357   6.888   1.951
 4104SOL     OW13210   0.383   5.257   3.590
 4104SOL    HW113211   0.364   5.242   3.493
 4104SOL    HW213212   0.456   5.324   3.600
 4105SOL     OW13213   6.004   0.699   2.357
 4105SOL    HW113214   6.082   0.729   2.302
 4105SOL    HW213215   6.016   0.603   2.383
 4106SOL     OW13216   0.760   2.309   3.387
 4106SOL    HW113217   0.716   2.398   3.373
 4106SOL    HW213218   0.809   2.283   3.304
 4107SOL     OW13219   0.939   6.120   0.392
 4107SOL    HW113220   1.023   6.148   0.439
 4107SOL    HW213221   0.961   6.052   0.322
 4108SOL     OW13222   6.484   5.031   4.678
 4108SOL    HW113223   6.572   5.067   4.707
 4108SOL    HW213224   6.471   4.940   4.718
 4109SOL     OW13225   5.830   6.945   4.622
 4109SOL    HW113226   5.909   6.995   4.587
 4109SOL    HW213227   5.754   6.953   4.558
 4110SOL     OW13228   3.888   3.078   6.200
 4110SOL    HW113229   3.799   3.073   6.247
 4110SOL    HW213230   3.873   3.103   6.104
 4111SOL     OW13231   6.038   4.819   6.356
 4111SOL    HW113232   5.984   4.759   6.297
 4111SOL    HW213233   6.050   4.908   6.311
 4112SOL     OW13234   4.443   6.617   4.339
 4112SOL    HW113235   4.532   6.605   4.382
 4112SOL    HW213236   4.379   6.655   4.406
 4113SOL     OW13237   4.863   5.980   5.059
 4113SOL    HW113238   4.950   5.951   5.020
 4113SOL    HW213239   4.809   5.900   5.085
 4114SOL     OW13240   6.840   1.612   3.046
 4114SOL    HW113241   6.924   1.608   3.099
 4114SOL    HW213242   6.857   1.657   2.959
 4115SOL     OW13243   2.817   5.037   3.525
 4115SOL    HW113244   2.829   4.939   3.540
 4115SOL    HW213245   2.756   5.075   3.595
 4116SOL     OW13246   4.412   1.990   3.348
 4116SOL    HW113247   4.429   1.909   3.291
 4116SOL    HW213248   4.486   2.056   3.335
 4117SOL     OW13249   1.103   2.494   3.420
 4117SOL    HW113250   1.189   2.476   3.468
 4117SOL    HW213251   1.081   2.591   3.428
 4118SOL     OW13252   5.321   6.775   7.005
 4118SOL    HW113253   5.298   6.685   6.966
 4118SOL    HW213254   5.419   6.791   6.995
 4119SOL     OW13255   3.070   1.349   3.877
 4119SOL    HW113256   2.979   1.308   3.866
 4119SOL    HW213257   3.072   1.403   3.961
 4120SOL     OW13258   3.333   1.480   5.935
 4120SOL    HW113259   3.399   1.531   5.880
 4120SOL    HW213260   3.262   1.443   5.875
 4121SOL     OW13261   6.286   0.266   3.327
 4121SOL    HW113262   6.367   0.255   3.270
 4121SOL    HW213263   6.257   0.362   3.325
 4122SOL     OW13264   1.728   6.468   4.530
 4122SOL    HW113265   1.711   6.545   4.590
 4122SOL    HW213266   1.770   6.393   4.582
 4123SOL     OW13267   4.102   4.798   5.090
 4123SOL    HW113268   4.123   4.740   5.011
 4123SOL    HW213269   4.003   4.805   5.100
 4124SOL     OW13270   6.738   6.872   1.189
 4124SOL    HW113271   6.717   6.845   1.095
 4124SOL    HW213272   6.808   6.943   1.188
 4125SOL     OW13273   4.304   2.151   2.844
 4125SOL    HW113274   4.233   2.188   2.784
 4125SOL    HW213275   4.265   2.078   2.900
 4126SOL     OW13276   1.794   3.462   3.402
 4126SOL    HW113277   1.771   3.543   3.455
 4126SOL    HW213278   1.743   3.464   3.315
 4127SOL     OW13279   5.329   3.268   5.834
 4127SOL    HW113280   5.237   3.238   5.856
 4127SOL    HW213281   5.339   3.364   5.857
 4128SOL     OW13282   0.643   3.606   1.730
 4128SOL    HW113283   0.636   3.676   1.801
 4128SOL    HW213284   0.737   3.573   1.725
 4129SOL     OW13285   3.166   1.194   6.991
 4129SOL    HW113286   3.173   1.293   6.998
 4129SOL    HW213287   3.107   1.169   6.915
 4130SOL     OW13288   6.274   2.131   0.192
 4130SOL    HW113289   6.294   2.071   0.269
 4130SOL    HW213290   6.250   2.222   0.225
 4131SOL     OW13291   0.355   1.514   3.043
 4131SOL    HW113292   0.271   1.551   3.004
 4131SOL    HW213293   0.332   1.445   3.112
 4132SOL     OW13294   5.269   3.563   4.340
 4132SOL    HW113295   5.278   3.466   4.318
 4132SOL    HW213296   5.295   3.577   4.436
 4133SOL     OW13297   3.698   5.746   1.635
 4133SOL    HW113298   3.626   5.714   1.696
 4133SOL    HW213299   3.745   5.668   1.594
 4134SOL     OW13300   2.184   4.048   0.891
 4134SOL    HW113301   2.164   4.034   0.989
 4134SOL    HW213302   2.162   3.965   0.840
 4135SOL     OW13303   0.508   2.776   1.714
 4135SOL    HW113304   0.519   2.842   1.789
 4135SOL    HW213305   0.441   2.707   1.740
 4136SOL     OW13306   1.329   3.908   3.049
 4136SOL    HW113307   1.359   3.861   2.966
 4136SOL    HW213308   1.295   3.999   3.026
 4137SOL     OW13309   1.936   3.473   0.699
 4137SOL    HW113310   1.880   3.403   0.654
 4137SOL    HW213311   2.007   3.504   0.636
 4138SOL     OW13312   3.548   5.325   2.841
 4138SOL    HW113313   3.495   5.311   2.758
 4138SOL    HW213314   3.530   5.251   2.905
 4139SOL     OW13315   1.656   1.408   4.445
 4139SOL    HW113316   1.590   1.335   4.432
 4139SOL    HW213317   1.610   1.490   4.480
 4140SOL     OW13318   3.570   1.238   4.585
 4140SOL    HW113319   3.536   1.148   4.557
 4140SOL    HW213320   3.547   1.253   4.681
 4141SOL     OW13321   5.455   6.933   1.064
 4141SOL    HW113322   5.447   6.843   1.107
 4141SOL    HW213323   5.434   6.925   0.966
 4142SOL     OW13324   6.431   3.959   1.366
 4142SOL    HW113325   6.401   3.883   1.423
 4142SOL    HW213326   6.358   4.027   1.359
 4143SOL     OW13327   6.090   2.787   0.288
 4143SOL    HW113328   6.096   2.695   0.327
 4143SOL    HW213329   5.999   2.825   0.305
 4144SOL     OW13330   4.848   1.525   0.146
 4144SOL    HW113331   4.927   1.569   0.188
 4144SOL    HW213332   4.871   1.431   0.122
 4145SOL     OW13333   1.223   6.021   0.894
 4145SOL    HW113334   1.306   6.071   0.869
 4145SOL    HW213335   1.152   6.086   0.920
 4146SOL     OW13336   6.725   0.550   3.424
 4146SOL    HW113337   6.704   0.541   3.522
 4146SOL    HW213338   6.649   0.516   3.370
 4147SOL     OW13339   4.155   4.651   5.985
 4147SOL    HW113340   4.146   4.648   6.084
 4147SOL    HW213341   4.249   4.677   5.960
 4148SOL     OW13342   2.472   0.228   5.450
 4148SOL    HW113343   2.480   0.174   5.534
 4148SOL    HW213344   2.527   0.311   5.459
 4149SOL     OW13345   0.403   4.506   1.070
 4149SOL    HW113346   0.413   4.471   0.977
 4149SOL    HW213347   0.322   4.466   1.113
 4150SOL     OW13348   0.405   0.713   5.310
 4150SOL    HW113349   0.496   0.676   5.330
 4150SOL    HW213350   0.381   0.693   5.215
 4151SOL     OW13351   3.059   5.993   5.963
 4151SOL    HW113352   3.084   5.931   6.036
 4151SOL    HW213353   3.014   5.942   5.889
 4152SOL     OW13354   4.032   5.670   0.694
 4152SOL    HW113355   4.052   5.604   0.622
 4152SOL    HW213356   4.117   5.704   0.734
 4153SOL     OW13357   5.767   5.457   1.720
 4153SOL    HW113358   5.724   5.378   1.764
 4153SOL    HW213359   5.770   5.443   1.622
 4154SOL     OW13360   6.961   5.882   4.335
 4154SOL    HW113361   0.015   5.821   4.351
 4154SOL    HW213362   6.933   5.922   4.422
 4155SOL     OW13363   0.252   0.893   0.972
 4155SOL    HW113364   0.294   0.959   0.910
 4155SOL    HW213365   0.214   0.941   1.051
 4156SOL     OW13366   5.807   5.240   5.448
 4156SOL    HW113367   5.813   5.141   5.434
 4156SOL    HW213368   5.856   5.264   5.532
 4157SOL     OW13369   5.088   5.786   3.611
 4157SOL    HW113370   5.132   5.842   3.540
 4157SOL    HW213371   5.030   5.718   3.567
 4158SOL     OW13372   0.323   2.852   2.256
 4158SOL    HW113373   0.226   2.834   2.239
 4158SOL    HW213374   0.351   2.811   2.342
 4159SOL     OW13375   1.652   2.863   3.390
 4159SOL    HW113376   1.595   2.866   3.308
 4159SOL    HW213377   1.733   2.919   3.377
 4160SOL     OW13378   5.376   0.268   0.187
 4160SOL    HW113379   5.361   0.172   0.211
 4160SOL    HW213380   5.472   0.290   0.200
 4161SOL     OW13381   1.358   2.254   0.998
 4161SOL    HW113382   1.434   2.300   0.952
 4161SOL    HW213383   1.353   2.285   1.093
 4162SOL     OW13384   5.876   5.792   1.004
 4162SOL    HW113385   5.967   5.788   0.963
 4162SOL    HW213386   5.811   5.744   0.946
 4163SOL     OW13387   5.673   0.822   3.619
 4163SOL    HW113388   5.734   0.784   3.550
 4163SOL    HW213389   5.726   0.849   3.699
 4164SOL     OW13390   1.247   0.063   4.619
 4164SOL    HW113391   1.300   7.011   4.657
 4164SOL    HW213392   1.225   0.128   4.692
 4165SOL     OW13393   4.561   0.945   5.256
 4165SOL    HW113394   4.619   0.953   5.176
 4165SOL    HW213395   4.516   0.856   5.256
 4166SOL     OW13396   4.995   0.915   0.805
 4166SOL    HW113397   5.012   0.901   0.903
 4166SOL    HW213398   5.056   0.987   0.771
 4167SOL     OW13399   3.092   4.421   6.641
 4167SOL    HW113400   3.049   4.346   6.692
 4167SOL    HW213401   3.187   4.398   6.623
 4168SOL     OW13402   0.482   4.171   0.694
 4168SOL    HW113403   0.488   4.118   0.609
 4168SOL    HW213404   0.484   4.108   0.772
 4169SOL     OW13405   6.039   4.980   4.584
 4169SOL    HW113406   5.959   5.031   4.617
 4169SOL    HW213407   6.010   4.890   4.552
 4170SOL     OW13408   4.832   3.168   5.603
 4170SOL    HW113409   4.907   3.226   5.571
 4170SOL    HW213410   4.869   3.089   5.652
 4171SOL     OW13411   6.547   5.472   0.643
 4171SOL    HW113412   6.600   5.391   0.666
 4171SOL    HW213413   6.450   5.455   0.660
 4172SOL     OW13414   1.918   1.857   0.185
 4172SOL    HW113415   2.011   1.836   0.217
 4172SOL    HW213416   1.918   1.947   0.141
 4173SOL     OW13417   5.335   3.661   4.619
 4173SOL    HW113418   5.248   3.695   4.655
 4173SOL    HW213419   5.387   3.619   4.693
 4174SOL     OW13420   4.389   1.627   2.356
 4174SOL    HW113421   4.450   1.550   2.336
 4174SOL    HW213422   4.381   1.684   2.274
 4175SOL     OW13423   1.678   4.832   4.171
 4175SOL    HW113424   1.741   4.851   4.247
 4175SOL    HW213425   1.631   4.745   4.188
 4176SOL     OW13426   4.248   6.610   1.392
 4176SOL    HW113427   4.218   6.517   1.413
 4176SOL    HW213428   4.172   6.674   1.406
 4177SOL     OW13429   5.696   4.755   5.571
 4177SOL    HW113430   5.735   4.664   5.558
 4177SOL    HW213431   5.603   4.758   5.535
 4178SOL     OW13432   4.341   0.150   4.000
 4178SOL    HW113433   4.367   0.100   3.918
 4178SOL    HW213434   4.381   0.242   3.997
 4179SOL     OW13435   5.336   3.551   3.449
 4179SOL    HW113436   5.339   3.464   3.400
 4179SOL    HW213437   5.396   3.547   3.529
 4180SOL     OW13438   4.687   2.851   0.627
 4180SOL    HW113439   4.621   2.881   0.696
 4180SOL    HW213440   4.718   2.929   0.573
 4181SOL     OW13441   4.011   0.986   6.766
 4181SOL    HW113442   3.964   1.056   6.820
 4181SOL    HW213443   4.056   1.030   6.688
 4182SOL     OW13444   0.152   5.931   3.421
 4182SOL    HW113445   0.163   5.853   3.483
 4182SOL    HW213446   0.058   5.965   3.427
 4183SOL     OW13447   2.187   1.725   0.268
 4183SOL    HW113448   2.236   1.684   0.192
 4183SOL    HW213449   2.131   1.655   0.313
 4184SOL     OW13450   3.023   6.485   2.681
 4184SOL    HW113451   3.021   6.528   2.591
 4184SOL    HW213452   3.095   6.415   2.684
 4185SOL     OW13453   0.795   4.349   2.898
 4185SOL    HW113454   0.721   4.322   2.959
 4185SOL    HW213455   0.883   4.338   2.945
 4186SOL     OW13456   2.376   5.091   6.354
 4186SOL    HW113457   2.392   5.053   6.445
 4186SOL    HW213458   2.365   5.017   6.288
 4187SOL     OW13459   3.350   3.249   5.501
 4187SOL    HW113460   3.284   3.272   5.573
 4187SOL    HW213461   3.320   3.166   5.454
 4188SOL     OW13462   5.041   0.783   5.028
 4188SOL    HW113463   4.966   0.760   5.090
 4188SOL    HW213464   5.078   0.872   5.052
 4189SOL     OW13465   3.115   5.308   4.536
 4189SOL    HW113466   3.043   5.317   4.605
 4189SOL    HW213467   3.082   5.254   4.459
 4190SOL     OW13468   0.789   0.320   1.194
 4190SOL    HW113469   0.722   0.305   1.121
 4190SOL    HW213470   0.867   0.371   1.159
 4191SOL     OW13471   4.750   4.665   3.625
 4191SOL    HW113472   4.671   4.649   3.683
 4191SOL    HW213473   4.799   4.747   3.656
 4192SOL     OW13474   0.512   1.812   3.414
 4192SOL    HW113475   0.504   1.777   3.321
 4192SOL    HW213476   0.421   1.816   3.456
 4193SOL     OW13477   6.795   0.503   0.904
 4193SOL    HW113478   6.746   0.417   0.922
 4193SOL    HW213479   6.861   0.520   0.977
 4194SOL     OW13480   4.603   0.354   4.812
 4194SOL    HW113481   4.697   0.377   4.786
 4194SOL    HW213482   4.562   0.295   4.743
 4195SOL     OW13483   4.075   6.177   1.021
 4195SOL    HW113484   4.088   6.118   0.941
 4195SOL    HW213485   4.159   6.227   1.039
 4196SOL     OW13486   6.100   2.864   2.774
 4196SOL    HW113487   6.035   2.825   2.708
 4196SOL    HW213488   6.154   2.790   2.814
 4197SOL     OW13489   5.236   5.859   6.095
 4197SOL    HW113490   5.183   5.867   6.011
 4197SOL    HW213491   5.295   5.939   6.104
 4198SOL     OW13492   6.344   1.702   0.629
 4198SOL    HW113493   6.247   1.722   0.614
 4198SOL    HW213494   6.380   1.760   0.702
 4199SOL     OW13495   1.674   2.442   6.134
 4199SOL    HW113496   1.717   2.474   6.049
 4199SOL    HW213497   1.732   2.465   6.212
 4200SOL     OW13498   2.919   6.919   6.277
 4200SOL    HW113499   2.985   6.901   6.204
 4200SOL    HW213500   2.968   6.935   6.362
 4201SOL     OW13501   6.108   6.846   3.454
 4201SOL    HW113502   6.114   6.750   3.483
 4201SOL    HW213503   6.120   6.852   3.355
 4202SOL     OW13504   3.667   5.656   5.846
 4202SOL    HW113505   3.620   5.571   5.868
 4202SOL    HW213506   3.607   5.734   5.864
 4203SOL     OW13507   3.892   4.234   0.110
 4203SOL    HW113508   3.970   4.290   0.083
 4203SOL    HW213509   3.890   4.150   0.055
 4204SOL     OW13510   4.154   3.582   3.850
 4204SOL    HW113511   4.190   3.506   3.797
 4204SOL    HW213512   4.141   3.662   3.791
 4205SOL     OW13513   4.468   6.308   3.879
 4205SOL    HW113514   4.525   6.349   3.807
 4205SOL    HW213515   4.481   6.359   3.965
 4206SOL     OW13516   6.278   0.655   5.412
 4206SOL    HW113517   6.342   0.580   5.397
 4206SOL    HW213518   6.315   0.717   5.481
 4207SOL     OW13519   1.704   2.151   1.753
 4207SOL    HW113520   1.782   2.112   1.704
 4207SOL    HW213521   1.655   2.213   1.692
 4208SOL     OW13522   0.100   3.763   5.396
 4208SOL    HW113523   0.121   3.826   5.320
 4208SOL    HW213524   0.099   3.814   5.482
 4209SOL     OW13525   6.964   0.195   3.761
 4209SOL    HW113526   7.011   0.115   3.798
 4209SOL    HW213527   6.951   0.183   3.662
 4210SOL     OW13528   3.970   3.803   1.965
 4210SOL    HW113529   4.011   3.838   1.881
 4210SOL    HW213530   3.977   3.703   1.966
 4211SOL     OW13531   4.073   0.146   6.462
 4211SOL    HW113532   4.037   0.079   6.527
 4211SOL    HW213533   4.117   0.098   6.386
 4212SOL     OW13534   6.465   1.993   2.633
 4212SOL    HW113535   6.462   1.901   2.674
 4212SOL    HW213536   6.534   1.994   2.560
 4213SOL     OW13537   1.955   0.282   1.791
 4213SOL    HW113538   1.861   0.267   1.824
 4213SOL    HW213539   1.966   0.377   1.763
 4214SOL     OW13540   0.909   5.541   4.930
 4214SOL    HW113541   0.891   5.520   5.027
 4214SOL    HW213542   0.849   5.485   4.873
 4215SOL     OW13543   4.704   0.325   6.147
 4215SOL    HW113544   4.730   0.363   6.058
 4215SOL    HW213545   4.768   0.252   6.171
 4216SOL     OW13546   1.282   1.369   2.777
 4216SOL    HW113547   1.310   1.368   2.681
 4216SOL    HW213548   1.357   1.334   2.834
 4217SOL     OW13549   1.272   0.586   2.448
 4217SOL    HW113550   1.177   0.587   2.417
 4217SOL    HW213551   1.275   0.613   2.545
 4218SOL     OW13552   4.416   1.042   1.743
 4218SOL    HW113553   4.361   1.073   1.665
 4218SOL    HW213554   4.416   0.942   1.745
 4219SOL     OW13555   4.252   5.925   3.672
 4219SOL    HW113556   4.315   5.925   3.749
 4219SOL    HW213557   4.203   5.838   3.668
 4220SOL     OW13558   6.525   3.810   3.557
 4220SOL    HW113559   6.471   3.751   3.618
 4220SOL    HW213560   6.617   3.771   3.547
 4221SOL     OW13561   6.063   5.374   6.110
 4221SOL    HW113562   6.147   5.414   6.074
 4221SOL    HW213563   6.026   5.310   6.043
 4222SOL     OW13564   0.244   1.656   2.017
 4222SOL    HW113565   0.212   1.628   1.926
 4222SOL    HW213566   0.332   1.613   2.036
 4223SOL     OW13567   3.294   3.170   0.120
 4223SOL    HW113568   3.303   3.247   0.183
 4223SOL    HW213569   3.382   3.124   0.110
 4224SOL     OW13570   4.765   4.591   3.927
 4224SOL    HW113571   4.756   4.549   3.837
 4224SOL    HW213572   4.861   4.613   3.944
 4225SOL     OW13573   3.110   2.389   5.586
 4225SOL    HW113574   3.016   2.353   5.591
 4225SOL    HW213575   3.175   2.315   5.599
 4226SOL     OW13576   0.926   0.425   2.924
 4226SOL    HW113577   0.928   0.472   3.012
 4226SOL    HW213578   0.883   0.335   2.936
 4227SOL     OW13579   3.810   4.966   1.323
 4227SOL    HW113580   3.714   4.941   1.308
 4227SOL    HW213581   3.841   4.927   1.409
 4228SOL     OW13582   0.925   5.092   4.936
 4228SOL    HW113583   0.953   5.163   4.871
 4228SOL    HW213584   1.005   5.048   4.974
 4229SOL     OW13585   5.169   6.428   5.958
 4229SOL    HW113586   5.120   6.344   5.982
 4229SOL    HW213587   5.113   6.507   5.981
 4230SOL     OW13588   1.000   5.980   2.568
 4230SOL    HW113589   0.964   5.981   2.661
 4230SOL    HW213590   0.946   6.040   2.510
 4231SOL     OW13591   6.025   6.889   5.620
 4231SOL    HW113592   5.964   6.870   5.698
 4231SOL    HW213593   5.994   6.972   5.573
 4232SOL     OW13594   0.100   4.672   3.044
 4232SOL    HW113595   0.015   4.724   3.039
 4232SOL    HW213596   0.178   4.732   3.024
 4233SOL     OW13597   6.812   0.221   5.587
 4233SOL    HW113598   6.902   0.208   5.546
 4233SOL    HW213599   6.804   0.164   5.669
 4234SOL     OW13600   2.476   6.329   4.754
 4234SOL    HW113601   2.386   6.313   4.715
 4234SOL    HW213602   2.544   6.332   4.680
 4235SOL     OW13603   5.546   4.340   5.762
 4235SOL    HW113604   5.594   4.293   5.688
 4235SOL    HW213605   5.449   4.315   5.760
 4236SOL     OW13606   6.395   3.623   2.333
 4236SOL    HW113607   6.468   3.569   2.290
 4236SOL    HW213608   6.417   3.637   2.430
 4237SOL     OW13609   5.491   5.755   3.129
 4237SOL    HW113610   5.443   5.812   3.063
 4237SOL    HW213611   5.561   5.701   3.082
 4238SOL     OW13612   2.528   6.039   2.734
 4238SOL    HW113613   2.471   6.119   2.753
 4238SOL    HW213614   2.609   6.041   2.793
 4239SOL     OW13615   6.219   1.857   2.521
 4239SOL    HW113616   6.262   1.904   2.597
 4239SOL    HW213617   6.284   1.849   2.445
 4240SOL     OW13618   2.365   5.614   0.541
 4240SOL    HW113619   2.362   5.611   0.641
 4240SOL    HW213620   2.278   5.649   0.506
 4241SOL     OW13621   6.196   1.071   0.328
 4241SOL    HW113622   6.268   1.140   0.325
 4241SOL    HW213623   6.112   1.112   0.364
 4242SOL     OW13624   3.317   1.379   4.329
 4242SOL    HW113625   3.283   1.287   4.310
 4242SOL    HW213626   3.343   1.423   4.243
 4243SOL     OW13627   6.343   2.820   3.136
 4243SOL    HW113628   6.438   2.830   3.106
 4243SOL    HW213629   6.309   2.909   3.169
 4244SOL     OW13630   4.510   4.351   1.500
 4244SOL    HW113631   4.498   4.409   1.580
 4244SOL    HW213632   4.482   4.257   1.522
 4245SOL     OW13633   6.987   1.459   6.615
 4245SOL    HW113634   0.007   1.374   6.644
 4245SOL    HW213635   0.023   1.536   6.631
 4246SOL     OW13636   0.084   4.159   3.412
 4246SOL    HW113637   0.011   4.093   3.429
 4246SOL    HW213638   0.078   4.233   3.478
 4247SOL     OW13639   2.822   5.611   3.750
 4247SOL    HW113640   2.862   5.700   3.729
 4247SOL    HW213641   2.884   5.539   3.720
 4248SOL     OW13642   3.275   1.577   2.623
 4248SOL    HW113643   3.215   1.649   2.588
 4248SOL    HW213644   3.222   1.515   2.680
 4249SOL     OW13645   5.615   2.139   3.322
 4249SOL    HW113646   5.669   2.214   3.284
 4249SOL    HW213647   5.636   2.055   3.271
 4250SOL     OW13648   6.356   4.399   3.054
 4250SOL    HW113649   6.442   4.404   3.004
 4250SOL    HW213650   6.333   4.490   3.090
 4251SOL     OW13651   5.176   4.560   1.999
 4251SOL    HW113652   5.214   4.633   1.943
 4251SOL    HW213653   5.161   4.478   1.942
 4252SOL     OW13654   5.367   6.316   6.301
 4252SOL    HW113655   5.384   6.393   6.240
 4252SOL    HW213656   5.425   6.325   6.383
 4253SOL     OW13657   3.513   6.797   1.002
 4253SOL    HW113658   3.503   6.894   1.025
 4253SOL    HW213659   3.545   6.789   0.907
 4254SOL     OW13660   0.806   3.239   1.974
 4254SOL    HW113661   0.708   3.230   1.958
 4254SOL    HW213662   0.854   3.167   1.924
 4255SOL     OW13663   6.961   4.452   3.529
 4255SOL    HW113664   6.869   4.440   3.567
 4255SOL    HW213665   6.977   4.549   3.509
 4256SOL     OW13666   2.411   6.499   0.197
 4256SOL    HW113667   2.336   6.432   0.195
 4256SOL    HW213668   2.373   6.591   0.200
 4257SOL     OW13669   2.797   0.631   4.634
 4257SOL    HW113670   2.870   0.674   4.687
 4257SOL    HW213671   2.837   0.577   4.560
 4258SOL     OW13672   4.738   6.131   1.088
 4258SOL    HW113673   4.753   6.094   1.180
 4258SOL    HW213674   4.712   6.227   1.095
 4259SOL     OW13675   2.765   0.705   0.793
 4259SOL    HW113676   2.830   0.735   0.723
 4259SOL    HW213677   2.757   0.776   0.863
 4260SOL     OW13678   5.609   0.222   1.325
 4260SOL    HW113679   5.521   0.189   1.358
 4260SOL    HW213680   5.644   0.157   1.257
 4261SOL     OW13681   1.923   0.127   2.579
 4261SOL    HW113682   1.979   0.156   2.657
 4261SOL    HW213683   1.884   0.037   2.599
 4262SOL     OW13684   0.848   5.337   6.161
 4262SOL    HW113685   0.775   5.382   6.212
 4262SOL    HW213686   0.810   5.258   6.113
 4263SOL     OW13687   3.123   6.159   3.169
 4263SOL    HW113688   3.204   6.208   3.201
 4263SOL    HW213689   3.063   6.140   3.247
 4264SOL     OW13690   0.251   2.283   2.561
 4264SOL    HW113691   0.325   2.215   2.556
 4264SOL    HW213692   0.180   2.250   2.623
 4265SOL     OW13693   5.318   1.726   1.071
 4265SOL    HW113694   5.240   1.783   1.048
 4265SOL    HW213695   5.298   1.674   1.154
 4266SOL     OW13696   1.935   5.866   0.496
 4266SOL    HW113697   1.944   5.963   0.473
 4266SOL    HW213698   1.888   5.818   0.422
 4267SOL     OW13699   1.991   2.927   4.313
 4267SOL    HW113700   1.957   3.020   4.330
 4267SOL    HW213701   1.967   2.900   4.219
 4268SOL     OW13702   1.161   5.969   6.831
 4268SOL    HW113703   1.205   5.987   6.743
 4268SOL    HW213704   1.190   6.038   6.897
 4269SOL     OW13705   2.731   0.216   1.923
 4269SOL    HW113706   2.814   0.250   1.879
 4269SOL    HW213707   2.689   0.145   1.865
 4270SOL     OW13708   4.113   3.517   3.474
 4270SOL    HW113709   4.146   3.442   3.531
 4270SOL    HW213710   4.051   3.575   3.528
 4271SOL     OW13711   6.580   1.428   6.866
 4271SOL    HW113712   6.521   1.429   6.947
 4271SOL    HW213713   6.634   1.512   6.863
 4272SOL     OW13714   6.541   2.718   4.452
 4272SOL    HW113715   6.630   2.742   4.412
 4272SOL    HW213716   6.470   2.775   4.411
 4273SOL     OW13717   4.809   6.825   4.801
 4273SOL    HW113718   4.840   6.747   4.747
 4273SOL    HW213719   4.806   6.906   4.743
 4274SOL     OW13720   0.633   6.292   1.641
 4274SOL    HW113721   0.623   6.306   1.739
 4274SOL    HW213722   0.596   6.371   1.592
 4275SOL     OW13723   7.012   1.466   4.108
 4275SOL    HW113724   7.003   1.378   4.155
 4275SOL    HW213725   0.056   1.522   4.155
 4276SOL     OW13726   1.586   4.891   3.629
 4276SOL    HW113727   1.565   4.864   3.535
 4276SOL    HW213728   1.519   4.850   3.691
 4277SOL     OW13729   6.530   4.835   3.892
 4277SOL    HW113730   6.547   4.923   3.936
 4277SOL    HW213731   6.492   4.850   3.801
 4278SOL     OW13732   6.946   0.174   4.246
 4278SOL    HW113733   0.010   0.141   4.281
 4278SOL    HW213734   6.908   0.106   4.183
 4279SOL     OW13735   3.229   0.286   4.164
 4279SOL    HW113736   3.174   0.315   4.086
 4279SOL    HW213737   3.208   0.345   4.243
 4280SOL     OW13738   4.432   0.547   5.796
 4280SOL    HW113739   4.517   0.600   5.806
 4280SOL    HW213740   4.410   0.537   5.699
 4281SOL     OW13741   0.329   4.639   3.747
 4281SOL    HW113742   0.244   4.626   3.799
 4281SOL    HW213743   0.331   4.574   3.671
 4282SOL     OW13744   2.956   4.482   5.827
 4282SOL    HW113745   2.972   4.449   5.734
 4282SOL    HW213746   2.870   4.534   5.830
 4283SOL     OW13747   1.092   0.783   3.096
 4283SOL    HW113748   1.137   0.808   3.010
 4283SOL    HW213749   1.054   0.865   3.138
 4284SOL     OW13750   3.963   4.832   1.559
 4284SOL    HW113751   3.873   4.790   1.570
 4284SOL    HW213752   4.021   4.774   1.501
 4285SOL     OW13753   1.085   0.736   5.940
 4285SOL    HW113754   1.153   0.789   5.991
 4285SOL    HW213755   1.019   0.697   6.004
 4286SOL     OW13756   4.816   6.698   6.235
 4286SOL    HW113757   4.867   6.769   6.185
 4286SOL    HW213758   4.875   6.660   6.306
 4287SOL     OW13759   5.903   2.351   6.176
 4287SOL    HW113760   5.827   2.362   6.241
 4287SOL    HW213761   5.895   2.263   6.130
 4288SOL     OW13762   0.149   6.061   4.075
 4288SOL    HW113763   0.052   6.081   4.090
 4288SOL    HW213764   0.163   6.037   3.979
 4289SOL     OW13765   6.585   2.975   6.775
 4289SOL    HW113766   6.557   3.065   6.743
 4289SOL    HW213767   6.676   2.953   6.740
 4290SOL     OW13768   1.498   6.474   2.607
 4290SOL    HW113769   1.458   6.383   2.602
 4290SOL    HW213770   1.519   6.496   2.702
 4291SOL     OW13771   4.398   3.278   1.275
 4291SOL    HW113772   4.375   3.314   1.184
 4291SOL    HW213773   4.483   3.225   1.269
 4292SOL     OW13774   5.876   3.466   0.211
 4292SOL    HW113775   5.847   3.393   0.273
 4292SOL    HW213776   5.859   3.438   0.116
 4293SOL     OW13777   2.362   3.243   0.294
 4293SOL    HW113778   2.424   3.231   0.371
 4293SOL    HW213779   2.403   3.307   0.229
 4294SOL     OW13780   2.255   2.697   6.859
 4294SOL    HW113781   2.214   2.766   6.919
 4294SOL    HW213782   2.260   2.609   6.906
 4295SOL     OW13783   3.938   6.052   4.655
 4295SOL    HW113784   4.006   6.030   4.585
 4295SOL    HW213785   3.901   6.143   4.637
 4296SOL     OW13786   3.593   6.820   0.341
 4296SOL    HW113787   3.597   6.909   0.297
 4296SOL    HW213788   3.683   6.795   0.377
 4297SOL     OW13789   4.697   0.943   6.900
 4297SOL    HW113790   4.617   0.898   6.940
 4297SOL    HW213791   4.674   0.976   6.809
 4298SOL     OW13792   3.813   5.376   0.603
 4298SOL    HW113793   3.903   5.420   0.601
 4298SOL    HW213794   3.745   5.439   0.565
 4299SOL     OW13795   0.916   3.306   6.267
 4299SOL    HW113796   0.847   3.252   6.219
 4299SOL    HW213797   0.992   3.248   6.294
 4300SOL     OW13798   3.649   0.257   0.027
 4300SOL    HW113799   3.732   0.207   0.002
 4300SOL    HW213800   3.615   0.307   6.972
 4301SOL     OW13801   4.309   1.297   1.246
 4301SOL    HW113802   4.364   1.256   1.174
 4301SOL    HW213803   4.213   1.301   1.216
 4302SOL     OW13804   1.383   6.515   6.392
 4302SOL    HW113805   1.478   6.547   6.392
 4302SOL    HW213806   1.322   6.592   6.410
 4303SOL     OW13807   0.286   4.804   4.340
 4303SOL    HW113808   0.194   4.778   4.311
 4303SOL    HW213809   0.338   4.722   4.363
 4304SOL     OW13810   3.136   3.795   3.224
 4304SOL    HW113811   3.149   3.881   3.175
 4304SOL    HW213812   3.220   3.741   3.220
 4305SOL     OW13813   6.562   0.311   4.946
 4305SOL    HW113814   6.565   0.240   4.876
 4305SOL    HW213815   6.503   0.386   4.916
 4306SOL     OW13816   5.628   4.189   6.046
 4306SOL    HW113817   5.676   4.115   6.092
 4306SOL    HW213818   5.669   4.205   5.956
 4307SOL     OW13819   4.271   4.242   5.751
 4307SOL    HW113820   4.245   4.305   5.824
 4307SOL    HW213821   4.249   4.148   5.779
 4308SOL     OW13822   6.329   5.117   0.218
 4308SOL    HW113823   6.252   5.177   0.239
 4308SOL    HW213824   6.332   5.099   0.120
 4309SOL     OW13825   1.191   1.267   0.047
 4309SOL    HW113826   1.286   1.248   0.071
 4309SOL    HW213827   1.137   1.279   0.130
 4310SOL     OW13828   1.568   2.634   2.542
 4310SOL    HW113829   1.628   2.555   2.551
 4310SOL    HW213830   1.616   2.716   2.573
 4311SOL     OW13831   2.004   5.667   2.791
 4311SOL    HW113832   1.970   5.576   2.812
 4311SOL    HW213833   1.942   5.736   2.827
 4312SOL     OW13834   1.711   4.922   1.292
 4312SOL    HW113835   1.658   4.991   1.244
 4312SOL    HW213836   1.744   4.853   1.227
 4313SOL     OW13837   5.056   1.821   1.816
 4313SOL    HW113838   5.006   1.824   1.902
 4313SOL    HW213839   5.000   1.861   1.743
 4314SOL     OW13840   6.020   1.100   4.377
 4314SOL    HW113841   5.973   1.099   4.289
 4314SOL    HW213842   6.116   1.076   4.364
 4315SOL     OW13843   2.496   6.712   2.268
 4315SOL    HW113844   2.437   6.646   2.222
 4315SOL    HW213845   2.461   6.805   2.252
 4316SOL     OW13846   4.971   0.662   2.009
 4316SOL    HW113847   4.991   0.621   2.098
 4316SOL    HW213848   4.881   0.633   1.978
 4317SOL     OW13849   4.767   2.058   4.732
 4317SOL    HW113850   4.765   1.998   4.652
 4317SOL    HW213851   4.799   2.007   4.811
 4318SOL     OW13852   0.894   3.465   4.963
 4318SOL    HW113853   0.926   3.414   5.043
 4318SOL    HW213854   0.971   3.509   4.918
 4319SOL     OW13855   2.062   2.444   0.870
 4319SOL    HW113856   2.067   2.375   0.942
 4319SOL    HW213857   2.134   2.512   0.885
 4320SOL     OW13858   6.229   5.157   1.093
 4320SOL    HW113859   6.311   5.184   1.043
 4320SOL    HW213860   6.217   5.058   1.087
 4321SOL     OW13861   6.897   6.716   5.112
 4321SOL    HW113862   6.979   6.771   5.130
 4321SOL    HW213863   6.916   6.652   5.038
 4322SOL     OW13864   6.443   2.630   6.302
 4322SOL    HW113865   6.491   2.676   6.228
 4322SOL    HW213866   6.356   2.675   6.319
 4323SOL     OW13867   4.358   3.985   1.281
 4323SOL    HW113868   4.412   4.058   1.323
 4323SOL    HW213869   4.419   3.912   1.250
 4324SOL     OW13870   5.375   4.677   0.219
 4324SOL    HW113871   5.414   4.608   0.158
 4324SOL    HW213872   5.434   4.758   0.221
 4325SOL     OW13873   2.271   1.168   1.490
 4325SOL    HW113874   2.359   1.172   1.537
 4325SOL    HW213875   2.245   1.260   1.460
 4326SOL     OW13876   4.786   4.617   4.515
 4326SOL    HW113877   4.735   4.682   4.570
 4326SOL    HW213878   4.767   4.633   4.418
 4327SOL     OW13879   6.004   6.563   1.723
 4327SOL    HW113880   5.916   6.599   1.693
 4327SOL    HW213881   6.076   6.629   1.701
 4328SOL     OW13882   4.733   3.951   5.312
 4328SOL    HW113883   4.653   3.908   5.355
 4328SOL    HW213884   4.790   3.881   5.270
 4329SOL     OW13885   4.321   1.712   5.874
 4329SOL    HW113886   4.339   1.657   5.956
 4329SOL    HW213887   4.224   1.739   5.874
 4330SOL     OW13888   2.951   6.917   4.611
 4330SOL    HW113889   2.921   6.928   4.706
 4330SOL    HW213890   2.875   6.881   4.556
 4331SOL     OW13891   5.616   1.900   1.514
 4331SOL    HW113892   5.663   1.833   1.457
 4331SOL    HW213893   5.518   1.877   1.516
 4332SOL     OW13894   5.494   3.838   2.327
 4332SOL    HW113895   5.556   3.767   2.362
 4332SOL    HW213896   5.401   3.818   2.357
 4333SOL     OW13897   3.596   0.378   4.930
 4333SOL    HW113898   3.550   0.464   4.953
 4333SOL    HW213899   3.532   0.318   4.882
 4334SOL     OW13900   1.785   2.455   2.565
 4334SOL    HW113901   1.780   2.358   2.591
 4334SOL    HW213902   1.834   2.464   2.479
 4335SOL     OW13903   3.153   3.614   2.341
 4335SOL    HW113904   3.189   3.623   2.434
 4335SOL    HW213905   3.196   3.683   2.282
 4336SOL     OW13906   2.663   6.423   6.766
 4336SOL    HW113907   2.744   6.420   6.825
 4336SOL    HW213908   2.685   6.473   6.682
 4337SOL     OW13909   0.316   4.584   0.733
 4337SOL    HW113910   0.378   4.515   0.771
 4337SOL    HW213911   0.349   4.675   0.757
 4338SOL     OW13912   5.566   5.835   5.119
 4338SOL    HW113913   5.478   5.882   5.117
 4338SOL    HW213914   5.633   5.892   5.166
 4339SOL     OW13915   5.492   3.604   5.304
 4339SOL    HW113916   5.532   3.655   5.228
 4339SOL    HW213917   5.423   3.541   5.268
 4340SOL     OW13918   6.693   2.853   0.962
 4340SOL    HW113919   6.737   2.864   1.051
 4340SOL    HW213920   6.600   2.888   0.966
 4341SOL     OW13921   0.251   5.737   2.205
 4341SOL    HW113922   0.170   5.786   2.173
 4341SOL    HW213923   0.320   5.737   2.133
 4342SOL     OW13924   5.975   4.019   4.058
 4342SOL    HW113925   6.054   4.052   4.007
 4342SOL    HW213926   5.951   3.927   4.027
 4343SOL     OW13927   2.318   6.018   5.086
 4343SOL    HW113928   2.286   5.930   5.052
 4343SOL    HW213929   2.417   6.023   5.080
 4344SOL     OW13930   0.862   4.487   2.097
 4344SOL    HW113931   0.949   4.454   2.061
 4344SOL    HW213932   0.787   4.452   2.041
 4345SOL     OW13933   3.121   3.554   5.181
 4345SOL    HW113934   3.127   3.458   5.209
 4345SOL    HW213935   3.196   3.576   5.118
 4346SOL     OW13936   1.444   3.000   2.368
 4346SOL    HW113937   1.359   3.001   2.420
 4346SOL    HW213938   1.457   3.089   2.324
 4347SOL     OW13939   6.910   6.691   3.530
 4347SOL    HW113940   6.973   6.618   3.555
 4347SOL    HW213941   6.957   6.762   3.478
 4348SOL     OW13942   0.060   4.430   2.920
 4348SOL    HW113943   0.079   4.513   2.973
 4348SOL    HW213944   0.005   4.368   2.976
 4349SOL     OW13945   0.009   2.050   2.474
 4349SOL    HW113946   0.027   2.097   2.388
 4349SOL    HW213947   6.943   2.074   2.507
 4350SOL     OW13948   3.930   1.618   4.129
 4350SOL    HW113949   3.913   1.701   4.182
 4350SOL    HW213950   4.025   1.588   4.144
 4351SOL     OW13951   1.662   5.090   0.560
 4351SOL    HW113952   1.730   5.092   0.633
 4351SOL    HW213953   1.693   5.029   0.487
 4352SOL     OW13954   6.863   3.552   2.010
 4352SOL    HW113955   6.774   3.509   2.018
 4352SOL    HW213956   6.902   3.531   1.920
 4353SOL     OW13957   4.015   3.182   6.579
 4353SOL    HW113958   3.983   3.138   6.663
 4353SOL    HW213959   3.937   3.210   6.523
 4354SOL     OW13960   2.212   6.672   5.681
 4354SOL    HW113961   2.273   6.710   5.751
 4354SOL    HW213962   2.149   6.607   5.724
 4355SOL     OW13963   2.192   0.373   2.620
 4355SOL    HW113964   2.285   0.354   2.651
 4355SOL    HW213965   2.190   0.459   2.570
 4356SOL     OW13966   4.976   3.889   1.280
 4356SOL    HW113967   4.895   3.841   1.314
 4356SOL    HW213968   4.966   3.987   1.295
 4357SOL     OW13969   6.994   1.253   1.289
 4357SOL    HW113970   0.061   1.213   1.279
 4357SOL    HW213971   6.933   1.214   1.221
 4358SOL     OW13972   0.327   6.723   0.291
 4358SOL    HW113973   0.403   6.774   0.250
 4358SOL    HW213974   0.349   6.702   0.386
 4359SOL     OW13975   2.057   1.543   6.407
 4359SOL    HW113976   2.099   1.512   6.322
 4359SOL    HW213977   2.099   1.629   6.436
 4360SOL     OW13978   1.423   2.345   3.250
 4360SOL    HW113979   1.398   2.356   3.346
 4360SOL    HW213980   1.518   2.371   3.237
 4361SOL     OW13981   2.351   3.404   1.456
 4361SOL    HW113982   2.252   3.394   1.467
 4361SOL    HW213983   2.388   3.455   1.534
 4362SOL     OW13984   5.906   5.917   3.128
 4362SOL    HW113985   5.834   5.852   3.154
 4362SOL    HW213986   5.947   5.956   3.211
 4363SOL     OW13987   5.210   2.673   0.996
 4363SOL    HW113988   5.300   2.708   0.969
 4363SOL    HW213989   5.180   2.717   1.080
 4364SOL     OW13990   2.979   3.195   4.735
 4364SOL    HW113991   3.016   3.133   4.804
 4364SOL    HW213992   3.003   3.162   4.644
 4365SOL     OW13993   2.275   1.325   2.005
 4365SOL    HW113994   2.209   1.400   2.014
 4365SOL    HW213995   2.233   1.241   2.038
 4366SOL     OW13996   5.883   0.003   0.157
 4366SOL    HW113997   5.878   0.098   0.188
 4366SOL    HW213998   5.898   6.968   0.235
 4367SOL     OW13999   1.811   4.187   4.396
 4367SOL    HW114000   1.906   4.161   4.412
 4367SOL    HW214001   1.782   4.154   4.306
 4368SOL     OW14002   4.015   4.065   0.774
 4368SOL    HW114003   3.961   3.991   0.734
 4368SOL    HW214004   4.023   4.050   0.872
 4369SOL     OW14005   4.460   5.306   2.785
 4369SOL    HW114006   4.424   5.309   2.692
 4369SOL    HW214007   4.559   5.300   2.783
 4370SOL     OW14008   4.251   5.116   2.172
 4370SOL    HW114009   4.245   5.065   2.086
 4370SOL    HW214010   4.300   5.202   2.156
 4371SOL     OW14011   1.363   1.893   2.054
 4371SOL    HW114012   1.436   1.827   2.038
 4371SOL    HW214013   1.387   1.981   2.014
 4372SOL     OW14014   3.705   1.166   2.534
 4372SOL    HW114015   3.728   1.074   2.568
 4372SOL    HW214016   3.701   1.230   2.610
 4373SOL     OW14017   6.163   2.181   6.484
 4373SOL    HW114018   6.138   2.201   6.389
 4373SOL    HW214019   6.261   2.190   6.496
 4374SOL     OW14020   1.351   2.503   1.485
 4374SOL    HW114021   1.253   2.484   1.485
 4374SOL    HW214022   1.393   2.459   1.565
 4375SOL     OW14023   4.590   0.000   3.507
 4375SOL    HW114024   4.588   6.925   3.519
 4375SOL    HW214025   4.576   0.045   3.595
 4376SOL     OW14026   0.371   6.621   1.155
 4376SOL    HW114027   0.353   6.586   1.063
 4376SOL    HW214028   0.465   6.598   1.182
 4377SOL     OW14029   5.367   4.536   0.722
 4377SOL    HW114030   5.371   4.515   0.625
 4377SOL    HW214031   5.451   4.583   0.750
 4378SOL     OW14032   2.134   2.369   3.120
 4378SOL    HW114033   2.135   2.285   3.066
 4378SOL    HW214034   2.228   2.396   3.142
 4379SOL     OW14035   1.827   1.231   3.001
 4379SOL    HW114036   1.905   1.184   2.960
 4379SOL    HW214037   1.782   1.288   2.932
 4380SOL     OW14038   1.139   6.742   2.632
 4380SOL    HW114039   1.221   6.706   2.587
 4380SOL    HW214040   1.146   6.727   2.730
 4381SOL     OW14041   1.408   5.239   5.346
 4381SOL    HW114042   1.453   5.186   5.418
 4381SOL    HW214043   1.362   5.318   5.387
 4382SOL     OW14044   6.433   3.398   5.401
 4382SOL    HW114045   6.466   3.339   5.474
 4382SOL    HW214046   6.501   3.402   5.327
 4383SOL     OW14047   0.465   3.208   6.250
 4383SOL    HW114048   0.539   3.150   6.216
 4383SOL    HW214049   0.466   3.207   6.350
 4384SOL     OW14050   5.903   1.187   4.613
 4384SOL    HW114051   5.966   1.149   4.545
 4384SOL    HW214052   5.819   1.217   4.568
 4385SOL     OW14053   5.886   2.477   4.704
 4385SOL    HW114054   5.866   2.546   4.635
 4385SOL    HW214055   5.866   2.513   4.795
 4386SOL     OW14056   2.024   3.536   5.908
 4386SOL    HW114057   2.000   3.488   5.824
 4386SOL    HW214058   2.031   3.634   5.890
 4387SOL     OW14059   6.730   1.660   0.884
 4387SOL    HW114060   6.689   1.751   0.881
 4387SOL    HW214061   6.748   1.634   0.979
 4388SOL     OW14062   4.710   2.727   6.531
 4388SOL    HW114063   4.792   2.697   6.481
 4388SOL    HW214064   4.641   2.759   6.465
 4389SOL     OW14065   6.723   2.880   0.525
 4389SOL    HW114066   6.663   2.949   0.483
 4389SOL    HW214067   6.770   2.921   0.603
 4390SOL     OW14068   3.927   0.239   1.569
 4390SOL    HW114069   3.961   0.334   1.567
 4390SOL    HW214070   3.839   0.237   1.616
 4391SOL     OW14071   2.601   5.445   6.677
 4391SOL    HW114072   2.677   5.493   6.722
 4391SOL    HW214073   2.516   5.495   6.694
 4392SOL     OW14074   6.512   3.397   4.511
 4392SOL    HW114075   6.423   3.424   4.548
 4392SOL    HW214076   6.578   3.390   4.586
 4393SOL     OW14077   5.706   0.789   2.825
 4393SOL    HW114078   5.795   0.744   2.838
 4393SOL    HW214079   5.715   0.863   2.759
 4394SOL     OW14080   6.532   5.371   2.431
 4394SOL    HW114081   6.533   5.296   2.365
 4394SOL    HW214082   6.510   5.456   2.383
 4395SOL     OW14083   1.720   6.637   2.560
 4395SOL    HW114084   1.688   6.730   2.581
 4395SOL    HW214085   1.644   6.573   2.569
 4396SOL     OW14086   2.657   2.096   3.824
 4396SOL    HW114087   2.672   2.041   3.742
 4396SOL    HW214088   2.573   2.068   3.869
 4397SOL     OW14089   0.952   1.942   4.519
 4397SOL    HW114090   0.983   1.991   4.601
 4397SOL    HW214091   0.874   1.884   4.543
 4398SOL     OW14092   0.737   3.695   6.151
 4398SOL    HW114093   0.672   3.656   6.086
 4398SOL    HW214094   0.781   3.774   6.110
 4399SOL     OW14095   2.514   0.071   2.605
 4399SOL    HW114096   2.526   0.159   2.558
 4399SOL    HW214097   2.419   0.064   2.637
 4400SOL     OW14098   2.958   6.566   5.304
 4400SOL    HW114099   3.043   6.518   5.325
 4400SOL    HW214100   2.880   6.516   5.343
 4401SOL     OW14101   3.093   6.932   6.048
 4401SOL    HW114102   3.082   0.006   6.056
 4401SOL    HW214103   3.187   6.911   6.021
 4402SOL     OW14104   2.122   0.782   1.777
 4402SOL    HW114105   2.193   0.837   1.822
 4402SOL    HW214106   2.077   0.725   1.846
 4403SOL     OW14107   1.015   0.628   1.207
 4403SOL    HW114108   1.056   0.719   1.201
 4403SOL    HW214109   1.008   0.601   1.303
 4404SOL     OW14110   1.522   5.408   5.623
 4404SOL    HW114111   1.453   5.432   5.691
 4404SOL    HW214112   1.483   5.416   5.531
 4405SOL     OW14113   1.705   4.121   1.865
 4405SOL    HW114114   1.739   4.193   1.925
 4405SOL    HW214115   1.654   4.162   1.789
 4406SOL     OW14116   0.366   3.016   1.094
 4406SOL    HW114117   0.382   2.920   1.119
 4406SOL    HW214118   0.448   3.052   1.050
 4407SOL     OW14119   6.266   5.318   0.676
 4407SOL    HW114120   6.208   5.261   0.619
 4407SOL    HW214121   6.340   5.263   0.714
 4408SOL     OW14122   2.784   0.441   1.206
 4408SOL    HW114123   2.744   0.465   1.118
 4408SOL    HW214124   2.821   0.523   1.249
 4409SOL     OW14125   4.567   1.425   2.263
 4409SOL    HW114126   4.499   1.405   2.193
 4409SOL    HW214127   4.651   1.458   2.220
 4410SOL     OW14128   1.506   5.169   0.113
 4410SOL    HW114129   1.517   5.127   0.023
 4410SOL    HW214130   1.507   5.269   0.103
 4411SOL     OW14131   4.046   3.700   5.076
 4411SOL    HW114132   4.045   3.774   5.009
 4411SOL    HW214133   3.989   3.625   5.044
 4412SOL     OW14134   4.692   6.026   4.068
 4412SOL    HW114135   4.780   6.034   4.020
 4412SOL    HW214136   4.662   6.117   4.097
 4413SOL     OW14137   5.844   5.344   4.620
 4413SOL    HW114138   5.881   5.350   4.713
 4413SOL    HW214139   5.905   5.391   4.557
 4414SOL     OW14140   3.527   5.469   1.193
 4414SOL    HW114141   3.589   5.484   1.116
 4414SOL    HW214142   3.571   5.409   1.260
 4415SOL     OW14143   4.766   2.978   0.931
 4415SOL    HW114144   4.738   2.887   0.963
 4415SOL    HW214145   4.825   2.968   0.851
 4416SOL     OW14146   3.806   1.355   4.496
 4416SOL    HW114147   3.719   1.320   4.532
 4416SOL    HW214148   3.813   1.453   4.517
 4417SOL     OW14149   5.458   4.521   3.732
 4417SOL    HW114150   5.470   4.459   3.654
 4417SOL    HW214151   5.481   4.614   3.704
 4418SOL     OW14152   6.136   2.353   2.066
 4418SOL    HW114153   6.094   2.437   2.030
 4418SOL    HW214154   6.098   2.334   2.156
 4419SOL     OW14155   5.729   6.733   6.140
 4419SOL    HW114156   5.688   6.648   6.107
 4419SOL    HW214157   5.801   6.762   6.077
 4420SOL     OW14158   4.658   1.024   1.641
 4420SOL    HW114159   4.693   1.108   1.598
 4420SOL    HW214160   4.567   1.041   1.677
 4421SOL     OW14161   1.986   1.174   5.248
 4421SOL    HW114162   1.991   1.074   5.243
 4421SOL    HW214163   1.954   1.210   5.160
 4422SOL     OW14164   2.097   4.395   6.989
 4422SOL    HW114165   2.163   4.436   0.028
 4422SOL    HW214166   2.143   4.326   6.934
 4423SOL     OW14167   6.752   3.578   5.286
 4423SOL    HW114168   6.722   3.564   5.381
 4423SOL    HW214169   6.714   3.506   5.228
 4424SOL     OW14170   5.515   1.316   3.961
 4424SOL    HW114171   5.521   1.375   4.042
 4424SOL    HW214172   5.421   1.318   3.927
 4425SOL     OW14173   2.765   4.342   7.012
 4425SOL    HW114174   2.761   4.401   6.932
 4425SOL    HW214175   2.705   4.378   0.059
 4426SOL     OW14176   0.614   1.386   4.300
 4426SOL    HW114177   0.551   1.350   4.230
 4426SOL    HW214178   0.575   1.469   4.340
 4427SOL     OW14179   0.085   6.319   2.820
 4427SOL    HW114180   0.106   6.290   2.913
 4427SOL    HW214181   0.171   6.335   2.770
 4428SOL     OW14182   3.047   0.890   3.828
 4428SOL    HW114183   3.133   0.940   3.821
 4428SOL    HW214184   3.066   0.792   3.826
 4429SOL     OW14185   2.925   6.725   2.781
 4429SOL    HW114186   2.937   6.744   2.879
 4429SOL    HW214187   2.970   6.639   2.758
 4430SOL     OW14188   4.829   3.815   4.453
 4430SOL    HW114189   4.838   3.839   4.357
 4430SOL    HW214190   4.767   3.738   4.463
 4431SOL     OW14191   2.845   1.265   2.572
 4431SOL    HW114192   2.835   1.192   2.504
 4431SOL    HW214193   2.852   1.224   2.663
 4432SOL     OW14194   2.673   3.482   5.792
 4432SOL    HW114195   2.758   3.447   5.752
 4432SOL    HW214196   2.603   3.489   5.722
 4433SOL     OW14197   5.273   1.994   4.307
 4433SOL    HW114198   5.211   2.005   4.384
 4433SOL    HW214199   5.353   2.053   4.320
 4434SOL     OW14200   5.589   1.264   3.027
 4434SOL    HW114201   5.507   1.304   2.985
 4434SOL    HW214202   5.630   1.330   3.090
 4435SOL     OW14203   5.381   3.047   0.969
 4435SOL    HW114204   5.378   3.033   1.068
 4435SOL    HW214205   5.431   2.972   0.926
 4436SOL     OW14206   4.188   0.827   1.424
 4436SOL    HW114207   4.187   0.729   1.403
 4436SOL    HW214208   4.099   0.867   1.404
 4437SOL     OW14209   0.379   2.556   2.756
 4437SOL    HW114210   0.428   2.485   2.805
 4437SOL    HW214211   0.444   2.620   2.714
 4438SOL     OW14212   5.090   0.002   6.424
 4438SOL    HW114213   5.042   0.040   6.345
 4438SOL    HW214214   5.074   0.061   6.504
 4439SOL     OW14215   0.107   3.915   1.457
 4439SOL    HW114216   0.067   3.841   1.402
 4439SOL    HW214217   0.152   3.877   1.538
 4440SOL     OW14218   3.030   4.760   0.337
 4440SOL    HW114219   3.047   4.820   0.415
 4440SOL    HW214220   2.932   4.739   0.332
 4441SOL     OW14221   0.520   1.889   1.757
 4441SOL    HW114222   0.514   1.886   1.857
 4441SOL    HW214223   0.503   1.797   1.720
 4442SOL     OW14224   2.006   5.544   4.198
 4442SOL    HW114225   2.100   5.569   4.175
 4442SOL    HW214226   2.007   5.471   4.266
 4443SOL     OW14227   1.132   3.708   6.448
 4443SOL    HW114228   1.220   3.661   6.447
 4443SOL    HW214229   1.071   3.666   6.381
 4444SOL     OW14230   3.463   4.085   5.089
 4444SOL    HW114231   3.540   4.062   5.029
 4444SOL    HW214232   3.380   4.094   5.034
 4445SOL     OW14233   1.297   6.136   6.994
 4445SOL    HW114234   1.318   6.143   0.067
 4445SOL    HW214235   1.280   6.227   6.957
 4446SOL     OW14236   5.354   1.058   1.341
 4446SOL    HW114237   5.417   1.086   1.269
 4446SOL    HW214238   5.326   1.138   1.393
 4447SOL     OW14239   4.775   4.781   6.101
 4447SOL    HW114240   4.776   4.713   6.028
 4447SOL    HW214241   4.826   4.861   6.072
 4448SOL     OW14242   2.609   4.252   1.739
 4448SOL    HW114243   2.650   4.267   1.649
 4448SOL    HW214244   2.593   4.340   1.783
 4449SOL     OW14245   5.017   0.888   6.082
 4449SOL    HW114246   4.946   0.958   6.089
 4449SOL    HW214247   5.103   0.930   6.054
 4450SOL     OW14248   3.812   3.214   5.967
 4450SOL    HW114249   3.889   3.175   5.916
 4450SOL    HW214250   3.730   3.212   5.910
 4451SOL     OW14251   5.905   4.664   3.124
 4451SOL    HW114252   5.935   4.575   3.157
 4451SOL    HW214253   5.904   4.729   3.199
 4452SOL     OW14254   5.154   5.901   4.391
 4452SOL    HW114255   5.054   5.891   4.401
 4452SOL    HW214256   5.189   5.956   4.466
 4453SOL     OW14257   1.169   3.101   1.638
 4453SOL    HW114258   1.089   3.091   1.577
 4453SOL    HW214259   1.241   3.038   1.608
 4454SOL     OW14260   1.339   1.760   6.944
 4454SOL    HW114261   1.263   1.759   6.878
 4454SOL    HW214262   1.317   1.823   7.018
 4455SOL     OW14263   4.878   6.428   5.965
 4455SOL    HW114264   4.888   6.349   6.026
 4455SOL    HW214265   4.786   6.427   5.925
 4456SOL     OW14266   3.043   5.702   1.870
 4456SOL    HW114267   3.082   5.792   1.850
 4456SOL    HW214268   2.978   5.677   1.798
 4457SOL     OW14269   4.017   1.356   2.485
 4457SOL    HW114270   4.112   1.330   2.497
 4457SOL    HW214271   3.983   1.320   2.397
 4458SOL     OW14272   1.774   2.852   0.456
 4458SOL    HW114273   1.824   2.939   0.456
 4458SOL    HW214274   1.694   2.860   0.397
 4459SOL     OW14275   3.632   1.581   4.834
 4459SOL    HW114276   3.544   1.539   4.856
 4459SOL    HW214277   3.645   1.581   4.735
 4460SOL     OW14278   1.848   2.517   6.356
 4460SOL    HW114279   1.855   2.616   6.349
 4460SOL    HW214280   1.831   2.491   6.451
 4461SOL     OW14281   1.788   0.381   0.437
 4461SOL    HW114282   1.830   0.450   0.496
 4461SOL    HW214283   1.842   0.371   0.354
 4462SOL     OW14284   5.896   5.247   2.135
 4462SOL    HW114285   5.841   5.204   2.207
 4462SOL    HW214286   5.929   5.176   2.073
 4463SOL     OW14287   4.462   1.001   0.669
 4463SOL    HW114288   4.526   1.023   0.596
 4463SOL    HW214289   4.513   0.980   0.753
 4464SOL     OW14290   0.049   4.989   0.352
 4464SOL    HW114291   6.994   5.029   0.397
 4464SOL    HW214292   0.125   4.984   0.417
 4465SOL     OW14293   3.619   5.283   1.388
 4465SOL    HW114294   3.527   5.294   1.427
 4465SOL    HW214295   3.636   5.186   1.370
 4466SOL     OW14296   0.694   2.114   3.170
 4466SOL    HW114297   0.604   2.113   3.212
 4466SOL    HW214298   0.750   2.040   3.209
 4467SOL     OW14299   1.907   5.920   2.301
 4467SOL    HW114300   1.870   5.974   2.377
 4467SOL    HW214301   1.857   5.833   2.296
 4468SOL     OW14302   1.989   3.816   0.420
 4468SOL    HW114303   2.063   3.832   0.355
 4468SOL    HW214304   1.930   3.743   0.387
 4469SOL     OW14305   3.127   0.270   2.028
 4469SOL    HW114306   3.200   0.286   2.095
 4469SOL    HW214307   3.070   0.352   2.021
 4470SOL     OW14308   0.559   2.191   1.666
 4470SOL    HW114309   0.588   2.213   1.759
 4470SOL    HW214310   0.479   2.132   1.669
 4471SOL     OW14311   0.901   2.096   6.345
 4471SOL    HW114312   0.804   2.102   6.322
 4471SOL    HW214313   0.956   2.098   6.261
 4472SOL     OW14314   0.794   3.221   2.281
 4472SOL    HW114315   0.714   3.252   2.331
 4472SOL    HW214316   0.807   3.278   2.200
 4473SOL     OW14317   6.078   2.524   4.060
 4473SOL    HW114318   6.043   2.581   3.986
 4473SOL    HW214319   6.172   2.550   4.081
 4474SOL     OW14320   1.931   0.560   2.336
 4474SOL    HW114321   1.939   0.633   2.405
 4474SOL    HW214322   1.967   0.593   2.249
 4475SOL     OW14323   1.188   4.174   2.262
 4475SOL    HW114324   1.180   4.112   2.184
 4475SOL    HW214325   1.097   4.203   2.291
 4476SOL     OW14326   5.537   0.545   3.180
 4476SOL    HW114327   5.597   0.485   3.128
 4476SOL    HW214328   5.550   0.640   3.151
 4477SOL     OW14329   2.108   6.937   5.572
 4477SOL    HW114330   2.190   6.916   5.625
 4477SOL    HW214331   2.063   7.018   5.610
 4478SOL     OW14332   3.216   6.563   2.955
 4478SOL    HW114333   3.316   6.555   2.953
 4478SOL    HW214334   3.175   6.475   2.929
 4479SOL     OW14335   0.486   2.136   0.726
 4479SOL    HW114336   0.442   2.153   0.814
 4479SOL    HW214337   0.416   2.130   0.655
 4480SOL     OW14338   0.741   4.453   5.151
 4480SOL    HW114339   0.809   4.381   5.164
 4480SOL    HW214340   0.774   4.538   5.191
 4481SOL     OW14341   3.739   5.942   4.813
 4481SOL    HW114342   3.823   5.964   4.763
 4481SOL    HW214343   3.750   5.969   4.909
 4482SOL     OW14344   1.385   2.877   5.267
 4482SOL    HW114345   1.365   2.896   5.363
 4482SOL    HW214346   1.453   2.942   5.233
 4483SOL     OW14347   6.016   2.718   2.204
 4483SOL    HW114348   5.973   2.805   2.182
 4483SOL    HW214349   5.963   2.643   2.163
 4484SOL     OW14350   3.232   2.215   6.705
 4484SOL    HW114351   3.172   2.214   6.624
 4484SOL    HW214352   3.215   2.298   6.758
 4485SOL     OW14353   5.561   2.128   3.911
 4485SOL    HW114354   5.513   2.071   3.978
 4485SOL    HW214355   5.518   2.219   3.908
 4486SOL     OW14356   5.986   5.547   5.431
 4486SOL    HW114357   5.917   5.602   5.478
 4486SOL    HW214358   5.944   5.499   5.354
 4487SOL     OW14359   2.917   2.952   6.062
 4487SOL    HW114360   2.926   2.953   5.962
 4487SOL    HW214361   2.964   2.872   6.099
 4488SOL     OW14362   0.659   3.650   5.685
 4488SOL    HW114363   0.575   3.694   5.651
 4488SOL    HW214364   0.638   3.598   5.768
 4489SOL     OW14365   5.016   5.639   5.274
 4489SOL    HW114366   5.089   5.582   5.312
 4489SOL    HW214367   5.043   5.735   5.280
 4490SOL     OW14368   5.487   2.420   2.226
 4490SOL    HW114369   5.399   2.391   2.263
 4490SOL    HW214370   5.519   2.500   2.277
 4491SOL     OW14371   7.000   3.249   3.814
 4491SOL    HW114372   7.019   3.332   3.762
 4491SOL    HW214373   0.047   3.182   3.796
 4492SOL     OW14374   6.184   4.695   2.076
 4492SOL    HW114375   6.270   4.735   2.046
 4492SOL    HW214376   6.141   4.647   2.000
 4493SOL     OW14377   4.881   4.996   4.659
 4493SOL    HW114378   4.872   5.046   4.572
 4493SOL    HW214379   4.790   4.987   4.701
 4494SOL     OW14380   0.266   0.774   6.703
 4494SOL    HW114381   0.311   0.704   6.759
 4494SOL    HW214382   0.200   0.824   6.758
 4495SOL     OW14383   4.363   0.065   4.327
 4495SOL    HW114384   4.360   0.084   4.229
 4495SOL    HW214385   4.441   0.006   4.348
 4496SOL     OW14386   5.867   6.543   1.199
 4496SOL    HW114387   5.890   6.582   1.110
 4496SOL    HW214388   5.772   6.565   1.221
 4497SOL     OW14389   4.887   2.188   6.484
 4497SOL    HW114390   4.813   2.250   6.456
 4497SOL    HW214391   4.865   2.150   6.574
 4498SOL     OW14392   0.262   3.161   0.258
 4498SOL    HW114393   0.186   3.103   0.229
 4498SOL    HW214394   0.308   3.119   0.336
 4499SOL     OW14395   5.944   3.778   3.963
 4499SOL    HW114396   6.007   3.702   3.976
 4499SOL    HW214397   5.850   3.743   3.957
 4500SOL     OW14398   3.089   3.129   4.504
 4500SOL    HW114399   3.153   3.167   4.437
 4500SOL    HW214400   3.129   3.048   4.546
 4501SOL     OW14401   6.833   3.548   2.715
 4501SOL    HW114402   6.794   3.622   2.661
 4501SOL    HW214403   6.861   3.474   2.655
 4502SOL     OW14404   0.934   3.005   6.875
 4502SOL    HW114405   0.899   2.960   6.793
 4502SOL    HW214406   1.031   2.980   6.887
 4503SOL     OW14407   3.865   6.541   2.040
 4503SOL    HW114408   3.861   6.582   2.130
 4503SOL    HW214409   3.794   6.471   2.032
 4504SOL     OW14410   6.755   0.846   4.659
 4504SOL    HW114411   6.726   0.813   4.569
 4504SOL    HW214412   6.713   0.935   4.677
 4505SOL     OW14413   6.433   5.458   1.976
 4505SOL    HW114414   6.489   5.519   2.032
 4505SOL    HW214415   6.487   5.378   1.950
 4506SOL     OW14416   4.882   3.107   3.824
 4506SOL    HW114417   4.846   3.127   3.916
 4506SOL    HW214418   4.881   3.190   3.769
 4507SOL     OW14419   6.055   4.454   3.234
 4507SOL    HW114420   6.086   4.417   3.321
 4507SOL    HW214421   6.120   4.430   3.162
 4508SOL     OW14422   1.523   5.421   0.074
 4508SOL    HW114423   1.538   5.486   0.149
 4508SOL    HW214424   1.559   5.460   7.013
 4509SOL     OW14425   4.723   2.784   2.796
 4509SOL    HW114426   4.690   2.873   2.765
 4509SOL    HW214427   4.823   2.782   2.792
 4510SOL     OW14428   4.279   2.119   3.956
 4510SOL    HW114429   4.376   2.129   3.977
 4510SOL    HW214430   4.262   2.029   3.915
 4511SOL     OW14431   5.798   3.987   6.496
 4511SOL    HW114432   5.851   3.995   6.580
 4511SOL    HW214433   5.842   4.041   6.424
 4512SOL     OW14434   2.657   1.193   5.586
 4512SOL    HW114435   2.757   1.202   5.591
 4512SOL    HW214436   2.615   1.277   5.620
 4513SOL     OW14437   0.399   4.998   6.401
 4513SOL    HW114438   0.377   5.013   6.305
 4513SOL    HW214439   0.345   4.921   6.436
 4514SOL     OW14440   3.615   2.179   5.723
 4514SOL    HW114441   3.534   2.162   5.779
 4514SOL    HW214442   3.693   2.197   5.783
 4515SOL     OW14443   6.402   2.279   5.084
 4515SOL    HW114444   6.484   2.260   5.031
 4515SOL    HW214445   6.372   2.194   5.129
 4516SOL     OW14446   1.979   6.745   0.139
 4516SOL    HW114447   1.896   6.800   0.139
 4516SOL    HW214448   2.034   6.767   0.059
 4517SOL     OW14449   4.489   0.411   6.993
 4517SOL    HW114450   4.412   0.473   6.981
 4517SOL    HW214451   4.507   0.362   6.907
 4518SOL     OW14452   0.151   6.791   2.152
 4518SOL    HW114453   0.138   6.882   2.191
 4518SOL    HW214454   0.229   6.792   2.090
 4519SOL     OW14455   6.631   0.327   1.285
 4519SOL    HW114456   6.579   0.242   1.300
 4519SOL    HW214457   6.584   0.383   1.217
 4520SOL     OW14458   4.877   6.207   5.740
 4520SOL    HW114459   4.900   6.289   5.793
 4520SOL    HW214460   4.818   6.233   5.664
 4521SOL     OW14461   5.604   2.010   4.921
 4521SOL    HW114462   5.660   1.944   4.971
 4521SOL    HW214463   5.615   2.101   4.960
 4522SOL     OW14464   5.413   5.123   3.531
 4522SOL    HW114465   5.346   5.085   3.595
 4522SOL    HW214466   5.370   5.135   3.441
 4523SOL     OW14467   0.967   4.840   0.159
 4523SOL    HW114468   1.026   4.772   0.116
 4523SOL    HW214469   1.014   4.928   0.162
 4524SOL     OW14470   6.229   2.945   1.489
 4524SOL    HW114471   6.322   2.939   1.524
 4524SOL    HW214472   6.163   2.932   1.563
 4525SOL     OW14473   5.002   2.369   5.037
 4525SOL    HW114474   4.940   2.385   4.961
 4525SOL    HW214475   5.095   2.398   5.012
 4526SOL     OW14476   6.603   0.371   6.669
 4526SOL    HW114477   6.520   0.361   6.725
 4526SOL    HW214478   6.579   0.362   6.573
 4527SOL     OW14479   6.344   1.209   3.221
 4527SOL    HW114480   6.378   1.295   3.181
 4527SOL    HW214481   6.248   1.220   3.246
 4528SOL     OW14482   4.319   0.377   6.672
 4528SOL    HW114483   4.261   0.312   6.721
 4528SOL    HW214484   4.328   0.461   6.727
 4529SOL     OW14485   2.214   0.111   5.091
 4529SOL    HW114486   2.189   0.020   5.123
 4529SOL    HW214487   2.139   0.175   5.111
 4530SOL     OW14488   1.503   5.547   4.307
 4530SOL    HW114489   1.440   5.470   4.319
 4530SOL    HW214490   1.596   5.518   4.331
 4531SOL     OW14491   0.332   2.828   4.820
 4531SOL    HW114492   0.243   2.799   4.784
 4531SOL    HW214493   0.388   2.748   4.841
 4532SOL     OW14494   6.672   0.919   2.253
 4532SOL    HW114495   6.737   0.916   2.329
 4532SOL    HW214496   6.591   0.971   2.280
 4533SOL     OW14497   1.642   1.765   1.975
 4533SOL    HW114498   1.628   1.704   2.052
 4533SOL    HW214499   1.704   1.840   2.002
 4534SOL     OW14500   5.085   4.229   4.709
 4534SOL    HW114501   5.004   4.281   4.681
 4534SOL    HW214502   5.080   4.213   4.808
 4535SOL     OW14503   3.580   0.656   2.164
 4535SOL    HW114504   3.643   0.579   2.169
 4535SOL    HW214505   3.632   0.741   2.156
 4536SOL     OW14506   4.591   1.910   4.305
 4536SOL    HW114507   4.508   1.857   4.325
 4536SOL    HW214508   4.621   1.891   4.212
 4537SOL     OW14509   3.976   3.497   0.613
 4537SOL    HW114510   3.919   3.446   0.549
 4537SOL    HW214511   4.063   3.449   0.625
 4538SOL     OW14512   1.940   0.375   2.709
 4538SOL    HW114513   2.031   0.365   2.668
 4538SOL    HW214514   1.890   0.447   2.661
 4539SOL     OW14515   3.495   6.079   4.751
 4539SOL    HW114516   3.411   6.025   4.744
 4539SOL    HW214517   3.568   6.023   4.791
 4540SOL     OW14518   2.486   2.298   6.701
 4540SOL    HW114519   2.390   2.278   6.681
 4540SOL    HW214520   2.530   2.333   6.618
 4541SOL     OW14521   5.897   1.884   6.222
 4541SOL    HW114522   5.831   1.825   6.267
 4541SOL    HW214523   5.990   1.848   6.235
 4542SOL     OW14524   0.295   1.946   1.492
 4542SOL    HW114525   0.265   1.974   1.401
 4542SOL    HW214526   0.250   2.003   1.561
 4543SOL     OW14527   4.342   2.473   1.069
 4543SOL    HW114528   4.392   2.484   1.155
 4543SOL    HW214529   4.245   2.493   1.085
 4544SOL     OW14530   3.603   5.592   6.579
 4544SOL    HW114531   3.552   5.519   6.624
 4544SOL    HW214532   3.581   5.593   6.481
 4545SOL     OW14533   5.506   3.080   4.072
 4545SOL    HW114534   5.596   3.041   4.051
 4545SOL    HW214535   5.437   3.008   4.068
 4546SOL     OW14536   2.104   0.895   4.166
 4546SOL    HW114537   2.166   0.865   4.239
 4546SOL    HW214538   2.156   0.913   4.083
 4547SOL     OW14539   6.119   1.905   0.605
 4547SOL    HW114540   6.079   1.855   0.681
 4547SOL    HW214541   6.075   1.994   0.596
 4548SOL     OW14542   1.634   2.818   4.303
 4548SOL    HW114543   1.604   2.850   4.393
 4548SOL    HW214544   1.701   2.882   4.265
 4549SOL     OW14545   5.934   4.182   2.333
 4549SOL    HW114546   5.921   4.278   2.310
 4549SOL    HW214547   5.854   4.130   2.306
 4550SOL     OW14548   1.307   5.698   3.200
 4550SOL    HW114549   1.368   5.642   3.256
 4550SOL    HW214550   1.237   5.639   3.160
 4551SOL     OW14551   0.536   3.672   4.761
 4551SOL    HW114552   0.565   3.638   4.851
 4551SOL    HW214553   0.477   3.604   4.717
 4552SOL     OW14554   6.266   2.248   0.797
 4552SOL    HW114555   6.249   2.160   0.843
 4552SOL    HW214556   6.186   2.274   0.744
 4553SOL     OW14557   4.314   4.364   7.016
 4553SOL    HW114558   4.224   4.385   6.979
 4553SOL    HW214559   4.311   4.367   0.091
 4554SOL     OW14560   6.488   6.966   1.632
 4554SOL    HW114561   6.428   6.958   1.552
 4554SOL    HW214562   6.438   7.010   1.707
 4555SOL     OW14563   2.169   2.092   5.254
 4555SOL    HW114564   2.120   2.046   5.180
 4555SOL    HW214565   2.179   2.189   5.232
 4556SOL     OW14566   5.515   3.036   4.544
 4556SOL    HW114567   5.421   3.051   4.512
 4556SOL    HW214568   5.518   2.953   4.600
 4557SOL     OW14569   4.912   5.563   5.021
 4557SOL    HW114570   4.894   5.465   5.025
 4557SOL    HW214571   4.973   5.588   5.096
 4558SOL     OW14572   0.046   4.265   4.761
 4558SOL    HW114573   0.002   4.299   4.678
 4558SOL    HW214574   0.041   4.335   4.832
 4559SOL     OW14575   0.320   3.758   2.214
 4559SOL    HW114576   0.306   3.659   2.226
 4559SOL    HW214577   0.234   3.801   2.186
 4560SOL     OW14578   5.211   4.541   1.386
 4560SOL    HW114579   5.239   4.446   1.398
 4560SOL    HW214580   5.130   4.544   1.326
 4561SOL     OW14581   3.011   1.969   3.080
 4561SOL    HW114582   2.924   2.009   3.109
 4561SOL    HW214583   3.052   2.027   3.009
 4562SOL     OW14584   2.279   6.796   6.463
 4562SOL    HW114585   2.324   6.847   6.536
 4562SOL    HW214586   2.323   6.707   6.453
 4563SOL     OW14587   0.570   2.335   1.275
 4563SOL    HW114588   0.582   2.359   1.372
 4563SOL    HW214589   0.657   2.303   1.238
 4564SOL     OW14590   6.831   5.849   2.029
 4564SOL    HW114591   6.898   5.778   2.006
 4564SOL    HW214592   6.771   5.864   1.950
 4565SOL     OW14593   0.548   0.536   4.700
 4565SOL    HW114594   0.569   0.533   4.603
 4565SOL    HW214595   0.554   0.630   4.734
 4566SOL     OW14596   0.169   2.826   0.275
 4566SOL    HW114597   0.091   2.886   0.293
 4566SOL    HW214598   0.187   2.823   0.176
 4567SOL     OW14599   6.516   0.925   6.314
 4567SOL    HW114600   6.556   0.891   6.399
 4567SOL    HW214601   6.449   0.996   6.334
 4568SOL     OW14602   1.691   3.212   6.062
 4568SOL    HW114603   1.647   3.127   6.033
 4568SOL    HW214604   1.764   3.191   6.127
 4569SOL     OW14605   2.115   0.875   3.230
 4569SOL    HW114606   2.172   0.910   3.156
 4569SOL    HW214607   2.055   0.948   3.264
 4570SOL     OW14608   0.008   6.665   2.352
 4570SOL    HW114609   0.058   6.730   2.295
 4570SOL    HW214610   0.064   6.641   2.431
 4571SOL     OW14611   4.532   4.067   6.264
 4571SOL    HW114612   4.616   4.060   6.210
 4571SOL    HW214613   4.554   4.098   6.356
 4572SOL     OW14614   1.940   0.569   6.633
 4572SOL    HW114615   1.899   0.637   6.572
 4572SOL    HW214616   1.930   0.600   6.728
 4573SOL     OW14617   6.455   0.597   7.020
 4573SOL    HW114618   6.366   0.603   0.041
 4573SOL    HW214619   6.473   0.502   6.995
 4574SOL     OW14620   5.713   4.367   0.527
 4574SOL    HW114621   5.751   4.318   0.605
 4574SOL    HW214622   5.711   4.306   0.447
 4575SOL     OW14623   5.529   0.471   5.802
 4575SOL    HW114624   5.463   0.521   5.747
 4575SOL    HW214625   5.560   0.528   5.878
 4576SOL     OW14626   3.665   5.926   5.556
 4576SOL    HW114627   3.673   5.865   5.477
 4576SOL    HW214628   3.571   5.921   5.591
 4577SOL     OW14629   0.783   2.007   3.972
 4577SOL    HW114630   0.858   1.984   4.034
 4577SOL    HW214631   0.727   1.926   3.957
 4578SOL     OW14632   0.788   2.674   4.914
 4578SOL    HW114633   0.883   2.651   4.935
 4578SOL    HW214634   0.729   2.600   4.946
 4579SOL     OW14635   3.995   0.148   3.430
 4579SOL    HW114636   3.959   0.216   3.494
 4579SOL    HW214637   4.095   0.153   3.430
 4580SOL     OW14638   5.165   4.587   0.896
 4580SOL    HW114639   5.232   4.594   0.822
 4580SOL    HW214640   5.212   4.562   0.981
 4581SOL     OW14641   2.136   5.853   1.923
 4581SOL    HW114642   2.159   5.783   1.991
 4581SOL    HW214643   2.162   5.821   1.832
 4582SOL     OW14644   4.294   0.980   4.675
 4582SOL    HW114645   4.344   0.907   4.628
 4582SOL    HW214646   4.197   0.974   4.652
 4583SOL     OW14647   2.801   2.054   6.862
 4583SOL    HW114648   2.756   2.028   6.776
 4583SOL    HW214649   2.880   1.995   6.878
 4584SOL     OW14650   0.713   4.991   5.159
 4584SOL    HW114651   0.773   4.979   5.080
 4584SOL    HW214652   0.760   5.046   5.228
 4585SOL     OW14653   1.829   5.283   3.192
 4585SOL    HW114654   1.839   5.380   3.215
 4585SOL    HW214655   1.920   5.241   3.186
 4586SOL     OW14656   3.856   4.398   1.085
 4586SOL    HW114657   3.812   4.483   1.114
 4586SOL    HW214658   3.792   4.322   1.098
 4587SOL     OW14659   3.377   4.052   3.852
 4587SOL    HW114660   3.461   4.071   3.903
 4587SOL    HW214661   3.302   4.036   3.917
 4588SOL     OW14662   2.402   3.546   5.340
 4588SOL    HW114663   2.461   3.624   5.358
 4588SOL    HW214664   2.431   3.500   5.256
 4589SOL     OW14665   6.229   0.791   2.209
 4589SOL    HW114666   6.249   0.888   2.194
 4589SOL    HW214667   6.189   0.752   2.126
 4590SOL     OW14668   4.504   4.973   1.408
 4590SOL    HW114669   4.411   4.938   1.408
 4590SOL    HW214670   4.519   5.029   1.490
 4591SOL     OW14671   2.077   0.464   4.890
 4591SOL    HW114672   2.139   0.429   4.820
 4591SOL    HW214673   2.006   0.396   4.908
 4592SOL     OW14674   2.545   1.513   3.610
 4592SOL    HW114675   2.619   1.578   3.591
 4592SOL    HW214676   2.565   1.463   3.695
 4593SOL     OW14677   5.173   5.864   2.221
 4593SOL    HW114678   5.097   5.915   2.260
 4593SOL    HW214679   5.152   5.837   2.127
 4594SOL     OW14680   2.439   1.132   3.410
 4594SOL    HW114681   2.471   1.054   3.355
 4594SOL    HW214682   2.502   1.209   3.398
 4595SOL     OW14683   4.668   3.000   5.480
 4595SOL    HW114684   4.737   3.061   5.520
 4595SOL    HW214685   4.676   3.004   5.380
 4596SOL     OW14686   6.318   0.838   2.479
 4596SOL    HW114687   6.283   0.931   2.493
 4596SOL    HW214688   6.288   0.804   2.390
 4597SOL     OW14689   4.025   5.360   7.019
 4597SOL    HW114690   3.941   5.395   6.978
 4597SOL    HW214691   4.071   5.298   6.955
 4598SOL     OW14692   1.481   6.088   0.811
 4598SOL    HW114693   1.475   6.064   0.714
 4598SOL    HW214694   1.488   6.004   0.865
 4599SOL     OW14695   1.769   5.043   0.135
 4599SOL    HW114696   1.851   5.067   0.083
 4599SOL    HW214697   1.694   5.103   0.108
 4600SOL     OW14698   0.817   5.840   5.339
 4600SOL    HW114699   0.807   5.936   5.310
 4600SOL    HW214700   0.838   5.836   5.436
 4601SOL     OW14701   1.472   1.421   5.377
 4601SOL    HW114702   1.495   1.514   5.348
 4601SOL    HW214703   1.388   1.422   5.430
 4602SOL     OW14704   3.176   6.348   0.290
 4602SOL    HW114705   3.177   6.350   0.390
 4602SOL    HW214706   3.099   6.291   0.259
 4603SOL     OW14707   4.020   6.663   1.046
 4603SOL    HW114708   3.941   6.690   1.102
 4603SOL    HW214709   4.057   6.743   0.999
 4604SOL     OW14710   4.214   0.208   6.851
 4604SOL    HW114711   4.149   0.132   6.844
 4604SOL    HW214712   4.261   0.204   6.939
 4605SOL     OW14713   1.573   6.219   2.460
 4605SOL    HW114714   1.508   6.273   2.407
 4605SOL    HW214715   1.523   6.149   2.512
 4606SOL     OW14716   0.605   6.682   2.152
 4606SOL    HW114717   0.695   6.642   2.133
 4606SOL    HW214718   0.533   6.615   2.134
 4607SOL     OW14719   2.116   3.227   2.663
 4607SOL    HW114720   2.159   3.137   2.666
 4607SOL    HW214721   2.076   3.248   2.752
 4608SOL     OW14722   0.483   5.855   3.600
 4608SOL    HW114723   0.390   5.831   3.572
 4608SOL    HW214724   0.479   5.925   3.672
 4609SOL     OW14725   4.996   5.121   6.789
 4609SOL    HW114726   5.081   5.096   6.744
 4609SOL    HW214727   4.958   5.040   6.835
 4610SOL     OW14728   4.964   2.000   0.207
 4610SOL    HW114729   5.038   2.046   0.256
 4610SOL    HW214730   4.900   1.960   0.273
 4611SOL     OW14731   1.353   6.333   5.989
 4611SOL    HW114732   1.336   6.425   6.024
 4611SOL    HW214733   1.383   6.273   6.063
 4612SOL     OW14734   1.834   6.476   0.716
 4612SOL    HW114735   1.750   6.529   0.726
 4612SOL    HW214736   1.822   6.407   0.645
 4613SOL     OW14737   1.588   5.530   2.136
 4613SOL    HW114738   1.562   5.622   2.106
 4613SOL    HW214739   1.516   5.491   2.193
 4614SOL     OW14740   6.001   3.544   3.554
 4614SOL    HW114741   5.976   3.618   3.492
 4614SOL    HW214742   6.095   3.558   3.586
 4615SOL     OW14743   1.751   0.981   0.052
 4615SOL    HW114744   1.753   1.079   0.034
 4615SOL    HW214745   1.836   0.940   0.021
 4616SOL     OW14746   6.360   1.365   4.433
 4616SOL    HW114747   6.337   1.390   4.527
 4616SOL    HW214748   6.409   1.278   4.432
 4617SOL     OW14749   1.393   2.530   2.168
 4617SOL    HW114750   1.328   2.493   2.101
 4617SOL    HW214751   1.344   2.565   2.247
 4618SOL     OW14752   2.368   3.154   5.374
 4618SOL    HW114753   2.288   3.149   5.313
 4618SOL    HW214754   2.450   3.131   5.322
 4619SOL     OW14755   3.234   6.061   3.632
 4619SOL    HW114756   3.210   5.980   3.579
 4619SOL    HW214757   3.199   6.142   3.586
 4620SOL     OW14758   2.212   4.967   0.952
 4620SOL    HW114759   2.175   5.043   0.899
 4620SOL    HW214760   2.303   4.990   0.984
 4621SOL     OW14761   4.985   0.531   2.649
 4621SOL    HW114762   4.936   0.618   2.642
 4621SOL    HW214763   5.047   0.535   2.728
 4622SOL     OW14764   3.650   4.709   0.393
 4622SOL    HW114765   3.740   4.724   0.352
 4622SOL    HW214766   3.591   4.786   0.372
 4623SOL     OW14767   5.094   5.818   1.940
 4623SOL    HW114768   4.995   5.813   1.947
 4623SOL    HW214769   5.121   5.908   1.908
 4624SOL     OW14770   3.659   0.033   2.704
 4624SOL    HW114771   3.581   0.041   2.766
 4624SOL    HW214772   3.688   0.124   2.675
 4625SOL     OW14773   1.668   4.540   1.546
 4625SOL    HW114774   1.616   4.570   1.466
 4625SOL    HW214775   1.732   4.611   1.574
 4626SOL     OW14776   4.994   4.182   2.219
 4626SOL    HW114777   4.906   4.226   2.236
 4626SOL    HW214778   5.068   4.242   2.251
 4627SOL     OW14779   1.403   4.628   5.180
 4627SOL    HW114780   1.369   4.540   5.213
 4627SOL    HW214781   1.500   4.619   5.156
 4628SOL     OW14782   4.624   4.336   4.344
 4628SOL    HW114783   4.626   4.349   4.443
 4628SOL    HW214784   4.583   4.416   4.301
 4629SOL     OW14785   2.940   5.440   5.171
 4629SOL    HW114786   2.860   5.455   5.112
 4629SOL    HW214787   2.924   5.359   5.229
 4630SOL     OW14788   2.598   6.065   1.919
 4630SOL    HW114789   2.578   6.163   1.915
 4630SOL    HW214790   2.609   6.038   2.014
 4631SOL     OW14791   1.158   5.934   3.173
 4631SOL    HW114792   1.132   6.000   3.244
 4631SOL    HW214793   1.190   5.850   3.216
 4632SOL     OW14794   2.530   4.648   2.852
 4632SOL    HW114795   2.591   4.687   2.782
 4632SOL    HW214796   2.449   4.705   2.861
 4633SOL     OW14797   6.194   0.730   4.578
 4633SOL    HW114798   6.183   0.651   4.638
 4633SOL    HW214799   6.154   0.811   4.621
 4634SOL     OW14800   2.578   3.772   5.333
 4634SOL    HW114801   2.667   3.818   5.332
 4634SOL    HW214802   2.507   3.836   5.304
 4635SOL     OW14803   4.984   3.758   2.022
 4635SOL    HW114804   4.968   3.659   2.031
 4635SOL    HW214805   4.963   3.786   1.929
 4636SOL     OW14806   2.641   4.764   0.025
 4636SOL    HW114807   2.579   4.695   7.013
 4636SOL    HW214808   2.646   4.841   6.987
 4637SOL     OW14809   0.649   6.803   0.549
 4637SOL    HW114810   0.657   6.732   0.480
 4637SOL    HW214811   0.668   6.892   0.507
 4638SOL     OW14812   4.102   4.649   0.125
 4638SOL    HW114813   4.066   4.673   0.215
 4638SOL    HW214814   4.141   4.731   0.083
 4639SOL     OW14815   3.383   3.529   6.199
 4639SOL    HW114816   3.394   3.601   6.268
 4639SOL    HW214817   3.381   3.571   6.108
 4640SOL     OW14818   4.823   4.026   4.102
 4640SOL    HW114819   4.826   3.930   4.132
 4640SOL    HW214820   4.757   4.075   4.158
 4641SOL     OW14821   2.728   0.183   5.075
 4641SOL    HW114822   2.759   0.147   5.162
 4641SOL    HW214823   2.792   0.252   5.043
 4642SOL     OW14824   1.187   6.805   3.486
 4642SOL    HW114825   1.155   6.822   3.393
 4642SOL    HW214826   1.111   6.815   3.550
 4643SOL     OW14827   6.842   2.418   0.692
 4643SOL    HW114828   6.846   2.443   0.789
 4643SOL    HW214829   6.751   2.437   0.656
 4644SOL     OW14830   0.380   5.972   5.252
 4644SOL    HW114831   0.442   6.028   5.197
 4644SOL    HW214832   0.360   5.887   5.204
 4645SOL     OW14833   0.637   0.402   3.723
 4645SOL    HW114834   0.548   0.360   3.740
 4645SOL    HW214835   0.640   0.493   3.765
 4646SOL     OW14836   2.188   5.224   3.181
 4646SOL    HW114837   2.277   5.179   3.175
 4646SOL    HW214838   2.167   5.244   3.277
 4647SOL     OW14839   1.895   0.331   2.987
 4647SOL    HW114840   1.903   0.322   2.887
 4647SOL    HW214841   1.952   0.407   3.018
 4648SOL     OW14842   3.310   0.274   2.672
 4648SOL    HW114843   3.378   0.241   2.606
 4648SOL    HW214844   3.269   0.196   2.719
 4649SOL     OW14845   5.253   1.350   6.803
 4649SOL    HW114846   5.214   1.314   6.718
 4649SOL    HW214847   5.314   1.281   6.843
 4650SOL     OW14848   4.814   5.565   2.399
 4650SOL    HW114849   4.914   5.559   2.392
 4650SOL    HW214850   4.789   5.596   2.490
 4651SOL     OW14851   6.281   3.964   6.759
 4651SOL    HW114852   6.182   3.977   6.763
 4651SOL    HW214853   6.310   3.907   6.836
 4652SOL     OW14854   5.297   6.533   4.556
 4652SOL    HW114855   5.361   6.557   4.629
 4652SOL    HW214856   5.290   6.608   4.491
 4653SOL     OW14857   5.187   5.667   1.312
 4653SOL    HW114858   5.140   5.709   1.390
 4653SOL    HW214859   5.286   5.676   1.324
 4654SOL     OW14860   0.859   6.081   6.501
 4654SOL    HW114861   0.816   6.126   6.580
 4654SOL    HW214862   0.831   6.129   6.417
 4655SOL     OW14863   5.960   3.559   1.012
 4655SOL    HW114864   5.880   3.597   0.964
 4655SOL    HW214865   6.001   3.630   1.069
 4656SOL     OW14866   1.384   0.831   2.153
 4656SOL    HW114867   1.325   0.797   2.079
 4656SOL    HW214868   1.450   0.760   2.179
 4657SOL     OW14869   4.419   5.689   1.580
 4657SOL    HW114870   4.377   5.609   1.624
 4657SOL    HW214871   4.350   5.738   1.527
 4658SOL     OW14872   3.322   0.187   3.794
 4658SOL    HW114873   3.358   0.099   3.824
 4658SOL    HW214874   3.232   0.202   3.835
 4659SOL     OW14875   2.692   3.956   5.603
 4659SOL    HW114876   2.723   3.895   5.530
 4659SOL    HW214877   2.727   4.048   5.587
 4660SOL     OW14878   0.481   5.693   5.019
 4660SOL    HW114879   0.429   5.621   5.064
 4660SOL    HW214880   0.568   5.707   5.067
 4661SOL     OW14881   3.058   4.185   6.366
 4661SOL    HW114882   3.026   4.167   6.273
 4661SOL    HW214883   2.980   4.199   6.426
 4662SOL     OW14884   2.852   0.190   5.583
 4662SOL    HW114885   2.947   0.167   5.603
 4662SOL    HW214886   2.849   0.274   5.529
 4663SOL     OW14887   0.312   1.361   1.324
 4663SOL    HW114888   0.260   1.345   1.408
 4663SOL    HW214889   0.276   1.443   1.278
 4664SOL     OW14890   1.287   1.185   0.611
 4664SOL    HW114891   1.367   1.145   0.656
 4664SOL    HW214892   1.305   1.281   0.592
 4665SOL     OW14893   4.126   6.670   6.338
 4665SOL    HW114894   4.033   6.705   6.355
 4665SOL    HW214895   4.188   6.709   6.406
 4666SOL     OW14896   2.645   2.439   6.902
 4666SOL    HW114897   2.580   2.394   6.841
 4666SOL    HW214898   2.599   2.465   6.987
 4667SOL     OW14899   6.384   3.869   1.846
 4667SOL    HW114900   6.382   3.966   1.822
 4667SOL    HW214901   6.321   3.819   1.786
 4668SOL     OW14902   4.703   1.943   3.498
 4668SOL    HW114903   4.756   1.948   3.583
 4668SOL    HW214904   4.650   2.026   3.487
 4669SOL     OW14905   5.251   6.142   0.875
 4669SOL    HW114906   5.242   6.103   0.783
 4669SOL    HW214907   5.255   6.068   0.942
 4670SOL     OW14908   1.646   2.144   6.123
 4670SOL    HW114909   1.663   2.242   6.106
 4670SOL    HW214910   1.733   2.099   6.142
 4671SOL     OW14911   0.943   3.380   6.687
 4671SOL    HW114912   0.894   3.465   6.671
 4671SOL    HW214913   0.881   3.313   6.728
 4672SOL     OW14914   2.539   5.298   5.657
 4672SOL    HW114915   2.553   5.274   5.561
 4672SOL    HW214916   2.617   5.268   5.711
 4673SOL     OW14917   4.840   0.105   1.751
 4673SOL    HW114918   4.749   0.134   1.781
 4673SOL    HW214919   4.908   0.130   1.820
 4674SOL     OW14920   4.845   1.392   6.638
 4674SOL    HW114921   4.751   1.403   6.672
 4674SOL    HW214922   4.909   1.402   6.714
 4675SOL     OW14923   2.137   1.373   6.912
 4675SOL    HW114924   2.191   1.404   6.834
 4675SOL    HW214925   2.040   1.372   6.888
 4676SOL     OW14926   5.833   6.258   3.893
 4676SOL    HW114927   5.747   6.300   3.864
 4676SOL    HW214928   5.814   6.174   3.945
 4677SOL     OW14929   2.600   1.114   6.874
 4677SOL    HW114930   2.644   1.065   6.950
 4677SOL    HW214931   2.577   1.207   6.904
 4678SOL     OW14932   2.015   4.364   2.686
 4678SOL    HW114933   1.924   4.396   2.711
 4678SOL    HW214934   2.082   4.434   2.708
 4679SOL     OW14935   3.185   1.481   6.920
 4679SOL    HW114936   3.130   1.543   6.976
 4679SOL    HW214937   3.264   1.530   6.883
 4680SOL     OW14938   2.144   1.580   1.037
 4680SOL    HW114939   2.065   1.595   1.097
 4680SOL    HW214940   2.164   1.664   0.987
 4681SOL     OW14941   5.829   6.225   5.832
 4681SOL    HW114942   5.864   6.313   5.799
 4681SOL    HW214943   5.730   6.220   5.815
 4682SOL     OW14944   4.090   4.923   5.852
 4682SOL    HW114945   4.075   4.837   5.901
 4682SOL    HW214946   4.002   4.969   5.839
 4683SOL     OW14947   4.441   4.568   2.937
 4683SOL    HW114948   4.461   4.540   3.031
 4683SOL    HW214949   4.500   4.518   2.874
 4684SOL     OW14950   6.835   2.104   5.193
 4684SOL    HW114951   6.825   2.188   5.248
 4684SOL    HW214952   6.780   2.031   5.234
 4685SOL     OW14953   0.571   6.126   5.126
 4685SOL    HW114954   0.648   6.130   5.062
 4685SOL    HW214955   0.534   6.217   5.140
 4686SOL     OW14956   5.224   5.485   0.664
 4686SOL    HW114957   5.199   5.442   0.578
 4686SOL    HW214958   5.225   5.416   0.737
 4687SOL     OW14959   6.562   4.454   5.189
 4687SOL    HW114960   6.471   4.431   5.222
 4687SOL    HW214961   6.625   4.460   5.267
 4688SOL     OW14962   6.504   4.079   5.213
 4688SOL    HW114963   6.544   4.036   5.293
 4688SOL    HW214964   6.570   4.078   5.138
 4689SOL     OW14965   5.946   0.921   0.042
 4689SOL    HW114966   5.898   0.905   6.980
 4689SOL    HW214967   6.045   0.926   0.025
 4690SOL     OW14968   1.298   0.453   0.289
 4690SOL    HW114969   1.276   0.538   0.338
 4690SOL    HW214970   1.388   0.421   0.318
 4691SOL     OW14971   2.767   4.734   2.222
 4691SOL    HW114972   2.782   4.682   2.139
 4691SOL    HW214973   2.703   4.685   2.282
 4692SOL     OW14974   6.379   5.596   2.332
 4692SOL    HW114975   6.328   5.510   2.324
 4692SOL    HW214976   6.343   5.649   2.408
 4693SOL     OW14977   0.704   0.652   3.201
 4693SOL    HW114978   0.795   0.616   3.180
 4693SOL    HW214979   0.668   0.604   3.281
 4694SOL     OW14980   2.726   0.465   0.486
 4694SOL    HW114981   2.732   0.446   0.584
 4694SOL    HW214982   2.739   0.381   0.434
 4695SOL     OW14983   2.493   3.511   1.685
 4695SOL    HW114984   2.432   3.466   1.750
 4695SOL    HW214985   2.458   3.602   1.663
 4696SOL     OW14986   0.074   4.015   6.314
 4696SOL    HW114987   0.146   4.079   6.339
 4696SOL    HW214988   0.000   4.064   6.268
 4697SOL     OW14989   2.418   3.019   0.890
 4697SOL    HW114990   2.506   2.981   0.915
 4697SOL    HW214991   2.400   3.102   0.943
 4698SOL     OW14992   4.622   5.977   2.610
 4698SOL    HW114993   4.578   5.962   2.522
 4698SOL    HW214994   4.625   5.890   2.661
 4699SOL     OW14995   1.203   6.571   1.794
 4699SOL    HW114996   1.263   6.533   1.724
 4699SOL    HW214997   1.177   6.664   1.770
 4700SOL     OW14998   6.679   1.894   2.464
 4700SOL    HW114999   6.725   1.806   2.456
 4700SOL    HW215000   6.728   1.951   2.530
 4701SOL     OW15001   2.482   2.214   0.888
 4701SOL    HW115002   2.450   2.233   0.981
 4701SOL    HW215003   2.430   2.137   0.851
 4702SOL     OW15004   5.633   4.605   6.631
 4702SOL    HW115005   5.703   4.535   6.618
 4702SOL    HW215006   5.656   4.686   6.579
 4703SOL     OW15007   1.219   2.454   2.003
 4703SOL    HW115008   1.173   2.537   1.971
 4703SOL    HW215009   1.167   2.373   1.974
 4704SOL     OW15010   1.218   6.684   6.527
 4704SOL    HW115011   1.129   6.683   6.573
 4704SOL    HW215012   1.291   6.675   6.595
 4705SOL     OW15013   3.396   3.482   2.835
 4705SOL    HW115014   3.457   3.540   2.781
 4705SOL    HW215015   3.335   3.540   2.889
 4706SOL     OW15016   3.872   6.497   6.465
 4706SOL    HW115017   3.964   6.465   6.440
 4706SOL    HW215018   3.804   6.429   6.438
 4707SOL     OW15019   2.740   5.826   1.151
 4707SOL    HW115020   2.800   5.831   1.231
 4707SOL    HW215021   2.782   5.768   1.081
 4708SOL     OW15022   1.381   2.169   6.503
 4708SOL    HW115023   1.305   2.194   6.563
 4708SOL    HW215024   1.397   2.243   6.438
 4709SOL     OW15025   4.560   5.949   6.160
 4709SOL    HW115026   4.575   5.881   6.088
 4709SOL    HW215027   4.504   5.909   6.233
 4710SOL     OW15028   4.146   1.267   5.684
 4710SOL    HW115029   4.131   1.241   5.588
 4710SOL    HW215030   4.220   1.211   5.722
 4711SOL     OW15031   5.557   1.403   1.859
 4711SOL    HW115032   5.584   1.401   1.762
 4711SOL    HW215033   5.631   1.445   1.912
 4712SOL     OW15034   3.496   4.321   7.008
 4712SOL    HW115035   3.409   4.358   6.977
 4712SOL    HW215036   3.485   4.226   0.011
 4713SOL     OW15037   3.489   3.132   1.009
 4713SOL    HW115038   3.560   3.131   1.080
 4713SOL    HW215039   3.454   3.225   1.000
 4714SOL     OW15040   1.471   2.705   6.883
 4714SOL    HW115041   1.516   2.704   6.794
 4714SOL    HW215042   1.539   2.715   6.956
 4715SOL     OW15043   7.024   3.205   1.804
 4715SOL    HW115044   0.091   3.166   1.812
 4715SOL    HW215045   6.956   3.138   1.835
 4716SOL     OW15046   4.807   6.379   6.416
 4716SOL    HW115047   4.815   6.301   6.478
 4716SOL    HW215048   4.877   6.447   6.439
 4717SOL     OW15049   0.101   6.268   3.238
 4717SOL    HW115050   0.197   6.242   3.246
 4717SOL    HW215051   0.043   6.187   3.249
 4718SOL     OW15052   5.815   2.598   0.425
 4718SOL    HW115053   5.730   2.608   0.478
 4718SOL    HW215054   5.882   2.665   0.457
 4719SOL     OW15055   5.565   3.374   2.208
 4719SOL    HW115056   5.551   3.276   2.221
 4719SOL    HW215057   5.616   3.390   2.124
 4720SOL     OW15058   1.866   5.774   5.319
 4720SOL    HW115059   1.870   5.818   5.409
 4720SOL    HW215060   1.957   5.772   5.279
 4721SOL     OW15061   6.286   2.669   1.300
 4721SOL    HW115062   6.229   2.634   1.375
 4721SOL    HW215063   6.369   2.709   1.339
 4722SOL     OW15064   0.632   5.868   6.778
 4722SOL    HW115065   0.670   5.961   6.784
 4722SOL    HW215066   0.676   5.819   6.703
 4723SOL     OW15067   1.743   4.347   6.333
 4723SOL    HW115068   1.755   4.440   6.369
 4723SOL    HW215069   1.789   4.281   6.392
 4724SOL     OW15070   5.135   6.058   2.943
 4724SOL    HW115071   5.100   6.071   2.850
 4724SOL    HW215072   5.067   6.090   3.009
 4725SOL     OW15073   6.286   6.512   2.693
 4725SOL    HW115074   6.330   6.443   2.636
 4725SOL    HW215075   6.337   6.598   2.688
 4726SOL     OW15076   1.348   2.773   6.239
 4726SOL    HW115077   1.368   2.690   6.291
 4726SOL    HW215078   1.426   2.794   6.180
 4727SOL     OW15079   1.153   6.346   0.188
 4727SOL    HW115080   1.193   6.297   0.265
 4727SOL    HW215081   1.091   6.417   0.222
 4728SOL     OW15082   5.266   0.379   1.187
 4728SOL    HW115083   5.167   0.371   1.190
 4728SOL    HW215084   5.295   0.400   1.093
 4729SOL     OW15085   2.401   1.265   1.765
 4729SOL    HW115086   2.366   1.300   1.852
 4729SOL    HW215087   2.476   1.323   1.734
 4730SOL     OW15088   3.278   5.947   4.645
 4730SOL    HW115089   3.261   6.031   4.594
 4730SOL    HW215090   3.193   5.913   4.684
 4731SOL     OW15091   4.240   0.020   6.216
 4731SOL    HW115092   4.180   6.970   6.186
 4731SOL    HW215093   4.288   0.058   6.137
 4732SOL     OW15094   0.759   3.664   5.408
 4732SOL    HW115095   0.737   3.668   5.506
 4732SOL    HW215096   0.824   3.737   5.386
 4733SOL     OW15097   1.588   4.448   3.479
 4733SOL    HW115098   1.529   4.406   3.548
 4733SOL    HW215099   1.638   4.524   3.520
 4734SOL     OW15100   5.180   2.605   6.854
 4734SOL    HW115101   5.278   2.603   6.834
 4734SOL    HW215102   5.161   2.677   6.921
 4735SOL     OW15103   0.202   5.901   4.503
 4735SOL    HW115104   0.293   5.940   4.487
 4735SOL    HW215105   0.196   5.813   4.457
 4736SOL     OW15106   6.992   2.294   6.437
 4736SOL    HW115107   7.004   2.207   6.388
 4736SOL    HW215108   6.894   2.313   6.448
 4737SOL     OW15109   2.261   4.925   1.857
 4737SOL    HW115110   2.170   4.883   1.846
 4737SOL    HW215111   2.251   5.024   1.866
 4738SOL     OW15112   6.883   6.454   2.898
 4738SOL    HW115113   6.916   6.547   2.915
 4738SOL    HW215114   6.953   6.401   2.851
 4739SOL     OW15115   4.160   6.445   3.332
 4739SOL    HW115116   4.250   6.415   3.366
 4739SOL    HW215117   4.116   6.503   3.401
 4740SOL     OW15118   1.201   1.838   0.863
 4740SOL    HW115119   1.250   1.921   0.836
 4740SOL    HW215120   1.113   1.863   0.902
 4741SOL     OW15121   3.542   2.971   1.749
 4741SOL    HW115122   3.479   2.898   1.722
 4741SOL    HW215123   3.500   3.028   1.819
 4742SOL     OW15124   2.624   6.389   5.880
 4742SOL    HW115125   2.619   6.352   5.787
 4742SOL    HW215126   2.680   6.472   5.880
 4743SOL     OW15127   1.755   3.720   3.048
 4743SOL    HW115128   1.776   3.626   3.020
 4743SOL    HW215129   1.788   3.735   3.141
 4744SOL     OW15130   2.541   4.732   0.756
 4744SOL    HW115131   2.593   4.651   0.732
 4744SOL    HW215132   2.452   4.705   0.792
 4745SOL     OW15133   3.078   3.634   5.912
 4745SOL    HW115134   2.984   3.667   5.898
 4745SOL    HW215135   3.075   3.549   5.964
 4746SOL     OW15136   4.976   6.116   3.163
 4746SOL    HW115137   4.898   6.174   3.188
 4746SOL    HW215138   5.059   6.150   3.207
 4747SOL     OW15139   1.465   4.361   6.924
 4747SOL    HW115140   1.514   4.409   6.996
 4747SOL    HW215141   1.369   4.350   6.950
 4748SOL     OW15142   2.559   5.434   1.357
 4748SOL    HW115143   2.484   5.375   1.388
 4748SOL    HW215144   2.524   5.527   1.342
 4749SOL     OW15145   2.373   6.542   6.446
 4749SOL    HW115146   2.302   6.521   6.379
 4749SOL    HW215147   2.370   6.475   6.520
 4750SOL     OW15148   7.024   4.015   4.651
 4750SOL    HW115149   0.041   4.091   4.702
 4750SOL    HW215150   6.925   4.030   4.643
 4751SOL     OW15151   4.140   1.955   2.971
 4751SOL    HW115152   4.130   1.882   3.038
 4751SOL    HW215153   4.061   2.017   2.978
 4752SOL     OW15154   4.339   1.339   6.996
 4752SOL    HW115155   4.263   1.344   6.931
 4752SOL    HW215156   4.393   1.422   6.991
 4753SOL     OW15157   0.169   0.391   4.503
 4753SOL    HW115158   0.170   0.424   4.409
 4753SOL    HW215159   0.224   0.453   4.560
 4754SOL     OW15160   5.316   4.254   4.350
 4754SOL    HW115161   5.219   4.255   4.370
 4754SOL    HW215162   5.343   4.342   4.311
 4755SOL     OW15163   2.574   1.268   0.270
 4755SOL    HW115164   2.509   1.194   0.292
 4755SOL    HW215165   2.667   1.231   0.267
 4756SOL     OW15166   5.346   3.525   5.893
 4756SOL    HW115167   5.332   3.532   5.991
 4756SOL    HW215168   5.399   3.603   5.860
 4757SOL     OW15169   2.224   2.322   1.460
 4757SOL    HW115170   2.199   2.395   1.524
 4757SOL    HW215171   2.249   2.362   1.372
 4758SOL     OW15172   1.368   6.881   3.134
 4758SOL    HW115173   1.389   6.978   3.120
 4758SOL    HW215174   1.368   6.834   3.046
 4759SOL     OW15175   0.320   5.042   6.141
 4759SOL    HW115176   0.296   4.950   6.110
 4759SOL    HW215177   0.405   5.071   6.097
 4760SOL     OW15178   1.947   2.248   0.658
 4760SOL    HW115179   2.004   2.194   0.596
 4760SOL    HW215180   2.005   2.302   0.719
 4761SOL     OW15181   0.908   6.387   0.345
 4761SOL    HW115182   0.923   6.447   0.424
 4761SOL    HW215183   0.906   6.292   0.375
 4762SOL     OW15184   1.060   5.082   1.819
 4762SOL    HW115185   1.068   5.133   1.905
 4762SOL    HW215186   1.105   4.994   1.828
 4763SOL     OW15187   5.714   0.559   2.339
 4763SOL    HW115188   5.656   0.639   2.325
 4763SOL    HW215189   5.752   0.529   2.252
 4764SOL     OW15190   4.658   4.202   5.370
 4764SOL    HW115191   4.677   4.108   5.342
 4764SOL    HW215192   4.577   4.235   5.323
 4765SOL     OW15193   3.619   0.653   5.824
 4765SOL    HW115194   3.673   0.680   5.744
 4765SOL    HW215195   3.522   0.652   5.800
 4766SOL     OW15196   6.118   4.977   3.677
 4766SOL    HW115197   6.116   5.073   3.703
 4766SOL    HW215198   6.064   4.923   3.742
 4767SOL     OW15199   3.232   5.400   5.124
 4767SOL    HW115200   3.137   5.428   5.114
 4767SOL    HW215201   3.243   5.347   5.209
 4768SOL     OW15202   4.418   2.257   6.672
 4768SOL    HW115203   4.380   2.285   6.761
 4768SOL    HW215204   4.447   2.338   6.622
 4769SOL     OW15205   4.953   6.175   0.423
 4769SOL    HW115206   4.891   6.167   0.501
 4769SOL    HW215207   4.901   6.199   0.341
 4770SOL     OW15208   0.138   1.948   4.746
 4770SOL    HW115209   0.218   2.006   4.728
 4770SOL    HW215210   0.054   2.001   4.733
 4771SOL     OW15211   2.972   6.354   6.079
 4771SOL    HW115212   2.887   6.392   6.116
 4771SOL    HW215213   3.041   6.350   6.152
 4772SOL     OW15214   3.554   4.852   0.008
 4772SOL    HW115215   3.622   4.783   0.033
 4772SOL    HW215216   3.466   4.828   0.049
 4773SOL     OW15217   6.672   5.154   5.620
 4773SOL    HW115218   6.689   5.077   5.558
 4773SOL    HW215219   6.702   5.238   5.576
 4774SOL     OW15220   1.881   4.050   0.760
 4774SOL    HW115221   1.904   4.104   0.841
 4774SOL    HW215222   1.798   3.998   0.776
 4775SOL     OW15223   5.212   6.182   3.249
 4775SOL    HW115224   5.231   6.279   3.263
 4775SOL    HW215225   5.291   6.128   3.278
 4776SOL     OW15226   0.751   0.196   5.171
 4776SOL    HW115227   0.695   0.123   5.132
 4776SOL    HW215228   0.798   0.245   5.098
 4777SOL     OW15229   1.461   4.713   0.956
 4777SOL    HW115230   1.366   4.704   0.988
 4777SOL    HW215231   1.461   4.736   0.859
 4778SOL     OW15232   6.549   3.021   4.401
 4778SOL    HW115233   6.642   3.024   4.364
 4778SOL    HW215234   6.486   3.062   4.336
 4779SOL     OW15235   5.251   0.520   3.116
 4779SOL    HW115236   5.343   0.519   3.153
 4779SOL    HW215237   5.253   0.555   3.022
 4780SOL     OW15238   6.248   3.005   6.910
 4780SOL    HW115239   6.280   2.917   6.945
 4780SOL    HW215240   6.311   3.077   6.940
 4781SOL     OW15241   2.437   4.894   2.265
 4781SOL    HW115242   2.416   4.826   2.335
 4781SOL    HW215243   2.442   4.850   2.175
 4782SOL     OW15244   6.085   5.132   6.807
 4782SOL    HW115245   6.146   5.201   6.768
 4782SOL    HW215246   6.027   5.173   6.877
 4783SOL     OW15247   5.100   3.435   0.054
 4783SOL    HW115248   5.081   3.353   0.001
 4783SOL    HW215249   5.014   3.481   0.077
 4784SOL     OW15250   6.339   2.012   6.246
 4784SOL    HW115251   6.344   2.077   6.170
 4784SOL    HW215252   6.377   2.055   6.328
 4785SOL     OW15253   0.630   5.944   2.972
 4785SOL    HW115254   0.708   5.895   2.934
 4785SOL    HW215255   0.641   5.952   3.072
 4786SOL     OW15256   2.342   0.054   0.441
 4786SOL    HW115257   2.374   0.017   0.354
 4786SOL    HW215258   2.257   0.007   0.468
 4787SOL     OW15259   3.924   1.438   2.894
 4787SOL    HW115260   3.908   1.348   2.855
 4787SOL    HW215261   3.891   1.509   2.831
 4788SOL     OW15262   6.761   6.637   0.082
 4788SOL    HW115263   6.693   6.617   0.153
 4788SOL    HW215264   6.826   6.704   0.117
 4789SOL     OW15265   5.295   1.699   1.756
 4789SOL    HW115266   5.316   1.688   1.659
 4789SOL    HW215267   5.199   1.726   1.767
 4790SOL     OW15268   5.912   1.481   5.542
 4790SOL    HW115269   5.928   1.575   5.510
 4790SOL    HW215270   5.972   1.462   5.620
 4791SOL     OW15271   0.361   2.724   1.371
 4791SOL    HW115272   0.392   2.677   1.454
 4791SOL    HW215273   0.321   2.812   1.395
 4792SOL     OW15274   2.303   4.510   3.998
 4792SOL    HW115275   2.272   4.590   4.049
 4792SOL    HW215276   2.373   4.462   4.051
 4793SOL     OW15277   1.615   2.171   5.573
 4793SOL    HW115278   1.540   2.127   5.623
 4793SOL    HW215279   1.641   2.256   5.619
 4794SOL     OW15280   4.806   0.001   4.636
 4794SOL    HW115281   4.823   0.045   4.725
 4794SOL    HW215282   4.813   0.069   4.563
 4795SOL     OW15283   6.534   1.983   4.491
 4795SOL    HW115284   6.583   2.061   4.529
 4795SOL    HW215285   6.596   1.928   4.435
 4796SOL     OW15286   4.244   1.138   5.421
 4796SOL    HW115287   4.301   1.057   5.434
 4796SOL    HW215288   4.185   1.124   5.341
 4797SOL     OW15289   0.389   6.797   4.799
 4797SOL    HW115290   0.397   6.882   4.850
 4797SOL    HW215291   0.381   6.817   4.701
 4798SOL     OW15292   0.436   4.530   5.704
 4798SOL    HW115293   0.396   4.440   5.723
 4798SOL    HW215294   0.529   4.518   5.670
 4799SOL     OW15295   4.269   1.768   0.637
 4799SOL    HW115296   4.344   1.773   0.703
 4799SOL    HW215297   4.296   1.812   0.552
 4800SOL     OW15298   2.094   3.286   6.447
 4800SOL    HW115299   2.177   3.340   6.461
 4800SOL    HW215300   2.055   3.261   6.536
 4801SOL     OW15301   3.111   2.273   0.099
 4801SOL    HW115302   3.191   2.227   0.061
 4801SOL    HW215303   3.029   2.246   0.048
 4802SOL     OW15304   0.594   6.337   1.960
 4802SOL    HW115305   0.541   6.259   1.926
 4802SOL    HW215306   0.532   6.412   1.982
 4803SOL     OW15307   0.605   4.447   0.477
 4803SOL    HW115308   0.633   4.522   0.537
 4803SOL    HW215309   0.673   4.374   0.480
 4804SOL     OW15310   6.445   6.054   1.362
 4804SOL    HW115311   6.384   6.132   1.347
 4804SOL    HW215312   6.514   6.051   1.290
 4805SOL     OW15313   6.197   1.009   2.835
 4805SOL    HW115314   6.161   0.989   2.743
 4805SOL    HW215315   6.294   1.031   2.828
 4806SOL     OW15316   0.983   4.282   2.662
 4806SOL    HW115317   0.892   4.244   2.681
 4806SOL    HW215318   1.053   4.217   2.692
 4807SOL     OW15319   0.445   4.867   6.820
 4807SOL    HW115320   0.472   4.780   6.861
 4807SOL    HW215321   0.526   4.923   6.806
 4808SOL     OW15322   4.183   5.640   0.325
 4808SOL    HW115323   4.117   5.707   0.293
 4808SOL    HW215324   4.211   5.581   0.249
 4809SOL     OW15325   3.300   4.491   0.643
 4809SOL    HW115326   3.350   4.508   0.558
 4809SOL    HW215327   3.356   4.521   0.721
 4810SOL     OW15328   1.428   3.847   3.321
 4810SOL    HW115329   1.420   3.843   3.222
 4810SOL    HW215330   1.521   3.876   3.345
 4811SOL     OW15331   3.683   3.624   2.343
 4811SOL    HW115332   3.652   3.702   2.290
 4811SOL    HW215333   3.780   3.607   2.324
 4812SOL     OW15334   1.025   0.047   2.270
 4812SOL    HW115335   1.074   0.002   2.345
 4812SOL    HW215336   1.036   0.146   2.278
 4813SOL     OW15337   5.901   1.321   6.585
 4813SOL    HW115338   5.903   1.232   6.538
 4813SOL    HW215339   5.980   1.375   6.556
 4814SOL     OW15340   6.817   2.928   1.194
 4814SOL    HW115341   6.739   2.984   1.224
 4814SOL    HW215342   6.885   2.926   1.267
 4815SOL     OW15343   5.361   4.206   3.331
 4815SOL    HW115344   5.432   4.235   3.267
 4815SOL    HW215345   5.283   4.169   3.280
 4816SOL     OW15346   2.469   5.046   1.068
 4816SOL    HW115347   2.527   5.110   1.118
 4816SOL    HW215348   2.525   4.980   1.019
 4817SOL     OW15349   2.616   1.485   0.632
 4817SOL    HW115350   2.660   1.414   0.577
 4817SOL    HW215351   2.529   1.511   0.588
 4818SOL     OW15352   0.446   0.688   4.244
 4818SOL    HW115353   0.473   0.617   4.179
 4818SOL    HW215354   0.401   0.763   4.196
 4819SOL     OW15355   2.110   2.444   1.710
 4819SOL    HW115356   2.171   2.365   1.718
 4819SOL    HW215357   2.159   2.519   1.665
 4820SOL     OW15358   6.583   1.807   1.209
 4820SOL    HW115359   6.495   1.834   1.170
 4820SOL    HW215360   6.636   1.888   1.233
 4821SOL     OW15361   0.313   0.020   1.963
 4821SOL    HW115362   0.277   0.037   1.872
 4821SOL    HW215363   0.290   0.097   2.023
 4822SOL     OW15364   1.837   2.939   4.059
 4822SOL    HW115365   1.742   2.921   4.033
 4822SOL    HW215366   1.899   2.891   3.996
 4823SOL     OW15367   1.033   1.170   3.834
 4823SOL    HW115368   1.132   1.158   3.836
 4823SOL    HW215369   0.998   1.151   3.742
 4824SOL     OW15370   5.804   1.845   3.984
 4824SOL    HW115371   5.827   1.901   3.904
 4824SOL    HW215372   5.846   1.755   3.974
 4825SOL     OW15373   1.848   2.411   4.809
 4825SOL    HW115374   1.750   2.417   4.825
 4825SOL    HW215375   1.890   2.352   4.878
 4826SOL     OW15376   0.162   0.646   6.287
 4826SOL    HW115377   0.189   0.578   6.219
 4826SOL    HW215378   0.077   0.618   6.331
 4827SOL     OW15379   5.858   2.547   1.772
 4827SOL    HW115380   5.788   2.495   1.820
 4827SOL    HW215381   5.924   2.484   1.731
 4828SOL     OW15382   5.504   2.735   1.011
 4828SOL    HW115383   5.594   2.727   1.053
 4828SOL    HW215384   5.510   2.712   0.914
 4829SOL     OW15385   3.781   6.331   6.940
 4829SOL    HW115386   3.692   6.328   6.896
 4829SOL    HW215387   3.848   6.283   6.884
 4830SOL     OW15388   4.934   6.596   3.494
 4830SOL    HW115389   4.957   6.499   3.494
 4830SOL    HW215390   4.846   6.610   3.449
 4831SOL     OW15391   0.185   4.837   6.468
 4831SOL    HW115392   0.115   4.899   6.434
 4831SOL    HW215393   0.152   4.743   6.463
 4832SOL     OW15394   2.696   2.336   5.799
 4832SOL    HW115395   2.635   2.401   5.754
 4832SOL    HW215396   2.765   2.386   5.851
 4833SOL     OW15397   4.788   1.828   2.961
 4833SOL    HW115398   4.829   1.777   3.036
 4833SOL    HW215399   4.699   1.864   2.989
 4834SOL     OW15400   3.869   6.997   1.024
 4834SOL    HW115401   3.839   6.967   1.115
 4834SOL    HW215402   3.840   6.930   0.956
 4835SOL     OW15403   0.661   2.025   6.259
 4835SOL    HW115404   0.590   1.983   6.203
 4835SOL    HW215405   0.629   2.035   6.353
 4836SOL     OW15406   4.867   3.191   4.107
 4836SOL    HW115407   4.828   3.103   4.133
 4836SOL    HW215408   4.963   3.179   4.081
 4837SOL     OW15409   5.046   3.915   2.225
 4837SOL    HW115410   5.028   3.873   2.136
 4837SOL    HW215411   5.035   4.014   2.217
 4838SOL     OW15412   1.062   4.716   1.454
 4838SOL    HW115413   1.037   4.625   1.421
 4838SOL    HW215414   1.157   4.715   1.486
 4839SOL     OW15415   1.294   3.121   6.082
 4839SOL    HW115416   1.224   3.082   6.142
 4839SOL    HW215417   1.301   3.219   6.099
 4840SOL     OW15418   0.644   5.454   5.755
 4840SOL    HW115419   0.555   5.413   5.774
 4840SOL    HW215420   0.716   5.387   5.772
 4841SOL     OW15421   3.016   6.386   1.727
 4841SOL    HW115422   3.098   6.435   1.701
 4841SOL    HW215423   3.038   6.289   1.740
 4842SOL     OW15424   3.094   4.815   2.159
 4842SOL    HW115425   3.068   4.735   2.212
 4842SOL    HW215426   3.101   4.791   2.062
 4843SOL     OW15427   6.313   3.396   0.230
 4843SOL    HW115428   6.257   3.318   0.201
 4843SOL    HW215429   6.276   3.433   0.315
 4844SOL     OW15430   6.732   3.917   5.603
 4844SOL    HW115431   6.663   3.848   5.623
 4844SOL    HW215432   6.787   3.933   5.685
 4845SOL     OW15433   5.657   5.583   5.331
 4845SOL    HW115434   5.630   5.677   5.355
 4845SOL    HW215435   5.699   5.539   5.410
 4846SOL     OW15436   6.794   2.868   3.374
 4846SOL    HW115437   6.791   2.793   3.307
 4846SOL    HW215438   6.867   2.850   3.440
 4847SOL     OW15439   3.076   1.367   5.862
 4847SOL    HW115440   3.005   1.305   5.830
 4847SOL    HW215441   3.084   1.361   5.962
 4848SOL     OW15442   1.500   0.921   4.136
 4848SOL    HW115443   1.554   0.987   4.188
 4848SOL    HW215444   1.439   0.872   4.198
 4849SOL     OW15445   1.483   6.720   6.662
 4849SOL    HW115446   1.563   6.667   6.688
 4849SOL    HW215447   1.504   6.773   6.580
 4850SOL     OW15448   3.925   1.578   2.642
 4850SOL    HW115449   4.005   1.635   2.661
 4850SOL    HW215450   3.946   1.513   2.569
 4851SOL     OW15451   4.276   6.183   5.719
 4851SOL    HW115452   4.189   6.139   5.697
 4851SOL    HW215453   4.290   6.182   5.818
 4852SOL     OW15454   1.176   0.404   5.048
 4852SOL    HW115455   1.251   0.467   5.067
 4852SOL    HW215456   1.099   0.422   5.109
 4853SOL     OW15457   2.954   1.096   3.327
 4853SOL    HW115458   2.865   1.052   3.311
 4853SOL    HW215459   2.980   1.085   3.422
 4854SOL     OW15460   4.813   6.693   2.011
 4854SOL    HW115461   4.749   6.644   2.070
 4854SOL    HW215462   4.855   6.768   2.062
 4855SOL     OW15463   6.524   3.180   1.982
 4855SOL    HW115464   6.427   3.203   1.984
 4855SOL    HW215465   6.546   3.118   2.058
 4856SOL     OW15466   1.623   3.791   2.531
 4856SOL    HW115467   1.564   3.715   2.561
 4856SOL    HW215468   1.624   3.795   2.431
 4857SOL     OW15469   1.538   2.196   5.129
 4857SOL    HW115470   1.605   2.152   5.070
 4857SOL    HW215471   1.486   2.264   5.077
 4858SOL     OW15472   1.225   0.960   4.431
 4858SOL    HW115473   1.233   0.913   4.518
 4858SOL    HW215474   1.196   0.896   4.360
 4859SOL     OW15475   0.850   0.625   4.588
 4859SOL    HW115476   0.857   0.556   4.660
 4859SOL    HW215477   0.784   0.596   4.519
 4860SOL     OW15478   3.783   4.329   1.437
 4860SOL    HW115479   3.764   4.427   1.436
 4860SOL    HW215480   3.741   4.287   1.517
 4861SOL     OW15481   5.094   4.626   6.891
 4861SOL    HW115482   5.190   4.654   6.891
 4861SOL    HW215483   5.046   4.671   6.966
 4862SOL     OW15484   2.761   4.851   4.600
 4862SOL    HW115485   2.829   4.847   4.527
 4862SOL    HW215486   2.800   4.818   4.685
 4863SOL     OW15487   5.938   3.745   1.679
 4863SOL    HW115488   5.928   3.760   1.581
 4863SOL    HW215489   5.847   3.741   1.721
 4864SOL     OW15490   3.449   1.200   3.212
 4864SOL    HW115491   3.520   1.186   3.281
 4864SOL    HW215492   3.465   1.287   3.166
 4865SOL     OW15493   2.069   0.477   5.323
 4865SOL    HW115494   2.126   0.432   5.393
 4865SOL    HW215495   2.127   0.509   5.248
 4866SOL     OW15496   6.327   2.017   1.422
 4866SOL    HW115497   6.315   2.029   1.324
 4866SOL    HW215498   6.245   2.048   1.470
 4867SOL     OW15499   3.502   5.414   2.147
 4867SOL    HW115500   3.416   5.438   2.101
 4867SOL    HW215501   3.569   5.487   2.133
 4868SOL     OW15502   6.486   5.376   2.715
 4868SOL    HW115503   6.539   5.445   2.764
 4868SOL    HW215504   6.462   5.411   2.624
 4869SOL     OW15505   1.795   1.557   1.649
 4869SOL    HW115506   1.706   1.593   1.677
 4869SOL    HW215507   1.858   1.633   1.635
 4870SOL     OW15508   0.190   6.274   1.886
 4870SOL    HW115509   0.285   6.262   1.860
 4870SOL    HW215510   0.152   6.186   1.915
 4871SOL     OW15511   1.248   0.463   3.734
 4871SOL    HW115512   1.330   0.427   3.689
 4871SOL    HW215513   1.275   0.523   3.809
 4872SOL     OW15514   6.385   0.339   3.691
 4872SOL    HW115515   6.296   0.346   3.645
 4872SOL    HW215516   6.370   0.334   3.790
 4873SOL     OW15517   6.447   5.376   3.296
 4873SOL    HW115518   6.457   5.287   3.252
 4873SOL    HW215519   6.378   5.430   3.248
 4874SOL     OW15520   6.638   3.125   2.535
 4874SOL    HW115521   6.694   3.055   2.489
 4874SOL    HW215522   6.551   3.135   2.486
 4875SOL     OW15523   5.816   2.140   0.805
 4875SOL    HW115524   5.787   2.175   0.895
 4875SOL    HW215525   5.758   2.181   0.734
 4876SOL     OW15526   5.923   2.258   3.276
 4876SOL    HW115527   5.976   2.241   3.359
 4876SOL    HW215528   5.943   2.187   3.208
 4877SOL     OW15529   1.273   1.725   6.554
 4877SOL    HW115530   1.272   1.629   6.527
 4877SOL    HW215531   1.364   1.763   6.536
 4878SOL     OW15532   6.322   1.584   2.258
 4878SOL    HW115533   6.229   1.565   2.290
 4878SOL    HW215534   6.357   1.504   2.209
 4879SOL     OW15535   4.210   0.733   2.756
 4879SOL    HW115536   4.155   0.777   2.685
 4879SOL    HW215537   4.266   0.661   2.715
 4880SOL     OW15538   5.371   3.588   0.381
 4880SOL    HW115539   5.455   3.577   0.435
 4880SOL    HW215540   5.381   3.665   0.319
 4881SOL     OW15541   1.428   0.720   0.417
 4881SOL    HW115542   1.392   0.787   0.354
 4881SOL    HW215543   1.526   0.708   0.402
 4882SOL     OW15544   4.688   0.743   4.636
 4882SOL    HW115545   4.761   0.777   4.696
 4882SOL    HW215546   4.663   0.814   4.571
 4883SOL     OW15547   4.887   5.036   1.870
 4883SOL    HW115548   4.982   5.058   1.889
 4883SOL    HW215549   4.834   5.121   1.860
 4884SOL     OW15550   2.768   6.838   1.226
 4884SOL    HW115551   2.700   6.804   1.162
 4884SOL    HW215552   2.818   6.915   1.185
 4885SOL     OW15553   2.650   5.713   1.971
 4885SOL    HW115554   2.747   5.687   1.970
 4885SOL    HW215555   2.631   5.776   1.895
 4886SOL     OW15556   1.194   5.787   1.362
 4886SOL    HW115557   1.151   5.824   1.279
 4886SOL    HW215558   1.292   5.774   1.346
 4887SOL     OW15559   0.343   0.526   2.346
 4887SOL    HW115560   0.400   0.592   2.394
 4887SOL    HW215561   0.249   0.531   2.381
 4888SOL     OW15562   2.629   0.155   4.009
 4888SOL    HW115563   2.684   0.186   4.086
 4888SOL    HW215564   2.532   0.170   4.029
 4889SOL     OW15565   6.948   1.789   5.203
 4889SOL    HW115566   6.986   1.872   5.164
 4889SOL    HW215567   6.914   1.808   5.295
 4890SOL     OW15568   0.248   1.157   6.678
 4890SOL    HW115569   0.270   1.122   6.587
 4890SOL    HW215570   0.265   1.256   6.681
 4891SOL     OW15571   2.252   4.760   6.751
 4891SOL    HW115572   2.259   4.744   6.653
 4891SOL    HW215573   2.162   4.731   6.783
 4892SOL     OW15574   3.530   6.053   2.007
 4892SOL    HW115575   3.460   6.061   1.936
 4892SOL    HW215576   3.599   6.123   1.993
 4893SOL     OW15577   6.623   3.100   1.284
 4893SOL    HW115578   6.688   3.171   1.309
 4893SOL    HW215579   6.530   3.133   1.297
 4894SOL     OW15580   2.562   0.595   3.703
 4894SOL    HW115581   2.580   0.692   3.714
 4894SOL    HW215582   2.635   0.553   3.649
 4895SOL     OW15583   0.674   4.685   4.238
 4895SOL    HW115584   0.635   4.705   4.149
 4895SOL    HW215585   0.602   4.654   4.300
 4896SOL     OW15586   1.621   4.975   2.007
 4896SOL    HW115587   1.623   4.881   1.973
 4896SOL    HW215588   1.704   5.023   1.977
 4897SOL     OW15589   1.967   3.847   5.672
 4897SOL    HW115590   1.913   3.918   5.628
 4897SOL    HW215591   1.979   3.870   5.769
 4898SOL     OW15592   4.066   0.675   4.131
 4898SOL    HW115593   4.012   0.753   4.099
 4898SOL    HW215594   4.067   0.603   4.061
 4899SOL     OW15595   5.231   5.461   3.400
 4899SOL    HW115596   5.296   5.497   3.467
 4899SOL    HW215597   5.259   5.368   3.374
 4900SOL     OW15598   3.493   6.348   4.825
 4900SOL    HW115599   3.513   6.251   4.811
 4900SOL    HW215600   3.403   6.369   4.787
 4901SOL     OW15601   2.928   0.818   5.071
 4901SOL    HW115602   2.851   0.878   5.093
 4901SOL    HW215603   3.013   0.859   5.104
 4902SOL     OW15604   2.031   1.659   4.707
 4902SOL    HW115605   2.087   1.588   4.667
 4902SOL    HW215606   1.941   1.660   4.663
 4903SOL     OW15607   4.203   5.629   6.891
 4903SOL    HW115608   4.199   5.716   6.843
 4903SOL    HW215609   4.151   5.560   6.841
 4904SOL     OW15610   2.421   0.101   4.915
 4904SOL    HW115611   2.453   0.195   4.898
 4904SOL    HW215612   2.324   0.103   4.939
 4905SOL     OW15613   3.465   0.020   2.893
 4905SOL    HW115614   3.528   0.044   2.966
 4905SOL    HW215615   3.378   0.068   2.906
 4906SOL     OW15616   5.099   2.064   6.339
 4906SOL    HW115617   5.022   2.095   6.395
 4906SOL    HW215618   5.110   1.965   6.351
 4907SOL     OW15619   4.242   6.170   2.115
 4907SOL    HW115620   4.267   6.253   2.065
 4907SOL    HW215621   4.228   6.095   2.051
 4908SOL     OW15622   5.723   5.543   0.840
 4908SOL    HW115623   5.730   5.445   0.860
 4908SOL    HW215624   5.801   5.571   0.784
 4909SOL     OW15625   0.530   0.009   3.967
 4909SOL    HW115626   0.461   0.068   4.009
 4909SOL    HW215627   0.575   6.979   4.037
 4910SOL     OW15628   5.595   1.070   4.987
 4910SOL    HW115629   5.561   0.993   5.041
 4910SOL    HW215630   5.535   1.149   4.998
 4911SOL     OW15631   1.457   4.192   3.911
 4911SOL    HW115632   1.365   4.231   3.904
 4911SOL    HW215633   1.452   4.102   3.954
 4912SOL     OW15634   5.718   1.696   6.347
 4912SOL    HW115635   5.718   1.628   6.420
 4912SOL    HW215636   5.624   1.706   6.312
 4913SOL     OW15637   4.136   2.975   5.352
 4913SOL    HW115638   4.053   2.944   5.305
 4913SOL    HW215639   4.163   3.064   5.316
 4914SOL     OW15640   3.070   0.180   4.718
 4914SOL    HW115641   3.132   0.220   4.785
 4914SOL    HW215642   3.104   0.090   4.690
 4915SOL     OW15643   3.623   6.414   5.833
 4915SOL    HW115644   3.593   6.508   5.818
 4915SOL    HW215645   3.711   6.400   5.787
 4916SOL     OW15646   1.054   0.515   3.976
 4916SOL    HW115647   1.074   0.424   3.940
 4916SOL    HW215648   1.137   0.555   4.015
 4917SOL     OW15649   2.541   5.736   1.412
 4917SOL    HW115650   2.638   5.719   1.424
 4917SOL    HW215651   2.526   5.834   1.395
 4918SOL     OW15652   5.017   5.528   3.560
 4918SOL    HW115653   4.924   5.504   3.531
 4918SOL    HW215654   5.077   5.532   3.480
 4919SOL     OW15655   3.171   2.382   0.554
 4919SOL    HW115656   3.072   2.376   0.566
 4919SOL    HW215657   3.192   2.454   0.488
 4920SOL     OW15658   5.619   0.869   4.230
 4920SOL    HW115659   5.678   0.847   4.307
 4920SOL    HW215660   5.523   0.854   4.255
 4921SOL     OW15661   1.340   5.198   0.946
 4921SOL    HW115662   1.291   5.254   0.879
 4921SOL    HW215663   1.275   5.151   1.005
 4922SOL     OW15664   2.484   2.647   5.031
 4922SOL    HW115665   2.488   2.719   4.962
 4922SOL    HW215666   2.555   2.579   5.012
 4923SOL     OW15667   3.826   1.821   2.904
 4923SOL    HW115668   3.913   1.788   2.867
 4923SOL    HW215669   3.792   1.895   2.847
 4924SOL     OW15670   3.829   0.963   5.000
 4924SOL    HW115671   3.857   1.059   5.002
 4924SOL    HW215672   3.754   0.948   5.064
 4925SOL     OW15673   6.561   6.854   2.466
 4925SOL    HW115674   6.606   6.788   2.406
 4925SOL    HW215675   6.629   6.912   2.510
 4926SOL     OW15676   4.651   1.097   0.443
 4926SOL    HW115677   4.739   1.073   0.482
 4926SOL    HW215678   4.662   1.122   0.347
 4927SOL     OW15679   3.475   3.796   4.590
 4927SOL    HW115680   3.397   3.845   4.629
 4927SOL    HW215681   3.444   3.710   4.550
 4928SOL     OW15682   2.070   6.365   0.036
 4928SOL    HW115683   2.041   6.278   7.021
 4928SOL    HW215684   2.133   6.348   0.112
 4929SOL     OW15685   6.684   6.492   4.046
 4929SOL    HW115686   6.779   6.524   4.053
 4929SOL    HW215687   6.625   6.567   4.017
 4930SOL     OW15688   5.473   1.024   3.114
 4930SOL    HW115689   5.412   1.065   3.182
 4930SOL    HW215690   5.525   1.095   3.068
 4931SOL     OW15691   0.038   6.773   0.974
 4931SOL    HW115692   7.020   6.851   0.927
 4931SOL    HW215693   0.109   6.733   0.915
 4932SOL     OW15694   3.237   3.059   2.489
 4932SOL    HW115695   3.177   3.075   2.567
 4932SOL    HW215696   3.266   3.146   2.450
 4933SOL     OW15697   2.580   0.183   3.022
 4933SOL    HW115698   2.485   0.173   2.994
 4933SOL    HW215699   2.630   0.234   2.951
 4934SOL     OW15700   3.050   5.460   2.961
 4934SOL    HW115701   3.105   5.476   2.879
 4934SOL    HW215702   2.954   5.447   2.935
 4935SOL     OW15703   1.951   1.936   6.470
 4935SOL    HW115704   1.885   1.886   6.527
 4935SOL    HW215705   2.041   1.895   6.481
 4936SOL     OW15706   2.555   4.577   1.441
 4936SOL    HW115707   2.526   4.530   1.357
 4936SOL    HW215708   2.501   4.660   1.454
 4937SOL     OW15709   6.017   3.232   5.691
 4937SOL    HW115710   6.082   3.297   5.729
 4937SOL    HW215711   5.928   3.276   5.680
 4938SOL     OW15712   2.329   5.469   5.717
 4938SOL    HW115713   2.292   5.461   5.810
 4938SOL    HW215714   2.410   5.411   5.709
 4939SOL     OW15715   6.138   2.387   4.656
 4939SOL    HW115716   6.165   2.361   4.749
 4939SOL    HW215717   6.047   2.428   4.658
 4940SOL     OW15718   0.132   1.522   4.658
 4940SOL    HW115719   0.179   1.456   4.717
 4940SOL    HW215720   0.048   1.553   4.703
 4941SOL     OW15721   5.159   2.177   5.519
 4941SOL    HW115722   5.192   2.101   5.574
 4941SOL    HW215723   5.065   2.200   5.546
 4942SOL     OW15724   4.993   1.930   5.950
 4942SOL    HW115725   4.905   1.926   5.902
 4942SOL    HW215726   5.029   2.023   5.944
 4943SOL     OW15727   4.674   3.395   6.787
 4943SOL    HW115728   4.668   3.474   6.849
 4943SOL    HW215729   4.611   3.408   6.711
 4944SOL     OW15730   1.584   4.307   1.660
 4944SOL    HW115731   1.606   4.386   1.602
 4944SOL    HW215732   1.486   4.288   1.656
 4945SOL     OW15733   1.080   0.579   4.382
 4945SOL    HW115734   1.112   0.501   4.328
 4945SOL    HW215735   1.065   0.550   4.476
 4946SOL     OW15736   1.414   4.217   0.311
 4946SOL    HW115737   1.497   4.240   0.260
 4946SOL    HW215738   1.440   4.176   0.398
 4947SOL     OW15739   2.266   1.074   1.156
 4947SOL    HW115740   2.314   1.045   1.073
 4947SOL    HW215741   2.265   1.174   1.160
 4948SOL     OW15742   1.367   2.207   2.224
 4948SOL    HW115743   1.447   2.220   2.282
 4948SOL    HW215744   1.395   2.212   2.128
 4949SOL     OW15745   4.762   0.017   6.204
 4949SOL    HW115746   4.698   6.994   6.265
 4949SOL    HW215747   4.817   0.082   6.257
 4950SOL     OW15748   2.277   5.551   4.142
 4950SOL    HW115749   2.279   5.452   4.125
 4950SOL    HW215750   2.356   5.594   4.098
 4951SOL     OW15751   5.312   1.677   3.998
 4951SOL    HW115752   5.368   1.757   4.021
 4951SOL    HW215753   5.328   1.606   4.067
 4952SOL     OW15754   0.215   0.772   5.657
 4952SOL    HW115755   0.284   0.827   5.610
 4952SOL    HW215756   0.260   0.700   5.710
 4953SOL     OW15757   2.235   6.512   2.440
 4953SOL    HW115758   2.221   6.576   2.364
 4953SOL    HW215759   2.309   6.545   2.498
 4954SOL     OW15760   4.076   3.434   0.148
 4954SOL    HW115761   4.063   3.340   0.180
 4954SOL    HW215762   4.104   3.491   0.225
 4955SOL     OW15763   3.050   6.154   6.838
 4955SOL    HW115764   3.147   6.161   6.814
 4955SOL    HW215765   3.020   6.059   6.829
 4956SOL     OW15766   2.528   6.681   4.947
 4956SOL    HW115767   2.559   6.643   4.860
 4956SOL    HW215768   2.605   6.684   5.011
 4957SOL     OW15769   6.938   2.009   2.193
 4957SOL    HW115770   6.860   1.958   2.230
 4957SOL    HW215771   6.989   1.951   2.129
 4958SOL     OW15772   6.453   5.334   5.316
 4958SOL    HW115773   6.464   5.430   5.342
 4958SOL    HW215774   6.519   5.312   5.244
 4959SOL     OW15775   6.514   1.359   6.242
 4959SOL    HW115776   6.557   1.422   6.307
 4959SOL    HW215777   6.469   1.285   6.293
 4960SOL     OW15778   3.525   5.735   3.159
 4960SOL    HW115779   3.443   5.792   3.151
 4960SOL    HW215780   3.505   5.644   3.123
 4961SOL     OW15781   4.750   1.542   5.806
 4961SOL    HW115782   4.842   1.579   5.791
 4961SOL    HW215783   4.740   1.516   5.902
 4962SOL     OW15784   6.581   2.075   0.043
 4962SOL    HW115785   6.520   2.129   7.008
 4962SOL    HW215786   6.584   2.117   0.134
 4963SOL     OW15787   6.035   5.468   6.893
 4963SOL    HW115788   5.954   5.442   6.945
 4963SOL    HW215789   6.101   5.512   6.955
 4964SOL     OW15790   3.253   6.761   3.614
 4964SOL    HW115791   3.226   6.851   3.649
 4964SOL    HW215792   3.182   6.727   3.553
 4965SOL     OW15793   0.364   0.494   3.280
 4965SOL    HW115794   0.418   0.430   3.336
 4965SOL    HW215795   0.328   0.567   3.338
 4966SOL     OW15796   2.510   0.369   5.060
 4966SOL    HW115797   2.581   0.304   5.088
 4966SOL    HW215798   2.492   0.360   4.962
 4967SOL     OW15799   3.830   4.148   6.261
 4967SOL    HW115800   3.873   4.235   6.236
 4967SOL    HW215801   3.824   4.089   6.180
 4968SOL     OW15802   6.340   2.304   3.287
 4968SOL    HW115803   6.305   2.391   3.323
 4968SOL    HW215804   6.409   2.322   3.217
 4969SOL     OW15805   2.415   0.344   2.205
 4969SOL    HW115806   2.365   0.357   2.119
 4969SOL    HW215807   2.351   0.348   2.282
 4970SOL     OW15808   1.625   1.830   3.578
 4970SOL    HW115809   1.525   1.837   3.580
 4970SOL    HW215810   1.653   1.739   3.609
 4971SOL     OW15811   6.476   6.900   4.178
 4971SOL    HW115812   6.403   6.832   4.184
 4971SOL    HW215813   6.465   6.953   4.094
 4972SOL     OW15814   2.568   2.863   6.954
 4972SOL    HW115815   2.507   2.934   6.988
 4972SOL    HW215816   2.535   2.773   6.985
 4973SOL     OW15817   1.061   0.331   2.289
 4973SOL    HW115818   0.988   0.395   2.308
 4973SOL    HW215819   1.143   0.356   2.341
 4974SOL     OW15820   5.959   5.012   1.925
 4974SOL    HW115821   6.011   5.029   1.842
 4974SOL    HW215822   5.867   4.982   1.901
 4975SOL     OW15823   5.437   4.959   5.797
 4975SOL    HW115824   5.359   5.013   5.766
 4975SOL    HW215825   5.404   4.874   5.838
 4976SOL     OW15826   2.563   6.870   3.959
 4976SOL    HW115827   2.490   6.915   3.909
 4976SOL    HW215828   2.613   6.937   4.013
 4977SOL     OW15829   4.161   4.140   0.541
 4977SOL    HW115830   4.088   4.149   0.473
 4977SOL    HW215831   4.121   4.113   0.629
 4978SOL     OW15832   6.987   4.119   5.615
 4978SOL    HW115833   6.930   4.082   5.688
 4978SOL    HW215834   6.929   4.158   5.543
 4979SOL     OW15835   0.380   0.129   5.534
 4979SOL    HW115836   0.376   0.221   5.574
 4979SOL    HW215837   0.291   0.084   5.546
 4980SOL     OW15838   4.677   6.204   3.476
 4980SOL    HW115839   4.679   6.180   3.379
 4980SOL    HW215840   4.696   6.122   3.531
 4981SOL     OW15841   5.123   6.230   6.381
 4981SOL    HW115842   5.042   6.241   6.324
 4981SOL    HW215843   5.202   6.272   6.336
 4982SOL     OW15844   2.442   1.549   6.435
 4982SOL    HW115845   2.351   1.526   6.470
 4982SOL    HW215846   2.502   1.469   6.442
 4983SOL     OW15847   5.328   2.355   4.398
 4983SOL    HW115848   5.303   2.322   4.489
 4983SOL    HW215849   5.258   2.418   4.364
 4984SOL     OW15850   6.052   4.557   4.273
 4984SOL    HW115851   6.057   4.458   4.260
 4984SOL    HW215852   6.141   4.592   4.302
 4985SOL     OW15853   6.135   6.433   3.325
 4985SOL    HW115854   6.128   6.339   3.358
 4985SOL    HW215855   6.215   6.442   3.266
 4986SOL     OW15856   5.806   4.163   2.753
 4986SOL    HW115857   5.736   4.158   2.682
 4986SOL    HW215858   5.857   4.078   2.755
 4987SOL     OW15859   1.052   1.404   0.833
 4987SOL    HW115860   0.961   1.389   0.873
 4987SOL    HW215861   1.045   1.464   0.754
 4988SOL     OW15862   5.888   1.102   3.341
 4988SOL    HW115863   5.918   1.032   3.277
 4988SOL    HW215864   5.792   1.086   3.366
 4989SOL     OW15865   5.358   0.368   0.939
 4989SOL    HW115866   5.354   0.441   0.871
 4989SOL    HW215867   5.448   0.367   0.982
 4990SOL     OW15868   1.841   1.447   5.611
 4990SOL    HW115869   1.904   1.522   5.629
 4990SOL    HW215870   1.883   1.382   5.548
 4991SOL     OW15871   0.200   3.967   4.474
 4991SOL    HW115872   0.255   3.888   4.500
 4991SOL    HW215873   0.120   3.974   4.533
 4992SOL     OW15874   4.706   0.901   4.982
 4992SOL    HW115875   4.748   0.916   4.892
 4992SOL    HW215876   4.728   0.808   5.013
 4993SOL     OW15877   3.565   5.274   3.991
 4993SOL    HW115878   3.589   5.177   3.996
 4993SOL    HW215879   3.550   5.309   4.084
 4994SOL     OW15880   1.656   0.061   2.110
 4994SOL    HW115881   1.659   0.010   2.024
 4994SOL    HW215882   1.569   0.044   2.156
 4995SOL     OW15883   6.504   3.240   5.606
 4995SOL    HW115884   6.476   3.274   5.696
 4995SOL    HW215885   6.541   3.147   5.615
 4996SOL     OW15886   1.451   1.257   2.513
 4996SOL    HW115887   1.376   1.202   2.549
 4996SOL    HW215888   1.491   1.211   2.434
 4997SOL     OW15889   6.147   1.848   3.124
 4997SOL    HW115890   6.091   1.810   3.198
 4997SOL    HW215891   6.175   1.775   3.063
 4998SOL     OW15892   2.105   3.840   5.115
 4998SOL    HW115893   2.191   3.885   5.089
 4998SOL    HW215894   2.092   3.850   5.214
 4999SOL     OW15895   5.834   4.722   1.564
 4999SOL    HW115896   5.751   4.739   1.510
 4999SOL    HW215897   5.835   4.627   1.594
 5000SOL     OW15898   2.354   6.092   4.104
 5000SOL    HW115899   2.313   6.182   4.118
 5000SOL    HW215900   2.426   6.078   4.171
 5001SOL     OW15901   1.453   4.230   0.794
 5001SOL    HW115902   1.505   4.208   0.877
 5001SOL    HW215903   1.487   4.316   0.756
 5002SOL     OW15904   1.411   3.016   3.495
 5002SOL    HW115905   1.435   3.105   3.457
 5002SOL    HW215906   1.465   2.945   3.450
 5003SOL     OW15907   2.342   6.530   2.833
 5003SOL    HW115908   2.276   6.573   2.772
 5003SOL    HW215909   2.343   6.431   2.818
 5004SOL     OW15910   3.271   5.070   5.576
 5004SOL    HW115911   3.265   5.053   5.478
 5004SOL    HW215912   3.313   4.992   5.622
 5005SOL     OW15913   3.502   2.216   0.882
 5005SOL    HW115914   3.515   2.117   0.887
 5005SOL    HW215915   3.559   2.253   0.808
 5006SOL     OW15916   4.833   6.770   6.829
 5006SOL    HW115917   4.740   6.736   6.835
 5006SOL    HW215918   4.851   6.835   6.903
 5007SOL     OW15919   1.762   0.169   6.713
 5007SOL    HW115920   1.745   0.234   6.788
 5007SOL    HW215921   1.689   0.101   6.710
 5008SOL     OW15922   6.452   0.600   3.288
 5008SOL    HW115923   6.433   0.624   3.383
 5008SOL    HW215924   6.370   0.616   3.233
 5009SOL     OW15925   1.755   6.163   1.426
 5009SOL    HW115926   1.785   6.141   1.333
 5009SOL    HW215927   1.688   6.095   1.456
 5010SOL     OW15928   3.703   2.936   2.750
 5010SOL    HW115929   3.604   2.931   2.747
 5010SOL    HW215930   3.737   2.978   2.666
 5011SOL     OW15931   1.794   3.542   2.677
 5011SOL    HW115932   1.774   3.631   2.635
 5011SOL    HW215933   1.870   3.499   2.629
 5012SOL     OW15934   4.815   3.542   6.536
 5012SOL    HW115935   4.782   3.460   6.488
 5012SOL    HW215936   4.906   3.566   6.501
 5013SOL     OW15937   5.311   1.509   0.232
 5013SOL    HW115938   5.249   1.431   0.239
 5013SOL    HW215939   5.379   1.491   0.160
 5014SOL     OW15940   5.232   4.124   0.755
 5014SOL    HW115941   5.160   4.193   0.755
 5014SOL    HW215942   5.217   4.059   0.680
 5015SOL     OW15943   4.359   2.155   3.688
 5015SOL    HW115944   4.305   2.208   3.623
 5015SOL    HW215945   4.318   2.161   3.779
 5016SOL     OW15946   2.858   1.855   0.859
 5016SOL    HW115947   2.855   1.954   0.862
 5016SOL    HW215948   2.766   1.818   0.871
 5017SOL     OW15949   1.975   2.460   6.892
 5017SOL    HW115950   2.067   2.442   6.928
 5017SOL    HW215951   1.915   2.488   6.967
 5018SOL     OW15952   0.645   4.089   1.397
 5018SOL    HW115953   0.604   3.998   1.392
 5018SOL    HW215954   0.702   4.104   1.317
 5019SOL     OW15955   1.987   5.136   6.991
 5019SOL    HW115956   2.043   5.219   6.995
 5019SOL    HW215957   1.974   5.110   6.895
 5020SOL     OW15958   4.964   6.888   6.071
 5020SOL    HW115959   4.903   6.958   6.108
 5020SOL    HW215960   4.923   6.850   5.988
 5021SOL     OW15961   1.588   1.836   5.877
 5021SOL    HW115962   1.687   1.848   5.875
 5021SOL    HW215963   1.561   1.795   5.965
 5022SOL     OW15964   1.868   0.092   0.078
 5022SOL    HW115965   1.822   0.061   7.019
 5022SOL    HW215966   1.963   0.063   0.077
 5023SOL     OW15967   6.372   2.491   0.883
 5023SOL    HW115968   6.326   2.524   0.965
 5023SOL    HW215969   6.338   2.400   0.860
 5024SOL     OW15970   6.658   5.639   2.820
 5024SOL    HW115971   6.747   5.601   2.793
 5024SOL    HW215972   6.627   5.704   2.751
 5025SOL     OW15973   3.861   2.117   2.223
 5025SOL    HW115974   3.823   2.190   2.165
 5025SOL    HW215975   3.875   2.035   2.169
 5026SOL     OW15976   5.576   6.471   6.837
 5026SOL    HW115977   5.567   6.536   6.762
 5026SOL    HW215978   5.586   6.378   6.800
 5027SOL     OW15979   0.789   7.004   2.550
 5027SOL    HW115980   0.734   0.002   2.469
 5027SOL    HW215981   0.779   6.907   2.571
 5028SOL     OW15982   0.316   6.121   3.307
 5028SOL    HW115983   0.260   6.053   3.354
 5028SOL    HW215984   0.317   6.102   3.209
 5029SOL     OW15985   0.012   3.893   3.713
 5029SOL    HW115986   0.010   3.826   3.639
 5029SOL    HW215987   0.089   3.956   3.699
 5030SOL     OW15988   6.823   0.913   6.121
 5030SOL    HW115989   6.880   0.866   6.189
 5030SOL    HW215990   6.727   0.889   6.135
 5031SOL     OW15991   5.659   0.499   4.881
 5031SOL    HW115992   5.748   0.496   4.926
 5031SOL    HW215993   5.589   0.525   4.947
 5032SOL     OW15994   1.641   4.047   1.052
 5032SOL    HW115995   1.725   4.101   1.051
 5032SOL    HW215996   1.635   3.994   0.967
 5033SOL     OW15997   1.900   5.376   6.372
 5033SOL    HW115998   1.817   5.362   6.424
 5033SOL    HW215999   1.905   5.309   6.298
 5034SOL     OW16000   6.515   2.147   2.871
 5034SOL    HW116001   6.499   2.112   2.779
 5034SOL    HW216002   6.427   2.154   2.919
 5035SOL     OW16003   6.279   4.731   0.598
 5035SOL    HW116004   6.257   4.637   0.621
 5035SOL    HW216005   6.281   4.741   0.498
 5036SOL     OW16006   6.918   4.678   6.764
 5036SOL    HW116007   6.933   4.594   6.713
 5036SOL    HW216008   6.994   4.742   6.746
 5037SOL     OW16009   5.392   2.244   2.532
 5037SOL    HW116010   5.296   2.257   2.507
 5037SOL    HW216011   5.411   2.146   2.545
 5038SOL     OW16012   2.199   4.453   5.806
 5038SOL    HW116013   2.165   4.525   5.745
 5038SOL    HW216014   2.266   4.492   5.868
 5039SOL     OW16015   2.338   3.432   5.836
 5039SOL    HW116016   2.249   3.462   5.801
 5039SOL    HW216017   2.406   3.441   5.763
 5040SOL     OW16018   1.949   5.083   6.733
 5040SOL    HW116019   2.020   5.099   6.664
 5040SOL    HW216020   1.860   5.080   6.687
 5041SOL     OW16021   1.722   2.758   1.507
 5041SOL    HW116022   1.736   2.857   1.504
 5041SOL    HW216023   1.645   2.734   1.448
 5042SOL     OW16024   6.781   3.124   0.218
 5042SOL    HW116025   6.739   3.208   0.183
 5042SOL    HW216026   6.711   3.069   0.263
 5043SOL     OW16027   2.661   1.586   5.945
 5043SOL    HW116028   2.614   1.658   5.996
 5043SOL    HW216029   2.662   1.502   5.999
 5044SOL     OW16030   6.056   6.453   2.319
 5044SOL    HW116031   6.104   6.510   2.253
 5044SOL    HW216032   5.958   6.474   2.316
 5045SOL     OW16033   5.915   3.047   0.100
 5045SOL    HW116034   5.925   2.978   0.172
 5045SOL    HW216035   5.977   3.124   0.118
 5046SOL     OW16036   3.593   4.118   4.645
 5046SOL    HW116037   3.632   4.120   4.737
 5046SOL    HW216038   3.664   4.092   4.579
 5047SOL     OW16039   0.487   2.532   2.042
 5047SOL    HW116040   0.444   2.526   2.132
 5047SOL    HW216041   0.446   2.464   1.981
 5048SOL     OW16042   0.196   1.328   1.578
 5048SOL    HW116043   0.163   1.415   1.542
 5048SOL    HW216044   0.121   1.262   1.578
 5049SOL     OW16045   6.414   1.448   3.936
 5049SOL    HW116046   6.358   1.367   3.923
 5049SOL    HW216047   6.481   1.432   4.008
 5050SOL     OW16048   1.214   1.067   2.030
 5050SOL    HW116049   1.196   1.154   2.076
 5050SOL    HW216050   1.301   1.030   2.061
 5051SOL     OW16051   4.447   3.208   0.187
 5051SOL    HW116052   4.533   3.172   0.222
 5051SOL    HW216053   4.436   3.181   0.091
 5052SOL     OW16054   2.707   5.183   5.888
 5052SOL    HW116055   2.622   5.136   5.912
 5052SOL    HW216056   2.755   5.210   5.971
 5053SOL     OW16057   1.536   4.161   3.427
 5053SOL    HW116058   1.580   4.089   3.480
 5053SOL    HW216059   1.556   4.250   3.468
 5054SOL     OW16060   3.269   5.563   5.600
 5054SOL    HW116061   3.218   5.476   5.606
 5054SOL    HW216062   3.305   5.573   5.508
 5055SOL     OW16063   0.988   0.569   5.504
 5055SOL    HW116064   1.072   0.544   5.456
 5055SOL    HW216065   1.003   0.654   5.555
 5056SOL     OW16066   6.231   3.443   0.780
 5056SOL    HW116067   6.197   3.350   0.774
 5056SOL    HW216068   6.158   3.507   0.757
 5057SOL     OW16069   0.801   5.345   4.279
 5057SOL    HW116070   0.855   5.429   4.284
 5057SOL    HW216071   0.708   5.366   4.249
 5058SOL     OW16072   2.536   3.723   5.647
 5058SOL    HW116073   2.453   3.738   5.592
 5058SOL    HW216074   2.597   3.801   5.638
 5059SOL     OW16075   5.754   3.040   3.963
 5059SOL    HW116076   5.843   3.077   3.988
 5059SOL    HW216077   5.733   3.063   3.868
 5060SOL     OW16078   0.339   2.919   5.356
 5060SOL    HW116079   0.239   2.917   5.347
 5060SOL    HW216080   0.363   2.954   5.446
 5061SOL     OW16081   3.541   3.244   3.758
 5061SOL    HW116082   3.574   3.157   3.794
 5061SOL    HW216083   3.615   3.290   3.710
 5062SOL     OW16084   5.599   1.589   2.632
 5062SOL    HW116085   5.525   1.590   2.698
 5062SOL    HW216086   5.562   1.603   2.540
 5063SOL     OW16087   0.992   6.336   1.899
 5063SOL    HW116088   0.937   6.356   1.980
 5063SOL    HW216089   1.010   6.422   1.850
 5064SOL     OW16090   4.580   4.499   1.778
 5064SOL    HW116091   4.553   4.411   1.817
 5064SOL    HW216092   4.654   4.539   1.833
 5065SOL     OW16093   1.105   1.602   3.078
 5065SOL    HW116094   1.091   1.558   2.990
 5065SOL    HW216095   1.194   1.648   3.078
 5066SOL     OW16096   3.559   3.891   1.146
 5066SOL    HW116097   3.475   3.884   1.093
 5066SOL    HW216098   3.537   3.919   1.240
 5067SOL     OW16099   3.111   0.811   2.747
 5067SOL    HW116100   3.112   0.878   2.821
 5067SOL    HW216101   3.176   0.738   2.768
 5068SOL     OW16102   3.330   4.866   0.183
 5068SOL    HW116103   3.380   4.893   0.265
 5068SOL    HW216104   3.290   4.947   0.140
 5069SOL     OW16105   1.430   2.267   5.958
 5069SOL    HW116106   1.413   2.272   5.860
 5069SOL    HW216107   1.493   2.192   5.978
 5070SOL     OW16108   5.246   4.972   4.924
 5070SOL    HW116109   5.328   4.919   4.945
 5070SOL    HW216110   5.223   4.962   4.827
 5071SOL     OW16111   3.602   1.727   3.758
 5071SOL    HW116112   3.662   1.658   3.798
 5071SOL    HW216113   3.561   1.691   3.674
 5072SOL     OW16114   1.880   1.392   0.937
 5072SOL    HW116115   1.821   1.368   1.014
 5072SOL    HW216116   1.838   1.466   0.884
 5073SOL     OW16117   1.550   4.742   0.668
 5073SOL    HW116118   1.530   4.787   0.581
 5073SOL    HW216119   1.645   4.759   0.693
 5074SOL     OW16120   3.575   2.057   2.372
 5074SOL    HW116121   3.668   2.078   2.402
 5074SOL    HW216122   3.571   2.057   2.272
 5075SOL     OW16123   1.175   2.466   6.730
 5075SOL    HW116124   1.143   2.551   6.772
 5075SOL    HW216125   1.223   2.411   6.799
 5076SOL     OW16126   5.539   7.013   0.712
 5076SOL    HW116127   5.602   0.043   0.767
 5076SOL    HW216128   5.445   0.011   0.737
 5077SOL     OW16129   1.363   4.185   5.907
 5077SOL    HW116130   1.337   4.250   5.836
 5077SOL    HW216131   1.395   4.235   5.988
 5078SOL     OW16132   0.670   0.969   3.612
 5078SOL    HW116133   0.596   1.031   3.582
 5078SOL    HW216134   0.646   0.875   3.588
 5079SOL     OW16135   2.452   2.776   5.279
 5079SOL    HW116136   2.431   2.868   5.245
 5079SOL    HW216137   2.445   2.710   5.204
 5080SOL     OW16138   6.133   5.957   5.372
 5080SOL    HW116139   6.066   5.985   5.303
 5080SOL    HW216140   6.223   5.994   5.348
 5081SOL     OW16141   2.562   4.078   5.865
 5081SOL    HW116142   2.634   4.096   5.797
 5081SOL    HW216143   2.550   3.980   5.875
 5082SOL     OW16144   5.096   0.057   0.988
 5082SOL    HW116145   5.085   0.049   1.087
 5082SOL    HW216146   5.013   0.098   0.948
 5083SOL     OW16147   2.828   7.017   2.859
 5083SOL    HW116148   2.872   6.939   2.903
 5083SOL    HW216149   2.798   6.991   2.767
 5084SOL     OW16150   0.735   5.345   3.875
 5084SOL    HW116151   0.715   5.309   3.784
 5084SOL    HW216152   0.706   5.278   3.944
 5085SOL     OW16153   6.641   2.579   5.486
 5085SOL    HW116154   6.734   2.547   5.502
 5085SOL    HW216155   6.640   2.640   5.406
 5086SOL     OW16156   1.149   4.649   2.573
 5086SOL    HW116157   1.207   4.592   2.516
 5086SOL    HW216158   1.179   4.643   2.668
 5087SOL     OW16159   0.558   5.166   1.897
 5087SOL    HW116160   0.494   5.114   1.841
 5087SOL    HW216161   0.615   5.223   1.837
 5088SOL     OW16162   5.413   6.846   3.890
 5088SOL    HW116163   5.467   6.816   3.811
 5088SOL    HW216164   5.383   6.767   3.943
 5089SOL     OW16165   6.247   4.749   4.128
 5089SOL    HW116166   6.339   4.728   4.161
 5089SOL    HW216167   6.236   4.711   4.035
 5090SOL     OW16168   1.967   2.348   2.805
 5090SOL    HW116169   1.977   2.434   2.755
 5090SOL    HW216170   1.870   2.326   2.814
 5091SOL     OW16171   6.707   1.046   2.018
 5091SOL    HW116172   6.706   0.997   2.104
 5091SOL    HW216173   6.704   0.981   1.942
 5092SOL     OW16174   3.777   3.393   3.635
 5092SOL    HW116175   3.762   3.489   3.658
 5092SOL    HW216176   3.785   3.383   3.535
 5093SOL     OW16177   3.278   1.336   0.547
 5093SOL    HW116178   3.219   1.376   0.617
 5093SOL    HW216179   3.231   1.261   0.502
 5094SOL     OW16180   2.108   5.683   5.994
 5094SOL    HW116181   2.073   5.747   5.925
 5094SOL    HW216182   2.189   5.722   6.038
 5095SOL     OW16183   0.195   2.547   2.510
 5095SOL    HW116184   0.237   2.465   2.547
 5095SOL    HW216185   0.116   2.572   2.567
 5096SOL     OW16186   4.851   4.918   6.963
 5096SOL    HW116187   4.903   4.857   7.023
 5096SOL    HW216188   4.769   4.871   6.930
 5097SOL     OW16189   0.866   6.994   6.344
 5097SOL    HW116190   0.931   0.013   6.406
 5097SOL    HW216191   0.906   6.909   6.308
 5098SOL     OW16192   2.337   0.548   1.659
 5098SOL    HW116193   2.243   0.566   1.632
 5098SOL    HW216194   2.359   0.452   1.640
 5099SOL     OW16195   0.678   6.695   1.578
 5099SOL    HW116196   0.712   6.718   1.487
 5099SOL    HW216197   0.754   6.697   1.643
 5100SOL     OW16198   3.337   5.631   4.731
 5100SOL    HW116199   3.254   5.686   4.719
 5100SOL    HW216200   3.319   5.537   4.704
 5101SOL     OW16201   4.124   0.105   5.901
 5101SOL    HW116202   4.060   0.094   5.977
 5101SOL    HW216203   4.149   0.202   5.894
 5102SOL     OW16204   4.671   6.523   4.501
 5102SOL    HW116205   4.768   6.550   4.498
 5102SOL    HW216206   4.662   6.437   4.551
 5103SOL     OW16207   7.017   1.222   4.246
 5103SOL    HW116208   0.034   1.151   4.303
 5103SOL    HW216209   6.920   1.230   4.267
 5104SOL     OW16210   1.637   6.401   1.689
 5104SOL    HW116211   1.704   6.455   1.740
 5104SOL    HW216212   1.653   6.304   1.705
 5105SOL     OW16213   3.162   2.525   0.158
 5105SOL    HW116214   3.144   2.429   0.140
 5105SOL    HW216215   3.222   2.562   0.087
 5106SOL     OW16216   4.537   1.422   0.964
 5106SOL    HW116217   4.559   1.460   1.054
 5106SOL    HW216218   4.481   1.340   0.975
 5107SOL     OW16219   4.409   2.526   1.563
 5107SOL    HW116220   4.459   2.557   1.644
 5107SOL    HW216221   4.449   2.567   1.481
 5108SOL     OW16222   4.209   4.011   5.420
 5108SOL    HW116223   4.165   3.928   5.384
 5108SOL    HW216224   4.155   4.046   5.497
 5109SOL     OW16225   0.731   1.888   6.983
 5109SOL    HW116226   0.815   1.906   6.932
 5109SOL    HW216227   0.754   1.857   0.051
 5110SOL     OW16228   0.530   0.409   6.288
 5110SOL    HW116229   0.436   0.403   6.322
 5110SOL    HW216230   0.593   0.417   6.365
 5111SOL     OW16231   1.435   1.066   4.656
 5111SOL    HW116232   1.478   1.144   4.611
 5111SOL    HW216233   1.362   1.099   4.717
 5112SOL     OW16234   1.222   0.373   2.861
 5112SOL    HW116235   1.128   0.392   2.889
 5112SOL    HW216236   1.221   0.319   2.777
 5113SOL     OW16237   2.468   5.901   1.060
 5113SOL    HW116238   2.434   5.958   1.135
 5113SOL    HW216239   2.553   5.856   1.089
 5114SOL     OW16240   3.979   0.425   6.531
 5114SOL    HW116241   3.993   0.326   6.526
 5114SOL    HW216242   4.036   0.470   6.463
 5115SOL     OW16243   1.408   5.483   3.386
 5115SOL    HW116244   1.452   5.406   3.431
 5115SOL    HW216245   1.351   5.533   3.453
 5116SOL     OW16246   0.615   6.688   0.309
 5116SOL    HW116247   0.701   6.730   0.279
 5116SOL    HW216248   0.584   6.623   0.241
 5117SOL     OW16249   1.677   3.753   3.940
 5117SOL    HW116250   1.659   3.655   3.939
 5117SOL    HW216251   1.721   3.778   4.027
 5118SOL     OW16252   5.222   0.989   7.015
 5118SOL    HW116253   5.202   1.001   0.088
 5118SOL    HW216254   5.136   0.976   6.965
 5119SOL     OW16255   4.891   0.813   2.625
 5119SOL    HW116256   4.904   0.866   2.709
 5119SOL    HW216257   4.935   0.860   2.549
 5120SOL     OW16258   4.230   0.165   4.804
 5120SOL    HW116259   4.304   0.172   4.737
 5120SOL    HW216260   4.256   0.211   4.888
 5121SOL     OW16261   3.316   2.706   7.000
 5121SOL    HW116262   3.261   2.782   0.011
 5121SOL    HW216263   3.361   2.734   6.916
 5122SOL     OW16264   3.308   5.991   3.291
 5122SOL    HW116265   3.297   6.091   3.297
 5122SOL    HW216266   3.297   5.963   3.196
 5123SOL     OW16267   4.470   2.416   4.411
 5123SOL    HW116268   4.445   2.434   4.506
 5123SOL    HW216269   4.402   2.356   4.369
 5124SOL     OW16270   1.962   5.948   4.990
 5124SOL    HW116271   1.962   5.970   5.087
 5124SOL    HW216272   1.880   5.985   4.947
 5125SOL     OW16273   6.745   4.155   3.846
 5125SOL    HW116274   6.751   4.171   3.748
 5125SOL    HW216275   6.722   4.059   3.863
 5126SOL     OW16276   6.145   5.381   6.377
 5126SOL    HW116277   6.110   5.392   6.284
 5126SOL    HW216278   6.076   5.413   6.442
 5127SOL     OW16279   0.115   3.884   0.211
 5127SOL    HW116280   0.059   3.891   0.128
 5127SOL    HW216281   0.059   3.906   0.291
 5128SOL     OW16282   7.012   0.451   6.393
 5128SOL    HW116283   6.934   0.483   6.340
 5128SOL    HW216284   7.023   0.352   6.382
 5129SOL     OW16285   6.470   0.163   2.382
 5129SOL    HW116286   6.441   0.126   2.470
 5129SOL    HW216287   6.561   0.203   2.391
 5130SOL     OW16288   0.317   5.268   3.271
 5130SOL    HW116289   0.285   5.359   3.244
 5130SOL    HW216290   0.386   5.236   3.206
 5131SOL     OW16291   2.129   4.517   4.296
 5131SOL    HW116292   2.172   4.580   4.231
 5131SOL    HW216293   2.031   4.512   4.277
 5132SOL     OW16294   3.589   3.106   6.709
 5132SOL    HW116295   3.651   3.184   6.714
 5132SOL    HW216296   3.541   3.106   6.621
 5133SOL     OW16297   2.599   5.473   0.111
 5133SOL    HW116298   2.663   5.487   0.036
 5133SOL    HW216299   2.631   5.398   0.169
 5134SOL     OW16300   0.465   3.516   2.583
 5134SOL    HW116301   0.476   3.468   2.496
 5134SOL    HW216302   0.370   3.544   2.594
 5135SOL     OW16303   6.138   2.974   4.369
 5135SOL    HW116304   6.073   3.044   4.340
 5135SOL    HW216305   6.189   3.007   4.449
 5136SOL     OW16306   3.560   0.661   6.092
 5136SOL    HW116307   3.600   0.707   6.013
 5136SOL    HW216308   3.632   0.634   6.155
 5137SOL     OW16309   5.077   3.347   6.064
 5137SOL    HW116310   5.050   3.258   6.099
 5137SOL    HW216311   5.033   3.364   5.976
 5138SOL     OW16312   3.332   2.598   5.579
 5138SOL    HW116313   3.330   2.694   5.607
 5138SOL    HW216314   3.339   2.540   5.660
 5139SOL     OW16315   1.559   0.573   2.829
 5139SOL    HW116316   1.621   0.621   2.890
 5139SOL    HW216317   1.519   0.495   2.878
 5140SOL     OW16318   4.079   2.424   0.284
 5140SOL    HW116319   4.166   2.451   0.244
 5140SOL    HW216320   4.069   2.466   0.374
 5141SOL     OW16321   6.694   3.668   0.134
 5141SOL    HW116322   6.708   3.673   0.035
 5141SOL    HW216323   6.645   3.749   0.165
 5142SOL     OW16324   5.974   0.127   3.795
 5142SOL    HW116325   6.013   0.112   3.704
 5142SOL    HW216326   6.046   0.157   3.858
 5143SOL     OW16327   6.642   4.421   4.063
 5143SOL    HW116328   6.574   4.488   4.092
 5143SOL    HW216329   6.611   4.375   3.980
 5144SOL     OW16330   0.696   4.898   6.745
 5144SOL    HW116331   0.782   4.904   6.797
 5144SOL    HW216332   0.711   4.931   6.652
 5145SOL     OW16333   2.607   4.969   5.503
 5145SOL    HW116334   2.516   4.951   5.539
 5145SOL    HW216335   2.611   5.063   5.470
 5146SOL     OW16336   3.905   4.008   5.228
 5146SOL    HW116337   3.910   4.106   5.248
 5146SOL    HW216338   3.920   3.994   5.130
 5147SOL     OW16339   0.009   5.112   2.717
 5147SOL    HW116340   0.029   5.189   2.657
 5147SOL    HW216341   0.057   5.031   2.685
 5148SOL     OW16342   6.678   6.257   1.772
 5148SOL    HW116343   6.773   6.233   1.752
 5148SOL    HW216344   6.625   6.174   1.790
 5149SOL     OW16345   6.500   6.019   3.357
 5149SOL    HW116346   6.489   6.107   3.312
 5149SOL    HW216347   6.519   5.949   3.288
 5150SOL     OW16348   2.454   5.241   2.478
 5150SOL    HW116349   2.476   5.301   2.555
 5150SOL    HW216350   2.421   5.296   2.401
 5151SOL     OW16351   5.671   2.255   0.624
 5151SOL    HW116352   5.576   2.254   0.658
 5151SOL    HW216353   5.679   2.193   0.547
 5152SOL     OW16354   2.383   5.172   0.349
 5152SOL    HW116355   2.352   5.130   0.435
 5152SOL    HW216356   2.337   5.259   0.336
 5153SOL     OW16357   2.132   0.271   6.934
 5153SOL    HW116358   2.214   0.327   6.920
 5153SOL    HW216359   2.081   0.263   6.848
 5154SOL     OW16360   0.968   3.941   6.406
 5154SOL    HW116361   1.021   3.860   6.433
 5154SOL    HW216362   0.918   3.921   6.322
 5155SOL     OW16363   4.317   6.374   2.371
 5155SOL    HW116364   4.355   6.370   2.279
 5155SOL    HW216365   4.240   6.310   2.379
 5156SOL     OW16366   5.825   3.864   5.859
 5156SOL    HW116367   5.822   3.911   5.947
 5156SOL    HW216368   5.858   3.771   5.872
 5157SOL     OW16369   3.986   2.018   3.707
 5157SOL    HW116370   3.954   2.070   3.628
 5157SOL    HW216371   4.011   2.080   3.781
 5158SOL     OW16372   3.648   1.411   1.825
 5158SOL    HW116373   3.616   1.409   1.730
 5158SOL    HW216374   3.607   1.488   1.874
 5159SOL     OW16375   6.896   3.595   3.844
 5159SOL    HW116376   6.923   3.532   3.917
 5159SOL    HW216377   6.975   3.616   3.787
 5160SOL     OW16378   0.137   4.900   3.277
 5160SOL    HW116379   0.140   4.958   3.359
 5160SOL    HW216380   0.091   4.814   3.298
 5161SOL     OW16381   1.368   3.642   5.455
 5161SOL    HW116382   1.330   3.698   5.529
 5161SOL    HW216383   1.328   3.670   5.368
 5162SOL     OW16384   1.171   5.068   3.316
 5162SOL    HW116385   1.180   5.047   3.219
 5162SOL    HW216386   1.083   5.036   3.350
 5163SOL     OW16387   3.515   6.456   0.652
 5163SOL    HW116388   3.524   6.488   0.558
 5163SOL    HW216389   3.429   6.489   0.691
 5164SOL     OW16390   4.604   2.456   0.091
 5164SOL    HW116391   4.651   2.378   0.132
 5164SOL    HW216392   4.571   2.432   7.024
 5165SOL     OW16393   5.871   4.420   6.068
 5165SOL    HW116394   5.884   4.489   6.140
 5165SOL    HW216395   5.816   4.460   5.995
 5166SOL     OW16396   0.841   5.117   3.348
 5166SOL    HW116397   0.882   5.179   3.281
 5166SOL    HW216398   0.763   5.069   3.307
 5167SOL     OW16399   6.156   6.185   5.605
 5167SOL    HW116400   6.250   6.154   5.589
 5167SOL    HW216401   6.139   6.268   5.553
 5168SOL     OW16402   5.021   3.982   3.013
 5168SOL    HW116403   5.051   4.038   2.936
 5168SOL    HW216404   4.984   3.896   2.979
 5169SOL     OW16405   3.982   1.752   4.962
 5169SOL    HW116406   4.054   1.820   4.977
 5169SOL    HW216407   3.901   1.798   4.925
 5170SOL     OW16408   0.701   4.445   5.754
 5170SOL    HW116409   0.790   4.404   5.735
 5170SOL    HW216410   0.714   4.534   5.797
 5171SOL     OW16411   1.255   5.608   4.515
 5171SOL    HW116412   1.284   5.602   4.610
 5171SOL    HW216413   1.286   5.526   4.465
 5172SOL     OW16414   0.754   1.991   1.834
 5172SOL    HW116415   0.665   1.966   1.797
 5172SOL    HW216416   0.768   2.090   1.825
 5173SOL     OW16417   5.399   4.614   6.184
 5173SOL    HW116418   5.383   4.670   6.266
 5173SOL    HW216419   5.489   4.570   6.191
 5174SOL     OW16420   2.167   4.601   3.092
 5174SOL    HW116421   2.175   4.655   3.175
 5174SOL    HW216422   2.123   4.513   3.113
 5175SOL     OW16423   2.195   3.758   6.886
 5175SOL    HW116424   2.251   3.829   6.928
 5175SOL    HW216425   2.176   3.782   6.791
 5176SOL     OW16426   4.671   3.053   6.479
 5176SOL    HW116427   4.761   3.056   6.522
 5176SOL    HW216428   4.658   2.965   6.433
 5177SOL     OW16429   4.751   0.102   6.983
 5177SOL    HW116430   4.835   0.052   6.964
 5177SOL    HW216431   4.690   0.098   6.904
 5178SOL     OW16432   1.191   4.034   1.692
 5178SOL    HW116433   1.217   3.972   1.618
 5178SOL    HW216434   1.100   4.072   1.673
 5179SOL     OW16435   4.048   6.223   3.827
 5179SOL    HW116436   4.097   6.172   3.897
 5179SOL    HW216437   3.950   6.226   3.850
 5180SOL     OW16438   2.875   2.899   0.238
 5180SOL    HW116439   2.876   2.848   0.152
 5180SOL    HW216440   2.887   2.836   0.314
 5181SOL     OW16441   5.633   2.215   2.114
 5181SOL    HW116442   5.679   2.163   2.186
 5181SOL    HW216443   5.597   2.300   2.151
 5182SOL     OW16444   3.975   4.351   1.679
 5182SOL    HW116445   4.031   4.428   1.709
 5182SOL    HW216446   3.881   4.363   1.712
 5183SOL     OW16447   4.234   1.606   2.585
 5183SOL    HW116448   4.309   1.614   2.519
 5183SOL    HW216449   4.182   1.523   2.566
 5184SOL     OW16450   0.056   2.532   4.370
 5184SOL    HW116451   0.155   2.519   4.381
 5184SOL    HW216452   0.034   2.538   4.273
 5185SOL     OW16453   5.416   1.132   2.467
 5185SOL    HW116454   5.350   1.200   2.497
 5185SOL    HW216455   5.381   1.040   2.487
 5186SOL     OW16456   6.334   2.952   0.551
 5186SOL    HW116457   6.386   2.902   0.482
 5186SOL    HW216458   6.323   2.895   0.633
 5187SOL     OW16459   0.348   0.211   4.075
 5187SOL    HW116460   0.417   0.273   4.113
 5187SOL    HW216461   0.334   0.232   3.978
 5188SOL     OW16462   0.525   6.054   0.382
 5188SOL    HW116463   0.569   6.063   0.292
 5188SOL    HW216464   0.539   5.961   0.416
 5189SOL     OW16465   4.828   4.954   0.703
 5189SOL    HW116466   4.825   4.908   0.614
 5189SOL    HW216467   4.872   4.896   0.770
 5190SOL     OW16468   0.054   3.041   4.313
 5190SOL    HW116469   0.068   2.953   4.268
 5190SOL    HW216470   0.082   3.114   4.251
 5191SOL     OW16471   3.602   0.449   1.858
 5191SOL    HW116472   3.620   0.548   1.864
 5191SOL    HW216473   3.599   0.422   1.762
 5192SOL     OW16474   2.976   4.871   2.516
 5192SOL    HW116475   2.940   4.882   2.423
 5192SOL    HW216476   3.072   4.843   2.511
 5193SOL     OW16477   4.972   4.470   4.324
 5193SOL    HW116478   4.990   4.389   4.380
 5193SOL    HW216479   4.921   4.537   4.378
 5194SOL     OW16480   3.741   1.297   0.531
 5194SOL    HW116481   3.805   1.372   0.548
 5194SOL    HW216482   3.655   1.334   0.497
 5195SOL     OW16483   5.864   6.046   4.506
 5195SOL    HW116484   5.816   6.133   4.513
 5195SOL    HW216485   5.899   6.019   4.596
 5196SOL     OW16486   2.707   4.248   0.833
 5196SOL    HW116487   2.613   4.283   0.840
 5196SOL    HW216488   2.705   4.158   0.788
 5197SOL     OW16489   2.127   5.741   5.265
 5197SOL    HW116490   2.216   5.722   5.223
 5197SOL    HW216491   2.140   5.783   5.354
 5198SOL     OW16492   4.118   6.781   3.026
 5198SOL    HW116493   4.071   6.860   2.986
 5198SOL    HW216494   4.215   6.784   3.002
 5199SOL     OW16495   1.168   6.227   0.518
 5199SOL    HW116496   1.213   6.202   0.433
 5199SOL    HW216497   1.209   6.310   0.555
 5200SOL     OW16498   1.180   1.542   5.449
 5200SOL    HW116499   1.155   1.547   5.546
 5200SOL    HW216500   1.232   1.624   5.425
 5201SOL     OW16501   6.189   6.236   4.411
 5201SOL    HW116502   6.217   6.300   4.340
 5201SOL    HW216503   6.267   6.215   4.470
 5202SOL     OW16504   5.709   4.199   5.575
 5202SOL    HW116505   5.652   4.193   5.493
 5202SOL    HW216506   5.787   4.138   5.566
 5203SOL     OW16507   2.327   1.190   6.792
 5203SOL    HW116508   2.293   1.226   6.879
 5203SOL    HW216509   2.423   1.165   6.802
 5204SOL     OW16510   4.418   6.844   6.810
 5204SOL    HW116511   4.457   6.762   6.853
 5204SOL    HW216512   4.351   6.885   6.871
 5205SOL     OW16513   6.704   5.780   0.360
 5205SOL    HW116514   6.713   5.744   0.267
 5205SOL    HW216515   6.709   5.705   0.425
 5206SOL     OW16516   0.250   4.695   7.020
 5206SOL    HW116517   0.348   4.676   7.023
 5206SOL    HW216518   0.232   4.768   6.954
 5207SOL     OW16519   1.369   6.790   4.000
 5207SOL    HW116520   1.370   6.889   4.009
 5207SOL    HW216521   1.283   6.754   4.037
 5208SOL     OW16522   5.058   2.403   0.119
 5208SOL    HW116523   5.132   2.385   0.054
 5208SOL    HW216524   5.092   2.389   0.212
 5209SOL     OW16525   5.747   0.497   1.574
 5209SOL    HW116526   5.689   0.417   1.590
 5209SOL    HW216527   5.771   0.539   1.661
 5210SOL     OW16528   4.768   3.403   0.361
 5210SOL    HW116529   4.701   3.371   0.428
 5210SOL    HW216530   4.856   3.357   0.376
 5211SOL     OW16531   4.105   2.004   5.318
 5211SOL    HW116532   4.033   2.046   5.374
 5211SOL    HW216533   4.072   1.993   5.224
 5212SOL     OW16534   1.074   3.438   0.825
 5212SOL    HW116535   1.139   3.452   0.750
 5212SOL    HW216536   0.982   3.423   0.787
 5213SOL     OW16537   4.290   3.319   1.028
 5213SOL    HW116538   4.221   3.364   0.972
 5213SOL    HW216539   4.278   3.220   1.021
 5214SOL     OW16540   5.227   2.623   6.097
 5214SOL    HW116541   5.236   2.544   6.158
 5214SOL    HW216542   5.313   2.637   6.048
 5215SOL     OW16543   0.928   4.699   4.167
 5215SOL    HW116544   0.975   4.690   4.255
 5215SOL    HW216545   0.829   4.699   4.181
 5216SOL     OW16546   4.194   4.185   1.686
 5216SOL    HW116547   4.119   4.252   1.685
 5216SOL    HW216548   4.157   4.094   1.667
 5217SOL     OW16549   3.762   5.476   4.575
 5217SOL    HW116550   3.720   5.385   4.580
 5217SOL    HW216551   3.692   5.546   4.576
 5218SOL     OW16552   0.613   1.009   1.394
 5218SOL    HW116553   0.649   0.971   1.479
 5218SOL    HW216554   0.598   0.936   1.327
 5219SOL     OW16555   3.399   1.508   4.992
 5219SOL    HW116556   3.319   1.567   4.986
 5219SOL    HW216557   3.447   1.527   5.078
 5220SOL     OW16558   1.279   5.832   2.794
 5220SOL    HW116559   1.320   5.786   2.716
 5220SOL    HW216560   1.348   5.843   2.866
 5221SOL     OW16561   6.066   1.308   2.965
 5221SOL    HW116562   6.069   1.278   3.061
 5221SOL    HW216563   6.159   1.310   2.928
 5222SOL     OW16564   3.551   6.756   2.196
 5222SOL    HW116565   3.511   6.673   2.158
 5222SOL    HW216566   3.502   6.836   2.162
 5223SOL     OW16567   6.850   2.618   0.024
 5223SOL    HW116568   6.870   2.700   0.077
 5223SOL    HW216569   6.932   2.561   0.017
 5224SOL     OW16570   6.365   3.260   4.304
 5224SOL    HW116571   6.438   3.291   4.365
 5224SOL    HW216572   6.279   3.304   4.331
 5225SOL     OW16573   6.813   1.040   3.961
 5225SOL    HW116574   6.863   1.052   3.875
 5225SOL    HW216575   6.743   1.110   3.969
 5226SOL     OW16576   6.782   6.815   4.552
 5226SOL    HW116577   6.790   6.725   4.596
 5226SOL    HW216578   6.765   6.885   4.621
 5227SOL     OW16579   0.602   3.962   5.224
 5227SOL    HW116580   0.552   3.876   5.229
 5227SOL    HW216581   0.661   3.962   5.143
 5228SOL     OW16582   0.465   2.527   6.866
 5228SOL    HW116583   0.531   2.580   6.813
 5228SOL    HW216584   0.514   2.460   6.923
 5229SOL     OW16585   2.701   6.758   0.264
 5229SOL    HW116586   2.702   6.687   0.194
 5229SOL    HW216587   2.655   6.723   0.346
 5230SOL     OW16588   6.783   5.941   2.281
 5230SOL    HW116589   6.865   5.996   2.298
 5230SOL    HW216590   6.786   5.906   2.187
 5231SOL     OW16591   4.333   2.406   4.000
 5231SOL    HW116592   4.418   2.458   4.008
 5231SOL    HW216593   4.354   2.308   4.003
 5232SOL     OW16594   1.141   3.655   6.092
 5232SOL    HW116595   1.074   3.659   6.166
 5232SOL    HW216596   1.095   3.630   6.007
 5233SOL     OW16597   4.290   1.330   2.530
 5233SOL    HW116598   4.367   1.347   2.468
 5233SOL    HW216599   4.320   1.270   2.603
 5234SOL     OW16600   2.894   2.469   5.921
 5234SOL    HW116601   2.865   2.522   6.001
 5234SOL    HW216602   2.970   2.516   5.875
 5235SOL     OW16603   1.773   2.819   1.106
 5235SOL    HW116604   1.705   2.874   1.154
 5235SOL    HW216605   1.747   2.722   1.111
 5236SOL     OW16606   3.980   5.648   2.273
 5236SOL    HW116607   3.965   5.576   2.205
 5236SOL    HW216608   3.961   5.737   2.231
 5237SOL     OW16609   0.868   1.076   4.770
 5237SOL    HW116610   0.786   1.121   4.805
 5237SOL    HW216611   0.870   1.083   4.670
 5238SOL     OW16612   0.927   4.909   0.571
 5238SOL    HW116613   0.878   4.926   0.656
 5238SOL    HW216614   0.944   4.996   0.524
 5239SOL     OW16615   3.570   2.425   6.113
 5239SOL    HW116616   3.639   2.364   6.152
 5239SOL    HW216617   3.606   2.466   6.029
 5240SOL     OW16618   3.340   2.014   5.173
 5240SOL    HW116619   3.360   2.044   5.079
 5240SOL    HW216620   3.293   2.087   5.222
 5241SOL     OW16621   0.063   5.383   4.562
 5241SOL    HW116622   0.094   5.408   4.470
 5241SOL    HW216623   0.116   5.304   4.594
 5242SOL     OW16624   6.569   0.138   0.716
 5242SOL    HW116625   6.502   0.206   0.687
 5242SOL    HW216626   6.637   0.182   0.774
 5243SOL     OW16627   1.929   5.779   1.608
 5243SOL    HW116628   1.974   5.856   1.653
 5243SOL    HW216629   1.871   5.731   1.675
 5244SOL     OW16630   3.241   4.403   6.228
 5244SOL    HW116631   3.157   4.356   6.256
 5244SOL    HW216632   3.223   4.457   6.146
 5245SOL     OW16633   3.932   4.198   0.371
 5245SOL    HW116634   3.900   4.212   0.278
 5245SOL    HW216635   3.929   4.285   0.421
 5246SOL     OW16636   5.922   2.565   1.043
 5246SOL    HW116637   5.865   2.640   1.076
 5246SOL    HW216638   6.017   2.595   1.040
 5247SOL     OW16639   2.756   0.210   6.489
 5247SOL    HW116640   2.762   0.277   6.564
 5247SOL    HW216641   2.810   0.242   6.411
 5248SOL     OW16642   6.399   1.730   2.778
 5248SOL    HW116643   6.354   1.812   2.812
 5248SOL    HW216644   6.436   1.677   2.854
 5249SOL     OW16645   0.451   5.429   6.475
 5249SOL    HW116646   0.392   5.348   6.468
 5249SOL    HW216647   0.508   5.435   6.393
 5250SOL     OW16648   2.149   5.940   6.898
 5250SOL    HW116649   2.212   5.941   6.975
 5250SOL    HW216650   2.092   5.858   6.903
 5251SOL     OW16651   1.068   3.727   0.004
 5251SOL    HW116652   1.009   3.648   7.011
 5251SOL    HW216653   1.152   3.719   6.975
 5252SOL     OW16654   2.656   6.021   0.567
 5252SOL    HW116655   2.672   6.079   0.487
 5252SOL    HW216656   2.618   6.077   0.641
 5253SOL     OW16657   6.883   3.728   4.701
 5253SOL    HW116658   6.816   3.729   4.627
 5253SOL    HW216659   6.924   3.819   4.711
 5254SOL     OW16660   5.167   1.375   2.781
 5254SOL    HW116661   5.159   1.299   2.847
 5254SOL    HW216662   5.097   1.364   2.710
 5255SOL     OW16663   5.772   2.220   4.703
 5255SOL    HW116664   5.673   2.230   4.699
 5255SOL    HW216665   5.813   2.310   4.719
 5256SOL     OW16666   4.971   1.631   3.730
 5256SOL    HW116667   4.944   1.724   3.756
 5256SOL    HW216668   5.013   1.634   3.639
 5257SOL     OW16669   5.520   7.023   1.937
 5257SOL    HW116670   5.434   0.034   1.974
 5257SOL    HW216671   5.538   0.039   1.848
 5258SOL     OW16672   5.882   3.109   1.574
 5258SOL    HW116673   5.818   3.185   1.574
 5258SOL    HW216674   5.972   3.141   1.603
 5259SOL     OW16675   5.087   6.516   2.193
 5259SOL    HW116676   5.083   6.524   2.094
 5259SOL    HW216677   5.010   6.460   2.225
 5260SOL     OW16678   5.067   3.382   0.707
 5260SOL    HW116679   4.984   3.416   0.753
 5260SOL    HW216680   5.114   3.318   0.767
 5261SOL     OW16681   0.601   3.892   5.960
 5261SOL    HW116682   0.598   3.985   5.997
 5261SOL    HW216683   0.571   3.894   5.865
 5262SOL     OW16684   2.328   1.451   4.020
 5262SOL    HW116685   2.235   1.429   4.048
 5262SOL    HW216686   2.344   1.549   4.034
 5263SOL     OW16687   1.648   1.110   3.410
 5263SOL    HW116688   1.694   1.025   3.385
 5263SOL    HW216689   1.552   1.092   3.431
 5264SOL     OW16690   0.244   2.152   1.737
 5264SOL    HW116691   0.240   2.120   1.832
 5264SOL    HW216692   0.155   2.139   1.693
 5265SOL     OW16693   6.557   3.944   3.991
 5265SOL    HW116694   6.493   3.947   3.915
 5265SOL    HW216695   6.641   3.897   3.963
 5266SOL     OW16696   3.333   5.040   6.945
 5266SOL    HW116697   3.308   5.021   6.850
 5266SOL    HW216698   3.431   5.029   6.956
 5267SOL     OW16699   5.224   2.749   5.101
 5267SOL    HW116700   5.148   2.814   5.110
 5267SOL    HW216701   5.282   2.777   5.024
 5268SOL     OW16702   5.397   1.569   0.477
 5268SOL    HW116703   5.350   1.532   0.557
 5268SOL    HW216704   5.345   1.549   0.394
 5269SOL     OW16705   0.831   5.751   2.935
 5269SOL    HW116706   0.836   5.673   2.873
 5269SOL    HW216707   0.908   5.813   2.917
 5270SOL     OW16708   6.093   1.171   1.426
 5270SOL    HW116709   6.143   1.208   1.348
 5270SOL    HW216710   6.091   1.071   1.420
 5271SOL     OW16711   6.533   5.434   6.001
 5271SOL    HW116712   6.498   5.462   6.090
 5271SOL    HW216713   6.582   5.510   5.958
 5272SOL     OW16714   3.241   5.847   2.031
 5272SOL    HW116715   3.220   5.938   2.068
 5272SOL    HW216716   3.156   5.797   2.015
 5273SOL     OW16717   6.933   2.767   3.751
 5273SOL    HW116718   6.907   2.688   3.695
 5273SOL    HW216719   7.019   2.748   3.798
 5274SOL     OW16720   5.920   0.045   2.567
 5274SOL    HW116721   5.829   0.054   2.525
 5274SOL    HW216722   5.961   6.983   2.539
 5275SOL     OW16723   3.830   1.623   0.856
 5275SOL    HW116724   3.730   1.615   0.856
 5275SOL    HW216725   3.857   1.703   0.909
 5276SOL     OW16726   1.765   6.938   0.884
 5276SOL    HW116727   1.765   6.842   0.909
 5276SOL    HW216728   1.675   6.978   0.903
 5277SOL     OW16729   2.198   1.188   2.340
 5277SOL    HW116730   2.175   1.257   2.408
 5277SOL    HW216731   2.297   1.179   2.333
 5278SOL     OW16732   5.653   6.795   3.716
 5278SOL    HW116733   5.722   6.823   3.649
 5278SOL    HW216734   5.697   6.781   3.805
 5279SOL     OW16735   2.536   5.294   6.262
 5279SOL    HW116736   2.487   5.218   6.305
 5279SOL    HW216737   2.634   5.285   6.280
 5280SOL     OW16738   2.810   5.646   4.842
 5280SOL    HW116739   2.903   5.614   4.859
 5280SOL    HW216740   2.748   5.608   4.910
 5281SOL     OW16741   0.692   2.187   2.404
 5281SOL    HW116742   0.634   2.164   2.482
 5281SOL    HW216743   0.714   2.103   2.352
 5282SOL     OW16744   3.116   1.569   4.113
 5282SOL    HW116745   3.211   1.547   4.132
 5282SOL    HW216746   3.103   1.668   4.121
 5283SOL     OW16747   4.506   6.707   1.425
 5283SOL    HW116748   4.527   6.787   1.482
 5283SOL    HW216749   4.412   6.678   1.442
 5284SOL     OW16750   4.868   4.105   3.347
 5284SOL    HW116751   4.795   4.115   3.280
 5284SOL    HW216752   4.910   4.194   3.364
 5285SOL     OW16753   2.184   4.728   4.144
 5285SOL    HW116754   2.085   4.733   4.157
 5285SOL    HW216755   2.222   4.821   4.146
 5286SOL     OW16756   1.735   4.911   0.386
 5286SOL    HW116757   1.753   4.955   0.299
 5286SOL    HW216758   1.697   4.820   0.370
 5287SOL     OW16759   3.060   0.098   0.401
 5287SOL    HW116760   2.995   0.063   0.334
 5287SOL    HW216761   3.101   0.021   0.451
 5288SOL     OW16762   3.141   0.002   2.011
 5288SOL    HW116763   3.061   6.989   2.058
 5288SOL    HW216764   3.141   0.101   2.018
 5289SOL     OW16765   2.321   5.301   6.574
 5289SOL    HW116766   2.397   5.235   6.571
 5289SOL    HW216767   2.343   5.373   6.640
 5290SOL     OW16768   2.485   5.875   4.803
 5290SOL    HW116769   2.401   5.835   4.839
 5290SOL    HW216770   2.525   5.936   4.871
 5291SOL     OW16771   2.597   5.723   5.840
 5291SOL    HW116772   2.661   5.722   5.917
 5291SOL    HW216773   2.648   5.705   5.755
 5292SOL     OW16774   6.613   3.234   6.398
 5292SOL    HW116775   6.634   3.319   6.350
 5292SOL    HW216776   6.559   3.174   6.339
 5293SOL     OW16777   0.472   1.050   4.611
 5293SOL    HW116778   0.372   1.052   4.618
 5293SOL    HW216779   0.507   1.144   4.607
 5294SOL     OW16780   4.287   3.433   5.638
 5294SOL    HW116781   4.235   3.487   5.571
 5294SOL    HW216782   4.343   3.495   5.693
 5295SOL     OW16783   6.268   0.619   2.628
 5295SOL    HW116784   6.272   0.706   2.580
 5295SOL    HW216785   6.194   0.564   2.590
 5296SOL     OW16786   2.353   5.500   6.761
 5296SOL    HW116787   2.265   5.545   6.752
 5296SOL    HW216788   2.360   5.457   6.852
 5297SOL     OW16789   1.953   2.042   1.684
 5297SOL    HW116790   1.930   2.122   1.628
 5297SOL    HW216791   2.053   2.036   1.693
 5298SOL     OW16792   0.207   5.861   1.308
 5298SOL    HW116793   0.110   5.844   1.292
 5298SOL    HW216794   0.235   5.816   1.393
 5299SOL     OW16795   2.938   1.622   0.616
 5299SOL    HW116796   3.001   1.646   0.690
 5299SOL    HW216797   2.873   1.697   0.602
 5300SOL     OW16798   0.120   5.795   2.933
 5300SOL    HW116799   0.219   5.778   2.939
 5300SOL    HW216800   0.095   5.817   2.839
 5301SOL     OW16801   4.619   1.405   0.378
 5301SOL    HW116802   4.620   1.351   0.462
 5301SOL    HW216803   4.561   1.361   0.310
 5302SOL     OW16804   5.257   5.185   3.297
 5302SOL    HW116805   5.163   5.160   3.276
 5302SOL    HW216806   5.307   5.203   3.212
 5303SOL     OW16807   0.158   6.450   4.223
 5303SOL    HW116808   0.193   6.508   4.150
 5303SOL    HW216809   0.201   6.360   4.217
 5304SOL     OW16810   6.287   2.308   5.791
 5304SOL    HW116811   6.331   2.375   5.732
 5304SOL    HW216812   6.238   2.355   5.864
 5305SOL     OW16813   1.420   6.662   4.420
 5305SOL    HW116814   1.510   6.622   4.410
 5305SOL    HW216815   1.422   6.758   4.392
 5306SOL     OW16816   1.440   6.006   4.660
 5306SOL    HW116817   1.421   5.965   4.571
 5306SOL    HW216818   1.530   5.976   4.692
 5307SOL     OW16819   4.227   6.533   6.657
 5307SOL    HW116820   4.203   6.623   6.619
 5307SOL    HW216821   4.264   6.545   6.749
 5308SOL     OW16822   0.660   0.075   4.749
 5308SOL    HW116823   0.640   0.009   4.676
 5308SOL    HW216824   0.747   0.121   4.729
 5309SOL     OW16825   3.560   4.144   2.881
 5309SOL    HW116826   3.634   4.088   2.845
 5309SOL    HW216827   3.483   4.142   2.817
 5310SOL     OW16828   5.429   2.981   1.985
 5310SOL    HW116829   5.439   2.886   2.013
 5310SOL    HW216830   5.346   2.992   1.931
 5311SOL     OW16831   0.336   5.747   0.649
 5311SOL    HW116832   0.321   5.837   0.608
 5311SOL    HW216833   0.325   5.753   0.748
 5312SOL     OW16834   6.897   4.306   1.977
 5312SOL    HW116835   6.808   4.270   2.005
 5312SOL    HW216836   6.961   4.230   1.964
 5313SOL     OW16837   1.065   5.337   0.027
 5313SOL    HW116838   1.032   5.386   0.107
 5313SOL    HW216839   0.990   5.326   6.985
 5314SOL     OW16840   4.537   5.037   0.768
 5314SOL    HW116841   4.514   5.009   0.861
 5314SOL    HW216842   4.634   5.019   0.751
 5315SOL     OW16843   4.281   4.469   1.709
 5315SOL    HW116844   4.281   4.564   1.678
 5315SOL    HW216845   4.245   4.410   1.636
 5316SOL     OW16846   6.309   5.059   4.881
 5316SOL    HW116847   6.357   5.081   4.796
 5316SOL    HW216848   6.376   5.039   4.953
 5317SOL     OW16849   6.037   1.433   4.665
 5317SOL    HW116850   6.037   1.455   4.763
 5317SOL    HW216851   5.983   1.350   4.649
 5318SOL     OW16852   0.037   1.834   5.588
 5318SOL    HW116853   6.964   1.842   5.610
 5318SOL    HW216854   0.056   1.741   5.556
 5319SOL     OW16855   4.668   6.836   0.074
 5319SOL    HW116856   4.575   6.846   0.041
 5319SOL    HW216857   4.710   6.926   0.083
 5320SOL     OW16858   5.766   5.424   6.434
 5320SOL    HW116859   5.719   5.403   6.348
 5320SOL    HW216860   5.698   5.452   6.502
 5321SOL     OW16861   1.011   5.287   2.768
 5321SOL    HW116862   0.916   5.279   2.798
 5321SOL    HW216863   1.014   5.321   2.674
 5322SOL     OW16864   4.059   6.851   6.108
 5322SOL    HW116865   4.130   6.782   6.093
 5322SOL    HW216866   3.978   6.808   6.149
 5323SOL     OW16867   4.045   3.017   0.882
 5323SOL    HW116868   3.977   3.044   0.950
 5323SOL    HW216869   4.131   2.994   0.927
 5324SOL     OW16870   3.707   2.292   1.552
 5324SOL    HW116871   3.621   2.289   1.501
 5324SOL    HW216872   3.691   2.336   1.641
 5325SOL     OW16873   5.787   6.787   3.454
 5325SOL    HW116874   5.847   6.806   3.377
 5325SOL    HW216875   5.713   6.854   3.456
 5326SOL     OW16876   6.289   5.396   2.880
 5326SOL    HW116877   6.368   5.368   2.825
 5326SOL    HW216878   6.211   5.415   2.820
 5327SOL     OW16879   0.598   5.931   5.799
 5327SOL    HW116880   0.626   5.991   5.723
 5327SOL    HW216881   0.523   5.872   5.768
 5328SOL     OW16882   3.841   2.125   5.420
 5328SOL    HW116883   3.827   2.119   5.518
 5328SOL    HW216884   3.754   2.113   5.373
 5329SOL     OW16885   0.447   3.666   6.970
 5329SOL    HW116886   0.443   3.580   6.919
 5329SOL    HW216887   0.377   3.728   6.936
 5330SOL     OW16888   3.284   4.140   6.644
 5330SOL    HW116889   3.250   4.085   6.569
 5330SOL    HW216890   3.377   4.111   6.668
 5331SOL     OW16891   5.429   1.463   1.391
 5331SOL    HW116892   5.406   1.391   1.456
 5331SOL    HW216893   5.376   1.545   1.411
 5332SOL     OW16894   6.237   4.137   0.315
 5332SOL    HW116895   6.221   4.236   0.322
 5332SOL    HW216896   6.324   4.115   0.359
 5333SOL     OW16897   1.179   0.661   3.538
 5333SOL    HW116898   1.085   0.644   3.510
 5333SOL    HW216899   1.199   0.610   3.622
 5334SOL     OW16900   4.586   5.233   5.105
 5334SOL    HW116901   4.662   5.171   5.085
 5334SOL    HW216902   4.510   5.214   5.043
 5335SOL     OW16903   7.004   4.666   2.005
 5335SOL    HW116904   6.987   4.601   2.079
 5335SOL    HW216905   0.056   4.635   1.949
 5336SOL     OW16906   2.638   1.937   3.599
 5336SOL    HW116907   2.672   1.853   3.640
 5336SOL    HW216908   2.539   1.944   3.612
 5337SOL     OW16909   5.917   5.009   2.648
 5337SOL    HW116910   5.963   4.958   2.575
 5337SOL    HW216911   5.979   5.081   2.681
 5338SOL     OW16912   5.557   2.286   6.769
 5338SOL    HW116913   5.632   2.347   6.796
 5338SOL    HW216914   5.570   2.257   6.674
 5339SOL     OW16915   5.526   1.798   1.892
 5339SOL    HW116916   5.607   1.810   1.834
 5339SOL    HW216917   5.452   1.759   1.838
 5340SOL     OW16918   5.413   3.499   1.399
 5340SOL    HW116919   5.433   3.597   1.404
 5340SOL    HW216920   5.315   3.486   1.388
 5341SOL     OW16921   3.774   4.969   4.839
 5341SOL    HW116922   3.752   5.066   4.838
 5341SOL    HW216923   3.786   4.938   4.933
 5342SOL     OW16924   4.553   6.254   5.051
 5342SOL    HW116925   4.630   6.217   5.000
 5342SOL    HW216926   4.554   6.354   5.047
 5343SOL     OW16927   3.811   3.544   5.016
 5343SOL    HW116928   3.776   3.536   5.110
 5343SOL    HW216929   3.739   3.578   4.957
 5344SOL     OW16930   0.633   1.461   6.928
 5344SOL    HW116931   0.614   1.549   6.883
 5344SOL    HW216932   0.660   1.394   6.859
 5345SOL     OW16933   4.966   0.997   7.001
 5345SOL    HW116934   4.977   0.969   0.072
 5345SOL    HW216935   4.884   0.955   6.963
 5346SOL     OW16936   2.918   4.784   4.386
 5346SOL    HW116937   2.839   4.736   4.347
 5346SOL    HW216938   2.994   4.780   4.322
 5347SOL     OW16939   6.928   3.665   3.520
 5347SOL    HW116940   7.008   3.614   3.552
 5347SOL    HW216941   6.846   3.609   3.536
 5348SOL     OW16942   0.329   1.004   5.559
 5348SOL    HW116943   0.306   1.100   5.573
 5348SOL    HW216944   0.402   0.996   5.491
 5349SOL     OW16945   2.642   3.366   1.447
 5349SOL    HW116946   2.668   3.430   1.519
 5349SOL    HW216947   2.548   3.384   1.419
 5350SOL     OW16948   2.311   6.432   5.574
 5350SOL    HW116949   2.282   6.527   5.582
 5350SOL    HW216950   2.279   6.395   5.486
 5351SOL     OW16951   0.190   4.920   1.817
 5351SOL    HW116952   0.162   4.849   1.752
 5351SOL    HW216953   0.113   4.980   1.837
 5352SOL     OW16954   2.136   4.177   2.880
 5352SOL    HW116955   2.058   4.131   2.837
 5352SOL    HW216956   2.174   4.244   2.816
 5353SOL     OW16957   3.835   5.110   3.280
 5353SOL    HW116958   3.800   5.066   3.362
 5353SOL    HW216959   3.822   5.049   3.202
 5354SOL     OW16960   2.781   4.333   6.646
 5354SOL    HW116961   2.854   4.276   6.685
 5354SOL    HW216962   2.779   4.421   6.693
 5355SOL     OW16963   5.209   4.654   5.009
 5355SOL    HW116964   5.169   4.565   4.988
 5355SOL    HW216965   5.282   4.642   5.076
 5356SOL     OW16966   6.681   3.835   1.732
 5356SOL    HW116967   6.634   3.860   1.816
 5356SOL    HW216968   6.619   3.784   1.672
 5357SOL     OW16969   4.083   4.613   1.451
 5357SOL    HW116970   4.179   4.624   1.478
 5357SOL    HW216971   4.072   4.527   1.401
 5358SOL     OW16972   4.576   1.830   0.846
 5358SOL    HW116973   4.550   1.780   0.929
 5358SOL    HW216974   4.610   1.765   0.778
 5359SOL     OW16975   1.947   1.886   6.890
 5359SOL    HW116976   1.928   1.871   6.793
 5359SOL    HW216977   1.866   1.925   6.934
 5360SOL     OW16978   5.479   5.735   3.439
 5360SOL    HW116979   5.493   5.675   3.360
 5360SOL    HW216980   5.435   5.684   3.512
 5361SOL     OW16981   2.128   6.397   3.871
 5361SOL    HW116982   2.154   6.492   3.854
 5361SOL    HW216983   2.039   6.379   3.829
 5362SOL     OW16984   6.285   6.947   2.800
 5362SOL    HW116985   6.318   6.866   2.752
 5362SOL    HW216986   6.192   6.930   2.834
 5363SOL     OW16987   5.314   6.457   4.967
 5363SOL    HW116988   5.220   6.490   4.964
 5363SOL    HW216989   5.367   6.500   4.894
 5364SOL     OW16990   5.810   0.234   2.302
 5364SOL    HW116991   5.836   0.280   2.387
 5364SOL    HW216992   5.890   0.189   2.263
 5365SOL     OW16993   3.292   3.362   2.347
 5365SOL    HW116994   3.369   3.305   2.321
 5365SOL    HW216995   3.325   3.449   2.383
 5366SOL     OW16996   6.970   0.586   2.353
 5366SOL    HW116997   6.949   0.503   2.300
 5366SOL    HW216998   0.045   0.594   2.365
 5367SOL     OW16999   6.725   0.252   0.937
 5367SOL    HW117000   6.805   0.213   0.981
 5367SOL    HW217001   6.646   0.245   0.998
 5368SOL     OW17002   6.513   6.133   2.275
 5368SOL    HW117003   6.605   6.142   2.314
 5368SOL    HW217004   6.514   6.063   2.203
 5369SOL     OW17005   2.849   5.763   1.388
 5369SOL    HW117006   2.872   5.677   1.343
 5369SOL    HW217007   2.920   5.831   1.370
 5370SOL     OW17008   4.670   3.479   1.403
 5370SOL    HW117009   4.575   3.498   1.376
 5370SOL    HW217010   4.689   3.382   1.392
 5371SOL     OW17011   6.982   5.187   5.458
 5371SOL    HW117012   6.959   5.090   5.460
 5371SOL    HW217013   6.935   5.230   5.381
 5372SOL     OW17014   1.487   6.546   2.863
 5372SOL    HW117015   1.440   6.480   2.923
 5372SOL    HW217016   1.582   6.556   2.893
 5373SOL     OW17017   3.740   6.964   5.832
 5373SOL    HW117018   3.653   6.944   5.786
 5373SOL    HW217019   3.725   0.009   5.903
 5374SOL     OW17020   2.536   4.198   1.140
 5374SOL    HW117021   2.624   4.163   1.106
 5374SOL    HW217022   2.515   4.155   1.227
 5375SOL     OW17023   0.783   5.445   5.498
 5375SOL    HW117024   0.759   5.459   5.594
 5375SOL    HW217025   0.727   5.505   5.441
 5376SOL     OW17026   1.354   2.194   1.651
 5376SOL    HW117027   1.264   2.198   1.694
 5376SOL    HW217028   1.351   2.134   1.571
 5377SOL     OW17029   1.456   0.900   2.946
 5377SOL    HW117030   1.370   0.873   2.903
 5377SOL    HW217031   1.479   0.834   3.018
 5378SOL     OW17032   6.743   0.452   1.815
 5378SOL    HW117033   6.757   0.542   1.856
 5378SOL    HW217034   6.827   0.422   1.771
 5379SOL     OW17035   1.448   3.172   5.240
 5379SOL    HW117036   1.495   3.141   5.323
 5379SOL    HW217037   1.513   3.173   5.164
 5380SOL     OW17038   3.330   6.914   1.430
 5380SOL    HW117039   3.418   6.960   1.442
 5380SOL    HW217040   3.341   6.837   1.367
 5381SOL     OW17041   6.159   6.090   2.769
 5381SOL    HW117042   6.135   6.158   2.699
 5381SOL    HW217043   6.154   6.131   2.859
 5382SOL     OW17044   3.061   2.131   2.855
 5382SOL    HW117045   3.008   2.208   2.891
 5382SOL    HW217046   3.004   2.076   2.794
 5383SOL     OW17047   1.657   3.106   4.774
 5383SOL    HW117048   1.727   3.085   4.706
 5383SOL    HW217049   1.700   3.146   4.855
 5384SOL     OW17050   4.791   5.297   4.784
 5384SOL    HW117051   4.848   5.262   4.859
 5384SOL    HW217052   4.697   5.266   4.796
 5385SOL     OW17053   5.975   3.239   4.564
 5385SOL    HW117054   5.960   3.185   4.481
 5385SOL    HW217055   5.990   3.178   4.641
 5386SOL     OW17056   5.957   1.617   3.691
 5386SOL    HW117057   6.054   1.595   3.680
 5386SOL    HW217058   5.925   1.583   3.780
 5387SOL     OW17059   2.710   6.358   3.503
 5387SOL    HW117060   2.616   6.349   3.537
 5387SOL    HW217061   2.721   6.302   3.421
 5388SOL     OW17062   1.668   6.561   3.209
 5388SOL    HW117063   1.597   6.610   3.259
 5388SOL    HW217064   1.693   6.613   3.127
 5389SOL     OW17065   4.115   2.237   4.595
 5389SOL    HW117066   4.074   2.194   4.676
 5389SOL    HW217067   4.085   2.190   4.513
 5390SOL     OW17068   5.213   4.039   4.009
 5390SOL    HW117069   5.278   4.115   4.002
 5390SOL    HW217070   5.256   3.956   3.974
 5391SOL     OW17071   2.942   1.870   0.231
 5391SOL    HW117072   2.882   1.950   0.231
 5391SOL    HW217073   3.037   1.901   0.230
 5392SOL     OW17074   4.965   3.494   2.533
 5392SOL    HW117075   4.941   3.528   2.442
 5392SOL    HW217076   5.050   3.441   2.527
 5393SOL     OW17077   4.389   1.125   5.751
 5393SOL    HW117078   4.400   1.203   5.813
 5393SOL    HW217079   4.444   1.141   5.668
 5394SOL     OW17080   0.299   5.967   0.826
 5394SOL    HW117081   0.305   5.908   0.906
 5394SOL    HW217082   0.386   6.014   0.812
 5395SOL     OW17083   4.832   1.333   1.037
 5395SOL    HW117084   4.919   1.299   1.073
 5395SOL    HW217085   4.801   1.410   1.092
 5396SOL     OW17086   5.193   5.581   2.056
 5396SOL    HW117087   5.292   5.597   2.048
 5396SOL    HW217088   5.144   5.656   2.013
 5397SOL     OW17089   7.007   2.113   1.563
 5397SOL    HW117090   6.985   2.020   1.534
 5397SOL    HW217091   6.932   2.148   1.619
 5398SOL     OW17092   3.601   2.040   3.489
 5398SOL    HW117093   3.594   1.941   3.480
 5398SOL    HW217094   3.558   2.068   3.575
 5399SOL     OW17095   2.435   6.578   5.966
 5399SOL    HW117096   2.448   6.590   6.064
 5399SOL    HW217097   2.519   6.541   5.926
 5400SOL     OW17098   3.280   3.423   1.097
 5400SOL    HW117099   3.221   3.440   1.176
 5400SOL    HW217100   3.270   3.496   1.031
 5401SOL     OW17101   5.564   4.131   2.891
 5401SOL    HW117102   5.509   4.123   2.807
 5401SOL    HW217103   5.659   4.109   2.871
 5402SOL     OW17104   3.298   6.309   0.948
 5402SOL    HW117105   3.211   6.311   0.998
 5402SOL    HW217106   3.312   6.218   0.910
 5403SOL     OW17107   4.885   3.249   6.705
 5403SOL    HW117108   4.810   3.307   6.735
 5403SOL    HW217109   4.967   3.304   6.691
 5404SOL     OW17110   0.973   0.477   0.967
 5404SOL    HW117111   1.029   0.501   1.046
 5404SOL    HW217112   1.024   0.494   0.883
 5405SOL     OW17113   5.944   5.044   0.213
 5405SOL    HW117114   5.992   4.959   0.191
 5405SOL    HW217115   5.899   5.035   0.302
 5406SOL     OW17116   1.730   0.936   5.091
 5406SOL    HW117117   1.808   0.914   5.149
 5406SOL    HW217118   1.684   1.018   5.127
 5407SOL     OW17119   2.929   1.324   0.808
 5407SOL    HW117120   2.903   1.325   0.711
 5407SOL    HW217121   2.925   1.416   0.844
 5408SOL     OW17122   3.086   1.490   4.777
 5408SOL    HW117123   3.014   1.559   4.786
 5408SOL    HW217124   3.145   1.513   4.700
 5409SOL     OW17125   6.574   1.668   1.968
 5409SOL    HW117126   6.669   1.644   1.946
 5409SOL    HW217127   6.526   1.586   2.001
 5410SOL     OW17128   0.767   3.317   7.024
 5410SOL    HW117129   0.694   3.359   0.054
 5410SOL    HW217130   0.728   3.254   6.958
 5411SOL     OW17131   5.245   4.073   6.952
 5411SOL    HW117132   5.178   4.015   6.998
 5411SOL    HW217133   5.243   4.164   6.993
 5412SOL     OW17134   2.607   1.284   6.092
 5412SOL    HW117135   2.518   1.274   6.136
 5412SOL    HW217136   2.615   1.217   6.018
 5413SOL     OW17137   0.020   0.038   6.043
 5413SOL    HW117138   0.095   0.016   5.981
 5413SOL    HW217139   0.049   0.023   6.137
 5414SOL     OW17140   6.400   4.578   5.525
 5414SOL    HW117141   6.411   4.642   5.448
 5414SOL    HW217142   6.380   4.629   5.608
 5415SOL     OW17143   3.107   5.682   0.513
 5415SOL    HW117144   3.178   5.709   0.448
 5415SOL    HW217145   3.021   5.667   0.464
 5416SOL     OW17146   2.735   5.323   5.013
 5416SOL    HW117147   2.716   5.225   5.017
 5416SOL    HW217148   2.652   5.372   4.984
 5417SOL     OW17149   3.782   6.806   4.052
 5417SOL    HW117150   3.695   6.759   4.068
 5417SOL    HW217151   3.856   6.739   4.049
 5418SOL     OW17152   5.478   5.345   4.882
 5418SOL    HW117153   5.509   5.392   4.799
 5418SOL    HW217154   5.495   5.247   4.873
 5419SOL     OW17155   4.115   6.387   0.095
 5419SOL    HW117156   4.146   6.390   0.190
 5419SOL    HW217157   4.044   6.318   0.085
 5420SOL     OW17158   2.134   2.241   1.022
 5420SOL    HW117159   2.066   2.191   1.075
 5420SOL    HW217160   2.225   2.218   1.053
 5421SOL     OW17161   3.276   5.445   1.788
 5421SOL    HW117162   3.274   5.442   1.888
 5421SOL    HW217163   3.185   5.470   1.754
 5422SOL     OW17164   1.995   5.668   3.901
 5422SOL    HW117165   1.988   5.768   3.898
 5422SOL    HW217166   1.946   5.634   3.981
 5423SOL     OW17167   6.290   5.213   1.373
 5423SOL    HW117168   6.291   5.183   1.277
 5423SOL    HW217169   6.201   5.195   1.412
 5424SOL     OW17170   4.857   3.776   4.191
 5424SOL    HW117171   4.880   3.776   4.094
 5424SOL    HW217172   4.887   3.690   4.233
 5425SOL     OW17173   6.551   3.084   4.673
 5425SOL    HW117174   6.552   3.040   4.583
 5425SOL    HW217175   6.592   3.175   4.666
 5426SOL     OW17176   4.354   5.528   2.358
 5426SOL    HW117177   4.264   5.518   2.402
 5426SOL    HW217178   4.425   5.531   2.428
 5427SOL     OW17179   4.942   2.808   6.954
 5427SOL    HW117180   4.885   2.840   6.878
 5427SOL    HW217181   4.915   2.716   6.979
 5428SOL     OW17182   5.241   6.467   2.403
 5428SOL    HW117183   5.177   6.496   2.332
 5428SOL    HW217184   5.261   6.369   2.393
 5429SOL     OW17185   2.286   6.776   4.878
 5429SOL    HW117186   2.370   6.727   4.904
 5429SOL    HW217187   2.311   6.862   4.832
 5430SOL     OW17188   1.909   2.842   5.769
 5430SOL    HW117189   2.006   2.828   5.753
 5430SOL    HW217190   1.889   2.940   5.770
 5431SOL     OW17191   3.490   4.458   6.340
 5431SOL    HW117192   3.419   4.435   6.273
 5431SOL    HW217193   3.547   4.378   6.357
 5432SOL     OW17194   5.516   5.378   0.225
 5432SOL    HW117195   5.534   5.284   0.253
 5432SOL    HW217196   5.546   5.440   0.298
 5433SOL     OW17197   1.511   0.050   0.903
 5433SOL    HW117198   1.520   0.142   0.940
 5433SOL    HW217199   1.511   0.054   0.803
 5434SOL     OW17200   4.809   1.141   5.082
 5434SOL    HW117201   4.865   1.180   5.008
 5434SOL    HW217202   4.768   1.056   5.051
 5435SOL     OW17203   6.288   3.641   0.971
 5435SOL    HW117204   6.356   3.595   1.028
 5435SOL    HW217205   6.271   3.588   0.889
 5436SOL     OW17206   6.960   5.567   4.078
 5436SOL    HW117207   6.948   5.627   4.158
 5436SOL    HW217208   6.997   5.479   4.108
 5437SOL     OW17209   3.432   4.624   5.671
 5437SOL    HW117210   3.412   4.530   5.645
 5437SOL    HW217211   3.387   4.645   5.758
 5438SOL     OW17212   5.340   5.072   2.141
 5438SOL    HW117213   5.284   5.066   2.224
 5438SOL    HW217214   5.418   5.011   2.150
 5439SOL     OW17215   1.643   3.759   0.162
 5439SOL    HW117216   1.603   3.783   0.250
 5439SOL    HW217217   1.575   3.712   0.106
 5440SOL     OW17218   5.383   6.707   3.340
 5440SOL    HW117219   5.345   6.735   3.252
 5440SOL    HW217220   5.445   6.777   3.374
 5441SOL     OW17221   5.218   3.303   3.291
 5441SOL    HW117222   5.309   3.267   3.312
 5441SOL    HW217223   5.211   3.320   3.192
 5442SOL     OW17224   3.565   0.070   3.133
 5442SOL    HW117225   3.580   0.169   3.139
 5442SOL    HW217226   3.649   0.022   3.156
 5443SOL     OW17227   4.400   6.684   3.999
 5443SOL    HW117228   4.464   6.608   4.016
 5443SOL    HW217229   4.334   6.689   4.074
 5444SOL     OW17230   6.986   1.822   3.960
 5444SOL    HW117231   6.900   1.866   3.984
 5444SOL    HW217232   0.012   1.797   4.043
 5445SOL     OW17233   5.070   4.281   4.117
 5445SOL    HW117234   5.029   4.354   4.171
 5445SOL    HW217235   5.154   4.249   4.161
 5446SOL     OW17236   6.368   4.772   4.761
 5446SOL    HW117237   6.405   4.715   4.687
 5446SOL    HW217238   6.394   4.733   4.850
 5447SOL     OW17239   2.344   1.766   0.762
 5447SOL    HW117240   2.355   1.858   0.722
 5447SOL    HW217241   2.307   1.774   0.854
 5448SOL     OW17242   4.879   5.526   4.062
 5448SOL    HW117243   4.858   5.612   4.109
 5448SOL    HW217244   4.928   5.545   3.977
 5449SOL     OW17245   2.664   0.994   1.589
 5449SOL    HW117246   2.684   1.090   1.569
 5449SOL    HW217247   2.691   0.938   1.511
 5450SOL     OW17248   3.912   6.416   0.923
 5450SOL    HW117249   3.964   6.502   0.932
 5450SOL    HW217250   3.964   6.342   0.965
 5451SOL     OW17251   1.487   6.272   3.617
 5451SOL    HW117252   1.564   6.211   3.637
 5451SOL    HW217253   1.512   6.366   3.639
 5452SOL     OW17254   2.466   4.338   0.892
 5452SOL    HW117255   2.453   4.287   0.977
 5452SOL    HW217256   2.425   4.429   0.900
 5453SOL     OW17257   5.040   4.208   1.929
 5453SOL    HW117258   4.949   4.235   1.900
 5453SOL    HW217259   5.043   4.202   2.029
 5454SOL     OW17260   5.519   6.412   2.048
 5454SOL    HW117261   5.503   6.471   2.127
 5454SOL    HW217262   5.618   6.403   2.033
 5455SOL     OW17263   0.095   1.869   3.253
 5455SOL    HW117264   0.083   1.939   3.324
 5455SOL    HW217265   0.138   1.788   3.293
 5456SOL     OW17266   4.117   1.344   6.815
 5456SOL    HW117267   4.116   1.286   6.733
 5456SOL    HW217268   4.047   1.312   6.879
 5457SOL     OW17269   6.304   1.450   0.525
 5457SOL    HW117270   6.302   1.367   0.580
 5457SOL    HW217271   6.355   1.522   0.574
 5458SOL     OW17272   6.765   5.052   1.404
 5458SOL    HW117273   6.770   4.974   1.466
 5458SOL    HW217274   6.833   5.041   1.331
 5459SOL     OW17275   1.946   4.765   4.745
 5459SOL    HW117276   1.947   4.747   4.646
 5459SOL    HW217277   1.937   4.678   4.794
 5460SOL     OW17278   2.382   0.614   1.932
 5460SOL    HW117279   2.334   0.533   1.966
 5460SOL    HW217280   2.377   0.617   1.832
 5461SOL     OW17281   1.112   1.342   5.289
 5461SOL    HW117282   1.156   1.397   5.359
 5461SOL    HW217283   1.166   1.259   5.274
 5462SOL     OW17284   5.270   6.508   6.911
 5462SOL    HW117285   5.309   6.504   6.819
 5462SOL    HW217286   5.321   6.446   6.972
 5463SOL     OW17287   6.742   2.060   6.559
 5463SOL    HW117288   6.719   2.078   6.463
 5463SOL    HW217289   6.676   2.107   6.618
 5464SOL     OW17290   6.474   5.588   5.383
 5464SOL    HW117291   6.383   5.629   5.386
 5464SOL    HW217292   6.540   5.652   5.423
 5465SOL     OW17293   6.939   6.994   2.902
 5465SOL    HW117294   6.916   6.905   2.860
 5465SOL    HW217295   0.013   6.999   2.917
 5466SOL     OW17296   6.060   2.760   5.627
 5466SOL    HW117297   6.082   2.762   5.725
 5466SOL    HW217298   6.145   2.762   5.574
 5467SOL     OW17299   5.653   3.852   3.645
 5467SOL    HW117300   5.660   3.813   3.553
 5467SOL    HW217301   5.606   3.940   3.640
 5468SOL     OW17302   6.996   2.696   4.160
 5468SOL    HW117303   0.064   2.725   4.186
 5468SOL    HW217304   7.000   2.613   4.105
 5469SOL     OW17305   3.205   6.376   6.240
 5469SOL    HW117306   3.195   6.295   6.299
 5469SOL    HW217307   3.278   6.435   6.276
 5470SOL     OW17308   4.054   5.255   3.423
 5470SOL    HW117309   3.974   5.197   3.406
 5470SOL    HW217310   4.042   5.304   3.510
 5471SOL     OW17311   5.571   0.117   2.240
 5471SOL    HW117312   5.664   0.149   2.220
 5471SOL    HW217313   5.505   0.180   2.198
 5472SOL     OW17314   3.369   3.419   6.501
 5472SOL    HW117315   3.389   3.452   6.409
 5472SOL    HW217316   3.271   3.402   6.511
 5473SOL     OW17317   2.286   4.518   0.163
 5473SOL    HW117318   2.333   4.540   0.248
 5473SOL    HW217319   2.212   4.584   0.147
 5474SOL     OW17320   0.301   5.833   4.102
 5474SOL    HW117321   0.288   5.762   4.034
 5474SOL    HW217322   0.239   5.909   4.084
 5475SOL     OW17323   1.679   2.170   0.731
 5475SOL    HW117324   1.761   2.224   0.710
 5475SOL    HW217325   1.685   2.135   0.824
 5476SOL     OW17326   2.460   4.753   5.286
 5476SOL    HW117327   2.496   4.705   5.206
 5476SOL    HW217328   2.498   4.845   5.289
 5477SOL     OW17329   1.621   3.491   3.194
 5477SOL    HW117330   1.580   3.581   3.208
 5477SOL    HW217331   1.638   3.477   3.096
 5478SOL     OW17332   5.231   6.358   5.386
 5478SOL    HW117333   5.143   6.329   5.349
 5478SOL    HW217334   5.264   6.291   5.453
 5479SOL     OW17335   4.590   1.771   4.720
 5479SOL    HW117336   4.625   1.791   4.812
 5479SOL    HW217337   4.658   1.796   4.652
 5480SOL     OW17338   5.783   4.526   5.158
 5480SOL    HW117339   5.753   4.621   5.166
 5480SOL    HW217340   5.842   4.517   5.078
 5481SOL     OW17341   4.840   1.367   4.580
 5481SOL    HW117342   4.872   1.293   4.521
 5481SOL    HW217343   4.772   1.330   4.644
 5482SOL     OW17344   3.155   4.035   3.097
 5482SOL    HW117345   3.092   4.112   3.105
 5482SOL    HW217346   3.162   4.007   3.001
 5483SOL     OW17347   6.294   2.514   5.129
 5483SOL    HW117348   6.248   2.527   5.217
 5483SOL    HW217349   6.327   2.419   5.123
 5484SOL     OW17350   6.339   0.624   3.551
 5484SOL    HW117351   6.389   0.649   3.634
 5484SOL    HW217352   6.314   0.527   3.554
 5485SOL     OW17353   3.243   6.359   4.674
 5485SOL    HW117354   3.180   6.425   4.716
 5485SOL    HW217355   3.190   6.290   4.625
 5486SOL     OW17356   1.769   6.720   4.122
 5486SOL    HW117357   1.781   6.624   4.098
 5486SOL    HW217358   1.697   6.760   4.066
 5487SOL     OW17359   5.470   3.335   6.269
 5487SOL    HW117360   5.399   3.405   6.266
 5487SOL    HW217361   5.498   3.320   6.364
 5488SOL     OW17362   5.324   1.925   1.378
 5488SOL    HW117363   5.321   1.956   1.283
 5488SOL    HW217364   5.314   2.003   1.439
 5489SOL     OW17365   0.916   3.918   1.558
 5489SOL    HW117366   0.980   3.941   1.484
 5489SOL    HW217367   0.857   3.844   1.529
 5490SOL     OW17368   3.439   0.019   0.949
 5490SOL    HW117369   3.364   0.012   0.884
 5490SOL    HW217370   3.498   0.096   0.925
 5491SOL     OW17371   1.425   4.010   6.165
 5491SOL    HW117372   1.441   3.986   6.261
 5491SOL    HW217373   1.326   4.014   6.149
 5492SOL     OW17374   1.111   2.307   6.557
 5492SOL    HW117375   1.134   2.369   6.632
 5492SOL    HW217376   1.081   2.360   6.478
 5493SOL     OW17377   4.040   3.699   4.392
 5493SOL    HW117378   4.068   3.663   4.304
 5493SOL    HW217379   4.011   3.624   4.452
 5494SOL     OW17380   6.000   3.103   6.814
 5494SOL    HW117381   5.992   3.192   6.858
 5494SOL    HW217382   6.084   3.058   6.846
 5495SOL     OW17383   3.179   2.540   1.527
 5495SOL    HW117384   3.174   2.440   1.523
 5495SOL    HW217385   3.108   2.574   1.589
 5496SOL     OW17386   2.635   6.666   3.609
 5496SOL    HW117387   2.603   6.705   3.522
 5496SOL    HW217388   2.643   6.567   3.600
 5497SOL     OW17389   6.961   1.895   3.567
 5497SOL    HW117390   6.910   1.869   3.485
 5497SOL    HW217391   6.954   1.822   3.635
 5498SOL     OW17392   5.312   0.215   1.397
 5498SOL    HW117393   5.305   0.283   1.324
 5498SOL    HW217394   5.275   0.253   1.482
 5499SOL     OW17395   0.915   0.601   3.481
 5499SOL    HW117396   0.912   0.619   3.580
 5499SOL    HW217397   0.951   0.510   3.465
 5500SOL     OW17398   1.616   6.351   6.973
 5500SOL    HW117399   1.527   6.368   7.015
 5500SOL    HW217400   1.663   6.278   7.023
 5501SOL     OW17401   3.563   0.285   0.923
 5501SOL    HW117402   3.497   0.311   0.852
 5501SOL    HW217403   3.556   0.349   0.999
 5502SOL     OW17404   5.400   4.276   6.811
 5502SOL    HW117405   5.380   4.318   6.723
 5502SOL    HW217406   5.326   4.213   6.836
 5503SOL     OW17407   0.271   5.195   2.854
 5503SOL    HW117408   0.222   5.154   2.932
 5503SOL    HW217409   0.231   5.284   2.833
 5504SOL     OW17410   3.853   1.331   6.036
 5504SOL    HW117411   3.783   1.259   6.035
 5504SOL    HW217412   3.827   1.403   5.972
 5505SOL     OW17413   2.334   5.304   4.027
 5505SOL    HW117414   2.382   5.253   4.098
 5505SOL    HW217415   2.398   5.326   3.953
 5506SOL     OW17416   0.161   0.893   6.138
 5506SOL    HW117417   0.146   0.812   6.194
 5506SOL    HW217418   0.149   0.869   6.042
 5507SOL     OW17419   2.325   6.849   3.011
 5507SOL    HW117420   2.408   6.904   3.026
 5507SOL    HW217421   2.345   6.753   3.029
 5508SOL     OW17422   1.731   1.270   0.019
 5508SOL    HW117423   1.816   1.286   6.993
 5508SOL    HW217424   1.701   1.355   0.062
 5509SOL     OW17425   1.060   6.658   0.485
 5509SOL    HW117426   1.107   6.746   0.488
 5509SOL    HW217427   0.967   6.668   0.521
 5510SOL     OW17428   5.372   6.383   0.892
 5510SOL    HW117429   5.314   6.301   0.889
 5510SOL    HW217430   5.393   6.413   0.798
 5511SOL     OW17431   2.555   0.169   4.389
 5511SOL    HW117432   2.643   0.183   4.344
 5511SOL    HW217433   2.529   0.253   4.438
 5512SOL     OW17434   5.978   2.228   1.302
 5512SOL    HW117435   5.897   2.169   1.296
 5512SOL    HW217436   5.950   2.324   1.305
 5513SOL     OW17437   3.532   3.929   5.931
 5513SOL    HW117438   3.545   3.853   5.867
 5513SOL    HW217439   3.479   4.001   5.886
 5514SOL     OW17440   4.317   5.723   2.165
 5514SOL    HW117441   4.260   5.705   2.085
 5514SOL    HW217442   4.295   5.657   2.237
 5515SOL     OW17443   0.278   4.740   1.191
 5515SOL    HW117444   0.337   4.801   1.138
 5515SOL    HW217445   0.299   4.645   1.168
 5516SOL     OW17446   1.490   3.729   6.751
 5516SOL    HW117447   1.420   3.664   6.723
 5516SOL    HW217448   1.448   3.799   6.809
 5517SOL     OW17449   2.154   2.850   2.393
 5517SOL    HW117450   2.059   2.820   2.386
 5517SOL    HW217451   2.160   2.947   2.373
 5518SOL     OW17452   6.371   6.929   6.244
 5518SOL    HW117453   6.293   6.917   6.305
 5518SOL    HW217454   6.447   6.972   6.294
 5519SOL     OW17455   5.144   3.114   2.711
 5519SOL    HW117456   5.157   3.195   2.654
 5519SOL    HW217457   5.047   3.091   2.717
 5520SOL     OW17458   6.771   5.482   2.567
 5520SOL    HW117459   6.690   5.446   2.521
 5520SOL    HW217460   6.777   5.581   2.553
 5521SOL     OW17461   4.348   6.903   2.474
 5521SOL    HW117462   4.370   6.807   2.490
 5521SOL    HW217463   4.250   6.913   2.459
 5522SOL     OW17464   0.559   5.047   0.557
 5522SOL    HW117465   0.497   5.064   0.634
 5522SOL    HW217466   0.651   5.078   0.581
 5523SOL     OW17467   2.762   6.773   3.125
 5523SOL    HW117468   2.839   6.830   3.155
 5523SOL    HW217469   2.797   6.693   3.076
 5524SOL     OW17470   5.702   5.159   4.480
 5524SOL    HW117471   5.767   5.216   4.530
 5524SOL    HW217472   5.690   5.072   4.528
 5525SOL     OW17473   6.677   3.315   0.027
 5525SOL    HW117474   6.683   3.414   0.040
 5525SOL    HW217475   6.768   3.279   0.006
 5526SOL     OW17476   5.158   4.624   4.650
 5526SOL    HW117477   5.078   4.592   4.701
 5526SOL    HW217478   5.194   4.550   4.593
 5527SOL     OW17479   0.313   3.476   4.226
 5527SOL    HW117480   0.394   3.480   4.284
 5527SOL    HW217481   0.293   3.567   4.190
 5528SOL     OW17482   0.955   2.162   6.728
 5528SOL    HW117483   1.006   2.204   6.653
 5528SOL    HW217484   0.973   2.064   6.730
 5529SOL     OW17485   2.177   0.298   4.681
 5529SOL    HW117486   2.151   0.209   4.720
 5529SOL    HW217487   2.168   0.294   4.581
 5530SOL     OW17488   0.573   2.277   2.182
 5530SOL    HW117489   0.517   2.352   2.219
 5530SOL    HW217490   0.610   2.223   2.257
 5531SOL     OW17491   3.555   3.763   2.133
 5531SOL    HW117492   3.553   3.862   2.145
 5531SOL    HW217493   3.514   3.739   2.044
 5532SOL     OW17494   1.440   1.436   0.659
 5532SOL    HW117495   1.409   1.531   0.670
 5532SOL    HW217496   1.467   1.399   0.748
 5533SOL     OW17497   3.042   0.827   3.154
 5533SOL    HW117498   2.960   0.861   3.107
 5533SOL    HW217499   3.123   0.845   3.098
 5534SOL     OW17500   0.541   2.594   5.518
 5534SOL    HW117501   0.634   2.630   5.526
 5534SOL    HW217502   0.501   2.624   5.431
 5535SOL     OW17503   0.724   3.298   4.314
 5535SOL    HW117504   0.761   3.298   4.221
 5535SOL    HW217505   0.798   3.302   4.380
 5536SOL     OW17506   3.010   0.867   4.248
 5536SOL    HW117507   2.923   0.853   4.201
 5536SOL    HW217508   3.062   0.940   4.204
 5537SOL     OW17509   2.932   0.672   4.398
 5537SOL    HW117510   2.989   0.738   4.348
 5537SOL    HW217511   2.837   0.704   4.398
 5538SOL     OW17512   3.357   6.803   5.184
 5538SOL    HW117513   3.359   6.806   5.284
 5538SOL    HW217514   3.266   6.832   5.152
 5539SOL     OW17515   1.537   2.898   0.316
 5539SOL    HW117516   1.530   2.997   0.314
 5539SOL    HW217517   1.454   2.859   0.356
 5540SOL     OW17518   6.364   3.405   3.221
 5540SOL    HW117519   6.308   3.391   3.139
 5540SOL    HW217520   6.349   3.496   3.257
 5541SOL     OW17521   5.873   1.385   6.852
 5541SOL    HW117522   5.914   1.474   6.872
 5541SOL    HW217523   5.880   1.367   6.754
 5542SOL     OW17524   6.050   6.497   6.317
 5542SOL    HW117525   6.111   6.523   6.243
 5542SOL    HW217526   6.084   6.534   6.403
 5543SOL     OW17527   2.844   5.278   6.093
 5543SOL    HW117528   2.921   5.219   6.070
 5543SOL    HW217529   2.878   5.370   6.112
 5544SOL     OW17530   5.663   6.087   6.388
 5544SOL    HW117531   5.640   6.160   6.323
 5544SOL    HW217532   5.592   6.080   6.458
 5545SOL     OW17533   4.559   1.502   3.430
 5545SOL    HW117534   4.535   1.567   3.501
 5545SOL    HW217535   4.479   1.483   3.373
 5546SOL     OW17536   1.627   6.453   4.283
 5546SOL    HW117537   1.678   6.454   4.369
 5546SOL    HW217538   1.687   6.423   4.209
 5547SOL     OW17539   3.757   0.446   4.680
 5547SOL    HW117540   3.834   0.511   4.684
 5547SOL    HW217541   3.711   0.443   4.769
 5548SOL     OW17542   5.796   3.216   4.949
 5548SOL    HW117543   5.749   3.132   4.924
 5548SOL    HW217544   5.798   3.278   4.870
 5549SOL     OW17545   4.127   4.604   0.863
 5549SOL    HW117546   4.141   4.532   0.930
 5549SOL    HW217547   4.039   4.590   0.818
 5550SOL     OW17548   2.328   4.144   2.276
 5550SOL    HW117549   2.303   4.236   2.307
 5550SOL    HW217550   2.359   4.149   2.181
 5551SOL     OW17551   1.691   6.082   3.600
 5551SOL    HW117552   1.657   5.988   3.614
 5551SOL    HW217553   1.729   6.091   3.508
 5552SOL     OW17554   6.924   0.220   0.065
 5552SOL    HW117555   6.990   0.294   0.067
 5552SOL    HW217556   6.892   0.201   0.158
 5553SOL     OW17557   4.700   6.800   0.549
 5553SOL    HW117558   4.719   6.897   0.562
 5553SOL    HW217559   4.782   6.754   0.515
 5554SOL     OW17560   4.671   1.931   6.517
 5554SOL    HW117561   4.659   1.937   6.616
 5554SOL    HW217562   4.769   1.927   6.497
 5555SOL     OW17563   0.868   3.624   3.318
 5555SOL    HW117564   0.896   3.700   3.377
 5555SOL    HW217565   0.770   3.609   3.327
 5556SOL     OW17566   6.810   1.819   3.343
 5556SOL    HW117567   6.729   1.847   3.394
 5556SOL    HW217568   6.816   1.719   3.341
 5557SOL     OW17569   3.107   0.040   2.722
 5557SOL    HW117570   3.014   0.033   2.757
 5557SOL    HW217571   3.155   6.977   2.736
 5558SOL     OW17572   3.825   3.284   5.585
 5558SOL    HW117573   3.880   3.336   5.519
 5558SOL    HW217574   3.741   3.335   5.604
 5559SOL     OW17575   1.163   0.912   1.216
 5559SOL    HW117576   1.244   0.863   1.248
 5559SOL    HW217577   1.189   0.978   1.146
 5560SOL     OW17578   0.744   5.713   2.343
 5560SOL    HW117579   0.812   5.689   2.413
 5560SOL    HW217580   0.714   5.630   2.296
 5561SOL     OW17581   1.411   1.580   3.793
 5561SOL    HW117582   1.485   1.595   3.727
 5561SOL    HW217583   1.359   1.665   3.804
 5562SOL     OW17584   4.087   2.519   6.489
 5562SOL    HW117585   4.122   2.425   6.494
 5562SOL    HW217586   4.003   2.520   6.434
 5563SOL     OW17587   4.017   5.178   1.969
 5563SOL    HW117588   3.994   5.184   2.066
 5563SOL    HW217589   4.099   5.231   1.950
 5564SOL     OW17590   4.989   0.646   1.229
 5564SOL    HW117591   4.999   0.548   1.211
 5564SOL    HW217592   4.895   0.674   1.208
 5565SOL     OW17593   4.542   1.862   6.110
 5565SOL    HW117594   4.468   1.905   6.059
 5565SOL    HW217595   4.521   1.865   6.208
 5566SOL     OW17596   1.508   4.934   6.619
 5566SOL    HW117597   1.597   4.979   6.610
 5566SOL    HW217598   1.492   4.876   6.539
 5567SOL     OW17599   6.918   2.182   0.583
 5567SOL    HW117600   6.898   2.113   0.652
 5567SOL    HW217601   6.906   2.273   0.623
 5568SOL     OW17602   4.294   1.861   3.867
 5568SOL    HW117603   4.208   1.816   3.842
 5568SOL    HW217604   4.352   1.871   3.786
 5569SOL     OW17605   1.470   1.891   2.298
 5569SOL    HW117606   1.427   1.911   2.210
 5569SOL    HW217607   1.431   1.949   2.369
 5570SOL     OW17608   5.938   4.530   4.911
 5570SOL    HW117609   5.974   4.571   4.827
 5570SOL    HW217610   5.872   4.459   4.887
 5571SOL     OW17611   7.013   5.586   0.626
 5571SOL    HW117612   0.039   5.630   0.552
 5571SOL    HW217613   6.915   5.597   0.611
 5572SOL     OW17614   1.295   2.053   5.201
 5572SOL    HW117615   1.271   2.052   5.104
 5572SOL    HW217616   1.385   2.096   5.212
 5573SOL     OW17617   2.381   4.692   4.333
 5573SOL    HW117618   2.388   4.594   4.352
 5573SOL    HW217619   2.297   4.710   4.283
 5574SOL     OW17620   0.419   1.878   2.032
 5574SOL    HW117621   0.376   1.965   2.057
 5574SOL    HW217622   0.348   1.811   2.011
 5575SOL     OW17623   0.176   1.061   1.234
 5575SOL    HW117624   0.274   1.080   1.243
 5575SOL    HW217625   0.146   1.003   1.310
 5576SOL     OW17626   0.745   5.304   1.744
 5576SOL    HW117627   0.768   5.398   1.721
 5576SOL    HW217628   0.788   5.242   1.679
 5577SOL     OW17629   3.219   3.248   5.242
 5577SOL    HW117630   3.159   3.183   5.289
 5577SOL    HW217631   3.308   3.248   5.287
 5578SOL     OW17632   3.824   3.890   0.669
 5578SOL    HW117633   3.798   3.798   0.697
 5578SOL    HW217634   3.772   3.917   0.588
 5579SOL     OW17635   0.682   3.761   6.833
 5579SOL    HW117636   0.684   3.861   6.822
 5579SOL    HW217637   0.614   3.737   6.902
 5580SOL     OW17638   5.385   2.831   5.497
 5580SOL    HW117639   5.437   2.760   5.450
 5580SOL    HW217640   5.355   2.900   5.431
 5581SOL     OW17641   1.541   6.886   1.489
 5581SOL    HW117642   1.548   6.943   1.407
 5581SOL    HW217643   1.632   6.851   1.512
 5582SOL     OW17644   2.845   3.813   5.101
 5582SOL    HW117645   2.847   3.868   5.017
 5582SOL    HW217646   2.828   3.718   5.078
 5583SOL     OW17647   4.981   0.284   2.550
 5583SOL    HW117648   5.057   0.275   2.486
 5583SOL    HW217649   4.979   0.378   2.586
 5584SOL     OW17650   5.787   4.312   3.844
 5584SOL    HW117651   5.733   4.252   3.904
 5584SOL    HW217652   5.818   4.391   3.896
 5585SOL     OW17653   5.142   6.282   4.218
 5585SOL    HW117654   5.144   6.351   4.145
 5585SOL    HW217655   5.229   6.232   4.219
 5586SOL     OW17656   0.220   2.458   6.818
 5586SOL    HW117657   0.314   2.489   6.832
 5586SOL    HW217658   0.173   2.522   6.757
 5587SOL     OW17659   4.253   6.637   2.025
 5587SOL    HW117660   4.302   6.697   1.961
 5587SOL    HW217661   4.166   6.609   1.984
 5588SOL     OW17662   1.714   5.925   2.881
 5588SOL    HW117663   1.623   5.899   2.912
 5588SOL    HW217664   1.767   5.957   2.960
 5589SOL     OW17665   6.119   3.930   5.394
 5589SOL    HW117666   6.217   3.910   5.392
 5589SOL    HW217667   6.071   3.866   5.334
 5590SOL     OW17668   6.397   5.563   4.158
 5590SOL    HW117669   6.374   5.650   4.203
 5590SOL    HW217670   6.405   5.578   4.059
 5591SOL     OW17671   5.340   1.856   0.515
 5591SOL    HW117672   5.382   1.884   0.601
 5591SOL    HW217673   5.377   1.768   0.486
 5592SOL     OW17674   0.140   4.603   2.660
 5592SOL    HW117675   0.087   4.577   2.741
 5592SOL    HW217676   0.090   4.577   2.577
 5593SOL     OW17677   0.368   3.053   6.692
 5593SOL    HW117678   0.399   2.973   6.744
 5593SOL    HW217679   0.325   3.118   6.755
 5594SOL     OW17680   3.610   1.050   6.753
 5594SOL    HW117681   3.636   1.065   6.848
 5594SOL    HW217682   3.665   1.109   6.694
 5595SOL     OW17683   6.273   0.548   5.024
 5595SOL    HW117684   6.366   0.584   5.018
 5595SOL    HW217685   6.228   0.585   5.106
 5596SOL     OW17686   4.848   0.933   3.368
 5596SOL    HW117687   4.830   0.837   3.343
 5596SOL    HW217688   4.833   0.991   3.288
 5597SOL     OW17689   5.455   2.312   5.341
 5597SOL    HW117690   5.524   2.334   5.410
 5597SOL    HW217691   5.366   2.347   5.370
 5598SOL     OW17692   6.384   3.950   3.793
 5598SOL    HW117693   6.299   3.899   3.802
 5598SOL    HW217694   6.403   3.966   3.696
 5599SOL     OW17695   0.674   2.891   1.533
 5599SOL    HW117696   0.762   2.846   1.526
 5599SOL    HW217697   0.611   2.834   1.586
 5600SOL     OW17698   2.677   0.257   2.177
 5600SOL    HW117699   2.703   0.260   2.080
 5600SOL    HW217700   2.577   0.249   2.184
 5601SOL     OW17701   2.745   0.821   6.545
 5601SOL    HW117702   2.729   0.724   6.531
 5601SOL    HW217703   2.695   0.852   6.626
 5602SOL     OW17704   0.063   0.928   1.468
 5602SOL    HW117705   0.061   0.845   1.523
 5602SOL    HW217706   0.051   1.008   1.528
 5603SOL     OW17707   5.862   2.613   0.073
 5603SOL    HW117708   5.860   2.539   0.141
 5603SOL    HW217709   5.955   2.650   0.068
 5604SOL     OW17710   6.273   2.054   4.474
 5604SOL    HW117711   6.367   2.021   4.462
 5604SOL    HW217712   6.254   2.066   4.572
 5605SOL     OW17713   0.500   1.001   5.019
 5605SOL    HW117714   0.587   0.958   5.040
 5605SOL    HW217715   0.428   0.931   5.016
 5606SOL     OW17716   5.258   6.901   0.852
 5606SOL    HW117717   5.261   6.803   0.872
 5606SOL    HW217718   5.204   6.947   0.922
 5607SOL     OW17719   6.414   1.200   3.501
 5607SOL    HW117720   6.333   1.230   3.552
 5607SOL    HW217721   6.388   1.181   3.406
 5608SOL     OW17722   6.412   0.664   3.818
 5608SOL    HW117723   6.417   0.727   3.895
 5608SOL    HW217724   6.366   0.579   3.848
 5609SOL     OW17725   4.165   6.360   1.488
 5609SOL    HW117726   4.237   6.292   1.479
 5609SOL    HW217727   4.077   6.321   1.459
 5610SOL     OW17728   4.295   5.280   1.296
 5610SOL    HW117729   4.281   5.379   1.296
 5610SOL    HW217730   4.382   5.258   1.252
 5611SOL     OW17731   0.924   5.263   3.131
 5611SOL    HW117732   0.865   5.312   3.067
 5611SOL    HW217733   1.019   5.295   3.121
 5612SOL     OW17734   4.413   2.590   5.969
 5612SOL    HW117735   4.420   2.674   5.915
 5612SOL    HW217736   4.504   2.559   5.995
 5613SOL     OW17737   5.791   5.608   5.051
 5613SOL    HW117738   5.748   5.588   5.139
 5613SOL    HW217739   5.803   5.523   5.000
 5614SOL     OW17740   4.871   2.636   4.932
 5614SOL    HW117741   4.817   2.553   4.948
 5614SOL    HW217742   4.943   2.617   4.865
 5615SOL     OW17743   6.747   1.535   4.125
 5615SOL    HW117744   6.845   1.535   4.141
 5615SOL    HW217745   6.728   1.536   4.027
 5616SOL     OW17746   2.586   2.150   5.619
 5616SOL    HW117747   2.662   2.094   5.586
 5616SOL    HW217748   2.622   2.226   5.674
 5617SOL     OW17749   2.365   5.796   5.677
 5617SOL    HW117750   2.301   5.845   5.735
 5617SOL    HW217751   2.418   5.732   5.732
 5618SOL     OW17752   6.622   4.521   4.423
 5618SOL    HW117753   6.606   4.424   4.404
 5618SOL    HW217754   6.534   4.568   4.431
 5619SOL     OW17755   4.077   3.852   4.796
 5619SOL    HW117756   4.114   3.760   4.792
 5619SOL    HW217757   4.048   3.881   4.704
 5620SOL     OW17758   4.178   3.731   0.892
 5620SOL    HW117759   4.145   3.757   0.801
 5620SOL    HW217760   4.230   3.806   0.931
 5621SOL     OW17761   2.508   2.624   0.078
 5621SOL    HW117762   2.421   2.672   0.091
 5621SOL    HW217763   2.540   2.589   0.166
 5622SOL     OW17764   4.670   0.663   5.804
 5622SOL    HW117765   4.746   0.684   5.742
 5622SOL    HW217766   4.614   0.745   5.817
 5623SOL     OW17767   4.689   6.248   5.527
 5623SOL    HW117768   4.623   6.189   5.574
 5623SOL    HW217769   4.704   6.214   5.434
 5624SOL     OW17770   0.464   4.253   3.532
 5624SOL    HW117771   0.562   4.273   3.535
 5624SOL    HW217772   0.443   4.182   3.600
 5625SOL     OW17773   6.699   0.035   5.247
 5625SOL    HW117774   6.668   0.051   5.340
 5625SOL    HW217775   6.633   0.074   5.183
 5626SOL     OW17776   2.367   5.594   3.831
 5626SOL    HW117777   2.414   5.681   3.817
 5626SOL    HW217778   2.303   5.602   3.908
 5627SOL     OW17779   0.866   5.019   6.973
 5627SOL    HW117780   0.929   5.048   6.902
 5627SOL    HW217781   0.915   4.966   0.018
 5628SOL     OW17782   2.122   2.182   2.523
 5628SOL    HW117783   2.092   2.183   2.618
 5628SOL    HW217784   2.192   2.252   2.510
 5629SOL     OW17785   3.811   3.443   1.871
 5629SOL    HW117786   3.767   3.357   1.897
 5629SOL    HW217787   3.743   3.504   1.831
 5630SOL     OW17788   1.721   3.652   6.234
 5630SOL    HW117789   1.661   3.686   6.162
 5630SOL    HW217790   1.815   3.646   6.199
 5631SOL     OW17791   4.656   1.724   1.728
 5631SOL    HW117792   4.701   1.712   1.817
 5631SOL    HW217793   4.570   1.673   1.727
 5632SOL     OW17794   3.183   2.499   5.826
 5632SOL    HW117795   3.161   2.435   5.752
 5632SOL    HW217796   3.161   2.456   5.914
 5633SOL     OW17797   5.836   5.212   4.203
 5633SOL    HW117798   5.766   5.218   4.275
 5633SOL    HW217799   5.827   5.125   4.155
 5634SOL     OW17800   1.960   4.615   4.002
 5634SOL    HW117801   2.004   4.662   3.926
 5634SOL    HW217802   1.902   4.680   4.052
 5635SOL     OW17803   1.662   5.548   6.893
 5635SOL    HW117804   1.623   5.553   6.801
 5635SOL    HW217805   1.688   5.640   6.923
 5636SOL     OW17806   4.475   0.189   4.615
 5636SOL    HW117807   4.558   0.160   4.567
 5636SOL    HW217808   4.439   0.272   4.571
 5637SOL     OW17809   4.804   6.829   3.171
 5637SOL    HW117810   4.761   6.789   3.251
 5637SOL    HW217811   4.886   6.777   3.147
 5638SOL     OW17812   6.998   3.621   0.859
 5638SOL    HW117813   0.018   3.549   0.913
 5638SOL    HW217814   6.917   3.584   0.814
 5639SOL     OW17815   1.794   0.305   2.159
 5639SOL    HW117816   1.889   0.297   2.190
 5639SOL    HW217817   1.752   0.215   2.154
 5640SOL     OW17818   3.118   0.491   3.540
 5640SOL    HW117819   3.195   0.447   3.586
 5640SOL    HW217820   3.149   0.577   3.498
 5641SOL     OW17821   0.482   5.067   5.077
 5641SOL    HW117822   0.401   5.011   5.091
 5641SOL    HW217823   0.561   5.022   5.118
 5642SOL     OW17824   1.467   6.237   4.415
 5642SOL    HW117825   1.498   6.330   4.396
 5642SOL    HW217826   1.534   6.172   4.379
 5643SOL     OW17827   4.422   1.542   4.021
 5643SOL    HW117828   4.417   1.605   4.099
 5643SOL    HW217829   4.487   1.577   3.954
 5644SOL     OW17830   3.380   6.700   5.462
 5644SOL    HW117831   3.356   6.603   5.467
 5644SOL    HW217832   3.375   6.741   5.553
 5645SOL     OW17833   6.461   4.691   3.241
 5645SOL    HW117834   6.486   4.597   3.264
 5645SOL    HW217835   6.504   4.717   3.155
 5646SOL     OW17836   1.059   5.828   3.834
 5646SOL    HW117837   1.013   5.758   3.890
 5646SOL    HW217838   1.000   5.908   3.825
 5647SOL     OW17839   4.715   6.151   0.559
 5647SOL    HW117840   4.663   6.234   0.542
 5647SOL    HW217841   4.675   6.101   0.635
 5648SOL     OW17842   1.428   0.158   3.143
 5648SOL    HW117843   1.526   0.139   3.147
 5648SOL    HW217844   1.414   0.250   3.106
 5649SOL     OW17845   0.546   0.946   4.364
 5649SOL    HW117846   0.526   0.982   4.456
 5649SOL    HW217847   0.509   0.854   4.356
 5650SOL     OW17848   0.603   5.797   0.559
 5650SOL    HW117849   0.512   5.755   0.560
 5650SOL    HW217850   0.652   5.768   0.477
 5651SOL     OW17851   1.712   1.301   1.117
 5651SOL    HW117852   1.743   1.206   1.125
 5651SOL    HW217853   1.637   1.317   1.181
 5652SOL     OW17854   6.050   0.140   1.911
 5652SOL    HW117855   5.977   0.107   1.971
 5652SOL    HW217856   6.010   0.195   1.838
 5653SOL     OW17857   6.377   6.225   6.669
 5653SOL    HW117858   6.454   6.252   6.611
 5653SOL    HW217859   6.401   6.142   6.720
 5654SOL     OW17860   6.702   6.889   5.006
 5654SOL    HW117861   6.760   6.808   5.018
 5654SOL    HW217862   6.677   6.926   5.095
 5655SOL     OW17863   1.068   3.691   4.063
 5655SOL    HW117864   0.971   3.709   4.082
 5655SOL    HW217865   1.089   3.595   4.083
 5656SOL     OW17866   0.037   3.634   6.607
 5656SOL    HW117867   0.081   3.665   6.523
 5656SOL    HW217868   0.053   3.701   6.680
 5657SOL     OW17869   6.082   1.954   0.071
 5657SOL    HW117870   6.085   1.869   0.124
 5657SOL    HW217871   6.170   2.001   0.081
 5658SOL     OW17872   3.546   3.784   6.758
 5658SOL    HW117873   3.629   3.732   6.738
 5658SOL    HW217874   3.560   3.880   6.736
 5659SOL     OW17875   3.794   3.154   5.051
 5659SOL    HW117876   3.710   3.202   5.075
 5659SOL    HW217877   3.868   3.184   5.112
 5660SOL     OW17878   5.073   6.736   0.388
 5660SOL    HW117879   5.139   6.671   0.351
 5660SOL    HW217880   5.111   6.778   0.471
 5661SOL     OW17881   1.226   5.827   4.997
 5661SOL    HW117882   1.236   5.728   5.002
 5661SOL    HW217883   1.310   5.867   4.961
 5662SOL     OW17884   2.792   6.027   3.606
 5662SOL    HW117885   2.879   5.988   3.636
 5662SOL    HW217886   2.731   5.953   3.578
 5663SOL     OW17887   1.878   3.273   6.644
 5663SOL    HW117888   1.854   3.281   6.741
 5663SOL    HW217889   1.880   3.176   6.618
 5664SOL     OW17890   6.791   4.144   4.392
 5664SOL    HW117891   6.748   4.171   4.306
 5664SOL    HW217892   6.887   4.122   4.376
 5665SOL     OW17893   1.853   0.986   0.391
 5665SOL    HW117894   1.835   0.989   0.292
 5665SOL    HW217895   1.814   1.067   0.434
 5666SOL     OW17896   5.825   6.915   2.793
 5666SOL    HW117897   5.891   6.866   2.850
 5666SOL    HW217898   5.869   6.995   2.753
 5667SOL     OW17899   1.724   5.325   4.646
 5667SOL    HW117900   1.665   5.267   4.590
 5667SOL    HW217901   1.790   5.268   4.696
 5668SOL     OW17902   5.297   2.790   3.795
 5668SOL    HW117903   5.301   2.785   3.894
 5668SOL    HW217904   5.216   2.842   3.767
 5669SOL     OW17905   0.131   3.484   7.015
 5669SOL    HW117906   0.119   3.430   0.074
 5669SOL    HW217907   0.058   3.553   7.010
 5670SOL     OW17908   0.168   3.078   3.747
 5670SOL    HW117909   0.178   2.979   3.739
 5670SOL    HW217910   0.258   3.121   3.737
 5671SOL     OW17911   6.117   6.165   6.620
 5671SOL    HW117912   6.212   6.195   6.617
 5671SOL    HW217913   6.110   6.083   6.677
 5672SOL     OW17914   4.524   4.057   0.181
 5672SOL    HW117915   4.560   4.000   0.255
 5672SOL    HW217916   4.548   4.153   0.197
 5673SOL     OW17917   1.465   0.834   1.780
 5673SOL    HW117918   1.502   0.859   1.869
 5673SOL    HW217919   1.369   0.809   1.788
 5674SOL     OW17920   0.038   5.005   5.181
 5674SOL    HW117921   6.987   5.068   5.202
 5674SOL    HW217922   0.008   4.940   5.111
 5675SOL     OW17923   4.502   2.842   6.973
 5675SOL    HW117924   4.536   2.782   6.901
 5675SOL    HW217925   4.406   2.865   6.955
 5676SOL     OW17926   2.613   2.314   2.685
 5676SOL    HW117927   2.694   2.328   2.628
 5676SOL    HW217928   2.545   2.261   2.633
 5677SOL     OW17929   1.017   1.601   0.103
 5677SOL    HW117930   1.064   1.517   0.131
 5677SOL    HW217931   0.935   1.613   0.159
 5678SOL     OW17932   4.283   6.694   2.786
 5678SOL    HW117933   4.189   6.729   2.788
 5678SOL    HW217934   4.342   6.756   2.838
 5679SOL     OW17935   0.047   0.876   4.217
 5679SOL    HW117936   0.076   0.930   4.138
 5679SOL    HW217937   6.990   0.823   4.192
 5680SOL     OW17938   1.643   5.252   6.323
 5680SOL    HW117939   1.697   5.238   6.240
 5680SOL    HW217940   1.551   5.217   6.310
 5681SOL     OW17941   0.472   4.403   0.815
 5681SOL    HW117942   0.486   4.333   0.745
 5681SOL    HW217943   0.559   4.425   0.859
 5682SOL     OW17944   2.170   4.918   5.169
 5682SOL    HW117945   2.119   4.847   5.219
 5682SOL    HW217946   2.218   4.876   5.092
 5683SOL     OW17947   4.512   1.119   6.135
 5683SOL    HW117948   4.473   1.186   6.071
 5683SOL    HW217949   4.536   1.165   6.221
 5684SOL     OW17950   2.923   3.589   5.350
 5684SOL    HW117951   3.019   3.591   5.321
 5684SOL    HW217952   2.886   3.682   5.349
 5685SOL     OW17953   2.112   2.165   2.946
 5685SOL    HW117954   2.070   2.074   2.943
 5685SOL    HW217955   2.076   2.222   2.873
 5686SOL     OW17956   2.593   1.294   6.457
 5686SOL    HW117957   2.692   1.288   6.454
 5686SOL    HW217958   2.564   1.325   6.548
 5687SOL     OW17959   0.992   5.143   0.414
 5687SOL    HW117960   1.031   5.233   0.436
 5687SOL    HW217961   0.918   5.155   0.347
 5688SOL     OW17962   0.578   2.416   1.530
 5688SOL    HW117963   0.520   2.488   1.569
 5688SOL    HW217964   0.565   2.332   1.582
 5689SOL     OW17965   3.183   1.502   0.774
 5689SOL    HW117966   3.204   1.499   0.872
 5689SOL    HW217967   3.224   1.584   0.733
 5690SOL     OW17968   2.476   5.908   0.010
 5690SOL    HW117969   2.452   5.866   6.946
 5690SOL    HW217970   2.484   5.836   0.079
 5691SOL     OW17971   3.361   6.991   2.284
 5691SOL    HW117972   3.300   6.920   2.318
 5691SOL    HW217973   3.418   0.000   2.359
 5692SOL     OW17974   5.467   3.703   0.790
 5692SOL    HW117975   5.496   3.793   0.823
 5692SOL    HW217976   5.373   3.685   0.820
 5693SOL     OW17977   4.812   2.053   2.824
 5693SOL    HW117978   4.759   2.017   2.748
 5693SOL    HW217979   4.827   1.981   2.892
 5694SOL     OW17980   0.899   1.646   3.336
 5694SOL    HW117981   0.926   1.624   3.430
 5694SOL    HW217982   0.977   1.633   3.275
 5695SOL     OW17983   1.621   1.859   3.021
 5695SOL    HW117984   1.663   1.769   3.036
 5695SOL    HW217985   1.537   1.865   3.075
 5696SOL     OW17986   0.600   1.060   3.024
 5696SOL    HW117987   0.589   1.159   3.029
 5696SOL    HW217988   0.667   1.031   3.092
 5697SOL     OW17989   5.483   2.396   0.982
 5697SOL    HW117990   5.554   2.442   0.929
 5697SOL    HW217991   5.508   2.397   1.079
 5698SOL     OW17992   1.446   4.979   4.183
 5698SOL    HW117993   1.533   4.932   4.166
 5698SOL    HW217994   1.370   4.919   4.157
 5699SOL     OW17995   0.711   2.580   3.342
 5699SOL    HW117996   0.617   2.569   3.376
 5699SOL    HW217997   0.772   2.596   3.420
 5700SOL     OW17998   6.522   6.756   3.188
 5700SOL    HW117999   6.438   6.788   3.231
 5700SOL    HW218000   6.578   6.708   3.256
 5701SOL     OW18001   1.461   0.683   1.553
 5701SOL    HW118002   1.422   0.599   1.590
 5701SOL    HW218003   1.487   0.744   1.628
 5702SOL     OW18004   2.711   5.408   4.086
 5702SOL    HW118005   2.722   5.507   4.080
 5702SOL    HW218006   2.701   5.381   4.182
 5703SOL     OW18007   6.234   4.492   1.820
 5703SOL    HW118008   6.319   4.473   1.870
 5703SOL    HW218009   6.168   4.419   1.837
 5704SOL     OW18010   4.846   4.410   2.898
 5704SOL    HW118011   4.925   4.360   2.933
 5704SOL    HW218012   4.875   4.501   2.869
 5705SOL     OW18013   4.987   7.001   6.967
 5705SOL    HW118014   5.008   6.992   0.040
 5705SOL    HW218015   5.064   6.969   6.913
 5706SOL     OW18016   6.884   4.007   1.339
 5706SOL    HW118017   6.815   4.000   1.411
 5706SOL    HW218018   6.975   4.000   1.379
 5707SOL     OW18019   0.284   6.101   0.154
 5707SOL    HW118020   0.239   6.158   0.085
 5707SOL    HW218021   0.277   6.145   0.243
 5708SOL     OW18022   5.138   5.144   1.950
 5708SOL    HW118023   5.116   5.241   1.963
 5708SOL    HW218024   5.204   5.115   2.020
 5709SOL     OW18025   1.605   0.893   2.340
 5709SOL    HW118026   1.583   0.806   2.297
 5709SOL    HW218027   1.542   0.909   2.416
 5710SOL     OW18028   2.186   2.726   1.192
 5710SOL    HW118029   2.120   2.719   1.117
 5710SOL    HW218030   2.157   2.798   1.255
 5711SOL     OW18031   5.082   0.878   3.174
 5711SOL    HW118032   5.034   0.826   3.245
 5711SOL    HW218033   5.117   0.963   3.214
 5712SOL     OW18034   6.468   0.629   6.485
 5712SOL    HW118035   6.395   0.607   6.550
 5712SOL    HW218036   6.528   0.698   6.525
 5713SOL     OW18037   3.763   2.831   1.878
 5713SOL    HW118038   3.777   2.739   1.843
 5713SOL    HW218039   3.672   2.864   1.852
 5714SOL     OW18040   0.453   5.633   0.310
 5714SOL    HW118041   0.549   5.650   0.288
 5714SOL    HW218042   0.442   5.540   0.344
 5715SOL     OW18043   1.318   0.604   2.729
 5715SOL    HW118044   1.270   0.546   2.794
 5715SOL    HW218045   1.414   0.612   2.755
 5716SOL     OW18046   1.585   4.788   6.382
 5716SOL    HW118047   1.611   4.702   6.426
 5716SOL    HW218048   1.667   4.831   6.345
 5717SOL     OW18049   1.696   4.714   1.102
 5717SOL    HW118050   1.608   4.717   1.054
 5717SOL    HW218051   1.769   4.695   1.036
 5718SOL     OW18052   0.095   3.614   5.920
 5718SOL    HW118053   0.055   3.584   6.007
 5718SOL    HW218054   0.022   3.625   5.853
 5719SOL     OW18055   2.765   2.378   6.339
 5719SOL    HW118056   2.806   2.370   6.430
 5719SOL    HW218057   2.665   2.376   6.348
 5720SOL     OW18058   1.954   6.049   4.565
 5720SOL    HW118059   1.936   6.059   4.467
 5720SOL    HW218060   2.053   6.055   4.581
 5721SOL     OW18061   6.727   3.036   0.767
 5721SOL    HW118062   6.788   3.112   0.786
 5721SOL    HW218063   6.738   2.966   0.838
 5722SOL     OW18064   0.167   1.940   5.055
 5722SOL    HW118065   0.247   1.904   5.104
 5722SOL    HW218066   0.167   1.906   4.961
 5723SOL     OW18067   5.136   3.037   0.504
 5723SOL    HW118068   5.107   3.092   0.426
 5723SOL    HW218069   5.068   3.045   0.577
 5724SOL     OW18070   5.610   3.043   4.893
 5724SOL    HW118071   5.625   2.991   4.809
 5724SOL    HW218072   5.516   3.077   4.894
 5725SOL     OW18073   5.411   5.489   4.532
 5725SOL    HW118074   5.330   5.516   4.586
 5725SOL    HW218075   5.493   5.499   4.589
 5726SOL     OW18076   0.075   5.369   4.199
 5726SOL    HW118077   0.050   5.278   4.233
 5726SOL    HW218078   0.125   5.419   4.270
 5727SOL     OW18079   0.157   1.786   4.185
 5727SOL    HW118080   0.209   1.799   4.269
 5727SOL    HW218081   0.219   1.776   4.108
 5728SOL     OW18082   3.912   0.379   6.122
 5728SOL    HW118083   4.000   0.400   6.166
 5728SOL    HW218084   3.901   0.280   6.115
 5729SOL     OW18085   1.465   0.867   0.952
 5729SOL    HW118086   1.452   0.768   0.960
 5729SOL    HW218087   1.380   0.909   0.921
 5730SOL     OW18088   5.533   5.182   6.625
 5730SOL    HW118089   5.555   5.239   6.545
 5730SOL    HW218090   5.462   5.227   6.679
 5731SOL     OW18091   0.221   6.654   4.028
 5731SOL    HW118092   0.291   6.723   4.012
 5731SOL    HW218093   0.143   6.671   3.968
 5732SOL     OW18094   6.525   5.358   4.676
 5732SOL    HW118095   6.552   5.453   4.665
 5732SOL    HW218096   6.427   5.349   4.655
 5733SOL     OW18097   4.405   6.645   5.812
 5733SOL    HW118098   4.439   6.723   5.760
 5733SOL    HW218099   4.349   6.587   5.753
 5734SOL     OW18100   1.093   6.798   5.372
 5734SOL    HW118101   1.069   6.854   5.294
 5734SOL    HW218102   1.161   6.845   5.429
 5735SOL     OW18103   4.379   1.756   1.386
 5735SOL    HW118104   4.389   1.658   1.404
 5735SOL    HW218105   4.298   1.791   1.434
 5736SOL     OW18106   6.214   3.869   0.217
 5736SOL    HW118107   6.141   3.800   0.220
 5736SOL    HW218108   6.184   3.951   0.265
 5737SOL     OW18109   5.675   6.832   1.291
 5737SOL    HW118110   5.635   6.754   1.244
 5737SOL    HW218111   5.717   6.802   1.377
 5738SOL     OW18112   2.262   2.440   5.721
 5738SOL    HW118113   2.264   2.347   5.757
 5738SOL    HW218114   2.300   2.441   5.628
 5739SOL     OW18115   1.450   0.258   5.954
 5739SOL    HW118116   1.401   0.171   5.945
 5739SOL    HW218117   1.387   0.334   5.936
 5740SOL     OW18118   4.365   3.924   0.981
 5740SOL    HW118119   4.369   3.995   1.052
 5740SOL    HW218120   4.366   3.967   0.891
 5741SOL     OW18121   1.126   4.345   4.381
 5741SOL    HW118122   1.219   4.309   4.379
 5741SOL    HW218123   1.064   4.277   4.419
 5742SOL     OW18124   5.269   0.086   2.018
 5742SOL    HW118125   5.210   0.018   1.975
 5742SOL    HW218126   5.262   0.172   1.968
 5743SOL     OW18127   2.466   5.221   5.171
 5743SOL    HW118128   2.417   5.286   5.228
 5743SOL    HW218129   2.436   5.230   5.076
 5744SOL     OW18130   4.981   0.907   1.705
 5744SOL    HW118131   4.907   0.923   1.771
 5744SOL    HW218132   5.028   0.993   1.686
 5745SOL     OW18133   2.578   0.953   3.971
 5745SOL    HW118134   2.531   0.989   3.890
 5745SOL    HW218135   2.526   0.877   4.009
 5746SOL     OW18136   6.029   6.863   1.432
 5746SOL    HW118137   5.944   6.873   1.483
 5746SOL    HW218138   6.017   6.898   1.339
 5747SOL     OW18139   6.665   4.675   2.579
 5747SOL    HW118140   6.687   4.589   2.626
 5747SOL    HW218141   6.731   4.745   2.605
 5748SOL     OW18142   1.831   6.019   1.136
 5748SOL    HW118143   1.928   6.013   1.158
 5748SOL    HW218144   1.789   5.929   1.143
 5749SOL     OW18145   1.649   0.507   4.905
 5749SOL    HW118146   1.671   0.580   4.840
 5749SOL    HW218147   1.718   0.434   4.897
 5750SOL     OW18148   4.900   6.180   4.657
 5750SOL    HW118149   4.908   6.114   4.583
 5750SOL    HW218150   4.961   6.258   4.640
 5751SOL     OW18151   2.234   3.038   4.857
 5751SOL    HW118152   2.303   3.090   4.907
 5751SOL    HW218153   2.227   3.072   4.764
 5752SOL     OW18154   6.590   0.969   6.827
 5752SOL    HW118155   6.630   0.917   6.902
 5752SOL    HW218156   6.644   1.053   6.813
 5753SOL     OW18157   3.552   4.017   5.573
 5753SOL    HW118158   3.488   3.990   5.502
 5753SOL    HW218159   3.501   4.049   5.653
 5754SOL     OW18160   5.580   4.512   1.545
 5754SOL    HW118161   5.664   4.474   1.584
 5754SOL    HW218162   5.603   4.578   1.473
 5755SOL     OW18163   2.216   3.750   6.225
 5755SOL    HW118164   2.131   3.713   6.188
 5755SOL    HW218165   2.294   3.702   6.186
 5756SOL     OW18166   6.081   6.323   3.793
 5756SOL    HW118167   6.049   6.403   3.743
 5756SOL    HW218168   6.004   6.282   3.843
 5757SOL     OW18169   6.795   6.617   2.567
 5757SOL    HW118170   6.799   6.647   2.471
 5757SOL    HW218171   6.703   6.585   2.588
 5758SOL     OW18172   2.520   0.966   4.323
 5758SOL    HW118173   2.597   0.965   4.386
 5758SOL    HW218174   2.555   0.978   4.229
 5759SOL     OW18175   5.147   1.747   6.778
 5759SOL    HW118176   5.118   1.841   6.793
 5759SOL    HW218177   5.124   1.692   6.859
 5760SOL     OW18178   1.092   4.873   1.232
 5760SOL    HW118179   1.119   4.807   1.162
 5760SOL    HW218180   1.086   4.826   1.321
 5761SOL     OW18181   5.741   6.943   6.365
 5761SOL    HW118182   5.666   6.966   6.303
 5761SOL    HW218183   5.787   6.861   6.332
 5762SOL     OW18184   4.365   6.628   0.353
 5762SOL    HW118185   4.425   6.579   0.416
 5762SOL    HW218186   4.401   6.721   0.339
 5763SOL     OW18187   6.942   0.625   0.220
 5763SOL    HW118188   6.901   0.714   0.239
 5763SOL    HW218189   6.907   0.591   0.132
 5764SOL     OW18190   4.095   4.635   6.257
 5764SOL    HW118191   4.155   4.561   6.286
 5764SOL    HW218192   4.082   4.700   6.332
 5765SOL     OW18193   6.654   4.263   6.455
 5765SOL    HW118194   6.668   4.337   6.520
 5765SOL    HW218195   6.591   4.293   6.383
 5766SOL     OW18196   2.617   2.431   0.622
 5766SOL    HW118197   2.574   2.521   0.633
 5766SOL    HW218198   2.550   2.360   0.644
 5767SOL     OW18199   2.485   6.422   0.440
 5767SOL    HW118200   2.511   6.504   0.491
 5767SOL    HW218201   2.472   6.445   0.344
 5768SOL     OW18202   0.528   0.145   2.926
 5768SOL    HW118203   0.504   0.169   2.832
 5768SOL    HW218204   0.472   0.198   2.990
 5769SOL     OW18205   2.412   6.280   4.369
 5769SOL    HW118206   2.454   6.296   4.280
 5769SOL    HW218207   2.335   6.343   4.381
 5770SOL     OW18208   6.157   0.379   6.546
 5770SOL    HW118209   6.139   0.390   6.448
 5770SOL    HW218210   6.218   0.452   6.578
 5771SOL     OW18211   0.885   6.082   2.789
 5771SOL    HW118212   0.962   6.040   2.837
 5771SOL    HW218213   0.829   6.133   2.854
 5772SOL     OW18214   6.576   2.547   0.000
 5772SOL    HW118215   6.555   2.552   0.098
 5772SOL    HW218216   6.671   2.576   7.010
 5773SOL     OW18217   5.136   0.917   4.179
 5773SOL    HW118218   5.100   0.971   4.104
 5773SOL    HW218219   5.223   0.956   4.211
 5774SOL     OW18220   2.669   5.139   3.729
 5774SOL    HW118221   2.694   5.081   3.806
 5774SOL    HW218222   2.610   5.214   3.762
 5775SOL     OW18223   1.711   0.230   1.865
 5775SOL    HW118224   1.647   0.161   1.832
 5775SOL    HW218225   1.664   0.295   1.924
 5776SOL     OW18226   6.927   1.177   6.096
 5776SOL    HW118227   6.888   1.208   6.009
 5776SOL    HW218228   6.879   1.095   6.127
 5777SOL     OW18229   6.196   0.739   4.189
 5777SOL    HW118230   6.203   0.693   4.277
 5777SOL    HW218231   6.286   0.741   4.145
 5778SOL     OW18232   1.953   0.035   1.244
 5778SOL    HW118233   1.905   6.975   1.219
 5778SOL    HW218234   1.886   0.106   1.269
 5779SOL     OW18235   4.219   1.007   0.547
 5779SOL    HW118236   4.207   0.930   0.484
 5779SOL    HW218237   4.308   1.000   0.592
 5780SOL     OW18238   5.663   5.626   2.943
 5780SOL    HW118239   5.720   5.575   3.008
 5780SOL    HW218240   5.716   5.701   2.904
 5781SOL     OW18241   1.170   3.968   4.355
 5781SOL    HW118242   1.188   4.012   4.267
 5781SOL    HW218243   1.180   3.869   4.345
 5782SOL     OW18244   1.555   1.297   0.878
 5782SOL    HW118245   1.560   1.216   0.820
 5782SOL    HW218246   1.616   1.284   0.957
 5783SOL     OW18247   2.084   1.222   0.890
 5783SOL    HW118248   2.007   1.284   0.900
 5783SOL    HW218249   2.143   1.228   0.971
 5784SOL     OW18250   0.400   6.907   6.732
 5784SOL    HW118251   0.397   6.827   6.792
 5784SOL    HW218252   0.349   6.887   6.648
 5785SOL     OW18253   2.395   2.097   1.453
 5785SOL    HW118254   2.338   2.179   1.447
 5785SOL    HW218255   2.356   2.035   1.521
 5786SOL     OW18256   1.094   4.387   0.829
 5786SOL    HW118257   1.142   4.300   0.817
 5786SOL    HW218258   1.128   4.432   0.911
 5787SOL     OW18259   4.770   2.392   4.866
 5787SOL    HW118260   4.745   2.395   4.770
 5787SOL    HW218261   4.734   2.309   4.908
 5788SOL     OW18262   3.368   0.621   1.634
 5788SOL    HW118263   3.409   0.712   1.633
 5788SOL    HW218264   3.408   0.565   1.561
 5789SOL     OW18265   3.229   3.166   6.156
 5789SOL    HW118266   3.223   3.086   6.215
 5789SOL    HW218267   3.325   3.193   6.146
 5790SOL     OW18268   6.827   5.178   5.230
 5790SOL    HW118269   6.780   5.102   5.276
 5790SOL    HW218270   6.760   5.241   5.193
 5791SOL     OW18271   2.705   2.064   2.403
 5791SOL    HW118272   2.650   2.001   2.348
 5791SOL    HW218273   2.792   2.081   2.358
 5792SOL     OW18274   5.322   3.858   2.642
 5792SOL    HW118275   5.283   3.823   2.727
 5792SOL    HW218276   5.269   3.825   2.564
 5793SOL     OW18277   5.659   0.459   5.306
 5793SOL    HW118278   5.672   0.413   5.393
 5793SOL    HW218279   5.568   0.438   5.270
 5794SOL     OW18280   3.410   0.064   6.944
 5794SOL    HW118281   3.470   0.137   6.975
 5794SOL    HW218282   3.410   7.014   7.010
 5795SOL     OW18283   0.129   0.151   0.805
 5795SOL    HW118284   0.159   0.229   0.750
 5795SOL    HW218285   0.147   0.066   0.755
 5796SOL     OW18286   4.612   0.710   6.515
 5796SOL    HW118287   4.620   0.619   6.474
 5796SOL    HW218288   4.517   0.738   6.516
 5797SOL     OW18289   5.458   1.358   0.793
 5797SOL    HW118290   5.426   1.273   0.835
 5797SOL    HW218291   5.383   1.399   0.741
 5798SOL     OW18292   0.358   3.764   4.541
 5798SOL    HW118293   0.436   3.703   4.529
 5798SOL    HW218294   0.286   3.716   4.590
 5799SOL     OW18295   0.092   0.396   3.809
 5799SOL    HW118296   0.154   0.371   3.734
 5799SOL    HW218297   0.010   0.339   3.805
 5800SOL     OW18298   0.802   0.157   1.874
 5800SOL    HW118299   0.713   0.136   1.914
 5800SOL    HW218300   0.815   0.103   1.791
 5801SOL     OW18301   2.218   2.623   3.481
 5801SOL    HW118302   2.275   2.588   3.556
 5801SOL    HW218303   2.143   2.678   3.519
 5802SOL     OW18304   6.434   3.298   2.400
 5802SOL    HW118305   6.356   3.247   2.365
 5802SOL    HW218306   6.417   3.325   2.494
 5803SOL     OW18307   1.477   5.367   3.909
 5803SOL    HW118308   1.462   5.426   3.829
 5803SOL    HW218309   1.471   5.271   3.881
 5804SOL     OW18310   6.675   5.946   3.574
 5804SOL    HW118311   6.626   5.974   3.491
 5804SOL    HW218312   6.618   5.883   3.627
 5805SOL     OW18313   1.327   2.671   0.625
 5805SOL    HW118314   1.381   2.708   0.701
 5805SOL    HW218315   1.242   2.632   0.660
 5806SOL     OW18316   6.888   4.792   5.048
 5806SOL    HW118317   6.880   4.701   5.007
 5806SOL    HW218318   6.802   4.842   5.034
 5807SOL     OW18319   1.486   5.271   1.197
 5807SOL    HW118320   1.460   5.210   1.272
 5807SOL    HW218321   1.529   5.353   1.235
 5808SOL     OW18322   6.759   7.022   4.771
 5808SOL    HW118323   6.855   6.995   4.758
 5808SOL    HW218324   6.731   7.000   4.865
 5809SOL     OW18325   6.102   2.540   5.348
 5809SOL    HW118326   6.008   2.509   5.361
 5809SOL    HW218327   6.130   2.597   5.425
 5810SOL     OW18328   4.053   1.464   5.854
 5810SOL    HW118329   3.989   1.519   5.801
 5810SOL    HW218330   4.075   1.380   5.804
 5811SOL     OW18331   2.777   1.994   5.478
 5811SOL    HW118332   2.842   1.937   5.528
 5811SOL    HW218333   2.759   1.954   5.389
 5812SOL     OW18334   5.000   3.636   6.142
 5812SOL    HW118335   4.989   3.685   6.055
 5812SOL    HW218336   4.991   3.537   6.126
 5813SOL     OW18337   2.689   6.992   0.743
 5813SOL    HW118338   2.679   0.067   0.749
 5813SOL    HW218339   2.786   6.969   0.732
 5814SOL     OW18340   0.062   2.795   1.777
 5814SOL    HW118341   0.096   2.738   1.702
 5814SOL    HW218342   0.113   2.880   1.781
 5815SOL     OW18343   4.956   1.947   4.138
 5815SOL    HW118344   4.883   1.906   4.083
 5815SOL    HW218345   5.037   1.957   4.081
 5816SOL     OW18346   6.233   4.674   0.929
 5816SOL    HW118347   6.195   4.624   0.852
 5816SOL    HW218348   6.332   4.657   0.934
 5817SOL     OW18349   5.970   5.387   5.822
 5817SOL    HW118350   6.025   5.438   5.756
 5817SOL    HW218351   5.903   5.449   5.864
 5818SOL     OW18352   6.773   5.687   5.419
 5818SOL    HW118353   6.830   5.766   5.438
 5818SOL    HW218354   6.768   5.671   5.321
 5819SOL     OW18355   3.061   5.421   6.752
 5819SOL    HW118356   3.112   5.479   6.815
 5819SOL    HW218357   3.043   5.333   6.794
 5820SOL     OW18358   4.205   4.676   2.863
 5820SOL    HW118359   4.280   4.623   2.901
 5820SOL    HW218360   4.199   4.660   2.764
 5821SOL     OW18361   6.685   0.833   1.557
 5821SOL    HW118362   6.734   0.872   1.479
 5821SOL    HW218363   6.652   0.742   1.533
 5822SOL     OW18364   1.624   2.818   1.789
 5822SOL    HW118365   1.615   2.785   1.694
 5822SOL    HW218366   1.547   2.784   1.843
 5823SOL     OW18367   2.650   6.574   4.721
 5823SOL    HW118368   2.738   6.572   4.674
 5823SOL    HW218369   2.576   6.562   4.654
 5824SOL     OW18370   0.521   6.199   3.438
 5824SOL    HW118371   0.523   6.299   3.435
 5824SOL    HW218372   0.437   6.166   3.396
 5825SOL     OW18373   0.059   6.134   5.523
 5825SOL    HW118374   0.139   6.172   5.476
 5825SOL    HW218375   0.004   6.209   5.560
 5826SOL     OW18376   0.641   6.332   6.034
 5826SOL    HW118377   0.642   6.417   5.981
 5826SOL    HW218378   0.547   6.298   6.040
 5827SOL     OW18379   1.277   3.395   4.912
 5827SOL    HW118380   1.289   3.324   4.842
 5827SOL    HW218381   1.208   3.461   4.881
 5828SOL     OW18382   4.802   1.497   2.817
 5828SOL    HW118383   4.711   1.519   2.781
 5828SOL    HW218384   4.815   1.398   2.818
 5829SOL     OW18385   1.537   0.752   4.695
 5829SOL    HW118386   1.537   0.817   4.771
 5829SOL    HW218387   1.445   0.713   4.684
 5830SOL     OW18388   4.560   0.158   5.302
 5830SOL    HW118389   4.581   0.235   5.241
 5830SOL    HW218390   4.644   0.130   5.349
 5831SOL     OW18391   1.738   1.347   6.035
 5831SOL    HW118392   1.775   1.372   6.124
 5831SOL    HW218393   1.794   1.274   5.995
 5832SOL     OW18394   3.592   4.287   0.578
 5832SOL    HW118395   3.670   4.330   0.622
 5832SOL    HW218396   3.615   4.191   0.558
 5833SOL     OW18397   3.732   3.094   5.404
 5833SOL    HW118398   3.774   3.158   5.469
 5833SOL    HW218399   3.804   3.036   5.364
 5834SOL     OW18400   6.465   4.347   6.277
 5834SOL    HW118401   6.446   4.380   6.185
 5834SOL    HW218402   6.439   4.251   6.285
 5835SOL     OW18403   5.956   1.987   2.810
 5835SOL    HW118404   5.905   2.062   2.767
 5835SOL    HW218405   5.948   1.905   2.754
 5836SOL     OW18406   2.907   6.672   2.067
 5836SOL    HW118407   2.938   6.746   2.127
 5836SOL    HW218408   2.964   6.670   1.985
 5837SOL     OW18409   3.739   3.355   6.731
 5837SOL    HW118410   3.711   3.391   6.821
 5837SOL    HW218411   3.757   3.432   6.669
 5838SOL     OW18412   3.131   1.743   1.482
 5838SOL    HW118413   3.064   1.720   1.552
 5838SOL    HW218414   3.128   1.673   1.410
 5839SOL     OW18415   0.679   2.053   0.516
 5839SOL    HW118416   0.765   2.038   0.564
 5839SOL    HW218417   0.615   2.101   0.576
 5840SOL     OW18418   0.289   3.932   0.526
 5840SOL    HW118419   0.270   3.851   0.471
 5840SOL    HW218420   0.243   3.924   0.614
 5841SOL     OW18421   5.424   0.700   1.629
 5841SOL    HW118422   5.350   0.698   1.696
 5841SOL    HW218423   5.388   0.675   1.539
 5842SOL     OW18424   4.765   2.317   1.892
 5842SOL    HW118425   4.757   2.353   1.799
 5842SOL    HW218426   4.673   2.311   1.933
 5843SOL     OW18427   1.311   3.839   1.526
 5843SOL    HW118428   1.369   3.764   1.557
 5843SOL    HW218429   1.319   3.848   1.426
 5844SOL     OW18430   1.262   6.155   5.076
 5844SOL    HW118431   1.199   6.079   5.097
 5844SOL    HW218432   1.353   6.118   5.056
 5845SOL     OW18433   1.200   0.061   1.913
 5845SOL    HW118434   1.283   0.006   1.925
 5845SOL    HW218435   1.120   0.006   1.936
 5846SOL     OW18436   5.498   3.477   5.550
 5846SOL    HW118437   5.435   3.547   5.583
 5846SOL    HW218438   5.515   3.491   5.453
 5847SOL     OW18439   2.724   2.327   1.731
 5847SOL    HW118440   2.667   2.404   1.702
 5847SOL    HW218441   2.789   2.358   1.800
 5848SOL     OW18442   1.605   5.530   3.183
 5848SOL    HW118443   1.673   5.603   3.193
 5848SOL    HW218444   1.546   5.527   3.264
 5849SOL     OW18445   2.035   6.657   4.989
 5849SOL    HW118446   2.132   6.674   4.970
 5849SOL    HW218447   2.027   6.587   5.060
 5850SOL     OW18448   0.135   3.202   2.114
 5850SOL    HW118449   0.061   3.247   2.164
 5850SOL    HW218450   0.097   3.132   2.054
 5851SOL     OW18451   5.237   3.813   4.232
 5851SOL    HW118452   5.259   3.729   4.281
 5851SOL    HW218453   5.144   3.808   4.196
 5852SOL     OW18454   4.879   5.878   2.753
 5852SOL    HW118455   4.881   5.853   2.850
 5852SOL    HW218456   4.949   5.946   2.734
 5853SOL     OW18457   4.415   5.128   5.846
 5853SOL    HW118458   4.447   5.146   5.753
 5853SOL    HW218459   4.453   5.042   5.879
 5854SOL     OW18460   4.445   4.676   5.911
 5854SOL    HW118461   4.507   4.618   5.857
 5854SOL    HW218462   4.484   4.768   5.919
 5855SOL     OW18463   1.303   1.640   4.828
 5855SOL    HW118464   1.306   1.554   4.879
 5855SOL    HW218465   1.303   1.620   4.730
 5856SOL     OW18466   1.241   6.550   3.112
 5856SOL    HW118467   1.335   6.525   3.135
 5856SOL    HW218468   1.177   6.494   3.165
 5857SOL     OW18469   6.532   3.722   5.606
 5857SOL    HW118470   6.494   3.770   5.527
 5857SOL    HW218471   6.461   3.667   5.649
 5858SOL     OW18472   2.468   2.525   3.117
 5858SOL    HW118473   2.507   2.530   3.025
 5858SOL    HW218474   2.490   2.437   3.158
 5859SOL     OW18475   6.219   6.198   1.251
 5859SOL    HW118476   6.190   6.102   1.255
 5859SOL    HW218477   6.164   6.252   1.316
 5860SOL     OW18478   0.510   5.063   2.942
 5860SOL    HW118479   0.580   5.063   2.870
 5860SOL    HW218480   0.429   5.112   2.910
 5861SOL     OW18481   5.040   0.980   4.606
 5861SOL    HW118482   5.108   0.926   4.556
 5861SOL    HW218483   4.994   1.043   4.544
 5862SOL     OW18484   6.169   5.300   1.875
 5862SOL    HW118485   6.174   5.224   1.810
 5862SOL    HW218486   6.260   5.317   1.914
 5863SOL     OW18487   2.862   1.658   4.798
 5863SOL    HW118488   2.764   1.676   4.796
 5863SOL    HW218489   2.911   1.741   4.826
 5864SOL     OW18490   3.703   3.198   1.933
 5864SOL    HW118491   3.656   3.184   2.020
 5864SOL    HW218492   3.783   3.139   1.927
 5865SOL     OW18493   5.542   0.845   5.163
 5865SOL    HW118494   5.624   0.820   5.213
 5865SOL    HW218495   5.474   0.883   5.226
 5866SOL     OW18496   3.086   2.844   1.242
 5866SOL    HW118497   3.051   2.888   1.324
 5866SOL    HW218498   3.080   2.744   1.253
 5867SOL     OW18499   1.735   3.051   1.515
 5867SOL    HW118500   1.656   3.075   1.572
 5867SOL    HW218501   1.817   3.091   1.555
 5868SOL     OW18502   1.444   1.524   6.025
 5868SOL    HW118503   1.449   1.427   6.048
 5868SOL    HW218504   1.512   1.575   6.078
 5869SOL     OW18505   1.797   4.397   2.846
 5869SOL    HW118506   1.793   4.302   2.879
 5869SOL    HW218507   1.749   4.457   2.910
 5870SOL     OW18508   4.730   6.164   5.269
 5870SOL    HW118509   4.645   6.182   5.220
 5870SOL    HW218510   4.769   6.077   5.238
 5871SOL     OW18511   3.943   3.049   1.871
 5871SOL    HW118512   4.010   3.038   1.798
 5871SOL    HW218513   3.912   2.958   1.900
 5872SOL     OW18514   4.239   6.856   0.910
 5872SOL    HW118515   4.258   6.810   0.997
 5872SOL    HW218516   4.233   6.788   0.837
 5873SOL     OW18517   3.242   6.496   2.253
 5873SOL    HW118518   3.241   6.583   2.203
 5873SOL    HW218519   3.333   6.482   2.293
 5874SOL     OW18520   2.280   4.404   4.755
 5874SOL    HW118521   2.323   4.434   4.670
 5874SOL    HW218522   2.184   4.432   4.756
 5875SOL     OW18523   3.774   1.873   0.646
 5875SOL    HW118524   3.858   1.913   0.611
 5875SOL    HW218525   3.788   1.776   0.664
 5876SOL     OW18526   3.977   3.568   1.653
 5876SOL    HW118527   3.951   3.517   1.735
 5876SOL    HW218528   3.971   3.666   1.671
 5877SOL     OW18529   6.395   6.363   1.135
 5877SOL    HW118530   6.417   6.432   1.203
 5877SOL    HW218531   6.326   6.301   1.171
 5878SOL     OW18532   0.457   6.005   4.426
 5878SOL    HW118533   0.495   5.953   4.349
 5878SOL    HW218534   0.422   6.093   4.393
 5879SOL     OW18535   1.368   3.911   6.912
 5879SOL    HW118536   1.308   3.949   6.842
 5879SOL    HW218537   1.328   3.928   7.002
 5880SOL     OW18538   4.012   3.936   0.371
 5880SOL    HW118539   4.089   3.906   0.314
 5880SOL    HW218540   3.986   4.029   0.346
 5881SOL     OW18541   0.300   5.500   3.136
 5881SOL    HW118542   0.238   5.514   3.060
 5881SOL    HW218543   0.331   5.589   3.171
 5882SOL     OW18544   0.260   6.230   1.018
 5882SOL    HW118545   0.254   6.154   0.954
 5882SOL    HW218546   0.285   6.196   1.108
 5883SOL     OW18547   0.991   1.892   6.784
 5883SOL    HW118548   0.979   1.800   6.821
 5883SOL    HW218549   1.010   1.887   6.687
 5884SOL     OW18550   3.076   1.602   4.468
 5884SOL    HW118551   2.979   1.577   4.469
 5884SOL    HW218552   3.126   1.539   4.409
 5885SOL     OW18553   0.408   0.455   2.677
 5885SOL    HW118554   0.400   0.481   2.773
 5885SOL    HW218555   0.504   0.448   2.651
 5886SOL     OW18556   0.518   2.388   4.737
 5886SOL    HW118557   0.475   2.330   4.805
 5886SOL    HW218558   0.579   2.334   4.679
 5887SOL     OW18559   2.901   1.341   3.592
 5887SOL    HW118560   2.840   1.292   3.655
 5887SOL    HW218561   2.990   1.296   3.590
 5888SOL     OW18562   3.247   0.815   1.802
 5888SOL    HW118563   3.302   0.898   1.818
 5888SOL    HW218564   3.292   0.737   1.846
 5889SOL     OW18565   1.088   6.183   1.046
 5889SOL    HW118566   0.988   6.177   1.045
 5889SOL    HW218567   1.116   6.276   1.021
 5890SOL     OW18568   1.795   0.061   4.802
 5890SOL    HW118569   1.755   0.043   4.712
 5890SOL    HW218570   1.730   0.033   4.874
 5891SOL     OW18571   2.825   3.226   5.981
 5891SOL    HW118572   2.873   3.146   6.016
 5891SOL    HW218573   2.816   3.220   5.882
 5892SOL     OW18574   0.283   5.668   1.485
 5892SOL    HW118575   0.383   5.676   1.476
 5892SOL    HW218576   0.258   5.666   1.581
 5893SOL     OW18577   1.560   4.039   4.511
 5893SOL    HW118578   1.643   4.077   4.471
 5893SOL    HW218579   1.537   4.089   4.594
 5894SOL     OW18580   6.667   5.585   4.279
 5894SOL    HW118581   6.683   5.681   4.302
 5894SOL    HW218582   6.570   5.572   4.257
 5895SOL     OW18583   5.401   3.334   4.540
 5895SOL    HW118584   5.466   3.306   4.611
 5895SOL    HW218585   5.317   3.367   4.583
 5896SOL     OW18586   4.480   1.258   0.181
 5896SOL    HW118587   4.425   1.310   0.116
 5896SOL    HW218588   4.424   1.234   0.261
 5897SOL     OW18589   3.978   0.580   1.198
 5897SOL    HW118590   3.984   0.676   1.225
 5897SOL    HW218591   4.070   0.540   1.195
 5898SOL     OW18592   2.398   6.550   3.095
 5898SOL    HW118593   2.426   6.458   3.120
 5898SOL    HW218594   2.392   6.557   2.995
 5899SOL     OW18595   5.024   6.798   5.620
 5899SOL    HW118596   4.941   6.761   5.662
 5899SOL    HW218597   5.090   6.823   5.691
 5900SOL     OW18598   4.994   4.917   3.381
 5900SOL    HW118599   4.938   4.939   3.461
 5900SOL    HW218600   4.978   4.984   3.309
 5901SOL     OW18601   2.698   0.309   0.062
 5901SOL    HW118602   2.741   0.299   0.152
 5901SOL    HW218603   2.768   0.337   7.020
 5902SOL     OW18604   6.806   2.464   6.200
 5902SOL    HW118605   6.826   2.549   6.249
 5902SOL    HW218606   6.789   2.485   6.103
 5903SOL     OW18607   4.105   3.742   0.579
 5903SOL    HW118608   4.061   3.819   0.532
 5903SOL    HW218609   4.035   3.677   0.610
 5904SOL     OW18610   0.897   3.524   1.910
 5904SOL    HW118611   0.842   3.445   1.934
 5904SOL    HW218612   0.861   3.605   1.956
 5905SOL     OW18613   6.393   6.170   3.054
 5905SOL    HW118614   6.391   6.246   2.989
 5905SOL    HW218615   6.316   6.179   3.118
 5906SOL     OW18616   4.355   1.915   3.604
 5906SOL    HW118617   4.344   2.007   3.642
 5906SOL    HW218618   4.381   1.923   3.507
 5907SOL     OW18619   1.367   4.788   1.383
 5907SOL    HW118620   1.413   4.832   1.461
 5907SOL    HW218621   1.309   4.855   1.337
 5908SOL     OW18622   0.507   2.789   6.601
 5908SOL    HW118623   0.571   2.748   6.665
 5908SOL    HW218624   0.554   2.860   6.548
 5909SOL     OW18625   6.773   5.203   0.981
 5909SOL    HW118626   6.872   5.212   0.975
 5909SOL    HW218627   6.747   5.166   1.070
 5910SOL     OW18628   0.424   3.180   3.889
 5910SOL    HW118629   0.517   3.150   3.909
 5910SOL    HW218630   0.362   3.146   3.960
 5911SOL     OW18631   6.263   6.644   6.464
 5911SOL    HW118632   6.222   6.733   6.442
 5911SOL    HW218633   6.278   6.638   6.562
 5912SOL     OW18634   0.069   0.307   5.803
 5912SOL    HW118635   0.169   0.307   5.793
 5912SOL    HW218636   0.027   0.295   5.713
 5913SOL     OW18637   4.940   2.614   6.323
 5913SOL    HW118638   5.000   2.558   6.380
 5913SOL    HW218639   4.961   2.711   6.338
 5914SOL     OW18640   1.281   5.462   6.933
 5914SOL    HW118641   1.334   5.467   7.018
 5914SOL    HW218642   1.190   5.427   6.952
 5915SOL     OW18643   4.585   5.877   1.213
 5915SOL    HW118644   4.620   5.886   1.121
 5915SOL    HW218645   4.647   5.922   1.278
 5916SOL     OW18646   6.129   6.605   3.523
 5916SOL    HW118647   6.218   6.595   3.568
 5916SOL    HW218648   6.122   6.537   3.450
 5917SOL     OW18649   3.337   4.030   4.421
 5917SOL    HW118650   3.421   4.057   4.468
 5917SOL    HW218651   3.259   4.041   4.482
 5918SOL     OW18652   2.120   4.555   5.192
 5918SOL    HW118653   2.126   4.501   5.276
 5918SOL    HW218654   2.194   4.529   5.130
 5919SOL     OW18655   3.569   2.899   3.188
 5919SOL    HW118656   3.664   2.881   3.160
 5919SOL    HW218657   3.550   2.851   3.273
 5920SOL     OW18658   4.874   0.745   6.333
 5920SOL    HW118659   4.882   0.790   6.244
 5920SOL    HW218660   4.957   0.693   6.352
 5921SOL     OW18661   4.168   5.060   6.591
 5921SOL    HW118662   4.068   5.056   6.589
 5921SOL    HW218663   4.205   4.968   6.582
 5922SOL     OW18664   5.817   3.477   4.084
 5922SOL    HW118665   5.785   3.524   4.166
 5922SOL    HW218666   5.745   3.476   4.015
 5923SOL     OW18667   0.044   1.783   1.681
 5923SOL    HW118668   6.999   1.744   1.743
 5923SOL    HW218669   0.000   1.811   1.596
 5924SOL     OW18670   6.392   0.121   2.654
 5924SOL    HW118671   6.364   0.047   2.715
 5924SOL    HW218672   6.427   0.197   2.709
 5925SOL     OW18673   3.858   6.610   1.527
 5925SOL    HW118674   3.760   6.618   1.513
 5925SOL    HW218675   3.879   6.519   1.562
 5926SOL     OW18676   3.583   4.996   2.642
 5926SOL    HW118677   3.678   4.966   2.651
 5926SOL    HW218678   3.550   4.974   2.551
 5927SOL     OW18679   0.998   5.036   2.311
 5927SOL    HW118680   0.986   5.135   2.302
 5927SOL    HW218681   0.923   4.998   2.364
 5928SOL     OW18682   3.261   6.745   0.924
 5928SOL    HW118683   3.184   6.768   0.983
 5928SOL    HW218684   3.346   6.776   0.967
 5929SOL     OW18685   6.100   0.831   6.178
 5929SOL    HW118686   6.200   0.823   6.187
 5929SOL    HW218687   6.076   0.825   6.081
 5930SOL     OW18688   6.896   3.956   3.412
 5930SOL    HW118689   6.847   3.938   3.327
 5930SOL    HW218690   6.941   3.873   3.443
 5931SOL     OW18691   6.448   6.724   2.699
 5931SOL    HW118692   6.512   6.719   2.776
 5931SOL    HW218693   6.492   6.772   2.622
 5932SOL     OW18694   3.458   7.008   0.547
 5932SOL    HW118695   3.427   6.943   0.477
 5932SOL    HW218696   3.475   0.073   0.505
 5933SOL     OW18697   6.454   5.077   4.207
 5933SOL    HW118698   6.355   5.063   4.201
 5933SOL    HW218699   6.476   5.115   4.297
 5934SOL     OW18700   3.624   2.871   5.171
 5934SOL    HW118701   3.596   2.785   5.215
 5934SOL    HW218702   3.571   2.947   5.209
 5935SOL     OW18703   0.026   5.222   6.359
 5935SOL    HW118704   6.965   5.227   6.306
 5935SOL    HW218705   0.044   5.310   6.402
 5936SOL     OW18706   3.325   2.873   1.426
 5936SOL    HW118707   3.249   2.860   1.364
 5936SOL    HW218708   3.294   2.862   1.521
 5937SOL     OW18709   5.984   3.459   1.712
 5937SOL    HW118710   5.974   3.559   1.711
 5937SOL    HW218711   5.903   3.418   1.755
 5938SOL     OW18712   6.346   5.568   3.652
 5938SOL    HW118713   6.256   5.606   3.677
 5938SOL    HW218714   6.401   5.555   3.735
 5939SOL     OW18715   1.929   5.585   3.372
 5939SOL    HW118716   1.851   5.646   3.388
 5939SOL    HW218717   2.005   5.638   3.335
 5940SOL     OW18718   4.715   5.254   2.749
 5940SOL    HW118719   4.779   5.196   2.699
 5940SOL    HW218720   4.759   5.341   2.772
 5941SOL     OW18721   5.942   3.597   2.329
 5941SOL    HW118722   5.844   3.618   2.323
 5941SOL    HW218723   5.980   3.591   2.237
 5942SOL     OW18724   4.947   3.602   6.800
 5942SOL    HW118725   4.909   3.571   6.712
 5942SOL    HW218726   4.876   3.650   6.851
 5943SOL     OW18727   3.251   3.922   6.073
 5943SOL    HW118728   3.282   3.830   6.049
 5943SOL    HW218729   3.289   3.988   6.008
 5944SOL     OW18730   6.920   2.256   6.916
 5944SOL    HW118731   6.967   2.235   6.830
 5944SOL    HW218732   6.904   2.171   6.966
 5945SOL     OW18733   6.646   4.705   4.907
 5945SOL    HW118734   6.679   4.683   4.815
 5945SOL    HW218735   6.571   4.643   4.931
 5946SOL     OW18736   3.347   3.669   5.962
 5946SOL    HW118737   3.433   3.676   5.912
 5946SOL    HW218738   3.271   3.683   5.899
 5947SOL     OW18739   3.891   3.497   3.124
 5947SOL    HW118740   3.892   3.413   3.069
 5947SOL    HW218741   3.985   3.525   3.144
 5948SOL     OW18742   4.007   4.828   2.942
 5948SOL    HW118743   4.056   4.907   2.905
 5948SOL    HW218744   4.061   4.745   2.928
 5949SOL     OW18745   5.155   4.291   1.676
 5949SOL    HW118746   5.252   4.311   1.691
 5949SOL    HW218747   5.109   4.283   1.764
 5950SOL     OW18748   5.530   1.537   5.005
 5950SOL    HW118749   5.463   1.597   4.962
 5950SOL    HW218750   5.572   1.479   4.935
 5951SOL     OW18751   1.575   5.174   4.478
 5951SOL    HW118752   1.503   5.235   4.445
 5951SOL    HW218753   1.536   5.083   4.493
 5952SOL     OW18754   5.304   5.608   3.624
 5952SOL    HW118755   5.224   5.666   3.608
 5952SOL    HW218756   5.342   5.628   3.714
 5953SOL     OW18757   6.701   4.051   5.023
 5953SOL    HW118758   6.674   4.005   4.939
 5953SOL    HW218759   6.752   3.988   5.081
 5954SOL     OW18760   6.134   5.572   5.680
 5954SOL    HW118761   6.090   5.559   5.591
 5954SOL    HW218762   6.138   5.669   5.701
 5955SOL     OW18763   4.255   5.308   1.899
 5955SOL    HW118764   4.265   5.213   1.872
 5955SOL    HW218765   4.313   5.327   1.978
 5956SOL     OW18766   5.066   2.357   4.208
 5956SOL    HW118767   4.993   2.295   4.239
 5956SOL    HW218768   5.047   2.449   4.242
 5957SOL     OW18769   3.191   0.899   4.695
 5957SOL    HW118770   3.167   0.952   4.613
 5957SOL    HW218771   3.237   0.814   4.667
 5958SOL     OW18772   4.469   0.232   2.920
 5958SOL    HW118773   4.493   0.136   2.908
 5958SOL    HW218774   4.396   0.256   2.856
 5959SOL     OW18775   4.462   2.820   5.551
 5959SOL    HW118776   4.406   2.776   5.481
 5959SOL    HW218777   4.542   2.861   5.509
 5960SOL     OW18778   4.025   5.535   5.140
 5960SOL    HW118779   3.994   5.564   5.050
 5960SOL    HW218780   4.049   5.438   5.138
 5961SOL     OW18781   4.595   2.146   3.042
 5961SOL    HW118782   4.499   2.140   3.013
 5961SOL    HW218783   4.655   2.129   2.964
 5962SOL     OW18784   5.962   6.351   6.763
 5962SOL    HW118785   5.910   6.423   6.719
 5962SOL    HW218786   6.055   6.348   6.725
 5963SOL     OW18787   3.091   3.546   6.300
 5963SOL    HW118788   3.132   3.590   6.380
 5963SOL    HW218789   3.157   3.549   6.224
 5964SOL     OW18790   1.353   6.912   4.958
 5964SOL    HW118791   1.347   6.863   5.045
 5964SOL    HW218792   1.262   6.945   4.931
 5965SOL     OW18793   1.821   1.589   6.943
 5965SOL    HW118794   1.895   1.605   7.008
 5965SOL    HW218795   1.782   1.676   6.914
 5966SOL     OW18796   2.719   6.003   6.237
 5966SOL    HW118797   2.622   5.988   6.253
 5966SOL    HW218798   2.731   6.071   6.165
 5967SOL     OW18799   2.762   0.215   6.034
 5967SOL    HW118800   2.732   0.258   5.949
 5967SOL    HW218801   2.719   0.125   6.042
 5968SOL     OW18802   5.348   2.262   0.365
 5968SOL    HW118803   5.438   2.230   0.392
 5968SOL    HW218804   5.303   2.307   0.442
 5969SOL     OW18805   5.983   0.337   6.780
 5969SOL    HW118806   5.964   0.426   6.823
 5969SOL    HW218807   6.059   0.346   6.716
 5970SOL     OW18808   0.065   4.458   2.412
 5970SOL    HW118809   7.003   4.455   2.362
 5970SOL    HW218810   0.139   4.424   2.353
 5971SOL     OW18811   0.114   1.075   2.024
 5971SOL    HW118812   0.119   1.106   2.119
 5971SOL    HW218813   0.023   1.094   1.987
 5972SOL     OW18814   4.829   6.156   6.583
 5972SOL    HW118815   4.735   6.134   6.606
 5972SOL    HW218816   4.888   6.076   6.601
 5973SOL     OW18817   1.809   3.051   1.846
 5973SOL    HW118818   1.866   3.052   1.928
 5973SOL    HW218819   1.750   2.971   1.847
 5974SOL     OW18820   5.482   5.817   0.397
 5974SOL    HW118821   5.452   5.885   0.463
 5974SOL    HW218822   5.435   5.833   0.309
 5975SOL     OW18823   3.841   6.811   0.840
 5975SOL    HW118824   3.884   6.741   0.783
 5975SOL    HW218825   3.751   6.834   0.803
 5976SOL     OW18826   3.857   2.620   6.006
 5976SOL    HW118827   3.847   2.678   6.086
 5976SOL    HW218828   3.868   2.676   5.924
 5977SOL     OW18829   1.189   6.431   0.901
 5977SOL    HW118830   1.195   6.507   0.967
 5977SOL    HW218831   1.263   6.366   0.920
 5978SOL     OW18832   3.704   5.523   0.997
 5978SOL    HW118833   3.791   5.567   1.015
 5978SOL    HW218834   3.695   5.507   0.898
 5979SOL     OW18835   6.547   0.636   2.978
 5979SOL    HW118836   6.492   0.619   3.060
 5979SOL    HW218837   6.516   0.576   2.904
 5980SOL     OW18838   4.034   3.993   1.577
 5980SOL    HW118839   4.021   3.949   1.488
 5980SOL    HW218840   3.982   4.078   1.579
 5981SOL     OW18841   5.070   1.839   0.591
 5981SOL    HW118842   5.074   1.786   0.676
 5981SOL    HW218843   5.154   1.824   0.539
 5982SOL     OW18844   6.465   2.075   2.099
 5982SOL    HW118845   6.528   2.018   2.152
 5982SOL    HW218846   6.387   2.101   2.156
 5983SOL     OW18847   1.171   1.104   4.149
 5983SOL    HW118848   1.078   1.134   4.129
 5983SOL    HW218849   1.189   1.112   4.247
 5984SOL     OW18850   5.626   6.130   3.568
 5984SOL    HW118851   5.692   6.063   3.604
 5984SOL    HW218852   5.541   6.083   3.545
 5985SOL     OW18853   6.745   3.158   3.848
 5985SOL    HW118854   6.842   3.166   3.827
 5985SOL    HW218855   6.710   3.070   3.814
 5986SOL     OW18856   3.004   3.968   4.897
 5986SOL    HW118857   2.987   3.873   4.870
 5986SOL    HW218858   2.952   4.029   4.838
 5987SOL     OW18859   5.725   0.427   4.263
 5987SOL    HW118860   5.698   0.466   4.175
 5987SOL    HW218861   5.718   0.497   4.335
 5988SOL     OW18862   4.404   0.920   5.514
 5988SOL    HW118863   4.478   0.916   5.447
 5988SOL    HW218864   4.441   0.901   5.606
 5989SOL     OW18865   1.959   5.907   6.409
 5989SOL    HW118866   1.998   5.992   6.374
 5989SOL    HW218867   1.935   5.847   6.332
 5990SOL     OW18868   3.472   3.387   0.762
 5990SOL    HW118869   3.381   3.364   0.727
 5990SOL    HW218870   3.538   3.320   0.730
 5991SOL     OW18871   4.275   5.488   0.093
 5991SOL    HW118872   4.202   5.421   0.078
 5991SOL    HW218873   4.272   5.557   0.021
 5992SOL     OW18874   3.408   7.012   1.988
 5992SOL    HW118875   3.402   0.083   2.019
 5992SOL    HW218876   3.318   6.969   1.997
 5993SOL     OW18877   3.902   4.030   5.861
 5993SOL    HW118878   3.854   3.947   5.891
 5993SOL    HW218879   3.839   4.107   5.862
 5994SOL     OW18880   6.584   2.222   0.275
 5994SOL    HW118881   6.558   2.156   0.346
 5994SOL    HW218882   6.684   2.221   0.264
 5995SOL     OW18883   4.805   3.134   2.413
 5995SOL    HW118884   4.786   3.036   2.410
 5995SOL    HW218885   4.822   3.168   2.320
 5996SOL     OW18886   0.227   6.673   0.774
 5996SOL    HW118887   0.159   6.642   0.707
 5996SOL    HW218888   0.300   6.722   0.727
 5997SOL     OW18889   0.362   5.068   2.609
 5997SOL    HW118890   0.278   5.013   2.618
 5997SOL    HW218891   0.382   5.112   2.696
 5998SOL     OW18892   6.345   1.852   2.265
 5998SOL    HW118893   6.334   1.877   2.169
 5998SOL    HW218894   6.345   1.753   2.274
 5999SOL     OW18895   2.948   3.027   1.835
 5999SOL    HW118896   3.018   2.958   1.851
 5999SOL    HW218897   2.989   3.118   1.844
 6000SOL     OW18898   2.230   6.192   6.748
 6000SOL    HW118899   2.154   6.256   6.759
 6000SOL    HW218900   2.215   6.111   6.804
 6001SOL     OW18901   6.781   5.026   0.156
 6001SOL    HW118902   6.773   4.964   0.079
 6001SOL    HW218903   6.835   5.106   0.128
 6002SOL     OW18904   5.659   0.281   0.162
 6002SOL    HW118905   5.662   0.213   0.088
 6002SOL    HW218906   5.742   0.273   0.218
 6003SOL     OW18907   5.370   2.188   4.923
 6003SOL    HW118908   5.347   2.189   5.020
 6003SOL    HW218909   5.396   2.095   4.896
 6004SOL     OW18910   6.952   3.851   2.678
 6004SOL    HW118911   6.853   3.868   2.682
 6004SOL    HW218912   6.969   3.764   2.631
 6005SOL     OW18913   5.168   5.550   4.661
 6005SOL    HW118914   5.133   5.521   4.572
 6005SOL    HW218915   5.155   5.477   4.728
 6006SOL     OW18916   2.315   0.528   5.690
 6006SOL    HW118917   2.294   0.519   5.787
 6006SOL    HW218918   2.266   0.606   5.652
 6007SOL     OW18919   5.843   3.942   5.582
 6007SOL    HW118920   5.817   3.892   5.666
 6007SOL    HW218921   5.932   3.909   5.550
 6008SOL     OW18922   2.638   5.246   5.397
 6008SOL    HW118923   2.601   5.239   5.305
 6008SOL    HW218924   2.709   5.318   5.399
 6009SOL     OW18925   2.984   0.556   3.228
 6009SOL    HW118926   2.943   0.572   3.317
 6009SOL    HW218927   3.001   0.643   3.182
 6010SOL     OW18928   1.214   5.389   3.682
 6010SOL    HW118929   1.299   5.440   3.687
 6010SOL    HW218930   1.166   5.393   3.770
 6011SOL     OW18931   6.167   2.884   3.601
 6011SOL    HW118932   6.264   2.902   3.617
 6011SOL    HW218933   6.157   2.791   3.566
 6012SOL     OW18934   5.846   1.020   0.856
 6012SOL    HW118935   5.853   1.111   0.897
 6012SOL    HW218936   5.801   1.026   0.768
 6013SOL     OW18937   5.264   0.860   2.977
 6013SOL    HW118938   5.339   0.918   3.009
 6013SOL    HW218939   5.195   0.853   3.049
 6014SOL     OW18940   3.685   3.943   3.266
 6014SOL    HW118941   3.601   3.993   3.248
 6014SOL    HW218942   3.676   3.849   3.232
 6015SOL     OW18943   5.450   4.042   4.285
 6015SOL    HW118944   5.383   3.981   4.242
 6015SOL    HW218945   5.405   4.126   4.315
 6016SOL     OW18946   6.554   2.560   5.882
 6016SOL    HW118947   6.639   2.596   5.843
 6016SOL    HW218948   6.505   2.508   5.813
 6017SOL     OW18949   6.335   4.942   3.296
 6017SOL    HW118950   6.413   4.945   3.358
 6017SOL    HW218951   6.339   4.859   3.241
 6018SOL     OW18952   3.544   1.097   6.424
 6018SOL    HW118953   3.537   1.093   6.324
 6018SOL    HW218954   3.575   1.008   6.459
 6019SOL     OW18955   1.011   2.888   4.687
 6019SOL    HW118956   0.935   2.825   4.669
 6019SOL    HW218957   0.985   2.952   4.759
 6020SOL     OW18958   0.476   5.134   0.292
 6020SOL    HW118959   0.484   5.110   0.389
 6020SOL    HW218960   0.381   5.121   0.262
 6021SOL     OW18961   4.759   1.065   3.139
 6021SOL    HW118962   4.694   1.140   3.147
 6021SOL    HW218963   4.754   1.025   3.047
 6022SOL     OW18964   6.615   1.818   3.497
 6022SOL    HW118965   6.546   1.746   3.488
 6022SOL    HW218966   6.576   1.895   3.548
 6023SOL     OW18967   5.973   1.243   1.666
 6023SOL    HW118968   6.039   1.213   1.735
 6023SOL    HW218969   6.011   1.227   1.575
 6024SOL     OW18970   1.391   4.348   1.955
 6024SOL    HW118971   1.391   4.447   1.960
 6024SOL    HW218972   1.484   4.313   1.961
 6025SOL     OW18973   3.116   1.642   3.527
 6025SOL    HW118974   3.167   1.608   3.448
 6025SOL    HW218975   3.067   1.726   3.501
 6026SOL     OW18976   6.955   5.137   5.828
 6026SOL    HW118977   6.891   5.171   5.897
 6026SOL    HW218978   6.917   5.152   5.737
 6027SOL     OW18979   0.270   3.517   5.735
 6027SOL    HW118980   0.325   3.572   5.673
 6027SOL    HW218981   0.243   3.572   5.814
 6028SOL     OW18982   5.947   4.751   0.966
 6028SOL    HW118983   5.929   4.841   0.927
 6028SOL    HW218984   6.045   4.733   0.966
 6029SOL     OW18985   2.519   6.618   4.439
 6029SOL    HW118986   2.430   6.573   4.452
 6029SOL    HW218987   2.555   6.594   4.349
 6030SOL     OW18988   4.253   5.022   2.739
 6030SOL    HW118989   4.332   5.059   2.690
 6030SOL    HW218990   4.181   5.092   2.742
 6031SOL     OW18991   3.549   5.635   4.572
 6031SOL    HW118992   3.469   5.629   4.632
 6031SOL    HW218993   3.543   5.718   4.517
 6032SOL     OW18994   2.040   4.629   2.048
 6032SOL    HW118995   1.990   4.585   2.122
 6032SOL    HW218996   2.138   4.632   2.072
 6033SOL     OW18997   2.525   2.511   3.396
 6033SOL    HW118998   2.596   2.443   3.415
 6033SOL    HW218999   2.523   2.530   3.297
 6034SOL     OW19000   1.258   0.604   5.350
 6034SOL    HW119001   1.274   0.589   5.253
 6034SOL    HW219002   1.320   0.674   5.384
 6035SOL     OW19003   1.341   1.302   2.190
 6035SOL    HW119004   1.370   1.375   2.128
 6035SOL    HW219005   1.422   1.258   2.230
 6036SOL     OW19006   4.941   5.291   2.980
 6036SOL    HW119007   4.994   5.376   2.980
 6036SOL    HW219008   4.952   5.244   2.893
 6037SOL     OW19009   3.814   6.764   0.469
 6037SOL    HW119010   3.857   6.677   0.493
 6037SOL    HW219011   3.871   6.840   0.502
 6038SOL     OW19012   1.547   2.995   6.003
 6038SOL    HW119013   1.571   2.899   6.015
 6038SOL    HW219014   1.463   3.015   6.054
 6039SOL     OW19015   4.075   3.277   2.670
 6039SOL    HW119016   4.091   3.184   2.640
 6039SOL    HW219017   4.066   3.337   2.590
 6040SOL     OW19018   1.678   2.567   1.128
 6040SOL    HW119019   1.676   2.498   1.201
 6040SOL    HW219020   1.623   2.536   1.051
 6041SOL     OW19021   2.791   1.035   5.208
 6041SOL    HW119022   2.873   1.076   5.248
 6041SOL    HW219023   2.720   1.027   5.278
 6042SOL     OW19024   4.340   6.614   2.524
 6042SOL    HW119025   4.290   6.634   2.609
 6042SOL    HW219026   4.305   6.529   2.485
 6043SOL     OW19027   0.958   6.226   5.130
 6043SOL    HW119028   0.919   6.292   5.064
 6043SOL    HW219029   0.968   6.137   5.085
 6044SOL     OW19030   1.439   2.743   1.379
 6044SOL    HW119031   1.412   2.738   1.282
 6044SOL    HW219032   1.407   2.661   1.426
 6045SOL     OW19033   6.092   3.709   2.908
 6045SOL    HW119034   6.142   3.794   2.890
 6045SOL    HW219035   5.997   3.730   2.930
 6046SOL     OW19036   3.444   2.561   1.270
 6046SOL    HW119037   3.388   2.641   1.295
 6046SOL    HW219038   3.402   2.514   1.192
 6047SOL     OW19039   5.274   2.001   1.880
 6047SOL    HW119040   5.374   1.994   1.886
 6047SOL    HW219041   5.237   1.915   1.845
 6048SOL     OW19042   4.612   5.106   5.346
 6048SOL    HW119043   4.646   5.135   5.435
 6048SOL    HW219044   4.602   5.186   5.287
 6049SOL     OW19045   4.637   3.538   0.013
 6049SOL    HW119046   4.554   3.532   0.068
 6049SOL    HW219047   4.716   3.553   0.073
 6050SOL     OW19048   3.216   4.506   5.958
 6050SOL    HW119049   3.260   4.595   5.954
 6050SOL    HW219050   3.125   4.512   5.917
 6051SOL     OW19051   1.674   0.374   3.429
 6051SOL    HW119052   1.726   0.447   3.474
 6051SOL    HW219053   1.667   0.393   3.331
 6052SOL     OW19054   5.715   1.483   1.395
 6052SOL    HW119055   5.616   1.501   1.393
 6052SOL    HW219056   5.730   1.384   1.401
 6053SOL     OW19057   4.339   1.339   6.367
 6053SOL    HW119058   4.255   1.386   6.394
 6053SOL    HW219059   4.413   1.366   6.428
 6054SOL     OW19060   2.839   2.788   6.981
 6054SOL    HW119061   2.906   2.828   6.918
 6054SOL    HW219062   2.749   2.825   6.962
 6055SOL     OW19063   5.293   6.909   5.244
 6055SOL    HW119064   5.337   6.854   5.173
 6055SOL    HW219065   5.300   7.006   5.220
 6056SOL     OW19066   5.016   3.207   4.967
 6056SOL    HW119067   4.987   3.202   5.063
 6056SOL    HW219068   5.057   3.297   4.950
 6057SOL     OW19069   0.173   1.093   2.623
 6057SOL    HW119070   0.198   1.176   2.672
 6057SOL    HW219071   0.076   1.073   2.638
 6058SOL     OW19072   4.864   3.830   1.786
 6058SOL    HW119073   4.835   3.749   1.736
 6058SOL    HW219074   4.784   3.883   1.813
 6059SOL     OW19075   5.158   5.671   6.724
 6059SOL    HW119076   5.079   5.643   6.670
 6059SOL    HW219077   5.227   5.710   6.664
 6060SOL     OW19078   3.048   3.386   6.015
 6060SOL    HW119079   3.108   3.331   6.073
 6060SOL    HW219080   2.960   3.339   6.004
 6061SOL     OW19081   4.837   3.487   0.809
 6061SOL    HW119082   4.750   3.460   0.767
 6061SOL    HW219083   4.821   3.558   0.877
 6062SOL     OW19084   2.580   1.475   5.681
 6062SOL    HW119085   2.578   1.561   5.630
 6062SOL    HW219086   2.581   1.495   5.779
 6063SOL     OW19087   4.734   2.383   6.381
 6063SOL    HW119088   4.663   2.342   6.324
 6063SOL    HW219089   4.733   2.482   6.370
 6064SOL     OW19090   1.144   0.219   1.235
 6064SOL    HW119091   1.141   0.119   1.238
 6064SOL    HW219092   1.168   0.254   1.325
 6065SOL     OW19093   1.008   6.334   2.996
 6065SOL    HW119094   0.911   6.309   2.997
 6065SOL    HW219095   1.046   6.326   3.088
 6066SOL     OW19096   4.947   1.707   5.183
 6066SOL    HW119097   4.976   1.631   5.125
 6066SOL    HW219098   5.027   1.757   5.215
 6067SOL     OW19099   5.584   0.639   6.011
 6067SOL    HW119100   5.490   0.669   6.027
 6067SOL    HW219101   5.645   0.718   6.013
 6068SOL     OW19102   4.642   2.742   4.722
 6068SOL    HW119103   4.737   2.747   4.754
 6068SOL    HW219104   4.598   2.831   4.734
 6069SOL     OW19105   5.865   2.969   5.024
 6069SOL    HW119106   5.911   2.959   4.935
 6069SOL    HW219107   5.869   3.065   5.053
 6070SOL     OW19108   2.997   2.062   1.499
 6070SOL    HW119109   2.954   2.041   1.412
 6070SOL    HW219110   3.065   1.992   1.520
 6071SOL     OW19111   6.215   5.695   5.406
 6071SOL    HW119112   6.196   5.793   5.402
 6071SOL    HW219113   6.133   5.645   5.435
 6072SOL     OW19114   6.938   0.219   1.991
 6072SOL    HW119115   6.860   0.271   1.956
 6072SOL    HW219116   6.961   0.146   1.927
 6073SOL     OW19117   5.547   2.996   0.674
 6073SOL    HW119118   5.498   3.029   0.594
 6073SOL    HW219119   5.639   2.967   0.647
 6074SOL     OW19120   1.022   5.739   2.063
 6074SOL    HW119121   1.081   5.659   2.051
 6074SOL    HW219122   0.943   5.732   2.002
 6075SOL     OW19123   4.792   0.437   5.920
 6075SOL    HW119124   4.887   0.470   5.925
 6075SOL    HW219125   4.735   0.507   5.878
 6076SOL     OW19126   3.389   5.498   3.471
 6076SOL    HW119127   3.457   5.539   3.410
 6076SOL    HW219128   3.393   5.544   3.560
 6077SOL     OW19129   6.585   4.945   1.030
 6077SOL    HW119130   6.578   5.033   1.077
 6077SOL    HW219131   6.563   4.872   1.094
 6078SOL     OW19132   4.975   5.315   0.369
 6078SOL    HW119133   5.065   5.354   0.386
 6078SOL    HW219134   4.924   5.373   0.305
 6079SOL     OW19135   4.407   3.583   5.826
 6079SOL    HW119136   4.438   3.498   5.868
 6079SOL    HW219137   4.345   3.631   5.889
 6080SOL     OW19138   0.007   5.969   0.953
 6080SOL    HW119139   6.982   5.885   0.979
 6080SOL    HW219140   0.049   5.956   0.864
 6081SOL     OW19141   6.647   2.756   5.088
 6081SOL    HW119142   6.657   2.696   5.008
 6081SOL    HW219143   6.670   2.850   5.061
 6082SOL     OW19144   2.767   0.732   3.432
 6082SOL    HW119145   2.800   0.696   3.519
 6082SOL    HW219146   2.831   0.802   3.399
 6083SOL     OW19147   6.135   5.835   0.430
 6083SOL    HW119148   6.205   5.799   0.491
 6083SOL    HW219149   6.146   5.795   0.339
 6084SOL     OW19150   0.974   6.641   3.278
 6084SOL    HW119151   0.919   6.595   3.208
 6084SOL    HW219152   0.915   6.671   3.353
 6085SOL     OW19153   6.943   6.857   0.171
 6085SOL    HW119154   0.004   6.816   0.205
 6085SOL    HW219155   6.958   6.893   0.079
 6086SOL     OW19156   3.013   1.322   5.569
 6086SOL    HW119157   3.059   1.319   5.658
 6086SOL    HW219158   2.977   1.415   5.554
 6087SOL     OW19159   3.834   6.042   1.042
 6087SOL    HW119160   3.916   6.095   1.067
 6087SOL    HW219161   3.809   6.063   0.948
 6088SOL     OW19162   5.070   6.421   4.692
 6088SOL    HW119163   5.109   6.341   4.738
 6088SOL    HW219164   5.140   6.491   4.681
 6089SOL     OW19165   5.613   2.661   2.572
 6089SOL    HW119166   5.569   2.574   2.591
 6089SOL    HW219167   5.683   2.679   2.642
 6090SOL     OW19168   2.353   5.497   4.572
 6090SOL    HW119169   2.434   5.555   4.582
 6090SOL    HW219170   2.275   5.553   4.544
 6091SOL     OW19171   1.815   1.433   0.346
 6091SOL    HW119172   1.867   1.507   0.390
 6091SOL    HW219173   1.767   1.470   0.266
 6092SOL     OW19174   4.538   0.664   2.781
 6092SOL    HW119175   4.615   0.621   2.828
 6092SOL    HW219176   4.467   0.596   2.765
 6093SOL     OW19177   2.127   3.009   1.957
 6093SOL    HW119178   2.062   3.019   2.032
 6093SOL    HW219179   2.150   3.099   1.920
 6094SOL     OW19180   1.707   5.916   2.615
 6094SOL    HW119181   1.730   5.892   2.709
 6094SOL    HW219182   1.750   6.004   2.592
 6095SOL     OW19183   5.130   4.562   0.280
 6095SOL    HW119184   5.169   4.474   0.307
 6095SOL    HW219185   5.203   4.627   0.261
 6096SOL     OW19186   6.308   6.930   3.813
 6096SOL    HW119187   6.342   6.838   3.832
 6096SOL    HW219188   6.295   6.941   3.714
 6097SOL     OW19189   1.965   5.577   2.016
 6097SOL    HW119190   1.971   5.480   2.038
 6097SOL    HW219191   2.033   5.627   2.069
 6098SOL     OW19192   0.579   1.554   5.159
 6098SOL    HW119193   0.661   1.542   5.215
 6098SOL    HW219194   0.528   1.469   5.155
 6099SOL     OW19195   5.425   6.394   0.119
 6099SOL    HW119196   5.413   6.297   0.140
 6099SOL    HW219197   5.522   6.417   0.122
 6100SOL     OW19198   5.612   6.419   1.518
 6100SOL    HW119199   5.647   6.374   1.436
 6100SOL    HW219200   5.583   6.349   1.585
 6101SOL     OW19201   0.014   2.982   3.528
 6101SOL    HW119202   0.047   3.076   3.535
 6101SOL    HW219203   7.016   2.948   3.620
 6102SOL     OW19204   3.269   5.836   3.059
 6102SOL    HW119205   3.200   5.770   3.087
 6102SOL    HW219206   3.315   5.804   2.976
 6103SOL     OW19207   6.403   1.824   1.813
 6103SOL    HW119208   6.485   1.779   1.850
 6103SOL    HW219209   6.428   1.914   1.777
 6104SOL     OW19210   5.304   0.604   5.746
 6104SOL    HW119211   5.289   0.697   5.714
 6104SOL    HW219212   5.240   0.542   5.700
 6105SOL     OW19213   3.325   5.692   6.894
 6105SOL    HW119214   3.251   5.725   6.953
 6105SOL    HW219215   3.360   5.767   6.839
 6106SOL     OW19216   1.151   4.784   6.191
 6106SOL    HW119217   1.084   4.772   6.265
 6106SOL    HW219218   1.116   4.741   6.107
 6107SOL     OW19219   4.297   6.090   5.020
 6107SOL    HW119220   4.376   6.150   5.003
 6107SOL    HW219221   4.327   5.995   5.019
 6108SOL     OW19222   2.287   2.826   2.091
 6108SOL    HW119223   2.220   2.859   2.024
 6108SOL    HW219224   2.300   2.896   2.161
 6109SOL     OW19225   5.781   1.872   5.078
 6109SOL    HW119226   5.869   1.827   5.063
 6109SOL    HW219227   5.764   1.879   5.176
 6110SOL     OW19228   3.236   3.912   1.112
 6110SOL    HW119229   3.237   3.823   1.068
 6110SOL    HW219230   3.186   3.906   1.199
 6111SOL     OW19231   1.371   3.339   2.716
 6111SOL    HW119232   1.379   3.240   2.701
 6111SOL    HW219233   1.298   3.376   2.659
 6112SOL     OW19234   2.804   0.275   2.864
 6112SOL    HW119235   2.792   0.317   2.773
 6112SOL    HW219236   2.807   0.176   2.855
 6113SOL     OW19237   3.208   2.522   6.160
 6113SOL    HW119238   3.202   2.423   6.171
 6113SOL    HW219239   3.296   2.555   6.195
 6114SOL     OW19240   4.986   4.763   2.154
 6114SOL    HW119241   5.049   4.730   2.224
 6114SOL    HW219242   5.030   4.756   2.064
 6115SOL     OW19243   5.950   0.811   4.075
 6115SOL    HW119244   6.033   0.769   4.111
 6115SOL    HW219245   5.915   0.755   3.999
 6116SOL     OW19246   4.331   1.545   6.149
 6116SOL    HW119247   4.274   1.597   6.212
 6116SOL    HW219248   4.424   1.539   6.184
 6117SOL     OW19249   1.356   1.155   3.386
 6117SOL    HW119250   1.264   1.135   3.418
 6117SOL    HW219251   1.385   1.244   3.421
 6118SOL     OW19252   7.012   1.139   1.601
 6118SOL    HW119253   6.939   1.181   1.548
 6118SOL    HW219254   6.996   1.152   1.698
 6119SOL     OW19255   1.006   3.974   0.027
 6119SOL    HW119256   1.031   3.878   0.040
 6119SOL    HW219257   1.026   4.001   6.957
 6120SOL     OW19258   3.792   6.158   5.462
 6120SOL    HW119259   3.870   6.107   5.427
 6120SOL    HW219260   3.734   6.098   5.517
 6121SOL     OW19261   0.649   3.604   5.015
 6121SOL    HW119262   0.732   3.549   5.007
 6121SOL    HW219263   0.577   3.550   5.060
 6122SOL     OW19264   4.501   5.273   0.586
 6122SOL    HW119265   4.555   5.357   0.587
 6122SOL    HW219266   4.542   5.206   0.648
 6123SOL     OW19267   5.290   0.022   6.178
 6123SOL    HW119268   5.216   0.069   6.129
 6123SOL    HW219269   5.262   0.007   6.273
 6124SOL     OW19270   1.663   6.662   5.687
 6124SOL    HW119271   1.678   6.596   5.760
 6124SOL    HW219272   1.749   6.678   5.638
 6125SOL     OW19273   2.139   4.270   0.710
 6125SOL    HW119274   2.130   4.202   0.782
 6125SOL    HW219275   2.227   4.316   0.718
 6126SOL     OW19276   0.907   0.334   4.420
 6126SOL    HW119277   0.896   0.417   4.365
 6126SOL    HW219278   0.987   0.283   4.388
 6127SOL     OW19279   3.042   0.019   1.262
 6127SOL    HW119280   3.059   0.083   1.337
 6127SOL    HW219281   3.112   0.031   1.192
 6128SOL     OW19282   6.590   3.942   0.903
 6128SOL    HW119283   6.503   3.912   0.863
 6128SOL    HW219284   6.583   4.038   0.930
 6129SOL     OW19285   6.955   3.662   2.226
 6129SOL    HW119286   6.928   3.618   2.141
 6129SOL    HW219287   7.001   3.749   2.206
 6130SOL     OW19288   5.681   2.999   2.449
 6130SOL    HW119289   5.740   2.919   2.454
 6130SOL    HW219290   5.645   3.008   2.357
 6131SOL     OW19291   0.744   1.632   4.120
 6131SOL    HW119292   0.816   1.567   4.093
 6131SOL    HW219293   0.735   1.630   4.220
 6132SOL     OW19294   4.711   1.773   0.057
 6132SOL    HW119295   4.771   1.791   7.003
 6132SOL    HW219296   4.737   1.687   0.100
 6133SOL     OW19297   2.004   3.219   2.914
 6133SOL    HW119298   1.988   3.138   2.971
 6133SOL    HW219299   2.040   3.293   2.971
 6134SOL     OW19300   4.167   4.906   7.006
 6134SOL    HW119301   4.106   4.971   6.961
 6134SOL    HW219302   4.244   4.886   6.946
 6135SOL     OW19303   6.965   0.212   0.386
 6135SOL    HW119304   7.016   0.288   0.347
 6135SOL    HW219305   6.889   0.247   0.442
 6136SOL     OW19306   1.298   3.031   2.090
 6136SOL    HW119307   1.324   3.094   2.163
 6136SOL    HW219308   1.251   2.952   2.129
 6137SOL     OW19309   6.406   4.024   2.077
 6137SOL    HW119310   6.340   4.089   2.114
 6137SOL    HW219311   6.360   3.963   2.012
 6138SOL     OW19312   3.781   6.799   2.718
 6138SOL    HW119313   3.712   6.871   2.724
 6138SOL    HW219314   3.752   6.731   2.650
 6139SOL     OW19315   1.520   6.652   5.986
 6139SOL    HW119316   1.441   6.617   6.036
 6139SOL    HW219317   1.593   6.584   5.987
 6140SOL     OW19318   0.932   6.485   2.149
 6140SOL    HW119319   1.017   6.488   2.201
 6140SOL    HW219320   0.934   6.554   2.077
 6141SOL     OW19321   0.630   6.919   6.245
 6141SOL    HW119322   0.698   6.986   6.276
 6141SOL    HW219323   0.643   6.834   6.295
 6142SOL     OW19324   0.643   6.376   6.775
 6142SOL    HW119325   0.732   6.332   6.771
 6142SOL    HW219326   0.580   6.319   6.828
 6143SOL     OW19327   6.504   3.190   0.970
 6143SOL    HW119328   6.556   3.262   1.017
 6143SOL    HW219329   6.503   3.209   0.872
 6144SOL     OW19330   4.829   4.856   4.288
 6144SOL    HW119331   4.810   4.886   4.194
 6144SOL    HW219332   4.815   4.932   4.350
 6145SOL     OW19333   5.350   4.930   4.493
 6145SOL    HW119334   5.291   4.904   4.569
 6145SOL    HW219335   5.416   4.998   4.523
 6146SOL     OW19336   3.048   5.820   3.949
 6146SOL    HW119337   3.135   5.786   3.984
 6146SOL    HW219338   2.982   5.823   4.024
 6147SOL     OW19339   2.134   2.039   4.601
 6147SOL    HW119340   2.177   2.125   4.576
 6147SOL    HW219341   2.081   2.003   4.524
 6148SOL     OW19342   4.784   7.014   5.370
 6148SOL    HW119343   4.747   6.924   5.393
 6148SOL    HW219344   4.882   7.016   5.394
 6149SOL     OW19345   2.958   6.673   1.336
 6149SOL    HW119346   2.878   6.718   1.295
 6149SOL    HW219347   2.937   6.577   1.352
 6150SOL     OW19348   5.445   5.188   0.793
 6150SOL    HW119349   5.363   5.177   0.849
 6150SOL    HW219350   5.501   5.261   0.830
 6151SOL     OW19351   6.063   5.044   6.212
 6151SOL    HW119352   5.986   5.074   6.156
 6151SOL    HW219353   6.135   5.008   6.152
 6152SOL     OW19354   6.588   5.684   4.730
 6152SOL    HW119355   6.616   5.685   4.826
 6152SOL    HW219356   6.666   5.707   4.672
 6153SOL     OW19357   5.206   4.799   1.474
 6153SOL    HW119358   5.203   4.702   1.453
 6153SOL    HW219359   5.266   4.815   1.552
 6154SOL     OW19360   6.450   2.413   2.608
 6154SOL    HW119361   6.490   2.355   2.537
 6154SOL    HW219362   6.353   2.430   2.587
 6155SOL     OW19363   1.601   1.353   3.145
 6155SOL    HW119364   1.513   1.369   3.189
 6155SOL    HW219365   1.589   1.291   3.067
 6156SOL     OW19366   4.348   4.563   1.968
 6156SOL    HW119367   4.411   4.503   2.018
 6156SOL    HW219368   4.329   4.523   1.878
 6157SOL     OW19369   6.953   1.962   4.553
 6157SOL    HW119370   6.861   1.972   4.515
 6157SOL    HW219371   7.014   2.029   4.510
 6158SOL     OW19372   3.723   1.935   6.285
 6158SOL    HW119373   3.660   2.013   6.296
 6158SOL    HW219374   3.671   1.855   6.256
 6159SOL     OW19375   4.649   2.089   1.697
 6159SOL    HW119376   4.585   2.030   1.649
 6159SOL    HW219377   4.628   2.185   1.676
 6160SOL     OW19378   5.370   1.424   6.321
 6160SOL    HW119379   5.329   1.475   6.245
 6160SOL    HW219380   5.434   1.357   6.285
 6161SOL     OW19381   5.324   1.491   5.247
 6161SOL    HW119382   5.240   1.494   5.193
 6161SOL    HW219383   5.384   1.566   5.218
 6162SOL     OW19384   6.873   6.310   3.497
 6162SOL    HW119385   6.841   6.344   3.408
 6162SOL    HW219386   6.798   6.316   3.562
 6163SOL     OW19387   6.100   6.581   1.322
 6163SOL    HW119388   6.014   6.550   1.283
 6163SOL    HW219389   6.089   6.673   1.359
 6164SOL     OW19390   3.203   3.947   3.634
 6164SOL    HW119391   3.244   4.010   3.700
 6164SOL    HW219392   3.236   3.969   3.542
 6165SOL     OW19393   4.721   1.693   6.780
 6165SOL    HW119394   4.789   1.710   6.709
 6165SOL    HW219395   4.736   1.603   6.821
 6166SOL     OW19396   5.592   1.995   6.317
 6166SOL    HW119397   5.570   2.032   6.407
 6166SOL    HW219398   5.556   1.903   6.308
 6167SOL     OW19399   1.164   5.002   3.058
 6167SOL    HW119400   1.071   4.983   3.026
 6167SOL    HW219401   1.227   5.001   2.980
 6168SOL     OW19402   1.519   3.446   2.467
 6168SOL    HW119403   1.615   3.418   2.470
 6168SOL    HW219404   1.476   3.425   2.555
 6169SOL     OW19405   1.268   2.251   6.926
 6169SOL    HW119406   1.327   2.171   6.933
 6169SOL    HW219407   1.177   2.229   6.960
 6170SOL     OW19408   2.196   4.111   5.297
 6170SOL    HW119409   2.246   4.029   5.269
 6170SOL    HW219410   2.209   4.182   5.228
 6171SOL     OW19411   1.528   3.674   1.192
 6171SOL    HW119412   1.498   3.620   1.113
 6171SOL    HW219413   1.451   3.726   1.229
 6172SOL     OW19414   1.931   1.693   2.990
 6172SOL    HW119415   2.017   1.642   2.994
 6172SOL    HW219416   1.948   1.787   3.020
 6173SOL     OW19417   6.475   5.924   2.074
 6173SOL    HW119418   6.379   5.907   2.050
 6173SOL    HW219419   6.511   5.845   2.123
 6174SOL     OW19420   5.231   5.032   3.718
 6174SOL    HW119421   5.185   5.120   3.710
 6174SOL    HW219422   5.251   5.013   3.814
 6175SOL     OW19423   4.793   0.644   3.611
 6175SOL    HW119424   4.810   0.552   3.577
 6175SOL    HW219425   4.697   0.669   3.595
 6176SOL     OW19426   5.534   3.352   6.545
 6176SOL    HW119427   5.604   3.281   6.550
 6176SOL    HW219428   5.508   3.380   6.637
 6177SOL     OW19429   5.405   0.740   1.062
 6177SOL    HW119430   5.481   0.697   1.111
 6177SOL    HW219431   5.394   0.834   1.093
 6178SOL     OW19432   4.984   4.677   3.272
 6178SOL    HW119433   4.988   4.768   3.313
 6178SOL    HW219434   4.943   4.684   3.180
 6179SOL     OW19435   0.078   5.101   4.326
 6179SOL    HW119436   0.112   5.061   4.241
 6179SOL    HW219437   7.005   5.082   4.335
 6180SOL     OW19438   4.053   4.411   6.991
 6180SOL    HW119439   4.001   4.435   6.909
 6180SOL    HW219440   4.089   4.494   0.010
 6181SOL     OW19441   3.588   6.819   0.731
 6181SOL    HW119442   3.569   6.908   0.690
 6181SOL    HW219443   3.594   6.750   0.659
 6182SOL     OW19444   5.262   3.260   5.542
 6182SOL    HW119445   5.165   3.276   5.560
 6182SOL    HW219446   5.312   3.261   5.629
 6183SOL     OW19447   2.184   1.341   3.129
 6183SOL    HW119448   2.087   1.337   3.151
 6183SOL    HW219449   2.238   1.325   3.211
 6184SOL     OW19450   2.041   6.649   6.109
 6184SOL    HW119451   2.049   6.742   6.073
 6184SOL    HW219452   2.035   6.584   6.032
 6185SOL     OW19453   0.180   4.063   6.617
 6185SOL    HW119454   0.219   3.979   6.578
 6185SOL    HW219455   0.251   4.112   6.667
 6186SOL     OW19456   6.851   0.114   5.842
 6186SOL    HW119457   6.837   0.017   5.865
 6186SOL    HW219458   6.941   0.143   5.875
 6187SOL     OW19459   4.660   4.931   3.119
 6187SOL    HW119460   4.593   4.965   3.053
 6187SOL    HW219461   4.614   4.874   3.187
 6188SOL     OW19462   2.469   0.062   1.032
 6188SOL    HW119463   2.530   0.129   0.990
 6188SOL    HW219464   2.392   0.043   0.972
 6189SOL     OW19465   5.068   4.271   3.790
 6189SOL    HW119466   5.134   4.224   3.731
 6189SOL    HW219467   5.019   4.341   3.737
 6190SOL     OW19468   0.668   4.049   5.492
 6190SOL    HW119469   0.768   4.061   5.494
 6190SOL    HW219470   0.639   4.023   5.400
 6191SOL     OW19471   3.635   1.921   6.993
 6191SOL    HW119472   3.589   1.906   6.905
 6191SOL    HW219473   3.726   1.879   6.990
 6192SOL     OW19474   3.860   2.432   6.378
 6192SOL    HW119475   3.850   2.420   6.279
 6192SOL    HW219476   3.814   2.357   6.426
 6193SOL     OW19477   5.081   1.205   2.370
 6193SOL    HW119478   5.090   1.107   2.389
 6193SOL    HW219479   5.045   1.218   2.278
 6194SOL     OW19480   1.649   0.234   1.086
 6194SOL    HW119481   1.741   0.269   1.069
 6194SOL    HW219482   1.595   0.305   1.132
 6195SOL     OW19483   4.580   6.481   5.424
 6195SOL    HW119484   4.597   6.391   5.466
 6195SOL    HW219485   4.484   6.504   5.434
 6196SOL     OW19486   5.668   2.755   1.821
 6196SOL    HW119487   5.724   2.687   1.774
 6196SOL    HW219488   5.627   2.715   1.902
 6197SOL     OW19489   4.206   4.882   0.857
 6197SOL    HW119490   4.150   4.816   0.906
 6197SOL    HW219491   4.300   4.848   0.850
 6198SOL     OW19492   3.904   6.242   2.233
 6198SOL    HW119493   3.990   6.218   2.280
 6198SOL    HW219494   3.827   6.221   2.293
 6199SOL     OW19495   1.143   0.525   0.751
 6199SOL    HW119496   1.241   0.518   0.731
 6199SOL    HW219497   1.102   0.596   0.693
 6200SOL     OW19498   1.635   1.229   5.492
 6200SOL    HW119499   1.664   1.250   5.585
 6200SOL    HW219500   1.577   1.303   5.458
 6201SOL     OW19501   0.805   3.411   5.370
 6201SOL    HW119502   0.793   3.510   5.366
 6201SOL    HW219503   0.715   3.367   5.373
 6202SOL     OW19504   3.697   1.667   2.468
 6202SOL    HW119505   3.617   1.705   2.514
 6202SOL    HW219506   3.775   1.668   2.530
 6203SOL     OW19507   6.912   6.709   2.792
 6203SOL    HW119508   6.869   6.662   2.715
 6203SOL    HW219509   7.006   6.677   2.803
 6204SOL     OW19510   0.352   5.475   5.173
 6204SOL    HW119511   0.348   5.383   5.213
 6204SOL    HW219512   0.259   5.513   5.167
 6205SOL     OW19513   6.013   6.252   1.067
 6205SOL    HW119514   6.093   6.289   1.114
 6205SOL    HW219515   5.992   6.310   0.988
 6206SOL     OW19516   0.116   1.144   3.381
 6206SOL    HW119517   0.159   1.086   3.450
 6206SOL    HW219518   0.020   1.160   3.406
 6207SOL     OW19519   1.415   4.875   5.279
 6207SOL    HW119520   1.399   4.782   5.244
 6207SOL    HW219521   1.381   4.942   5.213
 6208SOL     OW19522   5.887   1.430   5.929
 6208SOL    HW119523   5.917   1.436   6.024
 6208SOL    HW219524   5.959   1.389   5.873
 6209SOL     OW19525   4.635   5.685   6.839
 6209SOL    HW119526   4.606   5.590   6.853
 6209SOL    HW219527   4.557   5.741   6.813
 6210SOL     OW19528   5.086   3.311   2.963
 6210SOL    HW119529   5.118   3.229   2.915
 6210SOL    HW219530   5.029   3.365   2.901
 6211SOL     OW19531   3.110   6.266   5.290
 6211SOL    HW119532   3.017   6.239   5.266
 6211SOL    HW219533   3.113   6.290   5.388
 6212SOL     OW19534   1.857   5.325   3.690
 6212SOL    HW119535   1.897   5.407   3.648
 6212SOL    HW219536   1.841   5.342   3.787
 6213SOL     OW19537   5.986   0.171   0.494
 6213SOL    HW119538   5.901   0.131   0.529
 6213SOL    HW219539   6.061   0.105   0.506
 6214SOL     OW19540   5.068   4.739   4.221
 6214SOL    HW119541   5.077   4.640   4.231
 6214SOL    HW219542   4.974   4.766   4.240
 6215SOL     OW19543   4.282   1.255   0.413
 6215SOL    HW119544   4.273   1.320   0.488
 6215SOL    HW219545   4.265   1.162   0.448
 6216SOL     OW19546   6.236   1.085   2.117
 6216SOL    HW119547   6.181   1.108   2.197
 6216SOL    HW219548   6.331   1.072   2.145
 6217SOL     OW19549   0.329   3.861   2.464
 6217SOL    HW119550   0.347   3.960   2.463
 6217SOL    HW219551   0.289   3.834   2.377
 6218SOL     OW19552   3.961   5.641   6.266
 6218SOL    HW119553   4.047   5.690   6.251
 6218SOL    HW219554   3.980   5.558   6.318
 6219SOL     OW19555   0.851   2.866   4.258
 6219SOL    HW119556   0.855   2.770   4.283
 6219SOL    HW219557   0.891   2.921   4.332
 6220SOL     OW19558   2.001   1.863   5.305
 6220SOL    HW119559   1.991   1.796   5.378
 6220SOL    HW219560   1.953   1.947   5.329
 6221SOL     OW19561   5.807   5.938   6.577
 6221SOL    HW119562   5.783   5.945   6.674
 6221SOL    HW219563   5.803   6.028   6.535
 6222SOL     OW19564   0.922   6.642   1.691
 6222SOL    HW119565   0.991   6.711   1.668
 6222SOL    HW219566   0.924   6.568   1.624
 6223SOL     OW19567   0.942   5.066   3.900
 6223SOL    HW119568   0.908   5.072   3.994
 6223SOL    HW219569   0.888   5.127   3.842
 6224SOL     OW19570   2.511   1.715   6.163
 6224SOL    HW119571   2.496   1.802   6.210
 6224SOL    HW219572   2.506   1.640   6.229
 6225SOL     OW19573   3.754   4.050   6.508
 6225SOL    HW119574   3.797   4.065   6.419
 6225SOL    HW219575   3.824   4.050   6.579
 6226SOL     OW19576   6.656   1.677   5.110
 6226SOL    HW119577   6.711   1.713   5.186
 6226SOL    HW219578   6.608   1.595   5.140
 6227SOL     OW19579   3.620   5.721   5.360
 6227SOL    HW119580   3.597   5.739   5.264
 6227SOL    HW219581   3.540   5.685   5.407
 6228SOL     OW19582   1.408   2.302   2.822
 6228SOL    HW119583   1.387   2.303   2.724
 6228SOL    HW219584   1.358   2.376   2.868
 6229SOL     OW19585   0.319   2.084   2.977
 6229SOL    HW119586   0.283   2.110   3.067
 6229SOL    HW219587   0.244   2.078   2.912
 6230SOL     OW19588   0.552   1.678   3.722
 6230SOL    HW119589   0.465   1.637   3.751
 6230SOL    HW219590   0.543   1.712   3.629
 6231SOL     OW19591   6.144   5.929   1.268
 6231SOL    HW119592   6.064   5.886   1.309
 6231SOL    HW219593   6.177   5.873   1.192
 6232SOL     OW19594   6.985   0.611   1.068
 6232SOL    HW119595   7.007   0.707   1.049
 6232SOL    HW219596   6.963   0.600   1.165
 6233SOL     OW19597   6.862   0.917   1.269
 6233SOL    HW119598   6.892   0.905   1.175
 6233SOL    HW219599   6.939   0.904   1.331
 6234SOL     OW19600   6.422   1.031   5.373
 6234SOL    HW119601   6.484   1.018   5.296
 6234SOL    HW219602   6.349   1.094   5.347
 6235SOL     OW19603   0.940   6.418   1.171
 6235SOL    HW119604   1.034   6.451   1.175
 6235SOL    HW219605   0.889   6.455   1.250
 6236SOL     OW19606   0.623   3.736   0.988
 6236SOL    HW119607   0.653   3.724   0.893
 6236SOL    HW219608   0.531   3.774   0.989
 6237SOL     OW19609   3.036   6.945   6.512
 6237SOL    HW119610   3.122   6.924   6.558
 6237SOL    HW219611   2.972   6.985   6.577
 6238SOL     OW19612   3.878   4.907   2.681
 6238SOL    HW119613   3.942   4.840   2.645
 6238SOL    HW219614   3.877   4.903   2.781
 6239SOL     OW19615   2.301   0.273   1.658
 6239SOL    HW119616   2.343   0.182   1.649
 6239SOL    HW219617   2.213   0.273   1.611
 6240SOL     OW19618   1.823   2.928   5.457
 6240SOL    HW119619   1.868   3.003   5.505
 6240SOL    HW219620   1.841   2.936   5.359
 6241SOL     OW19621   3.657   0.015   1.844
 6241SOL    HW119622   3.571   7.015   1.888
 6241SOL    HW219623   3.733   7.010   1.902
 6242SOL     OW19624   4.646   0.740   3.908
 6242SOL    HW119625   4.739   0.706   3.917
 6242SOL    HW219626   4.620   0.743   3.812
 6243SOL     OW19627   5.992   6.067   4.216
 6243SOL    HW119628   5.984   6.097   4.312
 6243SOL    HW219629   5.903   6.070   4.172
 6244SOL     OW19630   6.948   2.429   1.688
 6244SOL    HW119631   0.007   2.406   1.638
 6244SOL    HW219632   6.880   2.357   1.674
 6245SOL     OW19633   1.554   4.124   0.535
 6245SOL    HW119634   1.537   4.130   0.633
 6245SOL    HW219635   1.652   4.120   0.518
 6246SOL     OW19636   2.095   2.007   5.601
 6246SOL    HW119637   2.178   1.999   5.545
 6246SOL    HW219638   2.016   1.974   5.549
 6247SOL     OW19639   0.244   6.180   4.690
 6247SOL    HW119640   0.231   6.184   4.789
 6247SOL    HW219641   0.339   6.156   4.669
 6248SOL     OW19642   3.708   3.229   0.695
 6248SOL    HW119643   3.704   3.131   0.710
 6248SOL    HW219644   3.743   3.274   0.777
 6249SOL     OW19645   0.880   3.886   0.721
 6249SOL    HW119646   0.820   3.808   0.706
 6249SOL    HW219647   0.872   3.917   0.816
 6250SOL     OW19648   6.648   6.926   0.213
 6250SOL    HW119649   6.611   6.925   0.305
 6250SOL    HW219650   6.746   6.905   0.216
 6251SOL     OW19651   4.414   5.434   6.421
 6251SOL    HW119652   4.466   5.404   6.340
 6251SOL    HW219653   4.339   5.371   6.438
 6252SOL     OW19654   1.758   6.286   5.468
 6252SOL    HW119655   1.685   6.345   5.500
 6252SOL    HW219656   1.765   6.292   5.368
 6253SOL     OW19657   2.278   4.410   3.537
 6253SOL    HW119658   2.213   4.479   3.504
 6253SOL    HW219659   2.328   4.446   3.615
 6254SOL     OW19660   5.267   1.685   1.457
 6254SOL    HW119661   5.173   1.661   1.435
 6254SOL    HW219662   5.287   1.777   1.424
 6255SOL     OW19663   3.414   0.489   1.060
 6255SOL    HW119664   3.433   0.575   1.012
 6255SOL    HW219665   3.331   0.500   1.116
 6256SOL     OW19666   3.404   5.386   1.551
 6256SOL    HW119667   3.347   5.308   1.526
 6256SOL    HW219668   3.357   5.440   1.621
 6257SOL     OW19669   4.872   2.007   1.059
 6257SOL    HW119670   4.906   2.092   1.100
 6257SOL    HW219671   4.779   2.021   1.025
 6258SOL     OW19672   3.371   0.438   3.673
 6258SOL    HW119673   3.412   0.498   3.742
 6258SOL    HW219674   3.374   0.343   3.705
 6259SOL     OW19675   2.274   2.456   6.971
 6259SOL    HW119676   2.279   2.401   0.030
 6259SOL    HW219677   2.306   2.402   6.893
 6260SOL     OW19678   3.164   5.260   0.285
 6260SOL    HW119679   3.257   5.267   0.247
 6260SOL    HW219680   3.104   5.217   0.218
 6261SOL     OW19681   3.677   1.112   7.010
 6261SOL    HW119682   3.684   1.052   0.066
 6261SOL    HW219683   3.613   1.186   0.005
 6262SOL     OW19684   2.893   6.418   1.423
 6262SOL    HW119685   2.953   6.338   1.427
 6262SOL    HW219686   2.859   6.439   1.514
 6263SOL     OW19687   6.947   0.953   5.407
 6263SOL    HW119688   6.961   0.998   5.319
 6263SOL    HW219689   7.019   0.885   5.422
 6264SOL     OW19690   1.559   0.059   1.769
 6264SOL    HW119691   1.503   7.023   1.826
 6264SOL    HW219692   1.539   0.041   1.673
 6265SOL     OW19693   3.572   3.559   0.430
 6265SOL    HW119694   3.611   3.588   0.342
 6265SOL    HW219695   3.635   3.494   0.473
 6266SOL     OW19696   3.802   0.975   4.724
 6266SOL    HW119697   3.774   0.985   4.820
 6266SOL    HW219698   3.889   1.020   4.710
 6267SOL     OW19699   2.170   6.971   6.270
 6267SOL    HW119700   2.079   6.962   6.310
 6267SOL    HW219701   2.233   6.908   6.315
 6268SOL     OW19702   2.634   0.266   3.269
 6268SOL    HW119703   2.639   0.365   3.260
 6268SOL    HW219704   2.617   0.225   3.180
 6269SOL     OW19705   0.060   6.539   1.849
 6269SOL    HW119706   0.090   6.444   1.852
 6269SOL    HW219707   0.114   6.589   1.781
 6270SOL     OW19708   1.873   6.985   5.880
 6270SOL    HW119709   1.788   6.949   5.920
 6270SOL    HW219710   1.872   0.061   5.886
 6271SOL     OW19711   6.567   2.399   6.383
 6271SOL    HW119712   6.525   2.484   6.349
 6271SOL    HW219713   6.645   2.422   6.441
 6272SOL     OW19714   0.445   3.202   0.052
 6272SOL    HW119715   0.486   3.117   0.021
 6272SOL    HW219716   0.374   3.183   0.119
 6273SOL     OW19717   1.331   6.643   2.461
 6273SOL    HW119718   1.374   6.691   2.384
 6273SOL    HW219719   1.395   6.576   2.498
 6274SOL     OW19720   3.067   5.677   5.787
 6274SOL    HW119721   3.116   5.689   5.701
 6274SOL    HW219722   3.132   5.671   5.863
 6275SOL     OW19723   2.306   6.191   6.424
 6275SOL    HW119724   2.313   6.242   6.510
 6275SOL    HW219725   2.383   6.214   6.365
 6276SOL     OW19726   1.479   4.183   3.163
 6276SOL    HW119727   1.449   4.092   3.137
 6276SOL    HW219728   1.538   4.177   3.244
 6277SOL     OW19729   5.306   4.099   1.959
 6277SOL    HW119730   5.217   4.144   1.948
 6277SOL    HW219731   5.370   4.138   1.893
 6278SOL     OW19732   4.898   5.793   4.603
 6278SOL    HW119733   4.825   5.825   4.664
 6278SOL    HW219734   4.979   5.769   4.657
 6279SOL     OW19735   3.713   6.965   6.984
 6279SOL    HW119736   3.796   6.953   0.015
 6279SOL    HW219737   3.649   6.892   7.005
 6280SOL     OW19738   1.005   2.263   5.111
 6280SOL    HW119739   0.917   2.217   5.115
 6280SOL    HW219740   1.044   2.270   5.203
 6281SOL     OW19741   0.851   5.119   4.149
 6281SOL    HW119742   0.799   5.193   4.191
 6281SOL    HW219743   0.855   5.041   4.211
 6282SOL     OW19744   0.786   6.125   5.366
 6282SOL    HW119745   0.696   6.142   5.324
 6282SOL    HW219746   0.848   6.199   5.341
 6283SOL     OW19747   6.244   3.151   5.375
 6283SOL    HW119748   6.315   3.219   5.392
 6283SOL    HW219749   6.224   3.102   5.460
 6284SOL     OW19750   0.741   5.384   4.783
 6284SOL    HW119751   0.667   5.346   4.838
 6284SOL    HW219752   0.705   5.415   4.695
 6285SOL     OW19753   0.277   3.861   4.820
 6285SOL    HW119754   0.358   3.805   4.835
 6285SOL    HW219755   0.224   3.824   4.745
 6286SOL     OW19756   5.725   1.661   3.556
 6286SOL    HW119757   5.817   1.651   3.596
 6286SOL    HW219758   5.657   1.657   3.629
 6287SOL     OW19759   3.636   5.021   4.608
 6287SOL    HW119760   3.692   4.965   4.668
 6287SOL    HW219761   3.692   5.057   4.533
 6288SOL     OW19762   5.322   4.248   3.020
 6288SOL    HW119763   5.361   4.159   2.999
 6288SOL    HW219764   5.374   4.320   2.974
 6289SOL     OW19765   1.796   4.662   0.811
 6289SOL    HW119766   1.787   4.563   0.817
 6289SOL    HW219767   1.892   4.688   0.813
 6290SOL     OW19768   6.460   5.191   5.767
 6290SOL    HW119769   6.426   5.282   5.742
 6290SOL    HW219770   6.547   5.174   5.722
 6291SOL     OW19771   4.129   3.434   4.520
 6291SOL    HW119772   4.036   3.399   4.532
 6291SOL    HW219773   4.186   3.362   4.480
 6292SOL     OW19774   1.320   2.194   4.559
 6292SOL    HW119775   1.285   2.169   4.469
 6292SOL    HW219776   1.357   2.287   4.555
 6293SOL     OW19777   3.351   0.852   0.503
 6293SOL    HW119778   3.281   0.920   0.525
 6293SOL    HW219779   3.441   0.895   0.502
 6294SOL     OW19780   3.800   6.126   3.848
 6294SOL    HW119781   3.726   6.188   3.874
 6294SOL    HW219782   3.802   6.049   3.912
 6295SOL     OW19783   5.568   4.905   6.185
 6295SOL    HW119784   5.506   4.889   6.262
 6295SOL    HW219785   5.525   4.965   6.118
 6296SOL     OW19786   0.634   6.544   5.871
 6296SOL    HW119787   0.658   6.624   5.927
 6296SOL    HW219788   0.702   6.533   5.798
 6297SOL     OW19789   5.478   0.551   3.996
 6297SOL    HW119790   5.413   0.607   4.048
 6297SOL    HW219791   5.428   0.495   3.930
 6298SOL     OW19792   1.582   2.734   0.093
 6298SOL    HW119793   1.569   2.638   0.117
 6298SOL    HW219794   1.550   2.792   0.169
 6299SOL     OW19795   5.844   2.009   0.378
 6299SOL    HW119796   5.909   2.042   0.446
 6299SOL    HW219797   5.843   2.071   0.299
 6300SOL     OW19798   6.202   0.541   0.377
 6300SOL    HW119799   6.138   0.616   0.361
 6300SOL    HW219800   6.225   0.537   0.475
 6301SOL     OW19801   3.940   6.854   0.090
 6301SOL    HW119802   3.970   6.817   0.002
 6301SOL    HW219803   3.982   6.801   0.164
 6302SOL     OW19804   1.665   0.717   3.037
 6302SOL    HW119805   1.720   0.801   3.038
 6302SOL    HW219806   1.601   0.717   3.114
 6303SOL     OW19807   2.083   1.407   4.111
 6303SOL    HW119808   2.032   1.443   4.189
 6303SOL    HW219809   2.021   1.398   4.033
 6304SOL     OW19810   2.488   0.679   1.420
 6304SOL    HW119811   2.467   0.650   1.513
 6304SOL    HW219812   2.480   0.601   1.358
 6305SOL     OW19813   6.931   6.909   1.513
 6305SOL    HW119814   6.901   6.881   1.422
 6305SOL    HW219815   6.942   6.828   1.571
 6306SOL     OW19816   0.617   4.397   3.958
 6306SOL    HW119817   0.575   4.331   4.020
 6306SOL    HW219818   0.574   4.487   3.970
 6307SOL     OW19819   3.532   4.315   5.223
 6307SOL    HW119820   3.538   4.228   5.175
 6307SOL    HW219821   3.442   4.323   5.267
 6308SOL     OW19822   2.170   2.276   4.410
 6308SOL    HW119823   2.256   2.305   4.367
 6308SOL    HW219824   2.135   2.350   4.467
 6309SOL     OW19825   5.673   4.501   5.489
 6309SOL    HW119826   5.714   4.410   5.495
 6309SOL    HW219827   5.697   4.543   5.402
 6310SOL     OW19828   2.156   6.060   2.718
 6310SOL    HW119829   2.207   5.996   2.775
 6310SOL    HW219830   2.180   6.046   2.622
 6311SOL     OW19831   4.935   1.269   6.202
 6311SOL    HW119832   4.934   1.233   6.296
 6311SOL    HW219833   4.887   1.206   6.141
 6312SOL     OW19834   6.392   6.119   5.506
 6312SOL    HW119835   6.460   6.192   5.512
 6312SOL    HW219836   6.392   6.081   5.414
 6313SOL     OW19837   0.252   6.202   4.964
 6313SOL    HW119838   0.330   6.186   5.026
 6313SOL    HW219839   0.203   6.284   4.993
 6314SOL     OW19840   4.148   6.972   1.861
 6314SOL    HW119841   4.077   6.902   1.853
 6314SOL    HW219842   4.130   0.003   1.943
 6315SOL     OW19843   2.015   2.686   5.286
 6315SOL    HW119844   1.929   2.669   5.333
 6315SOL    HW219845   2.059   2.599   5.264
 6316SOL     OW19846   5.078   1.629   0.304
 6316SOL    HW119847   5.150   1.570   0.267
 6316SOL    HW219848   5.093   1.723   0.272
 6317SOL     OW19849   4.364   5.209   1.557
 6317SOL    HW119850   4.279   5.231   1.606
 6317SOL    HW219851   4.356   5.239   1.462
 6318SOL     OW19852   3.774   1.297   5.691
 6318SOL    HW119853   3.765   1.359   5.769
 6318SOL    HW219854   3.860   1.247   5.698
 6319SOL     OW19855   6.324   1.475   4.717
 6319SOL    HW119856   6.325   1.574   4.731
 6319SOL    HW219857   6.230   1.441   4.728
 6320SOL     OW19858   5.911   6.436   5.146
 6320SOL    HW119859   5.998   6.416   5.101
 6320SOL    HW219860   5.919   6.522   5.197
 6321SOL     OW19861   3.594   2.893   1.061
 6321SOL    HW119862   3.609   2.913   1.158
 6321SOL    HW219863   3.554   2.973   1.017
 6322SOL     OW19864   1.812   2.507   0.766
 6322SOL    HW119865   1.892   2.470   0.814
 6322SOL    HW219866   1.836   2.525   0.671
 6323SOL     OW19867   2.961   2.628   1.708
 6323SOL    HW119868   2.889   2.636   1.639
 6323SOL    HW219869   2.943   2.549   1.766
 6324SOL     OW19870   5.384   0.494   6.691
 6324SOL    HW119871   5.395   0.495   6.790
 6324SOL    HW219872   5.420   0.408   6.654
 6325SOL     OW19873   1.858   2.150   2.384
 6325SOL    HW119874   1.827   2.057   2.365
 6325SOL    HW219875   1.952   2.161   2.350
 6326SOL     OW19876   4.649   4.912   1.939
 6326SOL    HW119877   4.740   4.952   1.924
 6326SOL    HW219878   4.620   4.932   2.033
 6327SOL     OW19879   6.546   0.654   4.972
 6327SOL    HW119880   6.610   0.719   5.013
 6327SOL    HW219881   6.595   0.595   4.908
 6328SOL     OW19882   3.083   3.370   0.420
 6328SOL    HW119883   3.011   3.310   0.383
 6328SOL    HW219884   3.086   3.454   0.367
 6329SOL     OW19885   2.305   2.274   3.404
 6329SOL    HW119886   2.398   2.284   3.439
 6329SOL    HW219887   2.256   2.361   3.414
 6330SOL     OW19888   5.194   0.669   0.931
 6330SOL    HW119889   5.131   0.681   1.008
 6330SOL    HW219890   5.288   0.669   0.965
 6331SOL     OW19891   6.692   2.989   5.470
 6331SOL    HW119892   6.707   2.903   5.423
 6331SOL    HW219893   6.720   3.065   5.412
 6332SOL     OW19894   0.009   3.436   1.061
 6332SOL    HW119895   0.094   3.420   1.112
 6332SOL    HW219896   6.967   3.364   1.082
 6333SOL     OW19897   4.422   5.839   5.006
 6333SOL    HW119898   4.383   5.777   4.938
 6333SOL    HW219899   4.517   5.813   5.023
 6334SOL     OW19900   2.920   0.483   2.086
 6334SOL    HW119901   2.931   0.552   2.158
 6334SOL    HW219902   2.832   0.437   2.098
 6335SOL     OW19903   3.335   0.391   0.132
 6335SOL    HW119904   3.280   0.427   0.057
 6335SOL    HW219905   3.398   0.463   0.163
 6336SOL     OW19906   0.637   2.193   5.660
 6336SOL    HW119907   0.620   2.206   5.758
 6336SOL    HW219908   0.734   2.209   5.641
 6337SOL     OW19909   5.051   4.861   5.709
 6337SOL    HW119910   4.974   4.867   5.646
 6337SOL    HW219911   5.077   4.765   5.722
 6338SOL     OW19912   3.236   1.828   4.394
 6338SOL    HW119913   3.185   1.743   4.390
 6338SOL    HW219914   3.311   1.819   4.459
 6339SOL     OW19915   1.132   3.508   3.283
 6339SOL    HW119916   1.190   3.560   3.220
 6339SOL    HW219917   1.045   3.556   3.296
 6340SOL     OW19918   1.499   5.166   2.468
 6340SOL    HW119919   1.409   5.163   2.513
 6340SOL    HW219920   1.510   5.084   2.411
 6341SOL     OW19921   0.672   4.142   4.506
 6341SOL    HW119922   0.619   4.082   4.565
 6341SOL    HW219923   0.691   4.228   4.554
 6342SOL     OW19924   2.075   1.170   1.693
 6342SOL    HW119925   2.151   1.211   1.743
 6342SOL    HW219926   2.098   1.165   1.596
 6343SOL     OW19927   4.778   2.282   6.838
 6343SOL    HW119928   4.803   2.199   6.788
 6343SOL    HW219929   4.756   2.258   6.933
 6344SOL     OW19930   5.639   2.880   4.318
 6344SOL    HW119931   5.676   2.844   4.232
 6344SOL    HW219932   5.710   2.934   4.364
 6345SOL     OW19933   5.883   2.946   2.135
 6345SOL    HW119934   5.925   3.035   2.152
 6345SOL    HW219935   5.823   2.952   2.055
 6346SOL     OW19936   6.765   5.308   4.026
 6346SOL    HW119937   6.739   5.212   4.018
 6346SOL    HW219938   6.692   5.365   3.986
 6347SOL     OW19939   2.017   0.098   0.376
 6347SOL    HW119940   2.003   0.195   0.355
 6347SOL    HW219941   2.047   0.050   0.293
 6348SOL     OW19942   0.934   3.867   5.383
 6348SOL    HW119943   0.999   3.895   5.312
 6348SOL    HW219944   0.922   3.941   5.449
 6349SOL     OW19945   2.112   0.341   1.232
 6349SOL    HW119946   2.082   0.347   1.327
 6349SOL    HW219947   2.194   0.283   1.227
 6350SOL     OW19948   0.577   5.572   3.944
 6350SOL    HW119949   0.644   5.515   3.896
 6350SOL    HW219950   0.497   5.586   3.886
 6351SOL     OW19951   6.787   3.889   3.864
 6351SOL    HW119952   6.861   3.928   3.810
 6351SOL    HW219953   6.801   3.790   3.872
 6352SOL     OW19954   3.924   6.252   4.894
 6352SOL    HW119955   3.953   6.320   4.961
 6352SOL    HW219956   4.004   6.220   4.843
 6353SOL     OW19957   0.692   6.776   6.025
 6353SOL    HW119958   0.791   6.786   6.036
 6353SOL    HW219959   0.645   6.820   6.101
 6354SOL     OW19960   2.229   5.628   2.619
 6354SOL    HW119961   2.296   5.583   2.678
 6354SOL    HW219962   2.164   5.679   2.675
 6355SOL     OW19963   0.799   5.371   6.927
 6355SOL    HW119964   0.727   5.406   6.867
 6355SOL    HW219965   0.771   5.282   6.963
 6356SOL     OW19966   4.550   5.583   2.035
 6356SOL    HW119967   4.470   5.627   2.076
 6356SOL    HW219968   4.559   5.612   1.940
 6357SOL     OW19969   6.134   3.425   3.036
 6357SOL    HW119970   6.148   3.499   2.969
 6357SOL    HW219971   6.037   3.418   3.057
 6358SOL     OW19972   0.720   2.345   6.246
 6358SOL    HW119973   0.647   2.382   6.305
 6358SOL    HW219974   0.694   2.254   6.214
 6359SOL     OW19975   5.834   6.852   6.982
 6359SOL    HW119976   5.834   6.918   0.034
 6359SOL    HW219977   5.926   6.816   6.970
 6360SOL     OW19978   1.439   4.317   3.651
 6360SOL    HW119979   1.344   4.346   3.638
 6360SOL    HW219980   1.444   4.253   3.728
 6361SOL     OW19981   0.844   6.943   1.676
 6361SOL    HW119982   0.800   6.953   1.587
 6361SOL    HW219983   0.778   6.907   1.742
 6362SOL     OW19984   6.608   5.961   0.110
 6362SOL    HW119985   6.626   6.018   0.030
 6362SOL    HW219986   6.693   5.920   0.143
 6363SOL     OW19987   1.536   4.893   3.365
 6363SOL    HW119988   1.614   4.956   3.369
 6363SOL    HW219989   1.562   4.812   3.313
 6364SOL     OW19990   2.870   1.187   5.820
 6364SOL    HW119991   2.788   1.147   5.860
 6364SOL    HW219992   2.943   1.119   5.818
 6365SOL     OW19993   5.706   0.437   3.867
 6365SOL    HW119994   5.613   0.470   3.882
 6365SOL    HW219995   5.742   0.398   3.952
 6366SOL     OW19996   0.984   6.094   6.152
 6366SOL    HW119997   1.035   6.070   6.069
 6366SOL    HW219998   0.936   6.180   6.137
 6367SOL     OW19999   4.411   1.387   5.385
 6367SOL    HW120000   4.364   1.458   5.438
 6367SOL    HW220001   4.359   1.302   5.391
 6368SOL     OW20002   3.633   5.002   3.953
 6368SOL    HW120003   3.710   4.946   3.921
 6368SOL    HW220004   3.600   4.966   4.040
 6369SOL     OW20005   2.245   5.538   3.329
 6369SOL    HW120006   2.187   5.457   3.339
 6369SOL    HW220007   2.244   5.591   3.414
 6370SOL     OW20008   0.214   2.798   3.785
 6370SOL    HW120009   0.245   2.771   3.876
 6370SOL    HW220010   0.233   2.724   3.720
 6371SOL     OW20011   5.045   4.588   3.881
 6371SOL    HW120012   5.111   4.529   3.928
 6371SOL    HW220013   5.027   4.551   3.789
 6372SOL     OW20014   2.024   0.600   1.602
 6372SOL    HW120015   2.076   0.669   1.653
 6372SOL    HW220016   1.928   0.630   1.595
 6373SOL     OW20017   4.904   3.791   2.647
 6373SOL    HW120018   4.920   3.698   2.614
 6373SOL    HW220019   4.833   3.835   2.592
 6374SOL     OW20020   3.218   4.054   3.381
 6374SOL    HW120021   3.123   4.025   3.392
 6374SOL    HW220022   3.238   4.066   3.284
 6375SOL     OW20023   0.134   2.062   3.831
 6375SOL    HW120024   0.103   2.125   3.760
 6375SOL    HW220025   0.063   1.994   3.849
 6376SOL     OW20026   5.910   1.986   4.748
 6376SOL    HW120027   5.871   2.073   4.719
 6376SOL    HW220028   5.837   1.922   4.771
 6377SOL     OW20029   6.285   2.087   5.220
 6377SOL    HW120030   6.269   2.033   5.137
 6377SOL    HW220031   6.319   2.027   5.292
 6378SOL     OW20032   4.194   5.446   4.140
 6378SOL    HW120033   4.227   5.478   4.229
 6378SOL    HW220034   4.193   5.523   4.076
 6379SOL     OW20035   1.583   3.604   4.329
 6379SOL    HW120036   1.591   3.651   4.417
 6379SOL    HW220037   1.491   3.568   4.318
 6380SOL     OW20038   0.396   1.845   5.312
 6380SOL    HW120039   0.408   1.821   5.216
 6380SOL    HW220040   0.349   1.770   5.360
 6381SOL     OW20041   3.920   3.216   1.638
 6381SOL    HW120042   3.985   3.175   1.703
 6381SOL    HW220043   3.835   3.164   1.637
 6382SOL     OW20044   1.731   2.061   0.983
 6382SOL    HW120045   1.747   1.966   1.007
 6382SOL    HW220046   1.758   2.120   1.059
 6383SOL     OW20047   1.802   2.135   2.652
 6383SOL    HW120048   1.833   2.051   2.696
 6383SOL    HW220049   1.805   2.123   2.553
 6384SOL     OW20050   6.170   4.206   2.102
 6384SOL    HW120051   6.095   4.196   2.167
 6384SOL    HW220052   6.145   4.271   2.030
 6385SOL     OW20053   0.321   4.571   4.048
 6385SOL    HW120054   0.243   4.611   4.001
 6385SOL    HW220055   0.391   4.642   4.062
 6386SOL     OW20056   2.228   4.791   6.186
 6386SOL    HW120057   2.181   4.864   6.135
 6386SOL    HW220058   2.167   4.713   6.198
 6387SOL     OW20059   6.982   2.052   6.293
 6387SOL    HW120060   6.968   1.953   6.293
 6387SOL    HW220061   0.040   2.075   6.240
 6388SOL     OW20062   3.633   5.416   1.722
 6388SOL    HW120063   3.555   5.400   1.662
 6388SOL    HW220064   3.622   5.503   1.769
 6389SOL     OW20065   0.674   5.936   2.187
 6389SOL    HW120066   0.744   5.986   2.135
 6389SOL    HW220067   0.714   5.853   2.225
 6390SOL     OW20068   1.155   1.038   5.907
 6390SOL    HW120069   1.180   1.127   5.945
 6390SOL    HW220070   1.198   0.965   5.962
 6391SOL     OW20071   2.868   6.957   5.864
 6391SOL    HW120072   2.787   6.966   5.921
 6391SOL    HW220073   2.949   6.944   5.921
 6392SOL     OW20074   2.902   5.253   2.365
 6392SOL    HW120075   2.906   5.154   2.354
 6392SOL    HW220076   2.833   5.276   2.433
 6393SOL     OW20077   6.974   6.889   2.560
 6393SOL    HW120078   6.971   6.803   2.612
 6393SOL    HW220079   6.995   6.869   2.464
 6394SOL     OW20080   1.948   5.033   0.616
 6394SOL    HW120081   1.988   5.058   0.528
 6394SOL    HW220082   1.937   5.116   0.672
 6395SOL     OW20083   0.249   2.208   0.611
 6395SOL    HW120084   0.198   2.271   0.669
 6395SOL    HW220085   0.187   2.171   0.541
 6396SOL     OW20086   4.541   2.995   6.097
 6396SOL    HW120087   4.451   3.006   6.055
 6396SOL    HW220088   4.578   3.084   6.121
 6397SOL     OW20089   5.886   2.152   0.162
 6397SOL    HW120090   5.969   2.099   0.144
 6397SOL    HW220091   5.817   2.132   0.093
 6398SOL     OW20092   2.181   6.656   1.941
 6398SOL    HW120093   2.267   6.623   1.902
 6398SOL    HW220094   2.130   6.580   1.979
 6399SOL     OW20095   1.254   6.376   6.851
 6399SOL    HW120096   1.320   6.371   6.776
 6399SOL    HW220097   1.276   6.456   6.908
 6400SOL     OW20098   2.447   6.308   2.516
 6400SOL    HW120099   2.529   6.364   2.506
 6400SOL    HW220100   2.373   6.346   2.460
 6401SOL     OW20101   5.864   4.764   3.383
 6401SOL    HW120102   5.773   4.794   3.412
 6401SOL    HW220103   5.928   4.840   3.392
 6402SOL     OW20104   3.360   1.826   3.285
 6402SOL    HW120105   3.353   1.912   3.236
 6402SOL    HW220106   3.270   1.797   3.317
 6403SOL     OW20107   6.709   6.129   6.960
 6403SOL    HW120108   6.758   6.216   6.955
 6403SOL    HW220109   6.704   6.089   6.869
 6404SOL     OW20110   4.423   1.620   1.816
 6404SOL    HW120111   4.410   1.717   1.838
 6404SOL    HW220112   4.336   1.582   1.784
 6405SOL     OW20113   2.771   0.338   3.835
 6405SOL    HW120114   2.686   0.312   3.879
 6405SOL    HW220115   2.814   0.412   3.886
 6406SOL     OW20116   0.429   2.813   2.981
 6406SOL    HW120117   0.411   2.822   3.079
 6406SOL    HW220118   0.489   2.735   2.966
 6407SOL     OW20119   2.579   6.012   4.533
 6407SOL    HW120120   2.605   6.098   4.577
 6407SOL    HW220121   2.556   5.945   4.603
 6408SOL     OW20122   5.523   1.783   6.851
 6408SOL    HW120123   5.531   1.772   6.950
 6408SOL    HW220124   5.473   1.868   6.831
 6409SOL     OW20125   0.049   4.447   3.859
 6409SOL    HW120126   6.997   4.385   3.840
 6409SOL    HW220127   0.052   4.467   3.957
 6410SOL     OW20128   1.647   1.515   0.115
 6410SOL    HW120129   1.702   1.561   0.045
 6410SOL    HW220130   1.553   1.506   0.083
 6411SOL     OW20131   1.059   2.626   3.071
 6411SOL    HW120132   1.083   2.716   3.035
 6411SOL    HW220133   0.967   2.630   3.110
 6412SOL     OW20134   0.647   2.539   5.108
 6412SOL    HW120135   0.636   2.459   5.166
 6412SOL    HW220136   0.644   2.622   5.164
 6413SOL     OW20137   4.183   4.687   4.070
 6413SOL    HW120138   4.150   4.710   4.162
 6413SOL    HW220139   4.242   4.606   4.076
 6414SOL     OW20140   5.695   1.202   0.658
 6414SOL    HW120141   5.623   1.271   0.671
 6414SOL    HW220142   5.669   1.140   0.584
 6415SOL     OW20143   1.953   2.954   3.018
 6415SOL    HW120144   1.892   2.880   2.987
 6415SOL    HW220145   2.047   2.921   3.021
 6416SOL     OW20146   0.999   1.393   6.652
 6416SOL    HW120147   1.012   1.349   6.741
 6416SOL    HW220148   1.086   1.395   6.602
 6417SOL     OW20149   6.585   5.154   1.221
 6417SOL    HW120150   6.534   5.226   1.266
 6417SOL    HW220151   6.637   5.101   1.289
 6418SOL     OW20152   4.790   4.290   1.872
 6418SOL    HW120153   4.806   4.358   1.943
 6418SOL    HW220154   4.702   4.245   1.888
 6419SOL     OW20155   2.237   4.708   3.343
 6419SOL    HW120156   2.237   4.807   3.332
 6419SOL    HW220157   2.152   4.679   3.388
 6420SOL     OW20158   3.400   5.053   4.768
 6420SOL    HW120159   3.396   5.114   4.847
 6420SOL    HW220160   3.494   5.018   4.758
 6421SOL     OW20161   5.228   0.547   2.856
 6421SOL    HW120162   5.290   0.621   2.830
 6421SOL    HW220163   5.259   0.462   2.812
 6422SOL     OW20164   0.243   0.840   4.408
 6422SOL    HW120165   0.246   0.762   4.470
 6422SOL    HW220166   0.161   0.835   4.351
 6423SOL     OW20167   4.800   5.568   2.901
 6423SOL    HW120168   4.771   5.646   2.957
 6423SOL    HW220169   4.779   5.483   2.950
 6424SOL     OW20170   6.915   5.752   5.988
 6424SOL    HW120171   6.916   5.802   5.901
 6424SOL    HW220172   6.980   5.794   6.051
 6425SOL     OW20173   6.387   6.408   2.912
 6425SOL    HW120174   6.334   6.433   2.831
 6425SOL    HW220175   6.484   6.423   2.894
 6426SOL     OW20176   1.240   5.123   2.610
 6426SOL    HW120177   1.215   5.043   2.555
 6426SOL    HW220178   1.243   5.098   2.706
 6427SOL     OW20179   3.459   3.262   4.675
 6427SOL    HW120180   3.513   3.178   4.680
 6427SOL    HW220181   3.429   3.289   4.766
 6428SOL     OW20182   5.865   3.781   6.356
 6428SOL    HW120183   5.832   3.847   6.423
 6428SOL    HW220184   5.788   3.740   6.308
 6429SOL     OW20185   1.886   1.674   6.193
 6429SOL    HW120186   1.924   1.684   6.285
 6429SOL    HW220187   1.948   1.621   6.136
 6430SOL     OW20188   6.463   1.087   2.247
 6430SOL    HW120189   6.513   1.173   2.240
 6430SOL    HW220190   6.388   1.098   2.313
 6431SOL     OW20191   5.262   0.014   3.621
 6431SOL    HW120192   5.205   0.015   3.539
 6431SOL    HW220193   5.339   0.077   3.608
 6432SOL     OW20194   3.940   4.115   6.690
 6432SOL    HW120195   4.039   4.108   6.705
 6432SOL    HW220196   3.921   4.191   6.628
 6433SOL     OW20197   2.564   4.729   6.492
 6433SOL    HW120198   2.472   4.706   6.462
 6433SOL    HW220199   2.562   4.813   6.545
 6434SOL     OW20200   2.404   4.176   0.006
 6434SOL    HW120201   2.324   4.115   0.005
 6434SOL    HW220202   2.443   4.180   6.938
 6435SOL     OW20203   5.013   6.934   0.219
 6435SOL    HW120204   5.029   6.870   0.294
 6435SOL    HW220205   4.991   0.000   0.257
 6436SOL     OW20206   2.147   3.099   3.340
 6436SOL    HW120207   2.221   3.033   3.355
 6436SOL    HW220208   2.059   3.053   3.352
 6437SOL     OW20209   2.392   2.046   0.686
 6437SOL    HW120210   2.488   2.039   0.658
 6437SOL    HW220211   2.356   2.134   0.658
 6438SOL     OW20212   6.472   4.733   6.215
 6438SOL    HW120213   6.411   4.755   6.291
 6438SOL    HW220214   6.567   4.734   6.248
 6439SOL     OW20215   5.685   1.301   1.644
 6439SOL    HW120216   5.781   1.279   1.660
 6439SOL    HW220217   5.634   1.216   1.628
 6440SOL     OW20218   2.080   1.457   6.131
 6440SOL    HW120219   2.128   1.533   6.087
 6440SOL    HW220220   2.112   1.371   6.093
 6441SOL     OW20221   7.012   6.135   2.288
 6441SOL    HW120222   6.943   6.198   2.321
 6441SOL    HW220223   0.079   6.174   2.301
 6442SOL     OW20224   2.268   0.849   4.401
 6442SOL    HW120225   2.255   0.751   4.387
 6442SOL    HW220226   2.366   0.871   4.398
 6443SOL     OW20227   4.146   2.419   5.364
 6443SOL    HW120228   4.207   2.452   5.293
 6443SOL    HW220229   4.065   2.378   5.322
 6444SOL     OW20230   6.366   2.845   3.881
 6444SOL    HW120231   6.274   2.869   3.911
 6444SOL    HW220232   6.433   2.902   3.927
 6445SOL     OW20233   3.996   3.257   5.195
 6445SOL    HW120234   4.096   3.250   5.195
 6445SOL    HW220235   3.968   3.321   5.266
 6446SOL     OW20236   1.427   1.027   6.538
 6446SOL    HW120237   1.369   1.109   6.545
 6446SOL    HW220238   1.405   0.965   6.613
 6447SOL     OW20239   5.412   5.209   3.048
 6447SOL    HW120240   5.511   5.206   3.064
 6447SOL    HW220241   5.394   5.248   2.957
 6448SOL     OW20242   3.932   5.532   2.005
 6448SOL    HW120243   3.946   5.435   2.023
 6448SOL    HW220244   3.839   5.558   2.031
 6449SOL     OW20245   3.452   4.939   0.411
 6449SOL    HW120246   3.490   5.026   0.379
 6449SOL    HW220247   3.397   4.955   0.493
 6450SOL     OW20248   0.935   4.136   1.113
 6450SOL    HW120249   0.867   4.204   1.139
 6450SOL    HW220250   0.889   4.055   1.076
 6451SOL     OW20251   2.821   0.305   4.738
 6451SOL    HW120252   2.892   0.243   4.703
 6451SOL    HW220253   2.860   0.396   4.748
 6452SOL     OW20254   3.817   6.429   4.367
 6452SOL    HW120255   3.852   6.517   4.336
 6452SOL    HW220256   3.803   6.432   4.466
 6453SOL     OW20257   2.374   6.258   1.264
 6453SOL    HW120258   2.371   6.358   1.267
 6453SOL    HW220259   2.468   6.227   1.272
 6454SOL     OW20260   1.950   1.677   3.487
 6454SOL    HW120261   1.953   1.776   3.474
 6454SOL    HW220262   1.864   1.642   3.451
 6455SOL     OW20263   0.444   2.556   3.705
 6455SOL    HW120264   0.374   2.486   3.719
 6455SOL    HW220265   0.458   2.570   3.607
 6456SOL     OW20266   1.107   1.012   3.460
 6456SOL    HW120267   1.112   0.915   3.484
 6456SOL    HW220268   1.040   1.058   3.519
 6457SOL     OW20269   5.064   1.663   0.813
 6457SOL    HW120270   4.991   1.595   0.830
 6457SOL    HW220271   5.085   1.711   0.898
 6458SOL     OW20272   0.407   6.416   3.793
 6458SOL    HW120273   0.374   6.496   3.743
 6458SOL    HW220274   0.330   6.367   3.833
 6459SOL     OW20275   6.199   3.533   0.434
 6459SOL    HW120276   6.186   3.509   0.530
 6459SOL    HW220277   6.127   3.595   0.404
 6460SOL     OW20278   5.066   6.171   6.010
 6460SOL    HW120279   5.000   6.186   6.083
 6460SOL    HW220280   5.069   6.074   5.986
 6461SOL     OW20281   2.347   4.974   5.646
 6461SOL    HW120282   2.342   5.038   5.723
 6461SOL    HW220283   2.298   5.012   5.568
 6462SOL     OW20284   2.401   2.641   4.472
 6462SOL    HW120285   2.363   2.620   4.382
 6462SOL    HW220286   2.328   2.673   4.532
 6463SOL     OW20287   6.481   3.552   6.555
 6463SOL    HW120288   6.477   3.491   6.476
 6463SOL    HW220289   6.461   3.646   6.525
 6464SOL     OW20290   1.389   5.837   4.440
 6464SOL    HW120291   1.455   5.825   4.366
 6464SOL    HW220292   1.366   5.747   4.479
 6465SOL     OW20293   6.713   3.026   2.815
 6465SOL    HW120294   6.791   3.087   2.826
 6465SOL    HW220295   6.680   3.031   2.720
 6466SOL     OW20296   1.273   1.457   6.345
 6466SOL    HW120297   1.230   1.541   6.313
 6466SOL    HW220298   1.351   1.435   6.286
 6467SOL     OW20299   3.100   1.483   0.245
 6467SOL    HW120300   3.045   1.459   0.164
 6467SOL    HW220301   3.045   1.469   0.327
 6468SOL     OW20302   3.662   6.216   0.412
 6468SOL    HW120303   3.576   6.229   0.462
 6468SOL    HW220304   3.666   6.280   0.335
 6469SOL     OW20305   5.423   1.282   4.772
 6469SOL    HW120306   5.422   1.231   4.686
 6469SOL    HW220307   5.517   1.300   4.799
 6470SOL     OW20308   6.174   4.005   0.657
 6470SOL    HW120309   6.235   3.999   0.578
 6470SOL    HW220310   6.209   3.947   0.731
 6471SOL     OW20311   6.417   6.919   5.810
 6471SOL    HW120312   6.423   6.932   5.711
 6471SOL    HW220313   6.355   6.987   5.848
 6472SOL     OW20314   0.612   6.140   1.268
 6472SOL    HW120315   0.656   6.150   1.357
 6472SOL    HW220316   0.515   6.159   1.276
 6473SOL     OW20317   3.571   0.769   4.759
 6473SOL    HW120318   3.533   0.711   4.687
 6473SOL    HW220319   3.619   0.847   4.718
 6474SOL     OW20320   1.840   4.737   5.985
 6474SOL    HW120321   1.747   4.758   5.955
 6474SOL    HW220322   1.863   4.643   5.959
 6475SOL     OW20323   6.384   5.134   3.888
 6475SOL    HW120324   6.357   5.050   3.841
 6475SOL    HW220325   6.358   5.127   3.985
 6476SOL     OW20326   4.505   3.677   0.896
 6476SOL    HW120327   4.464   3.698   0.807
 6476SOL    HW220328   4.477   3.746   0.963
 6477SOL     OW20329   6.571   4.755   1.655
 6477SOL    HW120330   6.567   4.689   1.730
 6477SOL    HW220331   6.645   4.730   1.592
 6478SOL     OW20332   3.329   0.206   2.188
 6478SOL    HW120333   3.397   0.260   2.237
 6478SOL    HW220334   3.326   0.113   2.226
 6479SOL     OW20335   4.139   5.841   4.104
 6479SOL    HW120336   4.147   5.781   4.025
 6479SOL    HW220337   4.078   5.801   4.172
 6480SOL     OW20338   2.641   1.955   6.244
 6480SOL    HW120339   2.688   1.995   6.166
 6480SOL    HW220340   2.709   1.919   6.309
 6481SOL     OW20341   3.904   1.913   1.876
 6481SOL    HW120342   3.932   1.909   1.972
 6481SOL    HW220343   3.903   2.008   1.845
 6482SOL     OW20344   0.367   0.781   6.429
 6482SOL    HW120345   0.306   0.732   6.367
 6482SOL    HW220346   0.329   0.779   6.522
 6483SOL     OW20347   0.982   6.204   1.642
 6483SOL    HW120348   0.920   6.126   1.636
 6483SOL    HW220349   0.966   6.253   1.728
 6484SOL     OW20350   3.591   6.694   1.498
 6484SOL    HW120351   3.536   6.635   1.557
 6484SOL    HW220352   3.545   6.705   1.410
 6485SOL     OW20353   2.094   4.778   3.777
 6485SOL    HW120354   2.020   4.837   3.746
 6485SOL    HW220355   2.182   4.821   3.758
 6486SOL     OW20356   2.358   4.860   3.751
 6486SOL    HW120357   2.399   4.882   3.663
 6486SOL    HW220358   2.375   4.934   3.816
 6487SOL     OW20359   6.947   6.525   4.936
 6487SOL    HW120360   6.917   6.474   4.856
 6487SOL    HW220361   0.021   6.541   4.931
 6488SOL     OW20362   3.966   6.341   4.102
 6488SOL    HW120363   4.027   6.282   4.048
 6488SOL    HW220364   3.960   6.305   4.195
 6489SOL     OW20365   2.984   2.703   6.630
 6489SOL    HW120366   2.892   2.703   6.669
 6489SOL    HW220367   3.035   2.782   6.664
 6490SOL     OW20368   4.190   1.070   6.607
 6490SOL    HW120369   4.183   1.065   6.507
 6490SOL    HW220370   4.252   1.144   6.632
 6491SOL     OW20371   3.364   0.617   0.642
 6491SOL    HW120372   3.442   0.640   0.700
 6491SOL    HW220373   3.349   0.690   0.575
 6492SOL     OW20374   4.700   5.181   0.333
 6492SOL    HW120375   4.735   5.195   0.426
 6492SOL    HW220376   4.698   5.268   0.285
 6493SOL     OW20377   1.288   5.153   4.797
 6493SOL    HW120378   1.201   5.194   4.768
 6493SOL    HW220379   1.363   5.214   4.774
 6494SOL     OW20380   0.136   0.603   3.409
 6494SOL    HW120381   0.063   0.541   3.436
 6494SOL    HW220382   0.098   0.676   3.352
 6495SOL     OW20383   5.236   6.783   4.376
 6495SOL    HW120384   5.174   6.830   4.439
 6495SOL    HW220385   5.184   6.746   4.299
 6496SOL     OW20386   6.858   0.788   3.425
 6496SOL    HW120387   6.833   0.693   3.409
 6496SOL    HW220388   6.780   0.847   3.403
 6497SOL     OW20389   2.006   2.685   0.999
 6497SOL    HW120390   1.922   2.721   1.040
 6497SOL    HW220391   2.003   2.701   0.900
 6498SOL     OW20392   2.211   4.090   3.133
 6498SOL    HW120393   2.195   4.123   3.040
 6498SOL    HW220394   2.256   4.161   3.186
 6499SOL     OW20395   4.933   2.866   5.100
 6499SOL    HW120396   4.928   2.788   5.037
 6499SOL    HW220397   4.919   2.835   5.194
 6500SOL     OW20398   6.915   4.249   4.031
 6500SOL    HW120399   6.886   4.240   4.127
 6500SOL    HW220400   6.844   4.211   3.972
 6501SOL     OW20401   6.763   2.436   6.561
 6501SOL    HW120402   6.792   2.528   6.589
 6501SOL    HW220403   6.719   2.390   6.638
 6502SOL     OW20404   6.010   2.762   1.704
 6502SOL    HW120405   5.928   2.716   1.737
 6502SOL    HW220406   6.042   2.717   1.620
 6503SOL     OW20407   4.606   1.529   3.033
 6503SOL    HW120408   4.677   1.599   3.032
 6503SOL    HW220409   4.544   1.543   2.956
 6504SOL     OW20410   4.635   5.784   5.913
 6504SOL    HW120411   4.617   5.738   5.826
 6504SOL    HW220412   4.671   5.876   5.896
 6505SOL     OW20413   5.487   6.116   1.448
 6505SOL    HW120414   5.427   6.041   1.476
 6505SOL    HW220415   5.485   6.188   1.518
 6506SOL     OW20416   6.556   2.537   1.836
 6506SOL    HW120417   6.511   2.479   1.904
 6506SOL    HW220418   6.517   2.629   1.840
 6507SOL     OW20419   2.108   5.026   5.472
 6507SOL    HW120420   2.165   5.075   5.406
 6507SOL    HW220421   2.044   4.968   5.423
 6508SOL     OW20422   1.205   0.873   2.851
 6508SOL    HW120423   1.194   0.806   2.778
 6508SOL    HW220424   1.128   0.937   2.850
 6509SOL     OW20425   2.819   1.906   4.478
 6509SOL    HW120426   2.739   1.963   4.496
 6509SOL    HW220427   2.842   1.855   4.561
 6510SOL     OW20428   6.448   4.890   6.772
 6510SOL    HW120429   6.438   4.951   6.694
 6510SOL    HW220430   6.536   4.842   6.766
 6511SOL     OW20431   4.563   1.229   4.437
 6511SOL    HW120432   4.637   1.266   4.380
 6511SOL    HW220433   4.572   1.264   4.530
 6512SOL     OW20434   5.002   6.117   2.117
 6512SOL    HW120435   4.950   6.084   2.039
 6512SOL    HW220436   5.092   6.150   2.085
 6513SOL     OW20437   3.232   5.301   3.122
 6513SOL    HW120438   3.175   5.320   3.042
 6513SOL    HW220439   3.173   5.278   3.199
 6514SOL     OW20440   5.771   1.271   3.906
 6514SOL    HW120441   5.673   1.288   3.900
 6514SOL    HW220442   5.806   1.247   3.816
 6515SOL     OW20443   0.521   4.895   4.803
 6515SOL    HW120444   0.607   4.900   4.752
 6515SOL    HW220445   0.530   4.949   4.887
 6516SOL     OW20446   0.051   3.113   1.517
 6516SOL    HW120447   0.073   3.153   1.606
 6516SOL    HW220448   6.990   3.154   1.482
 6517SOL     OW20449   6.118   0.154   0.783
 6517SOL    HW120450   6.048   0.084   0.799
 6517SOL    HW220451   6.203   0.110   0.756
 6518SOL     OW20452   6.931   6.882   6.410
 6518SOL    HW120453   6.906   6.786   6.398
 6518SOL    HW220454   7.010   6.903   6.352
 6519SOL     OW20455   1.764   1.279   3.593
 6519SOL    HW120456   1.707   1.221   3.536
 6519SOL    HW220457   1.749   1.256   3.689
 6520SOL     OW20458   5.316   5.554   2.492
 6520SOL    HW120459   5.386   5.531   2.560
 6520SOL    HW220460   5.361   5.587   2.409
 6521SOL     OW20461   2.312   2.910   4.318
 6521SOL    HW120462   2.368   2.884   4.396
 6521SOL    HW220463   2.217   2.881   4.334
 6522SOL     OW20464   4.190   4.567   0.404
 6522SOL    HW120465   4.232   4.549   0.493
 6522SOL    HW220466   4.117   4.634   0.415
 6523SOL     OW20467   4.343   1.569   6.628
 6523SOL    HW120468   4.363   1.660   6.664
 6523SOL    HW220469   4.248   1.545   6.648
 6524SOL     OW20470   2.836   4.075   1.720
 6524SOL    HW120471   2.752   4.129   1.732
 6524SOL    HW220472   2.830   4.024   1.635
 6525SOL     OW20473   2.021   4.906   2.421
 6525SOL    HW120474   2.001   4.921   2.518
 6525SOL    HW220475   2.113   4.941   2.400
 6526SOL     OW20476   2.257   6.631   6.786
 6526SOL    HW120477   2.327   6.696   6.754
 6526SOL    HW220478   2.192   6.614   6.712
 6527SOL     OW20479   0.765   2.739   4.640
 6527SOL    HW120480   0.745   2.700   4.730
 6527SOL    HW220481   0.700   2.703   4.573
 6528SOL     OW20482   6.736   0.873   4.967
 6528SOL    HW120483   6.755   0.907   4.875
 6528SOL    HW220484   6.822   0.851   5.013
 6529SOL     OW20485   1.294   1.697   2.477
 6529SOL    HW120486   1.275   1.717   2.381
 6529SOL    HW220487   1.375   1.639   2.483
 6530SOL     OW20488   0.004   3.818   0.481
 6530SOL    HW120489   0.008   3.799   0.579
 6530SOL    HW220490   6.969   3.752   0.436
 6531SOL     OW20491   5.646   2.742   5.048
 6531SOL    HW120492   5.641   2.833   5.007
 6531SOL    HW220493   5.730   2.697   5.018
 6532SOL     OW20494   6.355   0.805   0.379
 6532SOL    HW120495   6.289   0.877   0.358
 6532SOL    HW220496   6.308   0.724   0.414
 6533SOL     OW20497   4.599   6.933   1.567
 6533SOL    HW120498   4.658   6.905   1.642
 6533SOL    HW220499   4.538   7.007   1.597
 6534SOL     OW20500   3.362   4.160   1.324
 6534SOL    HW120501   3.365   4.187   1.228
 6534SOL    HW220502   3.273   4.121   1.345
 6535SOL     OW20503   6.199   4.143   4.399
 6535SOL    HW120504   6.294   4.118   4.379
 6535SOL    HW220505   6.146   4.061   4.418
 6536SOL     OW20506   1.111   1.417   5.698
 6536SOL    HW120507   1.023   1.448   5.733
 6536SOL    HW220508   1.184   1.469   5.743
 6537SOL     OW20509   6.576   5.206   0.289
 6537SOL    HW120510   6.487   5.165   0.269
 6537SOL    HW220511   6.648   5.158   0.239
 6538SOL     OW20512   2.681   3.150   6.706
 6538SOL    HW120513   2.773   3.129   6.739
 6538SOL    HW220514   2.614   3.106   6.764
 6539SOL     OW20515   3.808   0.890   6.144
 6539SOL    HW120516   3.709   0.881   6.137
 6539SOL    HW220517   3.849   0.799   6.153
 6540SOL     OW20518   4.488   1.712   5.193
 6540SOL    HW120519   4.423   1.750   5.260
 6540SOL    HW220520   4.464   1.617   5.173
 6541SOL     OW20521   4.718   1.742   5.369
 6541SOL    HW120522   4.801   1.721   5.317
 6541SOL    HW220523   4.639   1.737   5.308
 6542SOL     OW20524   6.314   4.467   4.348
 6542SOL    HW120525   6.331   4.486   4.252
 6542SOL    HW220526   6.334   4.370   4.367
 6543SOL     OW20527   5.933   3.595   5.897
 6543SOL    HW120528   5.885   3.509   5.917
 6543SOL    HW220529   5.984   3.624   5.977
 6544SOL     OW20530   0.599   6.147   2.621
 6544SOL    HW120531   0.646   6.217   2.567
 6544SOL    HW220532   0.604   6.059   2.574
 6545SOL     OW20533   4.565   1.877   0.336
 6545SOL    HW120534   4.587   1.948   0.269
 6545SOL    HW220535   4.649   1.844   0.379
 6546SOL     OW20536   3.631   4.297   6.782
 6546SOL    HW120537   3.640   4.389   6.745
 6546SOL    HW220538   3.559   4.296   6.852
 6547SOL     OW20539   4.523   1.569   5.614
 6547SOL    HW120540   4.574   1.555   5.529
 6547SOL    HW220541   4.582   1.548   5.692
 6548SOL     OW20542   1.209   4.456   7.005
 6548SOL    HW120543   1.219   4.383   0.048
 6548SOL    HW220544   1.155   4.423   6.927
 6549SOL     OW20545   4.712   0.998   1.325
 6549SOL    HW120546   4.621   0.957   1.338
 6549SOL    HW220547   4.782   0.929   1.346
 6550SOL     OW20548   0.525   6.813   4.181
 6550SOL    HW120549   0.494   6.718   4.181
 6550SOL    HW220550   0.454   6.871   4.223
 6551SOL     OW20551   1.201   4.922   2.461
 6551SOL    HW120552   1.143   4.958   2.387
 6551SOL    HW220553   1.168   4.832   2.489
 6552SOL     OW20554   1.958   6.468   5.643
 6552SOL    HW120555   1.935   6.553   5.596
 6552SOL    HW220556   1.930   6.390   5.586
 6553SOL     OW20557   0.255   2.199   3.239
 6553SOL    HW120558   0.349   2.206   3.271
 6553SOL    HW220559   0.203   2.140   3.300
 6554SOL     OW20560   6.592   1.068   5.151
 6554SOL    HW120561   6.521   1.113   5.099
 6554SOL    HW220562   6.625   0.987   5.102
 6555SOL     OW20563   0.297   2.115   2.101
 6555SOL    HW120564   0.222   2.154   2.155
 6555SOL    HW220565   0.383   2.159   2.127
 6556SOL     OW20566   5.008   4.452   4.936
 6556SOL    HW120567   4.945   4.438   4.860
 6556SOL    HW220568   4.958   4.483   5.017
 6557SOL     OW20569   3.368   6.224   1.357
 6557SOL    HW120570   3.376   6.136   1.310
 6557SOL    HW220571   3.414   6.295   1.303
 6558SOL     OW20572   6.220   4.872   0.324
 6558SOL    HW120573   6.279   4.944   0.288
 6558SOL    HW220574   6.163   4.836   0.250
 6559SOL     OW20575   1.062   4.460   5.897
 6559SOL    HW120576   1.069   4.425   5.990
 6559SOL    HW220577   1.137   4.524   5.879
 6560SOL     OW20578   4.363   5.482   0.727
 6560SOL    HW120579   4.355   5.385   0.706
 6560SOL    HW220580   4.447   5.498   0.778
 6561SOL     OW20581   3.794   4.083   1.782
 6561SOL    HW120582   3.800   4.076   1.682
 6561SOL    HW220583   3.750   4.170   1.806
 6562SOL     OW20584   5.677   4.164   1.062
 6562SOL    HW120585   5.664   4.262   1.073
 6562SOL    HW220586   5.605   4.127   1.003
 6563SOL     OW20587   5.923   6.746   0.644
 6563SOL    HW120588   6.011   6.707   0.617
 6563SOL    HW220589   5.849   6.688   0.609
 6564SOL     OW20590   0.071   4.360   3.217
 6564SOL    HW120591   0.068   4.299   3.296
 6564SOL    HW220592   7.012   4.416   3.216
 6565SOL     OW20593   6.670   2.895   3.783
 6565SOL    HW120594   6.643   2.866   3.875
 6565SOL    HW220595   6.762   2.861   3.764
 6566SOL     OW20596   3.609   5.942   2.712
 6566SOL    HW120597   3.590   6.001   2.791
 6566SOL    HW220598   3.693   5.974   2.668
 6567SOL     OW20599   4.125   1.552   1.630
 6567SOL    HW120600   4.108   1.650   1.628
 6567SOL    HW220601   4.040   1.504   1.652
 6568SOL     OW20602   4.160   0.917   3.953
 6568SOL    HW120603   4.239   0.873   3.909
 6568SOL    HW220604   4.193   0.984   4.020
 6569SOL     OW20605   2.884   3.868   6.713
 6569SOL    HW120606   2.868   3.850   6.616
 6569SOL    HW220607   2.799   3.896   6.757
 6570SOL     OW20608   3.930   0.121   2.501
 6570SOL    HW120609   3.944   0.200   2.442
 6570SOL    HW220610   3.845   0.133   2.553
 6571SOL     OW20611   2.716   5.439   2.202
 6571SOL    HW120612   2.641   5.466   2.262
 6571SOL    HW220613   2.787   5.392   2.255
 6572SOL     OW20614   6.529   5.040   6.007
 6572SOL    HW120615   6.497   5.087   5.925
 6572SOL    HW220616   6.453   4.987   6.046
 6573SOL     OW20617   2.724   1.562   1.951
 6573SOL    HW120618   2.642   1.513   1.982
 6573SOL    HW220619   2.718   1.657   1.982
 6574SOL     OW20620   3.811   5.855   3.186
 6574SOL    HW120621   3.848   5.774   3.230
 6574SOL    HW220622   3.713   5.844   3.171
 6575SOL     OW20623   1.224   0.391   2.073
 6575SOL    HW120624   1.171   0.456   2.019
 6575SOL    HW220625   1.169   0.358   2.149
 6576SOL     OW20626   2.246   5.906   6.477
 6576SOL    HW120627   2.261   6.001   6.450
 6576SOL    HW220628   2.148   5.889   6.485
 6577SOL     OW20629   0.800   0.986   3.887
 6577SOL    HW120630   0.839   1.055   3.826
 6577SOL    HW220631   0.764   0.910   3.832
 6578SOL     OW20632   1.226   4.154   2.975
 6578SOL    HW120633   1.161   4.130   2.902
 6578SOL    HW220634   1.178   4.205   3.046
 6579SOL     OW20635   7.018   3.535   5.292
 6579SOL    HW120636   6.921   3.561   5.295
 6579SOL    HW220637   0.049   3.610   5.326
 6580SOL     OW20638   6.611   2.112   0.696
 6580SOL    HW120639   6.621   2.211   0.687
 6580SOL    HW220640   6.597   2.071   0.606
 6581SOL     OW20641   2.526   1.411   6.970
 6581SOL    HW120642   2.461   1.375   0.012
 6581SOL    HW220643   2.548   1.506   6.992
 6582SOL     OW20644   1.507   1.323   1.277
 6582SOL    HW120645   1.481   1.228   1.257
 6582SOL    HW220646   1.511   1.336   1.376
 6583SOL     OW20647   3.421   0.024   4.540
 6583SOL    HW120648   3.463   0.007   4.629
 6583SOL    HW220649   3.322   0.018   4.548
 6584SOL     OW20650   4.287   1.820   0.352
 6584SOL    HW120651   4.381   1.843   0.324
 6584SOL    HW220652   4.270   1.723   0.334
 6585SOL     OW20653   6.625   6.620   0.308
 6585SOL    HW120654   6.573   6.549   0.356
 6585SOL    HW220655   6.578   6.708   0.320
 6586SOL     OW20656   6.767   1.712   5.442
 6586SOL    HW120657   6.761   1.619   5.407
 6586SOL    HW220658   6.790   1.709   5.540
 6587SOL     OW20659   2.590   6.061   5.015
 6587SOL    HW120660   2.610   6.158   5.004
 6587SOL    HW220661   2.674   6.008   5.005
 6588SOL     OW20662   1.148   4.028   2.043
 6588SOL    HW120663   1.208   4.013   1.964
 6588SOL    HW220664   1.053   4.013   2.015
 6589SOL     OW20665   4.991   0.393   0.523
 6589SOL    HW120666   5.060   0.442   0.577
 6589SOL    HW220667   4.986   0.433   0.431
 6590SOL     OW20668   1.081   1.032   5.048
 6590SOL    HW120669   1.078   1.080   4.960
 6590SOL    HW220670   1.071   0.934   5.033
 6591SOL     OW20671   5.377   6.101   1.878
 6591SOL    HW120672   5.409   6.138   1.965
 6591SOL    HW220673   5.428   6.018   1.856
 6592SOL     OW20674   5.919   6.937   3.973
 6592SOL    HW120675   5.897   7.002   3.900
 6592SOL    HW220676   5.979   6.979   4.040
 6593SOL     OW20677   2.694   1.802   2.882
 6593SOL    HW120678   2.793   1.799   2.873
 6593SOL    HW220679   2.664   1.735   2.951
 6594SOL     OW20680   3.715   2.153   0.097
 6594SOL    HW120681   3.649   2.185   0.029
 6594SOL    HW220682   3.726   2.054   0.089
 6595SOL     OW20683   1.035   3.526   0.278
 6595SOL    HW120684   0.956   3.588   0.274
 6595SOL    HW220685   1.010   3.439   0.236
 6596SOL     OW20686   3.174   6.419   4.353
 6596SOL    HW120687   3.249   6.399   4.290
 6596SOL    HW220688   3.159   6.339   4.412
 6597SOL     OW20689   2.935   5.654   2.488
 6597SOL    HW120690   3.006   5.614   2.429
 6597SOL    HW220691   2.867   5.583   2.509
 6598SOL     OW20692   1.131   6.644   4.131
 6598SOL    HW120693   1.039   6.610   4.146
 6598SOL    HW220694   1.195   6.567   4.132
 6599SOL     OW20695   5.085   6.963   5.430
 6599SOL    HW120696   5.060   6.876   5.472
 6599SOL    HW220697   5.157   6.948   5.362
 6600SOL     OW20698   5.042   5.197   6.161
 6600SOL    HW120699   5.097   5.176   6.081
 6600SOL    HW220700   4.970   5.261   6.137
 6601SOL     OW20701   1.104   1.871   5.487
 6601SOL    HW120702   1.019   1.869   5.434
 6601SOL    HW220703   1.150   1.958   5.471
 6602SOL     OW20704   0.972   1.549   1.536
 6602SOL    HW120705   0.991   1.485   1.462
 6602SOL    HW220706   0.982   1.643   1.503
 6603SOL     OW20707   0.658   2.779   3.777
 6603SOL    HW120708   0.659   2.878   3.768
 6603SOL    HW220709   0.563   2.746   3.778
 6604SOL     OW20710   2.084   6.695   1.270
 6604SOL    HW120711   2.139   6.760   1.217
 6604SOL    HW220712   2.033   6.636   1.207
 6605SOL     OW20713   5.417   4.015   1.427
 6605SOL    HW120714   5.485   4.084   1.450
 6605SOL    HW220715   5.325   4.055   1.433
 6606SOL     OW20716   6.750   6.261   2.401
 6606SOL    HW120717   6.757   6.308   2.489
 6606SOL    HW220718   6.774   6.325   2.328
 6607SOL     OW20719   1.387   3.069   2.678
 6607SOL    HW120720   1.440   2.987   2.701
 6607SOL    HW220721   1.322   3.048   2.605
 6608SOL     OW20722   6.405   6.630   1.554
 6608SOL    HW120723   6.454   6.575   1.621
 6608SOL    HW220724   6.403   6.581   1.466
 6609SOL     OW20725   4.714   1.271   5.763
 6609SOL    HW120726   4.666   1.246   5.679
 6609SOL    HW220727   4.714   1.370   5.773
 6610SOL     OW20728   2.187   0.640   6.926
 6610SOL    HW120729   2.202   0.717   6.863
 6610SOL    HW220730   2.216   0.666   7.018
 6611SOL     OW20731   6.376   3.109   3.752
 6611SOL    HW120732   6.406   3.017   3.730
 6611SOL    HW220733   6.409   3.135   3.843
 6612SOL     OW20734   6.389   1.773   6.395
 6612SOL    HW120735   6.387   1.859   6.343
 6612SOL    HW220736   6.393   1.793   6.493
 6613SOL     OW20737   6.430   6.493   4.977
 6613SOL    HW120738   6.465   6.565   4.917
 6613SOL    HW220739   6.460   6.511   5.071
 6614SOL     OW20740   5.292   5.902   1.019
 6614SOL    HW120741   5.386   5.893   0.987
 6614SOL    HW220742   5.244   5.815   1.006
 6615SOL     OW20743   1.307   4.657   2.233
 6615SOL    HW120744   1.360   4.710   2.300
 6615SOL    HW220745   1.233   4.714   2.197
 6616SOL     OW20746   3.392   1.430   6.398
 6616SOL    HW120747   3.492   1.425   6.393
 6616SOL    HW220748   3.353   1.339   6.385
 6617SOL     OW20749   4.094   5.263   2.772
 6617SOL    HW120750   3.998   5.255   2.802
 6617SOL    HW220751   4.149   5.302   2.846
 6618SOL     OW20752   1.072   2.726   2.678
 6618SOL    HW120753   1.100   2.765   2.765
 6618SOL    HW220754   1.116   2.636   2.666
 6619SOL     OW20755   6.091   0.051   4.196
 6619SOL    HW120756   6.120   7.007   4.264
 6619SOL    HW220757   6.031   0.118   4.240
 6620SOL     OW20758   1.266   2.556   5.817
 6620SOL    HW120759   1.319   2.628   5.773
 6620SOL    HW220760   1.310   2.467   5.799
 6621SOL     OW20761   2.192   3.249   6.038
 6621SOL    HW120762   2.255   3.305   5.984
 6621SOL    HW220763   2.244   3.179   6.087
 6622SOL     OW20764   5.932   0.195   1.413
 6622SOL    HW120765   5.855   0.139   1.442
 6622SOL    HW220766   5.958   0.171   1.319
 6623SOL     OW20767   2.321   3.042   6.163
 6623SOL    HW120768   2.416   3.033   6.190
 6623SOL    HW220769   2.283   2.952   6.142
 6624SOL     OW20770   0.678   5.809   4.865
 6624SOL    HW120771   0.766   5.803   4.913
 6624SOL    HW220772   0.607   5.768   4.922
 6625SOL     OW20773   5.097   1.883   5.678
 6625SOL    HW120774   5.085   1.907   5.775
 6625SOL    HW220775   5.008   1.860   5.639
 6626SOL     OW20776   4.798   5.376   5.727
 6626SOL    HW120777   4.869   5.444   5.746
 6626SOL    HW220778   4.710   5.423   5.713
 6627SOL     OW20779   2.455   0.035   5.251
 6627SOL    HW120780   2.423   0.096   5.179
 6627SOL    HW220781   2.467   0.088   5.336
 6628SOL     OW20782   4.598   4.402   4.624
 6628SOL    HW120783   4.501   4.380   4.630
 6628SOL    HW220784   4.612   4.496   4.654
 6629SOL     OW20785   4.583   6.088   0.277
 6629SOL    HW120786   4.597   6.015   0.344
 6629SOL    HW220787   4.658   6.088   0.212
 6630SOL     OW20788   3.967   1.268   1.408
 6630SOL    HW120789   3.999   1.292   1.316
 6630SOL    HW220790   3.953   1.352   1.461
 6631SOL     OW20791   2.615   5.661   2.894
 6631SOL    HW120792   2.694   5.601   2.914
 6631SOL    HW220793   2.570   5.686   2.980
 6632SOL     OW20794   0.287   6.328   1.483
 6632SOL    HW120795   0.361   6.390   1.456
 6632SOL    HW220796   0.210   6.382   1.517
 6633SOL     OW20797   0.825   4.596   6.489
 6633SOL    HW120798   0.750   4.579   6.424
 6633SOL    HW220799   0.789   4.594   6.582
 6634SOL     OW20800   6.381   2.279   4.112
 6634SOL    HW120801   6.292   2.307   4.076
 6634SOL    HW220802   6.380   2.285   4.212
 6635SOL     OW20803   4.198   4.816   3.137
 6635SOL    HW120804   4.179   4.910   3.108
 6635SOL    HW220805   4.216   4.759   3.057
 6636SOL     OW20806   4.956   2.507   5.686
 6636SOL    HW120807   4.892   2.579   5.660
 6636SOL    HW220808   4.983   2.519   5.781
 6637SOL     OW20809   1.341   0.165   6.417
 6637SOL    HW120810   1.427   0.210   6.440
 6637SOL    HW220811   1.319   0.097   6.487
 6638SOL     OW20812   3.222   3.854   4.277
 6638SOL    HW120813   3.244   3.757   4.266
 6638SOL    HW220814   3.298   3.900   4.323
 6639SOL     OW20815   5.723   4.839   6.479
 6639SOL    HW120816   5.771   4.819   6.393
 6639SOL    HW220817   5.725   4.937   6.496
 6640SOL     OW20818   1.320   1.762   5.297
 6640SOL    HW120819   1.373   1.831   5.347
 6640SOL    HW220820   1.259   1.807   5.233
 6641SOL     OW20821   2.191   2.037   0.146
 6641SOL    HW120822   2.251   2.115   0.161
 6641SOL    HW220823   2.244   1.962   0.107
 6642SOL     OW20824   3.400   5.118   6.439
 6642SOL    HW120825   3.459   5.043   6.409
 6642SOL    HW220826   3.357   5.161   6.360
 6643SOL     OW20827   6.180   5.336   0.308
 6643SOL    HW120828   6.218   5.425   0.332
 6643SOL    HW220829   6.167   5.281   0.390
 6644SOL     OW20830   2.474   4.733   2.041
 6644SOL    HW120831   2.571   4.709   2.044
 6644SOL    HW220832   2.419   4.656   2.075
 6645SOL     OW20833   6.726   5.078   0.503
 6645SOL    HW120834   6.731   5.134   0.586
 6645SOL    HW220835   6.663   5.120   0.438
 6646SOL     OW20836   4.072   7.009   5.233
 6646SOL    HW120837   4.155   0.026   5.195
 6646SOL    HW220838   4.007   6.990   5.160
 6647SOL     OW20839   4.497   0.971   2.127
 6647SOL    HW120840   4.518   0.939   2.035
 6647SOL    HW220841   4.432   0.909   2.170
 6648SOL     OW20842   4.071   6.914   2.466
 6648SOL    HW120843   4.008   6.838   2.451
 6648SOL    HW220844   4.019   6.995   2.492
 6649SOL     OW20845   5.690   0.704   6.704
 6649SOL    HW120846   5.613   0.734   6.647
 6649SOL    HW220847   5.666   0.714   6.800
 6650SOL     OW20848   3.099   1.260   4.958
 6650SOL    HW120849   3.023   1.209   4.917
 6650SOL    HW220850   3.106   1.350   4.914
 6651SOL     OW20851   2.084   1.520   5.822
 6651SOL    HW120852   2.123   1.520   5.730
 6651SOL    HW220853   2.145   1.569   5.885
 6652SOL     OW20854   0.207   4.279   0.539
 6652SOL    HW120855   0.244   4.241   0.454
 6652SOL    HW220856   0.262   4.250   0.617
 6653SOL     OW20857   3.404   2.855   2.588
 6653SOL    HW120858   3.351   2.933   2.553
 6653SOL    HW220859   3.413   2.863   2.687
 6654SOL     OW20860   1.913   3.653   1.737
 6654SOL    HW120861   1.856   3.573   1.717
 6654SOL    HW220862   1.854   3.730   1.762
 6655SOL     OW20863   1.694   6.915   2.850
 6655SOL    HW120864   1.596   6.905   2.839
 6655SOL    HW220865   1.736   6.934   2.761
 6656SOL     OW20866   6.032   2.215   2.382
 6656SOL    HW120867   6.132   2.211   2.375
 6656SOL    HW220868   6.002   2.162   2.461
 6657SOL     OW20869   5.815   6.560   6.641
 6657SOL    HW120870   5.802   6.513   6.554
 6657SOL    HW220871   5.778   6.652   6.635
 6658SOL     OW20872   6.032   0.943   5.281
 6658SOL    HW120873   6.078   1.021   5.325
 6658SOL    HW220874   5.935   0.944   5.305
 6659SOL     OW20875   2.178   2.758   0.565
 6659SOL    HW120876   2.263   2.786   0.521
 6659SOL    HW220877   2.163   2.661   0.549
 6660SOL     OW20878   0.935   5.676   0.642
 6660SOL    HW120879   0.872   5.664   0.718
 6660SOL    HW220880   0.919   5.606   0.573
 6661SOL     OW20881   1.079   6.754   4.649
 6661SOL    HW120882   0.981   6.737   4.659
 6661SOL    HW220883   1.122   6.674   4.607
 6662SOL     OW20884   0.846   1.324   0.055
 6662SOL    HW120885   0.872   1.263   0.130
 6662SOL    HW220886   0.753   1.302   0.025
 6663SOL     OW20887   0.159   5.655   3.941
 6663SOL    HW120888   0.076   5.639   3.994
 6663SOL    HW220889   0.196   5.567   3.911
 6664SOL     OW20890   2.834   6.269   6.923
 6664SOL    HW120891   2.774   6.189   6.914
 6664SOL    HW220892   2.928   6.242   6.906
 6665SOL     OW20893   1.494   6.539   4.054
 6665SOL    HW120894   1.539   6.557   4.141
 6665SOL    HW220895   1.444   6.621   4.025
 6666SOL     OW20896   5.386   6.858   5.979
 6666SOL    HW120897   5.356   6.880   5.886
 6666SOL    HW220898   5.367   6.936   6.039
 6667SOL     OW20899   6.390   5.752   6.526
 6667SOL    HW120900   6.447   5.835   6.530
 6667SOL    HW220901   6.416   5.699   6.445
 6668SOL     OW20902   6.816   5.999   1.564
 6668SOL    HW120903   6.722   6.011   1.597
 6668SOL    HW220904   6.845   6.080   1.513
 6669SOL     OW20905   1.824   2.553   3.830
 6669SOL    HW120906   1.780   2.499   3.758
 6669SOL    HW220907   1.822   2.650   3.805
 6670SOL     OW20908   4.143   2.572   5.602
 6670SOL    HW120909   4.199   2.528   5.672
 6670SOL    HW220910   4.153   2.523   5.515
 6671SOL     OW20911   5.933   5.794   1.299
 6671SOL    HW120912   5.903   5.776   1.205
 6671SOL    HW220913   5.862   5.845   1.347
 6672SOL     OW20914   6.802   1.512   6.158
 6672SOL    HW120915   6.774   1.423   6.121
 6672SOL    HW220916   6.743   1.584   6.121
 6673SOL     OW20917   5.373   5.997   3.804
 6673SOL    HW120918   5.300   5.948   3.851
 6673SOL    HW220919   5.369   5.976   3.706
 6674SOL     OW20920   0.873   4.986   5.802
 6674SOL    HW120921   0.871   4.983   5.902
 6674SOL    HW220922   0.781   4.966   5.766
 6675SOL     OW20923   4.957   3.305   1.738
 6675SOL    HW120924   4.980   3.321   1.834
 6675SOL    HW220925   5.024   3.245   1.697
 6676SOL     OW20926   6.789   4.211   5.432
 6676SOL    HW120927   6.716   4.259   5.480
 6676SOL    HW220928   6.751   4.164   5.352
 6677SOL     OW20929   0.583   1.826   6.105
 6677SOL    HW120930   0.540   1.777   6.029
 6677SOL    HW220931   0.620   1.760   6.171
 6678SOL     OW20932   3.134   3.366   6.665
 6678SOL    HW120933   3.163   3.273   6.688
 6678SOL    HW220934   3.052   3.362   6.609
 6679SOL     OW20935   2.368   1.882   3.561
 6679SOL    HW120936   2.317   1.833   3.632
 6679SOL    HW220937   2.306   1.939   3.508
 6680SOL     OW20938   4.311   0.307   6.400
 6680SOL    HW120939   4.292   0.333   6.495
 6680SOL    HW220940   4.326   0.208   6.395
 6681SOL     OW20941   4.388   5.612   0.502
 6681SOL    HW120942   4.306   5.628   0.447
 6681SOL    HW220943   4.364   5.554   0.580
 6682SOL     OW20944   1.263   4.346   3.317
 6682SOL    HW120945   1.258   4.442   3.288
 6682SOL    HW220946   1.346   4.304   3.281
 6683SOL     OW20947   5.822   2.752   5.466
 6683SOL    HW120948   5.896   2.754   5.533
 6683SOL    HW220949   5.855   2.788   5.379
 6684SOL     OW20950   2.526   6.661   1.510
 6684SOL    HW120951   2.431   6.651   1.480
 6684SOL    HW220952   2.572   6.572   1.506
 6685SOL     OW20953   5.907   3.422   6.290
 6685SOL    HW120954   5.839   3.472   6.236
 6685SOL    HW220955   5.944   3.347   6.235
 6686SOL     OW20956   5.405   5.985   4.760
 6686SOL    HW120957   5.450   6.009   4.845
 6686SOL    HW220958   5.354   5.900   4.771
 6687SOL     OW20959   0.871   3.108   0.539
 6687SOL    HW120960   0.890   3.110   0.637
 6687SOL    HW220961   0.794   3.168   0.519
 6688SOL     OW20962   6.996   4.576   1.392
 6688SOL    HW120963   6.899   4.598   1.395
 6688SOL    HW220964   7.008   4.477   1.381
 6689SOL     OW20965   4.626   3.179   6.954
 6689SOL    HW120966   4.529   3.154   6.961
 6689SOL    HW220967   4.635   3.262   6.899
 6690SOL     OW20968   2.397   0.977   0.935
 6690SOL    HW120969   2.357   0.908   0.875
 6690SOL    HW220970   2.453   0.932   1.005
 6691SOL     OW20971   3.090   6.226   1.414
 6691SOL    HW120972   3.085   6.130   1.441
 6691SOL    HW220973   3.176   6.243   1.366
 6692SOL     OW20974   4.050   3.793   5.317
 6692SOL    HW120975   4.066   3.746   5.230
 6692SOL    HW220976   3.997   3.876   5.300
 6693SOL     OW20977   4.359   3.822   5.575
 6693SOL    HW120978   4.321   3.903   5.532
 6693SOL    HW220979   4.369   3.749   5.508
 6694SOL     OW20980   4.828   5.205   0.593
 6694SOL    HW120981   4.903   5.224   0.530
 6694SOL    HW220982   4.844   5.117   0.638
 6695SOL     OW20983   2.895   1.488   6.626
 6695SOL    HW120984   2.985   1.527   6.606
 6695SOL    HW220985   2.891   1.394   6.590
 6696SOL     OW20986   1.198   2.957   5.897
 6696SOL    HW120987   1.251   2.887   5.848
 6696SOL    HW220988   1.259   3.028   5.931
 6697SOL     OW20989   4.647   2.164   2.344
 6697SOL    HW120990   4.650   2.242   2.406
 6697SOL    HW220991   4.650   2.079   2.398
 6698SOL     OW20992   3.093   2.571   1.250
 6698SOL    HW120993   3.171   2.535   1.300
 6698SOL    HW220994   3.009   2.525   1.281
 6699SOL     OW20995   2.989   5.374   5.848
 6699SOL    HW120996   3.022   5.467   5.835
 6699SOL    HW220997   2.889   5.373   5.844
 6700SOL     OW20998   6.842   6.806   0.597
 6700SOL    HW120999   6.917   6.809   0.530
 6700SOL    HW221000   6.873   6.848   0.682
 6701SOL     OW21001   5.473   2.899   1.668
 6701SOL    HW121002   5.546   2.880   1.734
 6701SOL    HW221003   5.446   2.995   1.675
 6702SOL     OW21004   2.806   2.093   1.688
 6702SOL    HW121005   2.785   2.190   1.698
 6702SOL    HW221006   2.838   2.075   1.595
 6703SOL     OW21007   6.435   2.164   6.453
 6703SOL    HW121008   6.469   2.247   6.409
 6703SOL    HW221009   6.460   2.165   6.550
 6704SOL     OW21010   3.376   2.077   3.186
 6704SOL    HW121011   3.364   2.096   3.088
 6704SOL    HW221012   3.468   2.105   3.213
 6705SOL     OW21013   6.649   2.086   1.245
 6705SOL    HW121014   6.623   2.134   1.162
 6705SOL    HW221015   6.746   2.100   1.263
 6706SOL     OW21016   1.555   3.803   2.037
 6706SOL    HW121017   1.496   3.846   1.969
 6706SOL    HW221018   1.531   3.706   2.045
 6707SOL     OW21019   0.041   6.166   3.720
 6707SOL    HW121020   6.968   6.143   3.710
 6707SOL    HW221021   0.094   6.081   3.730
 6708SOL     OW21022   6.833   5.382   2.261
 6708SOL    HW121023   6.775   5.304   2.284
 6708SOL    HW221024   6.787   5.440   2.194
 6709SOL     OW21025   2.940   6.915   2.192
 6709SOL    HW121026   2.958   6.966   2.276
 6709SOL    HW221027   2.844   6.888   2.190
 6710SOL     OW21028   2.963   1.192   5.325
 6710SOL    HW121029   2.993   1.239   5.408
 6710SOL    HW221030   3.022   1.219   5.248
 6711SOL     OW21031   5.060   5.507   0.074
 6711SOL    HW121032   5.071   5.412   0.044
 6711SOL    HW221033   5.147   5.541   0.109
 6712SOL     OW21034   4.890   5.095   0.153
 6712SOL    HW121035   4.853   5.016   0.103
 6712SOL    HW221036   4.820   5.131   0.215
 6713SOL     OW21037   2.375   0.683   2.303
 6713SOL    HW121038   2.423   0.762   2.341
 6713SOL    HW221039   2.438   0.606   2.296
 6714SOL     OW21040   6.342   1.172   6.352
 6714SOL    HW121041   6.355   1.168   6.451
 6714SOL    HW221042   6.246   1.193   6.333
 6715SOL     OW21043   6.763   0.186   6.259
 6715SOL    HW121044   6.851   0.161   6.299
 6715SOL    HW221045   6.700   0.108   6.267
 6716SOL     OW21046   0.466   5.640   1.880
 6716SOL    HW121047   0.460   5.547   1.917
 6716SOL    HW221048   0.517   5.639   1.794
 6717SOL     OW21049   4.281   2.551   0.169
 6717SOL    HW121050   4.362   2.582   0.219
 6717SOL    HW221051   4.231   2.631   0.134
 6718SOL     OW21052   4.944   0.218   6.247
 6718SOL    HW121053   5.003   0.269   6.310
 6718SOL    HW221054   4.993   0.201   6.161
 6719SOL     OW21055   1.513   6.891   6.422
 6719SOL    HW121056   1.591   6.919   6.367
 6719SOL    HW221057   1.429   6.925   6.381
 6720SOL     OW21058   0.693   6.001   3.533
 6720SOL    HW121059   0.628   5.931   3.563
 6720SOL    HW221060   0.646   6.068   3.475
 6721SOL     OW21061   6.409   0.587   5.764
 6721SOL    HW121062   6.377   0.682   5.763
 6721SOL    HW221063   6.484   0.577   5.829
 6722SOL     OW21064   0.001   3.665   1.374
 6722SOL    HW121065   7.004   3.629   1.283
 6722SOL    HW221066   6.955   3.635   1.438
 6723SOL     OW21067   1.981   6.847   3.209
 6723SOL    HW121068   1.981   6.859   3.110
 6723SOL    HW221069   2.054   6.902   3.250
 6724SOL     OW21070   1.243   3.765   5.686
 6724SOL    HW121071   1.149   3.729   5.683
 6724SOL    HW221072   1.278   3.760   5.780
 6725SOL     OW21073   1.373   3.951   1.036
 6725SOL    HW121074   1.469   3.979   1.045
 6725SOL    HW221075   1.352   3.931   0.941
 6726SOL     OW21076   0.745   2.129   5.115
 6726SOL    HW121077   0.728   2.124   5.017
 6726SOL    HW221078   0.678   2.189   5.158
 6727SOL     OW21079   6.269   3.941   5.969
 6727SOL    HW121080   6.206   3.971   5.898
 6727SOL    HW221081   6.318   3.860   5.938
 6728SOL     OW21082   4.259   1.525   3.818
 6728SOL    HW121083   4.181   1.581   3.848
 6728SOL    HW221084   4.320   1.509   3.896
 6729SOL     OW21085   0.060   1.803   2.573
 6729SOL    HW121086   0.067   1.745   2.492
 6729SOL    HW221087   0.046   1.898   2.544
 6730SOL     OW21088   2.629   6.019   6.728
 6730SOL    HW121089   2.550   5.960   6.715
 6730SOL    HW221090   2.642   6.076   6.647
 6731SOL     OW21091   1.131   5.518   1.092
 6731SOL    HW121092   1.094   5.611   1.097
 6731SOL    HW221093   1.134   5.478   1.184
 6732SOL     OW21094   4.850   5.033   5.994
 6732SOL    HW121095   4.848   5.123   6.037
 6732SOL    HW221096   4.936   5.023   5.944
 6733SOL     OW21097   3.997   4.741   0.448
 6733SOL    HW121098   3.967   4.798   0.371
 6733SOL    HW221099   4.070   4.788   0.497
 6734SOL     OW21100   6.432   2.497   4.876
 6734SOL    HW121101   6.397   2.516   4.968
 6734SOL    HW221102   6.402   2.570   4.814
 6735SOL     OW21103   0.024   4.795   4.586
 6735SOL    HW121104   0.092   4.866   4.567
 6735SOL    HW221105   0.054   4.738   4.662
 6736SOL     OW21106   3.430   4.051   0.029
 6736SOL    HW121107   3.338   4.032   7.017
 6736SOL    HW221108   3.423   4.073   0.127
 6737SOL     OW21109   2.039   2.906   0.746
 6737SOL    HW121110   2.070   2.993   0.708
 6737SOL    HW221111   2.088   2.831   0.702
 6738SOL     OW21112   1.772   4.151   2.954
 6738SOL    HW121113   1.822   4.121   3.035
 6738SOL    HW221114   1.728   4.072   2.911
 6739SOL     OW21115   3.600   4.956   5.656
 6739SOL    HW121116   3.541   4.945   5.736
 6739SOL    HW221117   3.681   5.008   5.681
 6740SOL     OW21118   1.772   1.323   4.076
 6740SOL    HW121119   1.704   1.395   4.090
 6740SOL    HW221120   1.805   1.327   3.981
 6741SOL     OW21121   4.343   1.284   5.979
 6741SOL    HW121122   4.324   1.376   6.013
 6741SOL    HW221123   4.269   1.223   6.007
 6742SOL     OW21124   6.467   5.951   2.924
 6742SOL    HW121125   6.427   6.023   2.981
 6742SOL    HW221126   6.398   5.880   2.906
 6743SOL     OW21127   4.299   4.518   0.653
 6743SOL    HW121128   4.259   4.564   0.732
 6743SOL    HW221129   4.395   4.545   0.644
 6744SOL     OW21130   5.310   6.116   6.116
 6744SOL    HW121131   5.225   6.129   6.067
 6744SOL    HW221132   5.320   6.189   6.185
 6745SOL     OW21133   0.340   6.824   2.491
 6745SOL    HW121134   0.423   6.840   2.436
 6745SOL    HW221135   0.315   6.728   2.486
 6746SOL     OW21136   0.635   1.319   3.036
 6746SOL    HW121137   0.673   1.345   2.947
 6746SOL    HW221138   0.609   1.401   3.087
 6747SOL     OW21139   5.467   0.583   5.026
 6747SOL    HW121140   5.485   0.671   5.070
 6747SOL    HW221141   5.369   0.565   5.025
 6748SOL     OW21142   1.168   0.145   3.269
 6748SOL    HW121143   1.254   0.163   3.221
 6748SOL    HW221144   1.139   0.051   3.253
 6749SOL     OW21145   2.763   6.011   7.014
 6749SOL    HW121146   2.665   5.993   7.018
 6749SOL    HW221147   2.808   5.972   0.070
 6750SOL     OW21148   4.627   1.382   4.987
 6750SOL    HW121149   4.666   1.370   4.896
 6750SOL    HW221150   4.698   1.365   5.056
 6751SOL     OW21151   3.642   1.139   3.387
 6751SOL    HW121152   3.690   1.062   3.429
 6751SOL    HW221153   3.603   1.197   3.459
 6752SOL     OW21154   6.975   3.224   2.818
 6752SOL    HW121155   0.034   3.268   2.852
 6752SOL    HW221156   6.992   3.126   2.806
 6753SOL     OW21157   4.236   1.061   6.292
 6753SOL    HW121158   4.170   1.084   6.221
 6753SOL    HW221159   4.288   1.143   6.317
 6754SOL     OW21160   6.873   1.740   0.045
 6754SOL    HW121161   6.852   1.699   6.980
 6754SOL    HW221162   6.973   1.742   0.058
 6755SOL     OW21163   4.389   1.550   3.203
 6755SOL    HW121164   4.337   1.510   3.127
 6755SOL    HW221165   4.482   1.570   3.172
 6756SOL     OW21166   4.037   4.978   4.717
 6756SOL    HW121167   3.955   4.947   4.766
 6756SOL    HW221168   4.012   5.049   4.651
 6757SOL     OW21169   4.260   0.303   1.499
 6757SOL    HW121170   4.181   0.303   1.438
 6757SOL    HW221171   4.343   0.326   1.448
 6758SOL     OW21172   6.941   3.211   0.816
 6758SOL    HW121173   0.006   3.236   0.779
 6758SOL    HW221174   6.890   3.294   0.840
 6759SOL     OW21175   1.082   4.255   4.761
 6759SOL    HW121176   1.128   4.341   4.737
 6759SOL    HW221177   1.043   4.215   4.678
 6760SOL     OW21178   6.693   5.034   4.035
 6760SOL    HW121179   6.603   5.062   4.068
 6760SOL    HW221180   6.726   4.958   4.090
 6761SOL     OW21181   6.400   2.296   6.166
 6761SOL    HW121182   6.321   2.331   6.218
 6761SOL    HW221183   6.484   2.337   6.201
 6762SOL     OW21184   6.755   5.584   3.321
 6762SOL    HW121185   6.728   5.558   3.228
 6762SOL    HW221186   6.703   5.531   3.387
 6763SOL     OW21187   6.969   5.344   3.776
 6763SOL    HW121188   0.040   5.327   3.803
 6763SOL    HW221189   6.913   5.358   3.858
 6764SOL     OW21190   2.970   5.376   6.486
 6764SOL    HW121191   3.009   5.393   6.576
 6764SOL    HW221192   2.985   5.280   6.461
 6765SOL     OW21193   4.718   4.974   3.997
 6765SOL    HW121194   4.771   4.914   3.937
 6765SOL    HW221195   4.629   4.932   4.015
 6766SOL     OW21196   4.270   6.806   6.581
 6766SOL    HW121197   4.336   6.749   6.532
 6766SOL    HW221198   4.310   6.835   6.668
 6767SOL     OW21199   1.067   2.485   0.611
 6767SOL    HW121200   1.095   2.390   0.599
 6767SOL    HW221201   1.049   2.526   0.521
 6768SOL     OW21202   0.134   6.399   3.867
 6768SOL    HW121203   0.067   6.472   3.882
 6768SOL    HW221204   0.087   6.312   3.857
 6769SOL     OW21205   2.949   0.728   5.387
 6769SOL    HW121206   2.998   0.671   5.321
 6769SOL    HW221207   3.007   0.804   5.417
 6770SOL     OW21208   6.696   1.852   3.032
 6770SOL    HW121209   6.726   1.773   3.084
 6770SOL    HW221210   6.652   1.822   2.947
 6771SOL     OW21211   3.812   1.148   2.876
 6771SOL    HW121212   3.720   1.136   2.838
 6771SOL    HW221213   3.808   1.144   2.975
 6772SOL     OW21214   5.422   2.499   2.636
 6772SOL    HW121215   5.330   2.534   2.650
 6772SOL    HW221216   5.418   2.402   2.613
 6773SOL     OW21217   6.863   6.870   1.810
 6773SOL    HW121218   6.778   6.825   1.784
 6773SOL    HW221219   6.886   6.846   1.904
 6774SOL     OW21220   2.072   2.462   4.650
 6774SOL    HW121221   2.049   2.533   4.583
 6774SOL    HW221222   1.989   2.432   4.696
 6775SOL     OW21223   0.278   2.256   3.577
 6775SOL    HW121224   0.320   2.318   3.511
 6775SOL    HW221225   0.346   2.230   3.645
 6776SOL     OW21226   3.977   3.292   1.262
 6776SOL    HW121227   4.002   3.197   1.276
 6776SOL    HW221228   3.885   3.298   1.224
 6777SOL     OW21229   4.312   5.883   0.713
 6777SOL    HW121230   4.304   5.801   0.656
 6777SOL    HW221231   4.272   5.865   0.803
 6778SOL     OW21232   6.298   3.345   2.673
 6778SOL    HW121233   6.286   3.438   2.639
 6778SOL    HW221234   6.213   3.311   2.712
 6779SOL     OW21235   5.444   4.891   6.637
 6779SOL    HW121236   5.528   4.840   6.656
 6779SOL    HW221237   5.466   4.988   6.628
 6780SOL     OW21238   1.715   3.456   2.910
 6780SOL    HW121239   1.765   3.482   2.828
 6780SOL    HW221240   1.680   3.363   2.899
 6781SOL     OW21241   6.719   1.521   3.784
 6781SOL    HW121242   6.714   1.428   3.747
 6781SOL    HW221243   6.634   1.570   3.764
 6782SOL     OW21244   0.723   0.923   3.249
 6782SOL    HW121245   0.722   0.828   3.219
 6782SOL    HW221246   0.818   0.955   3.256
 6783SOL     OW21247   0.803   4.004   5.022
 6783SOL    HW121248   0.813   3.956   4.935
 6783SOL    HW221249   0.857   4.088   5.020
 6784SOL     OW21250   2.037   4.209   1.982
 6784SOL    HW121251   2.118   4.159   2.012
 6784SOL    HW221252   2.060   4.266   1.904
 6785SOL     OW21253   5.611   5.481   5.796
 6785SOL    HW121254   5.513   5.497   5.809
 6785SOL    HW221255   5.628   5.382   5.795
 6786SOL     OW21256   7.001   3.176   6.199
 6786SOL    HW121257   7.011   3.208   6.293
 6786SOL    HW221258   6.906   3.187   6.169
 6787SOL     OW21259   3.228   2.279   1.483
 6787SOL    HW121260   3.149   2.252   1.537
 6787SOL    HW221261   3.253   2.204   1.421
 6788SOL     OW21262   0.294   4.189   2.689
 6788SOL    HW121263   0.210   4.152   2.729
 6788SOL    HW221264   0.369   4.179   2.753
 6789SOL     OW21265   0.073   4.539   4.451
 6789SOL    HW121266   0.012   4.468   4.485
 6789SOL    HW221267   0.039   4.628   4.480
 6790SOL     OW21268   0.387   4.228   6.697
 6790SOL    HW121269   0.379   4.290   6.775
 6790SOL    HW221270   0.382   4.281   6.612
 6791SOL     OW21271   4.130   2.033   3.286
 6791SOL    HW121272   4.215   2.058   3.332
 6791SOL    HW221273   4.127   1.934   3.273
 6792SOL     OW21274   4.493   0.406   5.549
 6792SOL    HW121275   4.573   0.361   5.590
 6792SOL    HW221276   4.415   0.343   5.549
 6793SOL     OW21277   3.425   1.758   0.010
 6793SOL    HW121278   3.479   1.838   0.037
 6793SOL    HW221279   3.337   1.788   6.998
 6794SOL     OW21280   4.583   1.214   5.527
 6794SOL    HW121281   4.531   1.282   5.474
 6794SOL    HW221282   4.661   1.183   5.473
 6795SOL     OW21283   0.845   6.787   0.184
 6795SOL    HW121284   0.906   6.710   0.162
 6795SOL    HW221285   0.767   6.786   0.122
 6796SOL     OW21286   5.478   0.373   2.432
 6796SOL    HW121287   5.544   0.446   2.411
 6796SOL    HW221288   5.524   0.300   2.481
 6797SOL     OW21289   6.615   1.427   0.503
 6797SOL    HW121290   6.563   1.386   0.578
 6797SOL    HW221291   6.698   1.469   0.539
 6798SOL     OW21292   6.302   0.641   1.329
 6798SOL    HW121293   6.380   0.619   1.388
 6798SOL    HW221294   6.332   0.701   1.254
 6799SOL     OW21295   5.276   0.601   2.513
 6799SOL    HW121296   5.180   0.575   2.518
 6799SOL    HW221297   5.331   0.522   2.487
 6800SOL     OW21298   1.861   2.290   1.538
 6800SOL    HW121299   1.917   2.367   1.566
 6800SOL    HW221300   1.765   2.316   1.540
 6801SOL     OW21301   0.515   6.487   3.409
 6801SOL    HW121302   0.544   6.530   3.494
 6801SOL    HW221303   0.415   6.481   3.407
 6802SOL     OW21304   3.657   5.923   0.496
 6802SOL    HW121305   3.654   6.009   0.446
 6802SOL    HW221306   3.685   5.850   0.434
 6803SOL     OW21307   4.427   3.496   0.287
 6803SOL    HW121308   4.443   3.398   0.296
 6803SOL    HW221309   4.329   3.515   0.291
 6804SOL     OW21310   3.375   5.212   2.677
 6804SOL    HW121311   3.412   5.125   2.710
 6804SOL    HW221312   3.280   5.199   2.649
 6805SOL     OW21313   0.768   5.207   0.258
 6805SOL    HW121314   0.697   5.137   0.267
 6805SOL    HW221315   0.730   5.289   0.215
 6806SOL     OW21316   6.921   0.450   4.194
 6806SOL    HW121317   6.994   0.509   4.226
 6806SOL    HW221318   6.958   0.360   4.168
 6807SOL     OW21319   3.695   4.101   3.643
 6807SOL    HW121320   3.647   4.136   3.723
 6807SOL    HW221321   3.648   4.131   3.559
 6808SOL     OW21322   5.871   0.875   4.952
 6808SOL    HW121323   5.897   0.788   4.910
 6808SOL    HW221324   5.954   0.930   4.968
 6809SOL     OW21325   5.939   4.169   1.002
 6809SOL    HW121326   5.879   4.181   1.081
 6809SOL    HW221327   5.936   4.073   0.972
 6810SOL     OW21328   3.574   0.953   2.827
 6810SOL    HW121329   3.521   1.031   2.859
 6810SOL    HW221330   3.512   0.879   2.801
 6811SOL     OW21331   6.628   3.131   1.741
 6811SOL    HW121332   6.728   3.130   1.747
 6811SOL    HW221333   6.589   3.137   1.832
 6812SOL     OW21334   3.341   3.850   4.956
 6812SOL    HW121335   3.351   3.885   4.863
 6812SOL    HW221336   3.361   3.752   4.958
 6813SOL     OW21337   5.712   3.530   2.633
 6813SOL    HW121338   5.696   3.434   2.609
 6813SOL    HW221339   5.789   3.535   2.698
 6814SOL     OW21340   4.940   1.838   6.582
 6814SOL    HW121341   4.908   1.748   6.552
 6814SOL    HW221342   5.039   1.834   6.596
 6815SOL     OW21343   1.388   5.741   6.814
 6815SOL    HW121344   1.377   5.839   6.830
 6815SOL    HW221345   1.454   5.727   6.740
 6816SOL     OW21346   6.609   1.636   4.676
 6816SOL    HW121347   6.651   1.600   4.592
 6816SOL    HW221348   6.518   1.672   4.654
 6817SOL     OW21349   2.513   2.523   3.954
 6817SOL    HW121350   2.560   2.450   4.004
 6817SOL    HW221351   2.551   2.611   3.982
 6818SOL     OW21352   2.240   6.295   0.239
 6818SOL    HW121353   2.253   6.279   0.337
 6818SOL    HW221354   2.281   6.220   0.187
 6819SOL     OW21355   4.319   0.471   2.738
 6819SOL    HW121356   4.254   0.478   2.813
 6819SOL    HW221357   4.271   0.451   2.653
 6820SOL     OW21358   1.272   5.800   1.868
 6820SOL    HW121359   1.261   5.701   1.882
 6820SOL    HW221360   1.338   5.836   1.935
 6821SOL     OW21361   4.713   2.832   5.920
 6821SOL    HW121362   4.648   2.895   5.962
 6821SOL    HW221363   4.744   2.869   5.833
 6822SOL     OW21364   6.839   2.747   6.334
 6822SOL    HW121365   6.813   2.768   6.239
 6822SOL    HW221366   6.913   2.809   6.362
 6823SOL     OW21367   5.037   4.357   6.569
 6823SOL    HW121368   5.040   4.318   6.661
 6823SOL    HW221369   4.958   4.418   6.561
 6824SOL     OW21370   1.564   1.608   0.372
 6824SOL    HW121371   1.650   1.644   0.408
 6824SOL    HW221372   1.575   1.584   0.276
 6825SOL     OW21373   6.242   6.101   0.626
 6825SOL    HW121374   6.274   6.072   0.536
 6825SOL    HW221375   6.285   6.189   0.650
 6826SOL     OW21376   0.790   3.486   3.690
 6826SOL    HW121377   0.775   3.541   3.607
 6826SOL    HW221378   0.720   3.415   3.695
 6827SOL     OW21379   5.037   5.482   5.803
 6827SOL    HW121380   5.069   5.459   5.711
 6827SOL    HW221381   5.116   5.502   5.861
 6828SOL     OW21382   3.707   1.385   2.684
 6828SOL    HW121383   3.790   1.436   2.661
 6828SOL    HW221384   3.659   1.432   2.759
 6829SOL     OW21385   5.302   0.127   5.079
 6829SOL    HW121386   5.257   0.204   5.126
 6829SOL    HW221387   5.256   0.111   4.992
 6830SOL     OW21388   5.822   1.234   3.657
 6830SOL    HW121389   5.900   1.280   3.614
 6830SOL    HW221390   5.757   1.206   3.587
 6831SOL     OW21391   1.318   0.874   6.031
 6831SOL    HW121392   1.390   0.804   6.032
 6831SOL    HW221393   1.330   0.934   6.110
 6832SOL     OW21394   2.478   3.600   0.360
 6832SOL    HW121395   2.468   3.683   0.305
 6832SOL    HW221396   2.511   3.525   0.302
 6833SOL     OW21397   3.268   5.244   6.127
 6833SOL    HW121398   3.203   5.202   6.064
 6833SOL    HW221399   3.356   5.254   6.082
 6834SOL     OW21400   5.284   0.151   0.789
 6834SOL    HW121401   5.308   0.212   0.864
 6834SOL    HW221402   5.223   0.079   0.822
 6835SOL     OW21403   3.874   1.502   4.943
 6835SOL    HW121404   3.928   1.585   4.958
 6835SOL    HW221405   3.796   1.523   4.884
 6836SOL     OW21406   2.114   4.453   6.132
 6836SOL    HW121407   2.099   4.379   6.197
 6836SOL    HW221408   2.030   4.468   6.079
 6837SOL     OW21409   0.259   1.194   2.922
 6837SOL    HW121410   0.215   1.183   3.011
 6837SOL    HW221411   0.352   1.157   2.926
 6838SOL     OW21412   2.133   4.367   5.418
 6838SOL    HW121413   2.221   4.376   5.466
 6838SOL    HW221414   2.120   4.271   5.390
 6839SOL     OW21415   5.687   2.021   3.561
 6839SOL    HW121416   5.669   1.929   3.527
 6839SOL    HW221417   5.639   2.087   3.504
 6840SOL     OW21418   2.593   6.333   5.625
 6840SOL    HW121419   2.586   6.247   5.574
 6840SOL    HW221420   2.521   6.395   5.595
 6841SOL     OW21421   3.879   4.650   1.253
 6841SOL    HW121422   3.858   4.747   1.248
 6841SOL    HW221423   3.978   4.636   1.243
 6842SOL     OW21424   1.917   2.590   6.666
 6842SOL    HW121425   1.997   2.638   6.629
 6842SOL    HW221426   1.939   2.558   6.759
 6843SOL     OW21427   5.051   1.173   1.785
 6843SOL    HW121428   4.952   1.175   1.769
 6843SOL    HW221429   5.089   1.265   1.772
 6844SOL     OW21430   5.374   6.151   4.251
 6844SOL    HW121431   5.333   6.136   4.341
 6844SOL    HW221432   5.410   6.065   4.217
 6845SOL     OW21433   5.191   4.298   2.628
 6845SOL    HW121434   5.164   4.283   2.533
 6845SOL    HW221435   5.160   4.389   2.657
 6846SOL     OW21436   4.206   2.831   1.376
 6846SOL    HW121437   4.232   2.926   1.396
 6846SOL    HW221438   4.204   2.778   1.461
 6847SOL     OW21439   6.101   4.027   1.697
 6847SOL    HW121440   6.091   3.976   1.783
 6847SOL    HW221441   6.010   4.052   1.663
 6848SOL     OW21442   2.474   6.293   3.267
 6848SOL    HW121443   2.565   6.314   3.232
 6848SOL    HW221444   2.423   6.243   3.197
 6849SOL     OW21445   3.151   5.826   4.365
 6849SOL    HW121446   3.184   5.892   4.298
 6849SOL    HW221447   3.188   5.736   4.343
 6850SOL     OW21448   5.689   3.266   2.579
 6850SOL    HW121449   5.702   3.184   2.524
 6850SOL    HW221450   5.641   3.242   2.664
 6851SOL     OW21451   1.656   3.362   4.640
 6851SOL    HW121452   1.708   3.446   4.623
 6851SOL    HW221453   1.718   3.283   4.637
 6852SOL     OW21454   1.151   4.678   1.023
 6852SOL    HW121455   1.165   4.743   0.948
 6852SOL    HW221456   1.217   4.604   1.015
 6853SOL     OW21457   6.709   3.641   6.878
 6853SOL    HW121458   6.671   3.700   6.806
 6853SOL    HW221459   6.704   3.545   6.849
 6854SOL     OW21460   5.806   1.159   5.890
 6854SOL    HW121461   5.784   1.252   5.920
 6854SOL    HW221462   5.888   1.128   5.937
 6855SOL     OW21463   3.418   6.159   2.229
 6855SOL    HW121464   3.470   6.116   2.155
 6855SOL    HW221465   3.433   6.109   2.314
 6856SOL     OW21466   4.707   4.466   5.608
 6856SOL    HW121467   4.671   4.423   5.691
 6856SOL    HW221468   4.645   4.447   5.531
 6857SOL     OW21469   3.653   1.571   7.009
 6857SOL    HW121470   3.697   1.594   6.922
 6857SOL    HW221471   3.576   1.633   7.024
 6858SOL     OW21472   4.142   3.584   4.759
 6858SOL    HW121473   4.170   3.529   4.680
 6858SOL    HW221474   4.141   3.526   4.840
 6859SOL     OW21475   1.557   6.388   1.286
 6859SOL    HW121476   1.633   6.337   1.327
 6859SOL    HW221477   1.488   6.406   1.355
 6860SOL     OW21478   5.452   5.406   1.879
 6860SOL    HW121479   5.445   5.482   1.944
 6860SOL    HW221480   5.522   5.342   1.911
 6861SOL     OW21481   5.456   4.284   1.513
 6861SOL    HW121482   5.435   4.280   1.415
 6861SOL    HW221483   5.510   4.366   1.532
 6862SOL     OW21484   2.422   4.453   4.514
 6862SOL    HW121485   2.455   4.399   4.436
 6862SOL    HW221486   2.497   4.507   4.552
 6863SOL     OW21487   5.593   1.522   4.475
 6863SOL    HW121488   5.524   1.593   4.486
 6863SOL    HW221489   5.684   1.563   4.469
 6864SOL     OW21490   3.576   5.837   3.601
 6864SOL    HW121491   3.568   5.857   3.698
 6864SOL    HW221492   3.559   5.921   3.548
 6865SOL     OW21493   6.235   5.827   2.811
 6865SOL    HW121494   6.171   5.773   2.865
 6865SOL    HW221495   6.200   5.920   2.800
 6866SOL     OW21496   6.561   4.430   2.188
 6866SOL    HW121497   6.586   4.344   2.145
 6866SOL    HW221498   6.473   4.420   2.233
 6867SOL     OW21499   1.560   4.626   1.319
 6867SOL    HW121500   1.624   4.657   1.249
 6867SOL    HW221501   1.492   4.698   1.335
 6868SOL     OW21502   1.698   5.192   5.031
 6868SOL    HW121503   1.682   5.095   5.014
 6868SOL    HW221504   1.793   5.206   5.058
 6869SOL     OW21505   5.815   2.451   5.345
 6869SOL    HW121506   5.866   2.369   5.370
 6869SOL    HW221507   5.775   2.438   5.254
 6870SOL     OW21508   6.801   3.873   2.350
 6870SOL    HW121509   6.869   3.802   2.330
 6870SOL    HW221510   6.843   3.963   2.343
 6871SOL     OW21511   6.272   5.132   2.267
 6871SOL    HW121512   6.205   5.091   2.205
 6871SOL    HW221513   6.296   5.067   2.339
 6872SOL     OW21514   1.566   3.587   0.717
 6872SOL    HW121515   1.642   3.592   0.782
 6872SOL    HW221516   1.595   3.627   0.630
 6873SOL     OW21517   5.634   3.657   5.001
 6873SOL    HW121518   5.704   3.587   5.016
 6873SOL    HW221519   5.678   3.747   4.994
 6874SOL     OW21520   0.678   4.725   3.095
 6874SOL    HW121521   0.654   4.691   3.004
 6874SOL    HW221522   0.634   4.668   3.164
 6875SOL     OW21523   1.591   2.569   3.385
 6875SOL    HW121524   1.625   2.654   3.344
 6875SOL    HW221525   1.634   2.491   3.340
 6876SOL     OW21526   4.059   5.392   5.562
 6876SOL    HW121527   3.972   5.429   5.530
 6876SOL    HW221528   4.127   5.466   5.567
 6877SOL     OW21529   2.411   4.137   6.087
 6877SOL    HW121530   2.474   4.091   6.024
 6877SOL    HW221531   2.396   4.231   6.056
 6878SOL     OW21532   2.205   2.376   5.280
 6878SOL    HW121533   2.298   2.360   5.311
 6878SOL    HW221534   2.141   2.362   5.356
 6879SOL     OW21535   1.114   1.900   0.071
 6879SOL    HW121536   1.047   1.975   0.078
 6879SOL    HW221537   1.068   1.818   0.039
 6880SOL     OW21538   2.055   3.382   5.148
 6880SOL    HW121539   2.063   3.435   5.233
 6880SOL    HW221540   2.090   3.290   5.164
 6881SOL     OW21541   0.087   3.902   2.192
 6881SOL    HW121542   0.092   3.980   2.254
 6881SOL    HW221543   0.109   3.932   2.099
 6882SOL     OW21544   3.071   0.225   5.933
 6882SOL    HW121545   2.988   0.170   5.938
 6882SOL    HW221546   3.048   0.321   5.951
 6883SOL     OW21547   3.736   1.225   1.114
 6883SOL    HW121548   3.832   1.236   1.087
 6883SOL    HW221549   3.710   1.130   1.105
 6884SOL     OW21550   1.807   3.462   4.223
 6884SOL    HW121551   1.800   3.459   4.123
 6884SOL    HW221552   1.726   3.506   4.261
 6885SOL     OW21553   3.884   5.685   4.963
 6885SOL    HW121554   3.835   5.724   5.041
 6885SOL    HW221555   3.938   5.757   4.919
 6886SOL     OW21556   0.035   0.733   3.011
 6886SOL    HW121557   0.120   0.681   3.012
 6886SOL    HW221558   6.982   0.669   3.013
 6887SOL     OW21559   5.049   0.137   5.646
 6887SOL    HW121560   5.071   0.083   5.564
 6887SOL    HW221561   4.952   0.126   5.667
 6888SOL     OW21562   5.543   6.719   6.680
 6888SOL    HW121563   5.595   6.804   6.690
 6888SOL    HW221564   5.501   6.716   6.590
 6889SOL     OW21565   1.196   2.244   6.108
 6889SOL    HW121566   1.287   2.259   6.070
 6889SOL    HW221567   1.147   2.332   6.113
 6890SOL     OW21568   3.536   6.294   1.590
 6890SOL    HW121569   3.571   6.202   1.606
 6890SOL    HW221570   3.457   6.290   1.529
 6891SOL     OW21571   2.128   3.700   4.473
 6891SOL    HW121572   2.189   3.621   4.464
 6891SOL    HW221573   2.135   3.737   4.566
 6892SOL     OW21574   3.148   0.750   3.417
 6892SOL    HW121575   3.225   0.814   3.415
 6892SOL    HW221576   3.101   0.752   3.329
 6893SOL     OW21577   5.252   6.065   1.267
 6893SOL    HW121578   5.346   6.094   1.284
 6893SOL    HW221579   5.251   5.992   1.199
 6894SOL     OW21580   6.284   5.437   0.011
 6894SOL    HW121581   6.251   5.389   0.092
 6894SOL    HW221582   6.243   5.398   6.954
 6895SOL     OW21583   2.967   5.175   6.846
 6895SOL    HW121584   2.987   5.118   6.766
 6895SOL    HW221585   2.869   5.196   6.847
 6896SOL     OW21586   2.711   6.684   4.210
 6896SOL    HW121587   2.664   6.768   4.181
 6896SOL    HW221588   2.789   6.667   4.149
 6897SOL     OW21589   2.029   3.607   0.237
 6897SOL    HW121590   2.115   3.558   0.228
 6897SOL    HW221591   2.010   3.658   0.152
 6898SOL     OW21592   3.512   1.618   1.942
 6898SOL    HW121593   3.536   1.635   2.038
 6898SOL    HW221594   3.541   1.696   1.887
 6899SOL     OW21595   4.857   0.189   0.936
 6899SOL    HW121596   4.777   0.129   0.950
 6899SOL    HW221597   4.845   0.240   0.851
 6900SOL     OW21598   6.034   0.812   5.924
 6900SOL    HW121599   5.983   0.895   5.947
 6900SOL    HW221600   5.969   0.738   5.902
 6901SOL     OW21601   0.923   0.318   6.050
 6901SOL    HW121602   0.954   0.360   5.964
 6901SOL    HW221603   0.828   0.289   6.041
 6902SOL     OW21604   6.695   6.348   0.802
 6902SOL    HW121605   6.736   6.397   0.878
 6902SOL    HW221606   6.752   6.358   0.721
 6903SOL     OW21607   4.225   4.924   5.595
 6903SOL    HW121608   4.323   4.905   5.605
 6903SOL    HW221609   4.183   4.934   5.685
 6904SOL     OW21610   6.042   1.647   4.143
 6904SOL    HW121611   6.118   1.585   4.164
 6904SOL    HW221612   6.063   1.738   4.180
 6905SOL     OW21613   6.161   6.572   0.513
 6905SOL    HW121614   6.249   6.617   0.522
 6905SOL    HW221615   6.098   6.631   0.462
 6906SOL     OW21616   4.053   0.695   3.598
 6906SOL    HW121617   3.984   0.698   3.669
 6906SOL    HW221618   4.075   0.788   3.568
 6907SOL     OW21619   5.060   1.224   1.130
 6907SOL    HW121620   5.142   1.281   1.123
 6907SOL    HW221621   5.084   1.129   1.115
 6908SOL     OW21622   0.951   6.569   5.404
 6908SOL    HW121623   0.878   6.604   5.346
 6908SOL    HW221624   1.028   6.633   5.405
 6909SOL     OW21625   5.386   4.845   1.698
 6909SOL    HW121626   5.396   4.837   1.797
 6909SOL    HW221627   5.440   4.922   1.665
 6910SOL     OW21628   6.618   2.637   3.378
 6910SOL    HW121629   6.525   2.638   3.341
 6910SOL    HW221630   6.616   2.593   3.468
 6911SOL     OW21631   4.258   0.036   3.423
 6911SOL    HW121632   4.231   0.047   3.328
 6911SOL    HW221633   4.234   6.968   3.454
 6912SOL     OW21634   4.770   4.944   1.306
 6912SOL    HW121635   4.683   4.958   1.354
 6912SOL    HW221636   4.836   4.902   1.369
 6913SOL     OW21637   5.069   5.144   5.893
 6913SOL    HW121638   5.144   5.137   5.827
 6913SOL    HW221639   5.031   5.236   5.891
 6914SOL     OW21640   6.042   4.786   0.132
 6914SOL    HW121641   6.030   4.786   0.033
 6914SOL    HW221642   5.999   4.704   0.170
 6915SOL     OW21643   6.519   4.596   1.900
 6915SOL    HW121644   6.548   4.581   1.994
 6915SOL    HW221645   6.490   4.510   1.859
 6916SOL     OW21646   5.981   4.142   0.410
 6916SOL    HW121647   6.068   4.170   0.369
 6916SOL    HW221648   5.990   4.141   0.509
 6917SOL     OW21649   3.243   5.441   0.708
 6917SOL    HW121650   3.261   5.480   0.798
 6917SOL    HW221651   3.187   5.505   0.655
 6918SOL     OW21652   1.406   3.268   4.713
 6918SOL    HW121653   1.487   3.320   4.687
 6918SOL    HW221654   1.431   3.172   4.729
 6919SOL     OW21655   0.582   5.637   3.398
 6919SOL    HW121656   0.677   5.608   3.406
 6919SOL    HW221657   0.565   5.713   3.462
 6920SOL     OW21658   4.544   6.194   5.993
 6920SOL    HW121659   4.583   6.114   6.040
 6920SOL    HW221660   4.448   6.204   6.019
 6921SOL     OW21661   4.826   5.466   3.235
 6921SOL    HW121662   4.809   5.373   3.205
 6921SOL    HW221663   4.783   5.481   3.325
 6922SOL     OW21664   1.594   5.621   6.642
 6922SOL    HW121665   1.556   5.569   6.566
 6922SOL    HW221666   1.643   5.701   6.607
 6923SOL     OW21667   5.345   6.381   3.572
 6923SOL    HW121668   5.398   6.436   3.636
 6923SOL    HW221669   5.399   6.366   3.489
 6924SOL     OW21670   0.906   4.334   6.877
 6924SOL    HW121671   0.925   4.432   6.867
 6924SOL    HW221672   0.958   4.282   6.809
 6925SOL     OW21673   3.621   6.624   4.257
 6925SOL    HW121674   3.649   6.567   4.334
 6925SOL    HW221675   3.543   6.681   4.284
 6926SOL     OW21676   2.992   3.440   2.628
 6926SOL    HW121677   3.014   3.344   2.646
 6926SOL    HW221678   2.954   3.449   2.536
 6927SOL     OW21679   5.180   4.229   5.855
 6927SOL    HW121680   5.225   4.232   5.765
 6927SOL    HW221681   5.249   4.237   5.927
 6928SOL     OW21682   6.529   6.563   0.873
 6928SOL    HW121683   6.586   6.481   0.861
 6928SOL    HW221684   6.451   6.541   0.931
 6929SOL     OW21685   4.869   5.654   1.179
 6929SOL    HW121686   4.778   5.624   1.207
 6929SOL    HW221687   4.861   5.731   1.116
 6930SOL     OW21688   6.972   0.085   1.753
 6930SOL    HW121689   7.013   0.100   1.663
 6930SOL    HW221690   6.916   0.002   1.750
 6931SOL     OW21691   1.515   0.627   2.272
 6931SOL    HW121692   1.435   0.618   2.332
 6931SOL    HW221693   1.562   0.539   2.267
 6932SOL     OW21694   3.892   0.547   0.747
 6932SOL    HW121695   3.924   0.591   0.662
 6932SOL    HW221696   3.917   0.450   0.746
 6933SOL     OW21697   3.780   6.340   4.635
 6933SOL    HW121698   3.844   6.314   4.708
 6933SOL    HW221699   3.702   6.387   4.674
 6934SOL     OW21700   4.779   4.623   5.906
 6934SOL    HW121701   4.718   4.555   5.866
 6934SOL    HW221702   4.867   4.581   5.928
 6935SOL     OW21703   4.571   5.842   3.666
 6935SOL    HW121704   4.526   5.854   3.577
 6935SOL    HW221705   4.527   5.902   3.733
 6936SOL     OW21706   6.787   2.966   2.375
 6936SOL    HW121707   6.865   3.028   2.365
 6936SOL    HW221708   6.819   2.876   2.406
 6937SOL     OW21709   6.372   6.090   0.103
 6937SOL    HW121710   6.470   6.071   0.103
 6937SOL    HW221711   6.330   6.050   0.022
 6938SOL     OW21712   4.898   3.808   5.149
 6938SOL    HW121713   4.924   3.832   5.055
 6938SOL    HW221714   4.848   3.722   5.149
 6939SOL     OW21715   0.161   4.206   1.014
 6939SOL    HW121716   0.184   4.263   1.093
 6939SOL    HW221717   0.141   4.264   0.935
 6940SOL     OW21718   5.124   1.335   0.299
 6940SOL    HW121719   5.057   1.316   0.227
 6940SOL    HW221720   5.131   1.256   0.360
 6941SOL     OW21721   3.759   3.281   2.950
 6941SOL    HW121722   3.764   3.182   2.935
 6941SOL    HW221723   3.762   3.327   2.861
 6942SOL     OW21724   0.032   2.537   0.427
 6942SOL    HW121725   0.114   2.566   0.377
 6942SOL    HW221726   7.001   2.477   0.370
 6943SOL     OW21727   4.804   6.606   0.158
 6943SOL    HW121728   4.782   6.703   0.141
 6943SOL    HW221729   4.897   6.587   0.128
 6944SOL     OW21730   1.555   4.744   6.118
 6944SOL    HW121731   1.499   4.823   6.096
 6944SOL    HW221732   1.562   4.734   6.218
 6945SOL     OW21733   5.985   3.024   6.374
 6945SOL    HW121734   5.886   3.012   6.380
 6945SOL    HW221735   6.014   3.096   6.437
 6946SOL     OW21736   6.620   6.569   2.112
 6946SOL    HW121737   6.631   6.662   2.148
 6946SOL    HW221738   6.567   6.572   2.027
 6947SOL     OW21739   3.075   6.618   5.722
 6947SOL    HW121740   3.064   6.593   5.818
 6947SOL    HW221741   2.989   6.658   5.689
 6948SOL     OW21742   6.671   0.767   6.983
 6948SOL    HW121743   6.714   0.709   6.913
 6948SOL    HW221744   6.590   0.721   7.018
 6949SOL     OW21745   5.376   0.346   3.864
 6949SOL    HW121746   5.276   0.341   3.853
 6949SOL    HW221747   5.411   0.257   3.893
 6950SOL     OW21748   2.168   0.330   3.810
 6950SOL    HW121749   2.259   0.371   3.810
 6950SOL    HW221750   2.099   0.403   3.816
 6951SOL     OW21751   6.172   6.475   6.060
 6951SOL    HW121752   6.266   6.450   6.037
 6951SOL    HW221753   6.116   6.392   6.069
 6952SOL     OW21754   0.223   5.733   3.590
 6952SOL    HW121755   0.288   5.703   3.660
 6952SOL    HW221756   0.135   5.688   3.604
 6953SOL     OW21757   4.708   0.642   6.795
 6953SOL    HW121758   4.729   0.555   6.750
 6953SOL    HW221759   4.653   0.699   6.733
 6954SOL     OW21760   1.268   3.806   4.640
 6954SOL    HW121761   1.243   3.882   4.580
 6954SOL    HW221762   1.363   3.779   4.622
 6955SOL     OW21763   6.827   0.562   3.029
 6955SOL    HW121764   6.838   0.548   2.930
 6955SOL    HW221765   6.733   0.540   3.055
 6956SOL     OW21766   4.849   6.342   2.243
 6956SOL    HW121767   4.894   6.266   2.196
 6956SOL    HW221768   4.785   6.307   2.311
 6957SOL     OW21769   5.716   4.951   1.828
 6957SOL    HW121770   5.676   4.877   1.881
 6957SOL    HW221771   5.654   4.976   1.753
 6958SOL     OW21772   3.027   4.044   5.196
 6958SOL    HW121773   3.101   3.987   5.232
 6958SOL    HW221774   2.983   3.998   5.118
 6959SOL     OW21775   2.738   1.142   4.671
 6959SOL    HW121776   2.836   1.148   4.691
 6959SOL    HW221777   2.690   1.219   4.714
 6960SOL     OW21778   1.411   5.441   1.431
 6960SOL    HW121779   1.412   5.535   1.394
 6960SOL    HW221780   1.382   5.443   1.526
 6961SOL     OW21781   6.546   2.958   4.064
 6961SOL    HW121782   6.598   2.900   4.126
 6961SOL    HW221783   6.559   3.054   4.088
 6962SOL     OW21784   5.081   5.540   2.329
 6962SOL    HW121785   5.150   5.592   2.379
 6962SOL    HW221786   5.103   5.538   2.232
 6963SOL     OW21787   0.255   5.176   0.974
 6963SOL    HW121788   0.195   5.125   1.035
 6963SOL    HW221789   0.291   5.257   1.021
 6964SOL     OW21790   4.099   5.465   4.533
 6964SOL    HW121791   4.029   5.492   4.467
 6964SOL    HW221792   4.153   5.546   4.559
 6965SOL     OW21793   0.712   3.680   6.412
 6965SOL    HW121794   0.701   3.671   6.313
 6965SOL    HW221795   0.697   3.775   6.439
 6966SOL     OW21796   6.500   2.340   3.089
 6966SOL    HW121797   6.533   2.245   3.089
 6966SOL    HW221798   6.453   2.359   3.002
 6967SOL     OW21799   1.561   0.368   5.729
 6967SOL    HW121800   1.535   0.335   5.820
 6967SOL    HW221801   1.482   0.363   5.668
 6968SOL     OW21802   3.811   6.778   2.223
 6968SOL    HW121803   3.711   6.783   2.220
 6968SOL    HW221804   3.839   6.728   2.305
 6969SOL     OW21805   2.958   2.243   1.107
 6969SOL    HW121806   3.046   2.204   1.134
 6969SOL    HW221807   2.974   2.321   1.046
 6970SOL     OW21808   4.175   3.626   0.310
 6970SOL    HW121809   4.150   3.647   0.404
 6970SOL    HW221810   4.188   3.711   0.259
 6971SOL     OW21811   6.677   4.432   1.366
 6971SOL    HW121812   6.674   4.530   1.383
 6971SOL    HW221813   6.684   4.415   1.268
 6972SOL     OW21814   5.220   4.945   3.980
 6972SOL    HW121815   5.172   5.017   4.029
 6972SOL    HW221816   5.218   4.861   4.035
 6973SOL     OW21817   1.091   3.562   5.298
 6973SOL    HW121818   1.167   3.606   5.250
 6973SOL    HW221819   1.123   3.476   5.339
 6974SOL     OW21820   3.837   2.992   2.966
 6974SOL    HW121821   3.917   2.936   2.983
 6974SOL    HW221822   3.791   2.962   2.882
 6975SOL     OW21823   2.374   6.122   5.732
 6975SOL    HW121824   2.465   6.116   5.774
 6975SOL    HW221825   2.346   6.217   5.728
 6976SOL     OW21826   4.499   5.419   5.711
 6976SOL    HW121827   4.477   5.404   5.808
 6976SOL    HW221828   4.421   5.391   5.655
 6977SOL     OW21829   4.302   2.379   1.908
 6977SOL    HW121830   4.258   2.293   1.934
 6977SOL    HW221831   4.255   2.416   1.828
 6978SOL     OW21832   5.982   2.323   1.717
 6978SOL    HW121833   5.983   2.266   1.799
 6978SOL    HW221834   5.987   2.265   1.636
 6979SOL     OW21835   1.446   5.024   0.734
 6979SOL    HW121836   1.519   5.048   0.671
 6979SOL    HW221837   1.408   5.106   0.776
 6980SOL     OW21838   1.670   0.721   3.635
 6980SOL    HW121839   1.719   0.634   3.636
 6980SOL    HW221840   1.686   0.767   3.548
 6981SOL     OW21841   2.629   2.905   6.206
 6981SOL    HW121842   2.624   3.003   6.223
 6981SOL    HW221843   2.702   2.887   6.140
 6982SOL     OW21844   1.318   0.918   3.925
 6982SOL    HW121845   1.220   0.938   3.933
 6982SOL    HW221846   1.361   0.928   4.014
 6983SOL     OW21847   5.155   1.940   3.281
 6983SOL    HW121848   5.187   1.867   3.220
 6983SOL    HW221849   5.233   1.988   3.319
 6984SOL     OW21850   2.613   2.090   4.243
 6984SOL    HW121851   2.579   2.013   4.296
 6984SOL    HW221852   2.702   2.119   4.279
 6985SOL     OW21853   3.829   5.810   1.232
 6985SOL    HW121854   3.877   5.891   1.198
 6985SOL    HW221855   3.894   5.736   1.246
 6986SOL     OW21856   1.802   6.295   6.499
 6986SOL    HW121857   1.865   6.244   6.440
 6986SOL    HW221858   1.853   6.362   6.553
 6987SOL     OW21859   6.958   2.131   5.910
 6987SOL    HW121860   6.943   2.222   5.870
 6987SOL    HW221861   6.871   2.081   5.913
 6988SOL     OW21862   6.966   1.086   5.739
 6988SOL    HW121863   6.934   1.168   5.786
 6988SOL    HW221864   6.890   1.046   5.688
 6989SOL     OW21865   0.543   3.350   3.695
 6989SOL    HW121866   0.546   3.298   3.609
 6989SOL    HW221867   0.506   3.292   3.767
 6990SOL     OW21868   5.253   2.278   1.291
 6990SOL    HW121869   5.156   2.282   1.268
 6990SOL    HW221870   5.299   2.212   1.231
 6991SOL     OW21871   2.981   4.813   3.987
 6991SOL    HW121872   3.067   4.838   4.030
 6991SOL    HW221873   2.997   4.792   3.891
 6992SOL     OW21874   5.077   6.568   4.964
 6992SOL    HW121875   5.068   6.668   4.967
 6992SOL    HW221876   4.990   6.526   4.989
 6993SOL     OW21877   6.913   0.962   3.026
 6993SOL    HW121878   6.818   0.937   3.005
 6993SOL    HW221879   6.969   0.879   3.030
 6994SOL     OW21880   0.793   3.289   4.777
 6994SOL    HW121881   0.814   3.361   4.843
 6994SOL    HW221882   0.825   3.201   4.812
 6995SOL     OW21883   6.544   5.121   6.261
 6995SOL    HW121884   6.530   5.046   6.326
 6995SOL    HW221885   6.510   5.093   6.171
 6996SOL     OW21886   2.550   0.058   6.372
 6996SOL    HW121887   2.452   0.064   6.393
 6996SOL    HW221888   2.600   0.125   6.425
 6997SOL     OW21889   6.080   6.425   5.462
 6997SOL    HW121890   6.110   6.517   5.488
 6997SOL    HW221891   5.996   6.431   5.409
 6998SOL     OW21892   2.261   2.660   1.607
 6998SOL    HW121893   2.326   2.702   1.543
 6998SOL    HW221894   2.230   2.727   1.673
 6999SOL     OW21895   2.431   2.745   6.222
 6999SOL    HW121896   2.436   2.708   6.130
 6999SOL    HW221897   2.492   2.824   6.230
 7000SOL     OW21898   6.167   5.916   1.529
 7000SOL    HW121899   6.173   5.931   1.431
 7000SOL    HW221900   6.083   5.957   1.565
 7001SOL     OW21901   2.656   3.273   5.514
 7001SOL    HW121902   2.630   3.191   5.462
 7001SOL    HW221903   2.680   3.247   5.607
 7002SOL     OW21904   1.838   4.935   2.738
 7002SOL    HW121905   1.883   4.930   2.827
 7002SOL    HW221906   1.795   5.025   2.728
 7003SOL     OW21907   4.024   5.282   0.289
 7003SOL    HW121908   3.987   5.318   0.203
 7003SOL    HW221909   4.088   5.207   0.269
 7004SOL     OW21910   1.889   4.691   1.623
 7004SOL    HW121911   1.888   4.785   1.589
 7004SOL    HW221912   1.926   4.690   1.716
 7005SOL     OW21913   1.662   6.537   6.749
 7005SOL    HW121914   1.757   6.559   6.769
 7005SOL    HW221915   1.632   6.462   6.808
 7006SOL     OW21916   4.870   4.444   4.694
 7006SOL    HW121917   4.855   4.503   4.615
 7006SOL    HW221918   4.797   4.376   4.699
 7007SOL     OW21919   4.820   6.663   3.810
 7007SOL    HW121920   4.863   6.633   3.725
 7007SOL    HW221921   4.828   6.763   3.818
 7008SOL     OW21922   1.673   4.786   5.313
 7008SOL    HW121923   1.586   4.834   5.305
 7008SOL    HW221924   1.674   4.732   5.397
 7009SOL     OW21925   6.283   5.693   2.572
 7009SOL    HW121926   6.267   5.733   2.662
 7009SOL    HW221927   6.220   5.617   2.557
 7010SOL     OW21928   4.189   4.366   5.979
 7010SOL    HW121929   4.091   4.371   5.958
 7010SOL    HW221930   4.216   4.448   6.030
 7011SOL     OW21931   2.917   0.297   6.280
 7011SOL    HW121932   2.967   0.383   6.268
 7011SOL    HW221933   2.875   0.271   6.193
 7012SOL     OW21934   1.827   1.003   2.456
 7012SOL    HW121935   1.861   1.079   2.401
 7012SOL    HW221936   1.760   0.950   2.404
 7013SOL     OW21937   0.576   0.100   0.337
 7013SOL    HW121938   0.602   0.181   0.284
 7013SOL    HW221939   0.646   0.082   0.406
 7014SOL     OW21940   4.859   2.968   1.546
 7014SOL    HW121941   4.822   3.028   1.617
 7014SOL    HW221942   4.829   2.874   1.562
 7015SOL     OW21943   6.159   4.775   2.597
 7015SOL    HW121944   6.195   4.814   2.682
 7015SOL    HW221945   6.235   4.742   2.540
 7016SOL     OW21946   3.717   4.731   1.590
 7016SOL    HW121947   3.689   4.672   1.515
 7016SOL    HW221948   3.660   4.714   1.670
 7017SOL     OW21949   2.058   6.846   2.575
 7017SOL    HW121950   2.069   6.782   2.652
 7017SOL    HW221951   2.079   6.799   2.489
 7018SOL     OW21952   5.817   4.273   4.825
 7018SOL    HW121953   5.751   4.221   4.772
 7018SOL    HW221954   5.888   4.212   4.859
 7019SOL     OW21955   2.679   3.724   6.372
 7019SOL    HW121956   2.744   3.648   6.373
 7019SOL    HW221957   2.654   3.744   6.278
 7020SOL     OW21958   6.122   6.886   6.404
 7020SOL    HW121959   6.118   6.883   6.504
 7020SOL    HW221960   6.068   6.963   6.371
 7021SOL     OW21961   1.986   1.266   5.845
 7021SOL    HW121962   1.997   1.259   5.746
 7021SOL    HW221963   2.010   1.359   5.874
 7022SOL     OW21964   4.513   5.886   0.445
 7022SOL    HW121965   4.471   5.797   0.429
 7022SOL    HW221966   4.578   5.878   0.521
 7023SOL     OW21967   0.249   1.738   3.672
 7023SOL    HW121968   0.181   1.709   3.605
 7023SOL    HW221969   0.234   1.690   3.759
 7024SOL     OW21970   1.625   4.627   5.759
 7024SOL    HW121971   1.533   4.600   5.789
 7024SOL    HW221972   1.693   4.579   5.815
 7025SOL     OW21973   2.550   1.398   6.709
 7025SOL    HW121974   2.516   1.398   6.803
 7025SOL    HW221975   2.616   1.473   6.697
 7026SOL     OW21976   2.789   1.784   2.119
 7026SOL    HW121977   2.835   1.869   2.093
 7026SOL    HW221978   2.717   1.804   2.185
 7027SOL     OW21979   2.650   4.602   3.775
 7027SOL    HW121980   2.682   4.629   3.684
 7027SOL    HW221981   2.555   4.571   3.769
 7028SOL     OW21982   4.931   6.605   4.339
 7028SOL    HW121983   4.873   6.625   4.260
 7028SOL    HW221984   4.945   6.506   4.346
 7029SOL     OW21985   4.203   5.790   6.231
 7029SOL    HW121986   4.210   5.775   6.133
 7029SOL    HW221987   4.204   5.888   6.250
 7030SOL     OW21988   6.865   2.392   5.007
 7030SOL    HW121989   6.929   2.342   4.949
 7030SOL    HW221990   6.798   2.440   4.950
 7031SOL     OW21991   2.208   6.339   4.689
 7031SOL    HW121992   2.178   6.314   4.781
 7031SOL    HW221993   2.161   6.422   4.659
 7032SOL     OW21994   3.539   0.098   3.404
 7032SOL    HW121995   3.525   0.050   3.318
 7032SOL    HW221996   3.478   0.177   3.408
 7033SOL     OW21997   0.797   2.140   3.595
 7033SOL    HW121998   0.868   2.075   3.568
 7033SOL    HW221999   0.810   2.226   3.545
 7034SOL     OW22000   6.124   0.079   3.175
 7034SOL    HW122001   6.162   0.139   3.245
 7034SOL    HW222002   6.089   0.134   3.099
 7035SOL     OW22003   1.319   6.222   1.439
 7035SOL    HW122004   1.304   6.159   1.516
 7035SOL    HW222005   1.322   6.170   1.354
 7036SOL     OW22006   0.159   1.013   2.312
 7036SOL    HW122007   0.236   0.959   2.279
 7036SOL    HW222008   0.192   1.081   2.378
 7037SOL     OW22009   1.620   0.312   6.472
 7037SOL    HW122010   1.675   0.232   6.498
 7037SOL    HW222011   1.605   0.369   6.553
 7038SOL     OW22012   1.736   3.102   4.269
 7038SOL    HW122013   1.754   3.198   4.290
 7038SOL    HW222014   1.787   3.076   4.188
 7039SOL     OW22015   2.883   5.239   1.681
 7039SOL    HW122016   2.859   5.223   1.776
 7039SOL    HW222017   2.835   5.173   1.622
 7040SOL     OW22018   5.823   1.883   4.405
 7040SOL    HW122019   5.880   1.913   4.328
 7040SOL    HW222020   5.826   1.783   4.411
 7041SOL     OW22021   0.923   2.200   1.606
 7041SOL    HW122022   0.980   2.228   1.529
 7041SOL    HW222023   0.861   2.127   1.577
 7042SOL     OW22024   5.371   5.761   6.579
 7042SOL    HW122025   5.338   5.718   6.495
 7042SOL    HW222026   5.451   5.712   6.612
 7043SOL     OW22027   2.276   2.704   3.208
 7043SOL    HW122028   2.347   2.650   3.165
 7043SOL    HW222029   2.260   2.671   3.301
 7044SOL     OW22030   4.962   5.123   2.736
 7044SOL    HW122031   4.911   5.038   2.722
 7044SOL    HW222032   5.040   5.125   2.673
 7045SOL     OW22033   4.772   5.641   2.654
 7045SOL    HW122034   4.787   5.611   2.748
 7045SOL    HW222035   4.783   5.740   2.648
 7046SOL     OW22036   3.501   1.416   3.080
 7046SOL    HW122037   3.491   1.479   3.003
 7046SOL    HW222038   3.597   1.408   3.104
 7047SOL     OW22039   0.890   2.752   2.469
 7047SOL    HW122040   0.828   2.675   2.487
 7047SOL    HW222041   0.970   2.745   2.529
 7048SOL     OW22042   0.155   5.823   2.655
 7048SOL    HW122043   0.229   5.797   2.593
 7048SOL    HW222044   0.138   5.922   2.647
 7049SOL     OW22045   2.578   1.776   0.916
 7049SOL    HW122046   2.620   1.685   0.913
 7049SOL    HW222047   2.491   1.774   0.866
 7050SOL     OW22048   3.886   3.323   2.240
 7050SOL    HW122049   3.961   3.271   2.197
 7050SOL    HW222050   3.921   3.411   2.273
 7051SOL     OW22051   0.325   0.419   0.975
 7051SOL    HW122052   0.236   0.374   0.975
 7051SOL    HW222053   0.330   0.483   0.899
 7052SOL     OW22054   6.264   2.575   3.559
 7052SOL    HW122055   6.268   2.571   3.459
 7052SOL    HW222056   6.328   2.645   3.592
 7053SOL     OW22057   1.476   3.760   4.900
 7053SOL    HW122058   1.563   3.800   4.870
 7053SOL    HW222059   1.400   3.806   4.853
 7054SOL     OW22060   0.495   6.477   0.656
 7054SOL    HW122061   0.456   6.451   0.745
 7054SOL    HW222062   0.548   6.562   0.666
 7055SOL     OW22063   4.003   6.021   5.362
 7055SOL    HW122064   4.066   6.097   5.343
 7055SOL    HW222065   4.040   5.937   5.322
 7056SOL     OW22066   5.575   5.874   2.501
 7056SOL    HW122067   5.602   5.941   2.433
 7056SOL    HW222068   5.484   5.897   2.536
 7057SOL     OW22069   1.125   5.891   3.534
 7057SOL    HW122070   1.116   5.803   3.580
 7057SOL    HW222071   1.041   5.911   3.484
 7058SOL     OW22072   6.792   6.214   6.168
 7058SOL    HW122073   6.822   6.212   6.263
 7058SOL    HW222074   6.871   6.221   6.107
 7059SOL     OW22075   6.879   0.909   3.684
 7059SOL    HW122076   6.882   0.891   3.586
 7059SOL    HW222077   6.827   0.837   3.730
 7060SOL     OW22078   4.173   0.367   1.873
 7060SOL    HW122079   4.204   0.283   1.828
 7060SOL    HW222080   4.251   0.411   1.918
 7061SOL     OW22081   0.200   3.231   4.154
 7061SOL    HW122082   0.264   3.155   4.164
 7061SOL    HW222083   0.242   3.315   4.187
 7062SOL     OW22084   5.027   1.523   5.000
 7062SOL    HW122085   5.099   1.476   4.950
 7062SOL    HW222086   4.999   1.467   5.078
 7063SOL     OW22087   0.894   0.477   1.407
 7063SOL    HW122088   0.855   0.395   1.365
 7063SOL    HW222089   0.821   0.532   1.447
 7064SOL     OW22090   4.254   2.040   2.292
 7064SOL    HW122091   4.328   1.986   2.253
 7064SOL    HW222092   4.270   2.137   2.273
 7065SOL     OW22093   4.169   3.195   6.354
 7065SOL    HW122094   4.123   3.198   6.443
 7065SOL    HW222095   4.108   3.232   6.284
 7066SOL     OW22096   4.244   0.009   0.415
 7066SOL    HW122097   4.318   7.007   0.476
 7066SOL    HW222098   4.250   0.107   0.394
 7067SOL     OW22099   1.558   1.671   5.255
 7067SOL    HW122100   1.470   1.718   5.260
 7067SOL    HW222101   1.631   1.738   5.247
 7068SOL     OW22102   0.722   4.407   4.628
 7068SOL    HW122103   0.637   4.457   4.644
 7068SOL    HW222104   0.794   4.445   4.685
 7069SOL     OW22105   6.202   1.947   3.589
 7069SOL    HW122106   6.142   1.966   3.667
 7069SOL    HW222107   6.169   1.997   3.509
 7070SOL     OW22108   6.410   6.193   4.571
 7070SOL    HW122109   6.497   6.179   4.524
 7070SOL    HW222110   6.412   6.281   4.619
 7071SOL     OW22111   1.456   6.177   6.237
 7071SOL    HW122112   1.504   6.090   6.225
 7071SOL    HW222113   1.365   6.160   6.277
 7072SOL     OW22114   0.765   6.245   6.300
 7072SOL    HW122115   0.738   6.266   6.206
 7072SOL    HW222116   0.716   6.305   6.363
 7073SOL     OW22117   5.101   6.919   4.573
 7073SOL    HW122118   5.045   7.001   4.559
 7073SOL    HW222119   5.042   6.843   4.601
 7074SOL     OW22120   4.465   2.255   1.623
 7074SOL    HW122121   4.383   2.204   1.599
 7074SOL    HW222122   4.455   2.351   1.595
 7075SOL     OW22123   1.533   5.377   5.153
 7075SOL    HW122124   1.478   5.345   5.230
 7075SOL    HW222125   1.605   5.311   5.133
 7076SOL     OW22126   5.624   2.368   6.247
 7076SOL    HW122127   5.581   2.350   6.158
 7076SOL    HW222128   5.627   2.466   6.263
 7077SOL     OW22129   2.401   4.372   4.256
 7077SOL    HW122130   2.408   4.284   4.209
 7077SOL    HW222131   2.305   4.391   4.277
 7078SOL     OW22132   6.902   0.612   1.350
 7078SOL    HW122133   6.878   0.516   1.366
 7078SOL    HW222134   6.946   0.649   1.432
 7079SOL     OW22135   6.431   6.210   5.072
 7079SOL    HW122136   6.367   6.213   4.996
 7079SOL    HW222137   6.443   6.302   5.110
 7080SOL     OW22138   2.973   2.229   4.085
 7080SOL    HW122139   3.058   2.191   4.123
 7080SOL    HW222140   2.922   2.277   4.158
 7081SOL     OW22141   2.564   1.741   6.934
 7081SOL    HW122142   2.511   1.812   6.888
 7081SOL    HW222143   2.628   1.699   6.869
 7082SOL     OW22144   6.275   4.668   6.975
 7082SOL    HW122145   6.223   4.745   6.939
 7082SOL    HW222146   6.213   4.591   6.992
 7083SOL     OW22147   2.992   0.608   0.407
 7083SOL    HW122148   2.905   0.565   0.382
 7083SOL    HW222149   3.067   0.546   0.384
 7084SOL     OW22150   0.521   6.540   5.349
 7084SOL    HW122151   0.504   6.518   5.445
 7084SOL    HW222152   0.470   6.623   5.324
 7085SOL     OW22153   1.468   2.152   1.925
 7085SOL    HW122154   1.429   2.158   1.833
 7085SOL    HW222155   1.568   2.151   1.919
 7086SOL     OW22156   5.434   1.271   5.054
 7086SOL    HW122157   5.465   1.363   5.030
 7086SOL    HW222158   5.336   1.263   5.036
 7087SOL     OW22159   6.091   4.405   3.643
 7087SOL    HW122160   6.042   4.322   3.668
 7087SOL    HW222161   6.037   4.457   3.576
 7088SOL     OW22162   5.767   2.730   3.577
 7088SOL    HW122163   5.831   2.655   3.592
 7088SOL    HW222164   5.696   2.726   3.648
 7089SOL     OW22165   3.318   2.093   4.883
 7089SOL    HW122166   3.259   2.168   4.913
 7089SOL    HW222167   3.284   2.056   4.796
 7090SOL     OW22168   2.261   0.870   6.755
 7090SOL    HW122169   2.220   0.841   6.669
 7090SOL    HW222170   2.223   0.959   6.781
 7091SOL     OW22171   0.358   1.757   6.549
 7091SOL    HW122172   0.444   1.793   6.585
 7091SOL    HW222173   0.376   1.709   6.463
 7092SOL     OW22174   4.426   2.533   6.275
 7092SOL    HW122175   4.435   2.455   6.213
 7092SOL    HW222176   4.347   2.589   6.248
 7093SOL     OW22177   2.995   3.769   3.631
 7093SOL    HW122178   2.949   3.780   3.719
 7093SOL    HW222179   3.062   3.842   3.618
 7094SOL     OW22180   1.030   5.767   5.883
 7094SOL    HW122181   0.932   5.759   5.866
 7094SOL    HW222182   1.063   5.685   5.931
 7095SOL     OW22183   2.911   4.051   5.850
 7095SOL    HW122184   2.937   4.005   5.765
 7095SOL    HW222185   2.871   3.985   5.913
 7096SOL     OW22186   6.418   0.888   3.529
 7096SOL    HW122187   6.495   0.898   3.465
 7096SOL    HW222188   6.385   0.794   3.526
 7097SOL     OW22189   5.939   1.623   1.322
 7097SOL    HW122190   5.859   1.564   1.324
 7097SOL    HW222191   6.005   1.593   1.391
 7098SOL     OW22192   0.846   0.807   4.823
 7098SOL    HW122193   0.873   0.903   4.813
 7098SOL    HW222194   0.851   0.761   4.734
 7099SOL     OW22195   2.347   0.991   5.017
 7099SOL    HW122196   2.314   1.065   5.075
 7099SOL    HW222197   2.444   1.005   4.997
 7100SOL     OW22198   5.408   2.756   0.712
 7100SOL    HW122199   5.312   2.755   0.683
 7100SOL    HW222200   5.443   2.850   0.710
 7101SOL     OW22201   2.317   0.929   4.737
 7101SOL    HW122202   2.329   0.939   4.836
 7101SOL    HW222203   2.404   0.943   4.691
 7102SOL     OW22204   4.361   0.485   0.992
 7102SOL    HW122205   4.335   0.408   1.050
 7102SOL    HW222206   4.319   0.476   0.902
 7103SOL     OW22207   4.580   5.268   1.730
 7103SOL    HW122208   4.493   5.247   1.685
 7103SOL    HW222209   4.611   5.359   1.703
 7104SOL     OW22210   0.984   2.995   4.443
 7104SOL    HW122211   0.975   3.089   4.476
 7104SOL    HW222212   1.011   2.936   4.519
 7105SOL     OW22213   2.876   2.616   5.347
 7105SOL    HW122214   2.929   2.631   5.430
 7105SOL    HW222215   2.885   2.520   5.318
 7106SOL     OW22216   3.053   3.295   3.479
 7106SOL    HW122217   3.047   3.243   3.565
 7106SOL    HW222218   2.994   3.375   3.485
 7107SOL     OW22219   2.502   2.022   0.235
 7107SOL    HW122220   2.480   1.943   0.292
 7107SOL    HW222221   2.480   2.106   0.284
 7108SOL     OW22222   3.712   6.443   2.856
 7108SOL    HW122223   3.795   6.475   2.902
 7108SOL    HW222224   3.689   6.352   2.889
 7109SOL     OW22225   2.979   0.663   6.419
 7109SOL    HW122226   3.019   0.592   6.361
 7109SOL    HW222227   2.977   0.750   6.369
 7110SOL     OW22228   3.483   5.878   4.448
 7110SOL    HW122229   3.402   5.904   4.500
 7110SOL    HW222230   3.544   5.957   4.438
 7111SOL     OW22231   1.508   1.651   4.196
 7111SOL    HW122232   1.523   1.686   4.288
 7111SOL    HW222233   1.575   1.691   4.134
 7112SOL     OW22234   1.486   5.793   4.182
 7112SOL    HW122235   1.483   5.696   4.207
 7112SOL    HW222236   1.443   5.806   4.093
 7113SOL     OW22237   3.685   4.031   4.904
 7113SOL    HW122238   3.768   4.049   4.957
 7113SOL    HW222239   3.692   3.941   4.861
 7114SOL     OW22240   4.002   6.721   1.864
 7114SOL    HW122241   4.014   6.666   1.781
 7114SOL    HW222242   3.927   6.683   1.918
 7115SOL     OW22243   5.600   3.703   2.045
 7115SOL    HW122244   5.540   3.775   2.011
 7115SOL    HW222245   5.589   3.694   2.144
 7116SOL     OW22246   5.724   4.080   3.299
 7116SOL    HW122247   5.754   4.157   3.243
 7116SOL    HW222248   5.652   4.110   3.361
 7117SOL     OW22249   6.604   6.015   4.919
 7117SOL    HW122250   6.564   6.087   4.976
 7117SOL    HW222251   6.556   6.010   4.832
 7118SOL     OW22252   2.717   3.678   1.177
 7118SOL    HW122253   2.625   3.688   1.215
 7118SOL    HW222254   2.729   3.584   1.145
 7119SOL     OW22255   4.889   1.818   2.682
 7119SOL    HW122256   4.845   1.788   2.767
 7119SOL    HW222257   4.845   1.772   2.604
 7120SOL     OW22258   3.742   2.052   2.778
 7120SOL    HW122259   3.799   2.058   2.696
 7120SOL    HW222260   3.645   2.052   2.751
 7121SOL     OW22261   1.726   6.654   2.948
 7121SOL    HW122262   1.823   6.634   2.937
 7121SOL    HW222263   1.708   6.750   2.922
 7122SOL     OW22264   1.358   0.008   5.961
 7122SOL    HW122265   1.420   6.978   5.905
 7122SOL    HW222266   1.267   0.009   5.919
 7123SOL     OW22267   2.335   4.796   3.000
 7123SOL    HW122268   2.266   4.734   3.038
 7123SOL    HW222269   2.304   4.831   2.912
 7124SOL     OW22270   6.862   2.079   0.306
 7124SOL    HW122271   6.802   2.001   0.288
 7124SOL    HW222272   6.875   2.088   0.405
 7125SOL     OW22273   6.216   6.858   0.845
 7125SOL    HW122274   6.152   6.873   0.770
 7125SOL    HW222275   6.166   6.824   0.925
 7126SOL     OW22276   3.458   4.599   6.788
 7126SOL    HW122277   3.425   4.528   6.727
 7126SOL    HW222278   3.443   4.572   6.883
 7127SOL     OW22279   1.491   5.725   4.918
 7127SOL    HW122280   1.556   5.717   4.843
 7127SOL    HW222281   1.404   5.684   4.890
 7128SOL     OW22282   3.278   4.510   6.986
 7128SOL    HW122283   3.260   4.551   0.051
 7128SOL    HW222284   3.237   4.565   6.914
 7129SOL     OW22285   2.047   1.529   0.104
 7129SOL    HW122286   2.092   1.611   0.068
 7129SOL    HW222287   2.086   1.448   0.060
 7130SOL     OW22288   4.255   5.594   5.582
 7130SOL    HW122289   4.292   5.685   5.563
 7130SOL    HW222290   4.280   5.567   5.674
 7131SOL     OW22291   2.308   0.860   0.675
 7131SOL    HW122292   2.239   0.793   0.648
 7131SOL    HW222293   2.392   0.845   0.623
 7132SOL     OW22294   3.829   3.693   6.724
 7132SOL    HW122295   3.831   3.649   6.813
 7132SOL    HW222296   3.914   3.744   6.710
 7133SOL     OW22297   5.286   5.491   5.265
 7133SOL    HW122298   5.319   5.513   5.173
 7133SOL    HW222299   5.337   5.413   5.302
 7134SOL     OW22300   5.792   7.009   1.998
 7134SOL    HW122301   5.704   6.990   2.041
 7134SOL    HW222302   5.777   0.015   1.904
 7135SOL     OW22303   0.917   3.274   3.085
 7135SOL    HW122304   0.920   3.361   3.035
 7135SOL    HW222305   1.009   3.251   3.117
 7136SOL     OW22306   1.928   2.683   1.354
 7136SOL    HW122307   1.996   2.749   1.386
 7136SOL    HW222308   1.837   2.715   1.378
 7137SOL     OW22309   3.707   0.066   6.745
 7137SOL    HW122310   3.743   0.149   6.787
 7137SOL    HW222311   3.718   7.014   6.808
 7138SOL     OW22312   1.724   3.160   6.888
 7138SOL    HW122313   1.758   3.253   6.900
 7138SOL    HW222314   1.662   3.137   6.963
 7139SOL     OW22315   5.361   4.083   2.269
 7139SOL    HW122316   5.343   4.086   2.171
 7139SOL    HW222317   5.335   3.994   2.306
 7140SOL     OW22318   5.625   4.848   4.317
 7140SOL    HW122319   5.695   4.807   4.375
 7140SOL    HW222320   5.537   4.843   4.363
 7141SOL     OW22321   3.892   6.267   1.395
 7141SOL    HW122322   3.930   6.321   1.321
 7141SOL    HW222323   3.815   6.213   1.361
 7142SOL     OW22324   4.516   0.078   3.761
 7142SOL    HW122325   4.591   0.073   3.827
 7142SOL    HW222326   4.457   7.022   3.771
 7143SOL     OW22327   0.952   2.888   6.038
 7143SOL    HW122328   0.916   2.974   6.074
 7143SOL    HW222329   1.025   2.908   5.973
 7144SOL     OW22330   1.916   1.731   2.432
 7144SOL    HW122331   1.936   1.654   2.371
 7144SOL    HW222332   1.968   1.811   2.404
 7145SOL     OW22333   4.213   6.859   0.206
 7145SOL    HW122334   4.195   6.771   0.250
 7145SOL    HW222335   4.226   6.930   0.276
 7146SOL     OW22336   2.495   0.329   0.683
 7146SOL    HW122337   2.477   0.357   0.589
 7146SOL    HW222338   2.410   0.335   0.736
 7147SOL     OW22339   0.295   6.485   3.015
 7147SOL    HW122340   0.381   6.510   3.061
 7147SOL    HW222341   0.287   6.385   3.011
 7148SOL     OW22342   0.757   6.335   0.137
 7148SOL    HW122343   0.833   6.322   0.074
 7148SOL    HW222344   0.792   6.345   0.230
 7149SOL     OW22345   6.052   6.791   2.884
 7149SOL    HW122346   6.055   6.742   2.797
 7149SOL    HW222347   6.064   6.726   2.959
 7150SOL     OW22348   3.315   1.464   2.318
 7150SOL    HW122349   3.262   1.461   2.403
 7150SOL    HW222350   3.411   1.443   2.338
 7151SOL     OW22351   2.017   6.118   0.412
 7151SOL    HW122352   2.008   6.083   0.318
 7151SOL    HW222353   2.114   6.134   0.432
 7152SOL     OW22354   1.229   1.171   4.788
 7152SOL    HW122355   1.175   1.230   4.729
 7152SOL    HW222356   1.278   1.226   4.856
 7153SOL     OW22357   3.529   5.654   1.813
 7153SOL    HW122358   3.440   5.610   1.821
 7153SOL    HW222359   3.533   5.735   1.872
 7154SOL     OW22360   3.408   0.471   3.994
 7154SOL    HW122361   3.337   0.411   3.956
 7154SOL    HW222362   3.498   0.434   3.974
 7155SOL     OW22363   1.943   3.559   2.008
 7155SOL    HW122364   1.927   3.599   1.918
 7155SOL    HW222365   2.042   3.550   2.023
 7156SOL     OW22366   0.571   4.020   4.726
 7156SOL    HW122367   0.659   4.047   4.764
 7156SOL    HW222368   0.551   3.925   4.750
 7157SOL     OW22369   6.075   3.930   1.955
 7157SOL    HW122370   6.074   4.028   1.977
 7157SOL    HW222371   6.105   3.878   2.035
 7158SOL     OW22372   1.438   6.840   2.870
 7158SOL    HW122373   1.389   6.753   2.869
 7158SOL    HW222374   1.376   6.914   2.843
 7159SOL     OW22375   0.434   4.444   2.405
 7159SOL    HW122376   0.383   4.479   2.483
 7159SOL    HW222377   0.520   4.404   2.437
 7160SOL     OW22378   5.494   0.215   2.852
 7160SOL    HW122379   5.443   0.219   2.938
 7160SOL    HW222380   5.558   0.292   2.848
 7161SOL     OW22381   2.920   3.446   4.806
 7161SOL    HW122382   2.920   3.348   4.785
 7161SOL    HW222383   2.905   3.459   4.904
 7162SOL     OW22384   1.769   5.677   5.968
 7162SOL    HW122385   1.849   5.660   5.911
 7162SOL    HW222386   1.716   5.593   5.978
 7163SOL     OW22387   2.882   6.525   2.989
 7163SOL    HW122388   2.823   6.539   2.909
 7163SOL    HW222389   2.962   6.470   2.962
 7164SOL     OW22390   1.843   0.820   4.134
 7164SOL    HW122391   1.935   0.853   4.153
 7164SOL    HW222392   1.776   0.888   4.165
 7165SOL     OW22393   6.952   1.449   1.810
 7165SOL    HW122394   6.904   1.468   1.724
 7165SOL    HW222395   0.024   1.476   1.801
 7166SOL     OW22396   5.806   2.994   0.505
 7166SOL    HW122397   5.785   2.951   0.417
 7166SOL    HW222398   5.899   2.971   0.531
 7167SOL     OW22399   5.198   3.311   3.996
 7167SOL    HW122400   5.276   3.365   3.963
 7167SOL    HW222401   5.123   3.373   4.019
 7168SOL     OW22402   1.879   1.966   3.490
 7168SOL    HW122403   1.876   2.066   3.497
 7168SOL    HW222404   1.790   1.928   3.516
 7169SOL     OW22405   6.331   3.078   5.121
 7169SOL    HW122406   6.292   3.105   5.209
 7169SOL    HW222407   6.261   3.085   5.050
 7170SOL     OW22408   5.169   5.882   3.357
 7170SOL    HW122409   5.258   5.871   3.315
 7170SOL    HW222410   5.101   5.903   3.286
 7171SOL     OW22411   5.308   3.803   0.219
 7171SOL    HW122412   5.375   3.845   0.158
 7171SOL    HW222413   5.246   3.745   0.166
 7172SOL     OW22414   1.521   0.742   5.380
 7172SOL    HW122415   1.577   0.822   5.400
 7172SOL    HW222416   1.552   0.700   5.295
 7173SOL     OW22417   0.132   4.457   5.744
 7173SOL    HW122418   0.159   4.362   5.759
 7173SOL    HW222419   0.090   4.466   5.653
 7174SOL     OW22420   0.661   4.675   0.625
 7174SOL    HW122421   0.758   4.668   0.602
 7174SOL    HW222422   0.646   4.752   0.687
 7175SOL     OW22423   5.052   2.427   6.495
 7175SOL    HW122424   5.029   2.471   6.581
 7175SOL    HW222425   4.994   2.346   6.482
 7176SOL     OW22426   1.062   6.294   2.695
 7176SOL    HW122427   1.011   6.212   2.719
 7176SOL    HW222428   1.079   6.348   2.778
 7177SOL     OW22429   2.050   5.885   4.310
 7177SOL    HW122430   2.147   5.899   4.332
 7177SOL    HW222431   2.019   5.958   4.249
 7178SOL     OW22432   1.655   2.404   5.721
 7178SOL    HW122433   1.589   2.478   5.702
 7178SOL    HW222434   1.730   2.440   5.777
 7179SOL     OW22435   2.094   3.576   4.137
 7179SOL    HW122436   1.996   3.568   4.158
 7179SOL    HW222437   2.116   3.672   4.118
 7180SOL     OW22438   2.474   5.116   0.056
 7180SOL    HW122439   2.449   5.041   7.018
 7180SOL    HW222440   2.415   5.113   0.137
 7181SOL     OW22441   2.300   6.174   0.479
 7181SOL    HW122442   2.378   6.235   0.493
 7181SOL    HW222443   2.281   6.123   0.563
 7182SOL     OW22444   1.527   2.517   5.211
 7182SOL    HW122445   1.588   2.503   5.133
 7182SOL    HW222446   1.506   2.614   5.220
 7183SOL     OW22447   2.585   5.757   0.460
 7183SOL    HW122448   2.517   5.696   0.500
 7183SOL    HW222449   2.606   5.831   0.525
 7184SOL     OW22450   0.027   1.409   3.220
 7184SOL    HW122451   0.122   1.387   3.242
 7184SOL    HW222452   7.023   1.357   3.140
 7185SOL     OW22453   5.406   0.395   5.312
 7185SOL    HW122454   5.443   0.306   5.339
 7185SOL    HW222455   5.319   0.382   5.265
 7186SOL     OW22456   6.355   0.410   0.200
 7186SOL    HW122457   6.275   0.457   0.234
 7186SOL    HW222458   6.437   0.466   0.215
 7187SOL     OW22459   3.545   4.071   6.679
 7187SOL    HW122460   3.568   4.161   6.715
 7187SOL    HW222461   3.615   4.043   6.613
 7188SOL     OW22462   6.497   0.475   0.749
 7188SOL    HW122463   6.438   0.549   0.714
 7188SOL    HW222464   6.475   0.458   0.845
 7189SOL     OW22465   0.580   1.030   5.898
 7189SOL    HW122466   0.514   1.087   5.849
 7189SOL    HW222467   0.569   0.934   5.869
 7190SOL     OW22468   6.868   3.660   3.197
 7190SOL    HW122469   6.923   3.674   3.279
 7190SOL    HW222470   6.790   3.602   3.218
 7191SOL     OW22471   0.362   4.402   2.875
 7191SOL    HW122472   0.270   4.364   2.863
 7191SOL    HW222473   0.362   4.463   2.954
 7192SOL     OW22474   3.284   4.649   5.444
 7192SOL    HW122475   3.185   4.654   5.429
 7192SOL    HW222476   3.303   4.639   5.542
 7193SOL     OW22477   1.882   2.771   2.360
 7193SOL    HW122478   1.869   2.683   2.314
 7193SOL    HW222479   1.810   2.834   2.331
 7194SOL     OW22480   2.706   2.364   0.876
 7194SOL    HW122481   2.689   2.423   0.797
 7194SOL    HW222482   2.622   2.313   0.897
 7195SOL     OW22483   6.821   4.373   6.955
 7195SOL    HW122484   6.762   4.294   6.936
 7195SOL    HW222485   6.844   4.419   6.870
 7196SOL     OW22486   3.335   4.183   1.052
 7196SOL    HW122487   3.379   4.191   0.962
 7196SOL    HW222488   3.322   4.086   1.074
 7197SOL     OW22489   0.013   2.628   5.784
 7197SOL    HW122490   6.956   2.572   5.802
 7197SOL    HW222491   0.091   2.593   5.836
 7198SOL     OW22492   0.732   0.875   6.615
 7198SOL    HW122493   0.655   0.896   6.675
 7198SOL    HW222494   0.700   0.873   6.520
 7199SOL     OW22495   2.198   1.172   2.658
 7199SOL    HW122496   2.245   1.083   2.659
 7199SOL    HW222497   2.260   1.242   2.624
 7200SOL     OW22498   2.667   2.055   0.642
 7200SOL    HW122499   2.689   1.990   0.714
 7200SOL    HW222500   2.750   2.077   0.591
 7201SOL     OW22501   1.010   5.667   4.094
 7201SOL    HW122502   0.972   5.636   4.181
 7201SOL    HW222503   1.095   5.618   4.075
 7202SOL     OW22504   4.190   0.664   6.062
 7202SOL    HW122505   4.265   0.731   6.056
 7202SOL    HW222506   4.107   0.704   6.025
 7203SOL     OW22507   6.664   1.940   0.901
 7203SOL    HW122508   6.644   2.010   0.834
 7203SOL    HW222509   6.736   1.972   0.962
 7204SOL     OW22510   0.165   7.009   5.535
 7204SOL    HW122511   0.137   6.995   5.440
 7204SOL    HW222512   0.184   6.921   5.578
 7205SOL     OW22513   1.034   5.307   3.466
 7205SOL    HW122514   1.065   5.230   3.410
 7205SOL    HW222515   1.109   5.335   3.526
 7206SOL     OW22516   1.906   0.386   1.034
 7206SOL    HW122517   1.907   0.482   1.005
 7206SOL    HW222518   1.970   0.373   1.110
 7207SOL     OW22519   3.551   0.349   2.292
 7207SOL    HW122520   3.502   0.435   2.309
 7207SOL    HW222521   3.627   0.366   2.229
 7208SOL     OW22522   4.258   6.140   3.527
 7208SOL    HW122523   4.241   6.060   3.584
 7208SOL    HW222524   4.274   6.220   3.585
 7209SOL     OW22525   2.938   3.720   2.697
 7209SOL    HW122526   2.929   3.644   2.761
 7209SOL    HW222527   2.957   3.685   2.605
 7210SOL     OW22528   4.584   0.860   4.147
 7210SOL    HW122529   4.593   0.801   4.066
 7210SOL    HW222530   4.498   0.840   4.193
 7211SOL     OW22531   2.674   5.675   3.967
 7211SOL    HW122532   2.614   5.751   3.943
 7211SOL    HW222533   2.727   5.647   3.887
 7212SOL     OW22534   0.305   6.459   4.673
 7212SOL    HW122535   0.288   6.361   4.676
 7212SOL    HW222536   0.325   6.486   4.579
 7213SOL     OW22537   5.380   0.467   6.983
 7213SOL    HW122538   5.284   0.488   6.968
 7213SOL    HW222539   5.391   0.421   0.047
 7214SOL     OW22540   0.427   5.330   5.491
 7214SOL    HW122541   0.344   5.275   5.478
 7214SOL    HW222542   0.431   5.402   5.421
 7215SOL     OW22543   0.143   3.388   5.521
 7215SOL    HW122544   0.192   3.431   5.597
 7215SOL    HW222545   0.100   3.459   5.465
 7216SOL     OW22546   3.337   6.087   6.863
 7216SOL    HW122547   3.381   6.040   6.787
 7216SOL    HW222548   3.388   6.069   6.947
 7217SOL     OW22549   2.193   3.987   2.590
 7217SOL    HW122550   2.246   4.065   2.556
 7217SOL    HW222551   2.185   3.918   2.517
 7218SOL     OW22552   4.910   2.285   5.524
 7218SOL    HW122553   4.924   2.362   5.586
 7218SOL    HW222554   4.900   2.319   5.431
 7219SOL     OW22555   4.440   6.503   4.824
 7219SOL    HW122556   4.348   6.510   4.863
 7219SOL    HW222557   4.466   6.407   4.816
 7220SOL     OW22558   0.291   5.851   4.855
 7220SOL    HW122559   0.355   5.901   4.797
 7220SOL    HW222560   0.341   5.787   4.914
 7221SOL     OW22561   4.261   5.683   4.583
 7221SOL    HW122562   4.343   5.725   4.544
 7221SOL    HW222563   4.249   5.713   4.677
 7222SOL     OW22564   6.080   0.518   3.042
 7222SOL    HW122565   5.989   0.522   3.001
 7222SOL    HW222566   6.118   0.426   3.030
 7223SOL     OW22567   2.891   2.409   1.509
 7223SOL    HW122568   2.848   2.339   1.452
 7223SOL    HW222569   2.945   2.364   1.580
 7224SOL     OW22570   5.767   2.243   4.206
 7224SOL    HW122571   5.770   2.333   4.162
 7224SOL    HW222572   5.815   2.247   4.294
 7225SOL     OW22573   0.843   6.066   6.851
 7225SOL    HW122574   0.897   6.122   6.915
 7225SOL    HW222575   0.894   5.982   6.829
 7226SOL     OW22576   6.907   1.146   1.033
 7226SOL    HW122577   6.839   1.195   0.979
 7226SOL    HW222578   6.912   1.051   1.002
 7227SOL     OW22579   0.409   2.210   0.979
 7227SOL    HW122580   0.423   2.308   0.995
 7227SOL    HW222581   0.473   2.158   1.035
 7228SOL     OW22582   0.915   1.145   2.186
 7228SOL    HW122583   0.877   1.119   2.097
 7228SOL    HW222584   0.851   1.119   2.258
 7229SOL     OW22585   1.667   7.004   5.021
 7229SOL    HW122586   1.583   6.951   5.010
 7229SOL    HW222587   1.665   0.029   5.108
 7230SOL     OW22588   4.606   5.096   4.414
 7230SOL    HW122589   4.700   5.128   4.409
 7230SOL    HW222590   4.556   5.148   4.484
 7231SOL     OW22591   4.997   0.155   0.345
 7231SOL    HW122592   5.043   0.226   0.399
 7231SOL    HW222593   4.916   0.194   0.301
 7232SOL     OW22594   4.973   5.713   3.188
 7232SOL    HW122595   4.924   5.627   3.203
 7232SOL    HW222596   5.067   5.693   3.160
 7233SOL     OW22597   0.666   2.599   4.425
 7233SOL    HW122598   0.749   2.623   4.374
 7233SOL    HW222599   0.650   2.500   4.417
 7234SOL     OW22600   5.138   3.512   3.617
 7234SOL    HW122601   5.188   3.522   3.531
 7234SOL    HW222602   5.169   3.430   3.664
 7235SOL     OW22603   6.789   4.011   2.028
 7235SOL    HW122604   6.889   4.015   2.029
 7235SOL    HW222605   6.759   3.917   2.045
 7236SOL     OW22606   2.507   1.413   2.322
 7236SOL    HW122607   2.509   1.418   2.222
 7236SOL    HW222608   2.483   1.320   2.350
 7237SOL     OW22609   6.051   6.944   5.003
 7237SOL    HW122610   5.970   6.938   5.062
 7237SOL    HW222611   6.078   6.853   4.972
 7238SOL     OW22612   2.975   1.945   1.223
 7238SOL    HW122613   3.056   2.002   1.210
 7238SOL    HW222614   2.985   1.861   1.168
 7239SOL     OW22615   2.171   1.828   2.622
 7239SOL    HW122616   2.255   1.844   2.673
 7239SOL    HW222617   2.169   1.886   2.541
 7240SOL     OW22618   2.172   5.044   6.018
 7240SOL    HW122619   2.266   5.068   5.992
 7240SOL    HW222620   2.128   4.995   5.942
 7241SOL     OW22621   2.977   0.810   0.623
 7241SOL    HW122622   3.033   0.755   0.685
 7241SOL    HW222623   2.977   0.768   0.532
 7242SOL     OW22624   6.300   5.738   0.603
 7242SOL    HW122625   6.384   5.790   0.586
 7242SOL    HW222626   6.251   5.780   0.679
 7243SOL     OW22627   6.730   4.553   6.108
 7243SOL    HW122628   6.772   4.592   6.189
 7243SOL    HW222629   6.633   4.537   6.125
 7244SOL     OW22630   5.573   0.449   1.124
 7244SOL    HW122631   5.596   0.527   1.182
 7244SOL    HW222632   5.541   0.374   1.182
 7245SOL     OW22633   0.426   2.209   4.929
 7245SOL    HW122634   0.333   2.222   4.894
 7245SOL    HW222635   0.463   2.123   4.893
 7246SOL     OW22636   6.295   0.318   4.223
 7246SOL    HW122637   6.199   0.344   4.226
 7246SOL    HW222638   6.317   0.262   4.303
 7247SOL     OW22639   2.882   6.567   4.006
 7247SOL    HW122640   2.841   6.632   3.942
 7247SOL    HW222641   2.977   6.549   3.979
 7248SOL     OW22642   3.653   0.841   3.215
 7248SOL    HW122643   3.684   0.927   3.176
 7248SOL    HW222644   3.728   0.797   3.264
 7249SOL     OW22645   5.441   4.520   2.055
 7249SOL    HW122646   5.343   4.533   2.036
 7249SOL    HW222647   5.455   4.520   2.154
 7250SOL     OW22648   3.931   6.092   6.224
 7250SOL    HW122649   3.981   6.056   6.146
 7250SOL    HW222650   3.931   6.192   6.220
 7251SOL     OW22651   0.446   6.760   5.201
 7251SOL    HW122652   0.502   6.714   5.132
 7251SOL    HW222653   0.488   6.848   5.225
 7252SOL     OW22654   3.814   3.123   3.658
 7252SOL    HW122655   3.808   3.222   3.671
 7252SOL    HW222656   3.849   3.081   3.741
 7253SOL     OW22657   1.941   6.132   6.924
 7253SOL    HW122658   1.886   6.133   6.840
 7253SOL    HW222659   2.027   6.084   6.908
 7254SOL     OW22660   4.657   5.770   5.164
 7254SOL    HW122661   4.619   5.818   5.243
 7254SOL    HW222662   4.670   5.673   5.186
 7255SOL     OW22663   3.608   3.410   1.125
 7255SOL    HW122664   3.546   3.484   1.100
 7255SOL    HW222665   3.593   3.386   1.221
 7256SOL     OW22666   4.452   4.555   4.317
 7256SOL    HW122667   4.385   4.613   4.364
 7256SOL    HW222668   4.450   4.575   4.219
 7257SOL     OW22669   4.953   3.448   4.068
 7257SOL    HW122670   4.968   3.481   4.161
 7257SOL    HW222671   4.884   3.376   4.068
 7258SOL     OW22672   3.810   1.137   3.159
 7258SOL    HW122673   3.906   1.145   3.187
 7258SOL    HW222674   3.751   1.164   3.234
 7259SOL     OW22675   3.325   3.181   1.733
 7259SOL    HW122676   3.293   3.188   1.639
 7259SOL    HW222677   3.248   3.192   1.796
 7260SOL     OW22678   2.782   2.231   2.945
 7260SOL    HW122679   2.745   2.274   2.862
 7260SOL    HW222680   2.768   2.291   3.023
 7261SOL     OW22681   2.072   3.350   1.371
 7261SOL    HW122682   2.004   3.306   1.429
 7261SOL    HW222683   2.065   3.314   1.278
 7262SOL     OW22684   5.572   1.895   4.314
 7262SOL    HW122685   5.536   1.988   4.305
 7262SOL    HW222686   5.668   1.899   4.340
 7263SOL     OW22687   0.243   6.230   2.374
 7263SOL    HW122688   0.312   6.160   2.354
 7263SOL    HW222689   0.227   6.284   2.291
 7264SOL     OW22690   6.176   1.432   6.541
 7264SOL    HW122691   6.195   1.483   6.624
 7264SOL    HW222692   6.242   1.357   6.531
 7265SOL     OW22693   5.536   6.014   5.976
 7265SOL    HW122694   5.458   6.029   6.037
 7265SOL    HW222695   5.535   6.081   5.902
 7266SOL     OW22696   4.274   7.005   1.322
 7266SOL    HW122697   4.176   7.009   1.300
 7266SOL    HW222698   4.286   6.996   1.420
 7267SOL     OW22699   6.519   5.722   5.660
 7267SOL    HW122700   6.568   5.804   5.630
 7267SOL    HW222701   6.422   5.743   5.667
 7268SOL     OW22702   4.448   4.825   2.803
 7268SOL    HW122703   4.426   4.745   2.859
 7268SOL    HW222704   4.364   4.868   2.771
 7269SOL     OW22705   6.988   6.132   1.176
 7269SOL    HW122706   6.987   6.055   1.239
 7269SOL    HW222707   7.003   6.100   1.083
 7270SOL     OW22708   1.516   2.932   4.984
 7270SOL    HW122709   1.465   2.860   4.937
 7270SOL    HW222710   1.568   2.985   4.917
 7271SOL     OW22711   0.491   4.981   4.259
 7271SOL    HW122712   0.438   4.899   4.276
 7271SOL    HW222713   0.588   4.963   4.276
 7272SOL     OW22714   5.614   4.759   1.997
 7272SOL    HW122715   5.596   4.664   2.019
 7272SOL    HW222716   5.600   4.816   2.078
 7273SOL     OW22717   5.682   4.860   2.648
 7273SOL    HW122718   5.741   4.783   2.668
 7273SOL    HW222719   5.736   4.944   2.641
 7274SOL     OW22720   1.142   6.189   6.564
 7274SOL    HW122721   1.223   6.129   6.559
 7274SOL    HW222722   1.060   6.135   6.546
 7275SOL     OW22723   6.904   1.366   2.530
 7275SOL    HW122724   6.942   1.356   2.622
 7275SOL    HW222725   6.822   1.310   2.521
 7276SOL     OW22726   3.381   1.324   3.581
 7276SOL    HW122727   3.447   1.356   3.513
 7276SOL    HW222728   3.326   1.401   3.614
 7277SOL     OW22729   5.452   1.486   4.169
 7277SOL    HW122730   5.514   1.555   4.132
 7277SOL    HW222731   5.435   1.505   4.266
 7278SOL     OW22732   3.245   1.707   2.120
 7278SOL    HW122733   3.328   1.740   2.166
 7278SOL    HW222734   3.237   1.608   2.133
 7279SOL     OW22735   3.972   2.999   6.772
 7279SOL    HW122736   3.912   3.042   6.839
 7279SOL    HW222737   3.958   2.900   6.773
 7280SOL     OW22738   6.661   2.390   4.413
 7280SOL    HW122739   6.669   2.309   4.471
 7280SOL    HW222740   6.564   2.415   4.404
 7281SOL     OW22741   2.324   0.343   0.440
 7281SOL    HW122742   2.245   0.373   0.494
 7281SOL    HW222743   2.331   0.243   0.444
 7282SOL     OW22744   6.431   6.727   0.678
 7282SOL    HW122745   6.368   6.790   0.724
 7282SOL    HW222746   6.484   6.677   0.746
 7283SOL     OW22747   2.608   6.749   1.940
 7283SOL    HW122748   2.698   6.708   1.954
 7283SOL    HW222749   2.595   6.823   2.005
 7284SOL     OW22750   0.180   3.284   4.730
 7284SOL    HW122751   0.232   3.200   4.748
 7284SOL    HW222752   0.103   3.263   4.670
 7285SOL     OW22753   5.668   3.721   1.717
 7285SOL    HW122754   5.653   3.627   1.748
 7285SOL    HW222755   5.616   3.737   1.633
 7286SOL     OW22756   0.806   0.124   0.500
 7286SOL    HW122757   0.860   0.080   0.427
 7286SOL    HW222758   0.856   0.204   0.534
 7287SOL     OW22759   6.606   3.367   4.759
 7287SOL    HW122760   6.607   3.304   4.837
 7287SOL    HW222761   6.635   3.458   4.789
 7288SOL     OW22762   1.136   2.842   2.192
 7288SOL    HW122763   1.161   2.754   2.233
 7288SOL    HW222764   1.039   2.861   2.210
 7289SOL     OW22765   6.746   2.473   2.738
 7289SOL    HW122766   6.718   2.537   2.810
 7289SOL    HW222767   6.713   2.382   2.760
 7290SOL     OW22768   3.070   0.959   5.471
 7290SOL    HW122769   3.046   0.951   5.567
 7290SOL    HW222770   3.037   1.046   5.435
 7291SOL     OW22771   3.262   0.054   0.752
 7291SOL    HW122772   3.224   0.134   0.705
 7291SOL    HW222773   3.328   0.008   0.692
 7292SOL     OW22774   2.661   0.050   3.410
 7292SOL    HW122775   2.713   0.090   3.485
 7292SOL    HW222776   2.643   0.121   3.341
 7293SOL     OW22777   1.791   1.047   5.993
 7293SOL    HW122778   1.847   1.040   5.910
 7293SOL    HW222779   1.695   1.033   5.970
 7294SOL     OW22780   3.070   4.192   0.335
 7294SOL    HW122781   2.994   4.190   0.399
 7294SOL    HW222782   3.152   4.227   0.381
 7295SOL     OW22783   6.974   4.316   1.254
 7295SOL    HW122784   6.891   4.326   1.199
 7295SOL    HW222785   6.982   4.221   1.284
 7296SOL     OW22786   4.538   4.831   2.548
 7296SOL    HW122787   4.515   4.834   2.646
 7296SOL    HW222788   4.478   4.894   2.498
 7297SOL     OW22789   2.644   6.559   2.825
 7297SOL    HW122790   2.644   6.646   2.777
 7297SOL    HW222791   2.557   6.511   2.807
 7298SOL     OW22792   5.253   5.399   0.394
 7298SOL    HW122793   5.333   5.457   0.381
 7298SOL    HW222794   5.283   5.305   0.410
 7299SOL     OW22795   0.801   1.691   0.647
 7299SOL    HW122796   0.851   1.774   0.668
 7299SOL    HW222797   0.742   1.706   0.568
 7300SOL     OW22798   0.637   5.470   2.221
 7300SOL    HW122799   0.564   5.444   2.157
 7300SOL    HW222800   0.601   5.472   2.314
 7301SOL     OW22801   6.652   1.666   5.990
 7301SOL    HW122802   6.586   1.642   5.918
 7301SOL    HW222803   6.679   1.761   5.981
 7302SOL     OW22804   0.312   2.096   5.353
 7302SOL    HW122805   0.337   2.001   5.331
 7302SOL    HW222806   0.229   2.120   5.303
 7303SOL     OW22807   3.473   0.833   7.006
 7303SOL    HW122808   3.406   0.834   6.932
 7303SOL    HW222809   3.495   0.927   0.007
 7304SOL     OW22810   2.056   5.524   1.775
 7304SOL    HW122811   2.063   5.430   1.807
 7304SOL    HW222812   2.020   5.582   1.849
 7305SOL     OW22813   6.228   2.141   1.192
 7305SOL    HW122814   6.133   2.166   1.212
 7305SOL    HW222815   6.238   2.123   1.094
 7306SOL     OW22816   3.621   1.652   1.392
 7306SOL    HW122817   3.637   1.750   1.404
 7306SOL    HW222818   3.585   1.614   1.477
 7307SOL     OW22819   4.389   0.128   2.203
 7307SOL    HW122820   4.355   0.036   2.223
 7307SOL    HW222821   4.481   0.122   2.166
 7308SOL     OW22822   6.869   1.535   3.385
 7308SOL    HW122823   6.930   1.528   3.464
 7308SOL    HW222824   6.910   1.486   3.307
 7309SOL     OW22825   2.592   6.331   1.926
 7309SOL    HW122826   2.663   6.377   1.978
 7309SOL    HW222827   2.538   6.398   1.875
 7310SOL     OW22828   1.504   3.310   6.257
 7310SOL    HW122829   1.566   3.281   6.184
 7310SOL    HW222830   1.555   3.360   6.326
 7311SOL     OW22831   0.937   6.960   0.366
 7311SOL    HW122832   0.906   6.887   0.305
 7311SOL    HW222833   1.020   6.931   0.414
 7312SOL     OW22834   0.925   1.924   5.168
 7312SOL    HW122835   0.903   1.885   5.257
 7312SOL    HW222836   0.865   2.002   5.149
 7313SOL     OW22837   2.679   1.738   0.558
 7313SOL    HW122838   2.670   1.646   0.597
 7313SOL    HW222839   2.596   1.761   0.507
 7314SOL     OW22840   0.074   4.079   6.029
 7314SOL    HW122841   0.102   4.115   6.117
 7314SOL    HW222842   0.093   3.981   6.024
 7315SOL     OW22843   5.741   5.675   2.444
 7315SOL    HW122844   5.826   5.689   2.494
 7315SOL    HW222845   5.672   5.740   2.477
 7316SOL     OW22846   3.515   2.130   6.254
 7316SOL    HW122847   3.429   2.081   6.268
 7316SOL    HW222848   3.514   2.216   6.305
 7317SOL     OW22849   3.605   1.103   1.913
 7317SOL    HW122850   3.673   1.079   1.843
 7317SOL    HW222851   3.609   1.201   1.931
 7318SOL     OW22852   3.317   6.467   2.587
 7318SOL    HW122853   3.403   6.445   2.539
 7318SOL    HW222854   3.322   6.560   2.623
 7319SOL     OW22855   6.167   3.772   6.380
 7319SOL    HW122856   6.177   3.765   6.479
 7319SOL    HW222857   6.155   3.868   6.355
 7320SOL     OW22858   0.958   3.503   6.934
 7320SOL    HW122859   0.892   3.445   6.981
 7320SOL    HW222860   0.969   3.471   6.839
 7321SOL     OW22861   2.175   6.508   6.287
 7321SOL    HW122862   2.127   6.570   6.225
 7321SOL    HW222863   2.126   6.421   6.291
 7322SOL     OW22864   0.058   2.986   2.760
 7322SOL    HW122865   0.113   3.044   2.699
 7322SOL    HW222866   0.093   2.893   2.758
 7323SOL     OW22867   2.782   2.303   1.290
 7323SOL    HW122868   2.838   2.258   1.221
 7323SOL    HW222869   2.695   2.255   1.299
 7324SOL     OW22870   6.128   4.514   2.778
 7324SOL    HW122871   6.224   4.540   2.779
 7324SOL    HW222872   6.076   4.581   2.725
 7325SOL     OW22873   2.830   0.070   5.323
 7325SOL    HW122874   2.815   0.088   5.420
 7325SOL    HW222875   2.797   7.003   5.299
 7326SOL     OW22876   3.899   0.764   6.420
 7326SOL    HW122877   3.856   0.689   6.369
 7326SOL    HW222878   3.998   0.751   6.419
 7327SOL     OW22879   5.938   3.213   4.035
 7327SOL    HW122880   6.006   3.233   3.965
 7327SOL    HW222881   5.894   3.298   4.064
 7328SOL     OW22882   4.549   6.617   6.197
 7328SOL    HW122883   4.636   6.668   6.197
 7328SOL    HW222884   4.557   6.538   6.136
 7329SOL     OW22885   1.302   2.750   0.372
 7329SOL    HW122886   1.315   2.678   0.303
 7329SOL    HW222887   1.313   2.711   0.463
 7330SOL     OW22888   2.369   2.739   0.936
 7330SOL    HW122889   2.337   2.729   1.031
 7330SOL    HW222890   2.360   2.835   0.909
 7331SOL     OW22891   4.938   5.974   2.353
 7331SOL    HW122892   4.955   6.051   2.291
 7331SOL    HW222893   4.845   5.940   2.340
 7332SOL     OW22894   3.818   4.069   6.930
 7332SOL    HW122895   3.719   4.061   6.923
 7332SOL    HW222896   3.854   4.102   6.843
 7333SOL     OW22897   5.944   3.426   3.279
 7333SOL    HW122898   5.956   3.437   3.378
 7333SOL    HW222899   5.963   3.331   3.254
 7334SOL     OW22900   2.782   5.441   5.531
 7334SOL    HW122901   2.867   5.486   5.503
 7334SOL    HW222902   2.803   5.368   5.597
 7335SOL     OW22903   0.044   2.448   2.929
 7335SOL    HW122904   7.020   2.381   2.986
 7335SOL    HW222905   0.141   2.450   2.955
 7336SOL     OW22906   2.167   6.157   1.388
 7336SOL    HW122907   2.249   6.188   1.341
 7336SOL    HW222908   2.108   6.236   1.408
 7337SOL     OW22909   2.573   3.137   1.348
 7337SOL    HW122910   2.611   3.212   1.404
 7337SOL    HW222911   2.628   3.055   1.362
 7338SOL     OW22912   6.076   2.120   1.528
 7338SOL    HW122913   6.045   2.140   1.435
 7338SOL    HW222914   6.053   2.026   1.552
 7339SOL     OW22915   6.732   6.812   5.552
 7339SOL    HW122916   6.682   6.893   5.522
 7339SOL    HW222917   6.797   6.838   5.625
 7340SOL     OW22918   3.916   1.812   0.026
 7340SOL    HW122919   4.009   1.777   0.012
 7340SOL    HW222920   3.898   1.820   0.124
 7341SOL     OW22921   1.310   5.086   5.092
 7341SOL    HW122922   1.316   5.161   5.158
 7341SOL    HW222923   1.315   5.123   4.999
 7342SOL     OW22924   6.084   6.848   0.361
 7342SOL    HW122925   6.124   6.848   0.270
 7342SOL    HW222926   5.985   6.839   0.354
 7343SOL     OW22927   5.595   3.189   1.928
 7343SOL    HW122928   5.538   3.114   1.963
 7343SOL    HW222929   5.685   3.153   1.903
 7344SOL     OW22930   1.938   6.975   6.415
 7344SOL    HW122931   1.975   0.032   6.459
 7344SOL    HW222932   1.944   6.897   6.478
 7345SOL     OW22933   5.158   5.856   5.362
 7345SOL    HW122934   5.208   5.777   5.397
 7345SOL    HW222935   5.123   5.911   5.438
 7346SOL     OW22936   3.951   4.026   1.108
 7346SOL    HW122937   3.916   3.949   1.055
 7346SOL    HW222938   3.874   4.075   1.150
 7347SOL     OW22939   6.621   2.471   1.336
 7347SOL    HW122940   6.667   2.521   1.263
 7347SOL    HW222941   6.552   2.410   1.297
 7348SOL     OW22942   1.517   3.339   3.688
 7348SOL    HW122943   1.438   3.285   3.660
 7348SOL    HW222944   1.492   3.436   3.687
 7349SOL     OW22945   3.326   1.913   1.378
 7349SOL    HW122946   3.351   1.914   1.281
 7349SOL    HW222947   3.235   1.872   1.388
 7350SOL     OW22948   1.324   3.144   4.000
 7350SOL    HW122949   1.247   3.104   4.051
 7350SOL    HW222950   1.305   3.140   3.902
 7351SOL     OW22951   4.312   4.837   6.569
 7351SOL    HW122952   4.390   4.777   6.550
 7351SOL    HW222953   4.257   4.798   6.643
 7352SOL     OW22954   1.928   2.411   3.299
 7352SOL    HW122955   1.942   2.509   3.313
 7352SOL    HW222956   2.000   2.375   3.240
 7353SOL     OW22957   0.639   0.455   5.784
 7353SOL    HW122958   0.639   0.388   5.709
 7353SOL    HW222959   0.676   0.413   5.867
 7354SOL     OW22960   0.317   1.255   6.053
 7354SOL    HW122961   0.400   1.241   6.108
 7354SOL    HW222962   0.236   1.238   6.109
 7355SOL     OW22963   1.400   6.439   0.097
 7355SOL    HW122964   1.427   6.520   0.151
 7355SOL    HW222965   1.308   6.411   0.124
 7356SOL     OW22966   5.159   3.066   6.280
 7356SOL    HW122967   5.089   3.134   6.301
 7356SOL    HW222968   5.235   3.075   6.344
 7357SOL     OW22969   4.682   1.113   1.084
 7357SOL    HW122970   4.699   1.065   1.170
 7357SOL    HW222971   4.758   1.175   1.065
 7358SOL     OW22972   1.879   2.455   2.297
 7358SOL    HW122973   1.802   2.476   2.237
 7358SOL    HW222974   1.945   2.398   2.248
 7359SOL     OW22975   3.320   2.566   0.729
 7359SOL    HW122976   3.268   2.509   0.666
 7359SOL    HW222977   3.285   2.660   0.727
 7360SOL     OW22978   3.194   2.260   6.171
 7360SOL    HW122979   3.099   2.243   6.147
 7360SOL    HW222980   3.234   2.177   6.210
 7361SOL     OW22981   4.085   6.984   2.140
 7361SOL    HW122982   4.121   6.905   2.189
 7361SOL    HW222983   4.078   0.038   2.202
 7362SOL     OW22984   0.633   6.995   5.019
 7362SOL    HW122985   0.699   6.919   5.023
 7362SOL    HW222986   0.614   7.017   4.923
 7363SOL     OW22987   3.926   1.674   1.372
 7363SOL    HW122988   3.927   1.728   1.456
 7363SOL    HW222989   3.832   1.650   1.348
 7364SOL     OW22990   4.240   6.937   1.597
 7364SOL    HW122991   4.141   6.944   1.600
 7364SOL    HW222992   4.275   6.915   1.688
 7365SOL     OW22993   1.486   5.798   2.131
 7365SOL    HW122994   1.562   5.860   2.153
 7365SOL    HW222995   1.404   5.852   2.112
 7366SOL     OW22996   1.660   5.838   0.668
 7366SOL    HW122997   1.693   5.769   0.604
 7366SOL    HW222998   1.579   5.883   0.629
 7367SOL     OW22999   4.610   4.116   1.363
 7367SOL    HW123000   4.629   4.209   1.393
 7367SOL    HW223001   4.670   4.052   1.411
 7368SOL     OW23002   3.814   2.968   4.229
 7368SOL    HW123003   3.748   2.973   4.304
 7368SOL    HW223004   3.891   3.029   4.249
 7369SOL     OW23005   5.159   3.185   0.868
 7369SOL    HW123006   5.096   3.185   0.947
 7369SOL    HW223007   5.247   3.146   0.896
 7370SOL     OW23008   2.202   0.326   5.520
 7370SOL    HW123009   2.242   0.396   5.579
 7370SOL    HW223010   2.274   0.265   5.487
 7371SOL     OW23011   2.580   5.583   3.591
 7371SOL    HW123012   2.648   5.563   3.662
 7371SOL    HW223013   2.524   5.502   3.575
 7372SOL     OW23014   3.011   0.930   5.734
 7372SOL    HW123015   2.944   0.877   5.787
 7372SOL    HW223016   3.103   0.902   5.761
 7373SOL     OW23017   5.440   1.740   3.429
 7373SOL    HW123018   5.433   1.680   3.508
 7373SOL    HW223019   5.443   1.835   3.459
 7374SOL     OW23020   2.907   2.339   5.258
 7374SOL    HW123021   3.003   2.337   5.229
 7374SOL    HW223022   2.849   2.301   5.186
 7375SOL     OW23023   1.948   1.945   3.114
 7375SOL    HW123024   1.897   2.028   3.089
 7375SOL    HW223025   1.973   1.948   3.210
 7376SOL     OW23026   4.228   1.493   0.552
 7376SOL    HW123027   4.129   1.490   0.538
 7376SOL    HW223028   4.254   1.581   0.592
 7377SOL     OW23029   4.821   5.736   2.041
 7377SOL    HW123030   4.782   5.644   2.049
 7377SOL    HW223031   4.798   5.789   2.122
 7378SOL     OW23032   6.992   2.195   4.775
 7378SOL    HW123033   6.912   2.136   4.789
 7378SOL    HW223034   6.969   2.268   4.710
 7379SOL     OW23035   3.959   2.186   2.944
 7379SOL    HW123036   3.879   2.158   2.891
 7379SOL    HW223037   4.020   2.240   2.886
 7380SOL     OW23038   6.596   3.381   5.186
 7380SOL    HW123039   6.585   3.354   5.090
 7380SOL    HW223040   6.631   3.304   5.239
 7381SOL     OW23041   5.059   4.075   2.748
 7381SOL    HW123042   5.061   3.998   2.684
 7381SOL    HW223043   5.101   4.155   2.706
 7382SOL     OW23044   0.202   5.889   5.982
 7382SOL    HW123045   0.283   5.945   5.966
 7382SOL    HW223046   0.221   5.795   5.956
 7383SOL     OW23047   0.445   6.833   1.678
 7383SOL    HW123048   0.518   6.783   1.631
 7383SOL    HW223049   0.443   6.807   1.774
 7384SOL     OW23050   5.068   0.946   2.440
 7384SOL    HW123051   5.146   0.903   2.484
 7384SOL    HW223052   5.078   0.941   2.341
 7385SOL     OW23053   4.442   6.813   2.152
 7385SOL    HW123054   4.416   6.716   2.150
 7385SOL    HW223055   4.508   6.828   2.226
 7386SOL     OW23056   0.066   2.193   5.283
 7386SOL    HW123057   0.070   2.264   5.212
 7386SOL    HW223058   7.009   2.136   5.268
 7387SOL     OW23059   4.321   6.962   4.602
 7387SOL    HW123060   4.261   0.002   4.650
 7387SOL    HW223061   4.366   7.008   4.526
 7388SOL     OW23062   6.659   5.203   3.587
 7388SOL    HW123063   6.624   5.283   3.537
 7388SOL    HW223064   6.622   5.120   3.546
 7389SOL     OW23065   1.104   5.086   0.157
 7389SOL    HW123066   1.054   5.107   0.241
 7389SOL    HW223067   1.112   5.169   0.101
 7390SOL     OW23068   1.478   1.172   6.989
 7390SOL    HW123069   1.564   1.223   6.989
 7390SOL    HW223070   1.489   1.087   0.016
 7391SOL     OW23071   4.792   4.009   4.638
 7391SOL    HW123072   4.717   3.950   4.667
 7391SOL    HW223073   4.853   3.957   4.578
 7392SOL     OW23074   3.022   5.712   6.560
 7392SOL    HW123075   2.943   5.748   6.509
 7392SOL    HW223076   3.102   5.768   6.540
 7393SOL     OW23077   6.071   5.417   1.589
 7393SOL    HW123078   6.050   5.474   1.509
 7393SOL    HW223079   6.138   5.348   1.563
 7394SOL     OW23080   3.221   2.451   6.521
 7394SOL    HW123081   3.196   2.435   6.616
 7394SOL    HW223082   3.231   2.549   6.506
 7395SOL     OW23083   2.004   1.120   6.997
 7395SOL    HW123084   2.062   1.192   6.958
 7395SOL    HW223085   2.001   1.042   6.934
 7396SOL     OW23086   1.206   6.885   0.438
 7396SOL    HW123087   1.230   6.942   0.359
 7396SOL    HW223088   1.214   6.940   0.521
 7397SOL     OW23089   5.182   5.430   4.945
 7397SOL    HW123090   5.157   5.384   5.031
 7397SOL    HW223091   5.242   5.507   4.966
 7398SOL     OW23092   3.603   5.403   4.274
 7398SOL    HW123093   3.560   5.429   4.360
 7398SOL    HW223094   3.621   5.484   4.220
 7399SOL     OW23095   0.397   3.704   5.550
 7399SOL    HW123096   0.301   3.731   5.552
 7399SOL    HW223097   0.432   3.713   5.457
 7400SOL     OW23098   2.613   3.982   6.475
 7400SOL    HW123099   2.565   3.971   6.562
 7400SOL    HW223100   2.642   3.893   6.441
 7401SOL     OW23101   0.983   0.848   4.047
 7401SOL    HW123102   0.914   0.914   4.019
 7401SOL    HW223103   1.005   0.787   3.971
 7402SOL     OW23104   1.979   5.131   5.118
 7402SOL    HW123105   2.030   5.196   5.175
 7402SOL    HW223106   2.015   5.039   5.131
 7403SOL     OW23107   1.420   3.257   3.371
 7403SOL    HW123108   1.510   3.265   3.329
 7403SOL    HW223109   1.393   3.345   3.409
 7404SOL     OW23110   2.847   5.735   1.669
 7404SOL    HW123111   2.877   5.754   1.576
 7404SOL    HW223112   2.754   5.767   1.682
 7405SOL     OW23113   2.407   4.935   4.188
 7405SOL    HW123114   2.414   4.853   4.245
 7405SOL    HW223115   2.457   5.010   4.232
 7406SOL     OW23116   1.241   3.479   3.551
 7406SOL    HW123117   1.211   3.551   3.488
 7406SOL    HW223118   1.161   3.428   3.583
 7407SOL     OW23119   6.962   6.216   5.130
 7407SOL    HW123120   6.911   6.185   5.050
 7407SOL    HW223121   6.912   6.290   5.175
 7408SOL     OW23122   0.988   3.542   5.593
 7408SOL    HW123123   0.933   3.459   5.580
 7408SOL    HW223124   1.010   3.582   5.504
 7409SOL     OW23125   0.360   1.239   4.880
 7409SOL    HW123126   0.381   1.263   4.785
 7409SOL    HW223127   0.411   1.157   4.906
 7410SOL     OW23128   0.092   4.444   0.862
 7410SOL    HW123129   0.025   4.439   0.788
 7410SOL    HW223130   0.168   4.504   0.835
 7411SOL     OW23131   2.920   6.463   4.310
 7411SOL    HW123132   3.017   6.447   4.331
 7411SOL    HW223133   2.911   6.494   4.215
 7412SOL     OW23134   4.218   0.883   2.192
 7412SOL    HW123135   4.207   0.974   2.232
 7412SOL    HW223136   4.130   0.850   2.158
 7413SOL     OW23137   5.990   5.377   4.848
 7413SOL    HW123138   6.051   5.303   4.879
 7413SOL    HW223139   6.044   5.459   4.831
 7414SOL     OW23140   7.013   6.678   3.913
 7414SOL    HW123141   6.978   6.636   3.997
 7414SOL    HW223142   6.947   6.745   3.879
 7415SOL     OW23143   0.849   4.092   3.173
 7415SOL    HW123144   0.918   4.164   3.184
 7415SOL    HW223145   0.894   4.004   3.161
 7416SOL     OW23146   2.860   0.558   3.961
 7416SOL    HW123147   2.828   0.549   4.055
 7416SOL    HW223148   2.844   0.652   3.930
 7417SOL     OW23149   2.402   0.073   6.125
 7417SOL    HW123150   2.475   0.042   6.187
 7417SOL    HW223151   2.314   0.036   6.155
 7418SOL     OW23152   4.025   5.289   0.869
 7418SOL    HW123153   4.118   5.274   0.836
 7418SOL    HW223154   4.021   5.374   0.921
 7419SOL     OW23155   6.358   2.719   4.684
 7419SOL    HW123156   6.281   2.684   4.631
 7419SOL    HW223157   6.439   2.726   4.626
 7420SOL     OW23158   6.889   6.452   2.238
 7420SOL    HW123159   6.950   6.516   2.285
 7420SOL    HW223160   6.859   6.493   2.152
 7421SOL     OW23161   3.121   3.569   1.740
 7421SOL    HW123162   3.140   3.642   1.674
 7421SOL    HW223163   3.204   3.516   1.756
 7422SOL     OW23164   0.215   3.482   2.277
 7422SOL    HW123165   0.160   3.475   2.360
 7422SOL    HW223166   0.190   3.408   2.214
 7423SOL     OW23167   6.595   4.330   5.888
 7423SOL    HW123168   6.629   4.343   5.795
 7423SOL    HW223169   6.672   4.315   5.950
 7424SOL     OW23170   6.443   0.851   4.503
 7424SOL    HW123171   6.530   0.812   4.475
 7424SOL    HW223172   6.368   0.802   4.459
 7425SOL     OW23173   4.568   6.015   6.611
 7425SOL    HW123174   4.550   5.971   6.699
 7425SOL    HW223175   4.549   5.951   6.536
 7426SOL     OW23176   0.863   2.005   6.043
 7426SOL    HW123177   0.767   1.983   6.061
 7426SOL    HW223178   0.869   2.095   6.001
 7427SOL     OW23179   3.227   6.129   4.218
 7427SOL    HW123180   3.137   6.108   4.179
 7427SOL    HW223181   3.282   6.176   4.149
 7428SOL     OW23182   3.650   1.358   5.433
 7428SOL    HW123183   3.697   1.361   5.521
 7428SOL    HW223184   3.715   1.337   5.361
 7429SOL     OW23185   5.326   0.258   3.063
 7429SOL    HW123186   5.259   0.189   3.036
 7429SOL    HW223187   5.281   0.346   3.076
 7430SOL     OW23188   0.353   3.825   6.516
 7430SOL    HW123189   0.305   3.756   6.462
 7430SOL    HW223190   0.391   3.895   6.456
 7431SOL     OW23191   0.066   3.450   2.503
 7431SOL    HW123192   0.100   3.515   2.571
 7431SOL    HW223193   7.011   3.402   2.540
 7432SOL     OW23194   0.219   6.771   3.384
 7432SOL    HW123195   0.237   6.675   3.360
 7432SOL    HW223196   0.218   6.826   3.301
 7433SOL     OW23197   5.787   5.102   1.111
 7433SOL    HW123198   5.868   5.067   1.160
 7433SOL    HW223199   5.762   5.037   1.039
 7434SOL     OW23200   4.642   1.013   6.477
 7434SOL    HW123201   4.572   1.020   6.406
 7434SOL    HW223202   4.657   0.916   6.499
 7435SOL     OW23203   3.811   5.465   6.907
 7435SOL    HW123204   3.820   5.540   6.842
 7435SOL    HW223205   3.740   5.402   6.876
 7436SOL     OW23206   5.581   3.560   6.122
 7436SOL    HW123207   5.528   3.501   6.183
 7436SOL    HW223208   5.646   3.505   6.070
 7437SOL     OW23209   0.086   5.888   0.253
 7437SOL    HW123210   0.141   5.950   0.197
 7437SOL    HW223211   0.018   5.842   0.196
 7438SOL     OW23212   0.739   5.589   0.825
 7438SOL    HW123213   0.831   5.568   0.857
 7438SOL    HW223214   0.695   5.652   0.889
 7439SOL     OW23215   1.575   6.338   4.860
 7439SOL    HW123216   1.641   6.366   4.791
 7439SOL    HW223217   1.485   6.329   4.819
 7440SOL     OW23218   1.101   2.868   4.042
 7440SOL    HW123219   1.156   2.923   4.105
 7440SOL    HW223220   1.011   2.850   4.082
 7441SOL     OW23221   4.795   6.201   4.900
 7441SOL    HW123222   4.841   6.129   4.953
 7441SOL    HW223223   4.856   6.233   4.828
 7442SOL     OW23224   1.220   1.237   6.491
 7442SOL    HW123225   1.231   1.328   6.451
 7442SOL    HW223226   1.168   1.179   6.428
 7443SOL     OW23227   0.387   0.509   1.445
 7443SOL    HW123228   0.415   0.556   1.529
 7443SOL    HW223229   0.360   0.577   1.377
 7444SOL     OW23230   6.688   3.623   4.891
 7444SOL    HW123231   6.637   3.705   4.863
 7444SOL    HW223232   6.784   3.633   4.865
 7445SOL     OW23233   3.684   0.476   1.275
 7445SOL    HW123234   3.761   0.534   1.302
 7445SOL    HW223235   3.698   0.446   1.181
 7446SOL     OW23236   5.437   4.290   0.900
 7446SOL    HW123237   5.421   4.299   0.801
 7446SOL    HW223238   5.360   4.241   0.942
 7447SOL     OW23239   1.395   2.782   5.697
 7447SOL    HW123240   1.413   2.748   5.605
 7447SOL    HW223241   1.481   2.791   5.747
 7448SOL     OW23242   5.516   6.779   5.114
 7448SOL    HW123243   5.604   6.734   5.102
 7448SOL    HW223244   5.480   6.808   5.025
 7449SOL     OW23245   6.421   2.382   2.066
 7449SOL    HW123246   6.324   2.359   2.076
 7449SOL    HW223247   6.476   2.299   2.071
 7450SOL     OW23248   4.937   2.231   4.583
 7450SOL    HW123249   4.873   2.182   4.642
 7450SOL    HW223250   4.909   2.327   4.576
 7451SOL     OW23251   1.404   0.060   2.301
 7451SOL    HW123252   1.469   0.056   2.378
 7451SOL    HW223253   1.343   0.138   2.313
 7452SOL     OW23254   0.566   6.485   4.760
 7452SOL    HW123255   0.470   6.497   4.737
 7452SOL    HW223256   0.594   6.390   4.741
 7453SOL     OW23257   5.004   5.770   6.276
 7453SOL    HW123258   5.062   5.827   6.334
 7453SOL    HW223259   5.034   5.675   6.282
 7454SOL     OW23260   1.081   2.698   1.944
 7454SOL    HW123261   0.984   2.685   1.923
 7454SOL    HW223262   1.090   2.758   2.023
 7455SOL     OW23263   0.242   1.482   1.805
 7455SOL    HW123264   0.338   1.498   1.827
 7455SOL    HW223265   0.235   1.440   1.714
 7456SOL     OW23266   0.590   2.512   4.021
 7456SOL    HW123267   0.590   2.416   4.050
 7456SOL    HW223268   0.637   2.520   3.933
 7457SOL     OW23269   3.730   0.915   5.302
 7457SOL    HW123270   3.807   0.961   5.345
 7457SOL    HW223271   3.743   0.816   5.307
 7458SOL     OW23272   2.655   6.859   6.266
 7458SOL    HW123273   2.601   6.930   6.310
 7458SOL    HW223274   2.752   6.879   6.276
 7459SOL     OW23275   4.591   0.619   0.919
 7459SOL    HW123276   4.513   0.572   0.961
 7459SOL    HW223277   4.590   0.602   0.821
 7460SOL     OW23278   1.750   4.416   1.278
 7460SOL    HW123279   1.695   4.333   1.279
 7460SOL    HW223280   1.691   4.495   1.291
 7461SOL     OW23281   6.100   1.505   6.221
 7461SOL    HW123282   6.161   1.533   6.295
 7461SOL    HW223283   6.009   1.485   6.260
 7462SOL     OW23284   2.089   3.648   2.828
 7462SOL    HW123285   2.160   3.577   2.823
 7462SOL    HW223286   2.132   3.738   2.833
 7463SOL     OW23287   3.376   4.696   1.441
 7463SOL    HW123288   3.389   4.633   1.365
 7463SOL    HW223289   3.391   4.648   1.527
 7464SOL     OW23290   3.539   6.811   6.387
 7464SOL    HW123291   3.448   6.835   6.351
 7464SOL    HW223292   3.549   6.851   6.478
 7465SOL     OW23293   1.366   6.772   0.167
 7465SOL    HW123294   1.459   6.780   0.130
 7465SOL    HW223295   1.329   6.863   0.183
 7466SOL     OW23296   0.383   0.023   6.193
 7466SOL    HW123297   0.456   6.984   6.219
 7466SOL    HW223298   0.411   0.075   6.112
 7467SOL     OW23299   6.601   1.029   0.725
 7467SOL    HW123300   6.604   1.033   0.625
 7467SOL    HW223301   6.585   0.935   0.755
 7468SOL     OW23302   6.218   3.163   2.304
 7468SOL    HW123303   6.148   3.107   2.351
 7468SOL    HW223304   6.189   3.258   2.303
 7469SOL     OW23305   6.520   6.967   0.004
 7469SOL    HW123306   6.578   6.943   0.082
 7469SOL    HW223307   6.515   0.043   7.020
 7470SOL     OW23308   0.445   3.078   4.161
 7470SOL    HW123309   0.456   2.981   4.139
 7470SOL    HW223310   0.523   3.109   4.215
 7471SOL     OW23311   5.770   5.972   5.719
 7471SOL    HW123312   5.848   6.028   5.694
 7471SOL    HW223313   5.760   5.970   5.818
 7472SOL     OW23314   6.050   6.653   4.471
 7472SOL    HW123315   6.079   6.671   4.565
 7472SOL    HW223316   6.024   6.557   4.461
 7473SOL     OW23317   0.402   4.552   2.642
 7473SOL    HW123318   0.304   4.571   2.645
 7473SOL    HW223319   0.425   4.486   2.715
 7474SOL     OW23320   2.406   1.453   5.426
 7474SOL    HW123321   2.364   1.496   5.346
 7474SOL    HW223322   2.502   1.481   5.432
 7475SOL     OW23323   3.749   1.440   2.086
 7475SOL    HW123324   3.700   1.358   2.113
 7475SOL    HW223325   3.745   1.451   1.987
 7476SOL     OW23326   3.900   5.713   4.226
 7476SOL    HW123327   3.888   5.644   4.298
 7476SOL    HW223328   3.834   5.697   4.153
 7477SOL     OW23329   6.369   1.801   4.671
 7477SOL    HW123330   6.423   1.885   4.661
 7477SOL    HW223331   6.278   1.825   4.706
 7478SOL     OW23332   4.624   4.812   6.838
 7478SOL    HW123333   4.601   4.715   6.845
 7478SOL    HW223334   4.541   4.867   6.848
 7479SOL     OW23335   4.104   2.554   1.152
 7479SOL    HW123336   4.050   2.604   1.220
 7479SOL    HW223337   4.071   2.460   1.145
 7480SOL     OW23338   6.355   4.127   1.706
 7480SOL    HW123339   6.264   4.094   1.679
 7480SOL    HW223340   6.397   4.174   1.629
 7481SOL     OW23341   6.114   5.407   2.534
 7481SOL    HW123342   6.166   5.325   2.559
 7481SOL    HW223343   6.113   5.416   2.434
 7482SOL     OW23344   5.255   2.043   2.983
 7482SOL    HW123345   5.350   2.068   2.969
 7482SOL    HW223346   5.239   1.950   2.949
 7483SOL     OW23347   4.650   2.283   5.130
 7483SOL    HW123348   4.732   2.336   5.153
 7483SOL    HW223349   4.649   2.198   5.182
 7484SOL     OW23350   0.662   0.225   3.270
 7484SOL    HW123351   0.732   0.159   3.296
 7484SOL    HW223352   0.673   0.248   3.173
 7485SOL     OW23353   3.163   0.016   4.472
 7485SOL    HW123354   3.157   0.002   4.373
 7485SOL    HW223355   3.081   7.004   4.516
 7486SOL     OW23356   2.783   0.797   5.984
 7486SOL    HW123357   2.718   0.724   5.963
 7486SOL    HW223358   2.780   0.816   6.082
 7487SOL     OW23359   2.668   6.502   2.356
 7487SOL    HW123360   2.607   6.574   2.322
 7487SOL    HW223361   2.758   6.541   2.376
 7488SOL     OW23362   2.053   6.799   4.655
 7488SOL    HW123363   2.086   6.826   4.746
 7488SOL    HW223364   1.988   6.867   4.622
 7489SOL     OW23365   5.519   2.310   4.696
 7489SOL    HW123366   5.457   2.274   4.765
 7489SOL    HW223367   5.509   2.410   4.690
 7490SOL     OW23368   0.815   1.581   0.929
 7490SOL    HW123369   0.801   1.483   0.912
 7490SOL    HW223370   0.795   1.632   0.845
 7491SOL     OW23371   6.745   3.397   6.731
 7491SOL    HW123372   6.681   3.325   6.702
 7491SOL    HW223373   6.809   3.360   6.798
 7492SOL     OW23374   2.770   0.986   4.424
 7492SOL    HW123375   2.752   1.051   4.498
 7492SOL    HW223376   2.793   1.035   4.340
 7493SOL     OW23377   6.801   3.998   6.535
 7493SOL    HW123378   6.891   4.041   6.538
 7493SOL    HW223379   6.730   4.068   6.530
 7494SOL     OW23380   5.969   0.721   2.781
 7494SOL    HW123381   6.052   0.665   2.782
 7494SOL    HW223382   5.986   0.805   2.833
 7495SOL     OW23383   2.406   1.064   0.349
 7495SOL    HW123384   2.310   1.043   0.333
 7495SOL    HW223385   2.440   1.010   0.426
 7496SOL     OW23386   0.243   3.422   6.659
 7496SOL    HW123387   0.315   3.454   6.598
 7496SOL    HW223388   0.173   3.492   6.669
 7497SOL     OW23389   2.898   4.403   0.229
 7497SOL    HW123390   2.944   4.328   0.278
 7497SOL    HW223391   2.859   4.368   0.144
 7498SOL     OW23392   2.223   1.263   5.586
 7498SOL    HW123393   2.125   1.265   5.567
 7498SOL    HW223394   2.272   1.316   5.517
 7499SOL     OW23395   4.607   1.168   3.535
 7499SOL    HW123396   4.567   1.146   3.446
 7499SOL    HW223397   4.541   1.148   3.607
 7500SOL     OW23398   3.883   5.978   4.089
 7500SOL    HW123399   3.862   6.034   4.169
 7500SOL    HW223400   3.896   5.883   4.118
 7501SOL     OW23401   6.403   4.739   4.439
 7501SOL    HW123402   6.447   4.722   4.351
 7501SOL    HW223403   6.371   4.834   4.442
 7502SOL     OW23404   1.385   0.385   4.514
 7502SOL    HW123405   1.344   0.296   4.536
 7502SOL    HW223406   1.470   0.396   4.565
 7503SOL     OW23407   2.357   1.576   0.554
 7503SOL    HW123408   2.390   1.646   0.491
 7503SOL    HW223409   2.347   1.616   0.646
 7504SOL     OW23410   2.144   0.388   3.243
 7504SOL    HW123411   2.059   0.428   3.210
 7504SOL    HW223412   2.221   0.445   3.216
 7505SOL     OW23413   2.403   1.928   5.667
 7505SOL    HW123414   2.371   1.905   5.575
 7505SOL    HW223415   2.462   2.009   5.662
 7506SOL     OW23416   4.853   6.639   2.669
 7506SOL    HW123417   4.902   6.726   2.671
 7506SOL    HW223418   4.765   6.652   2.622
 7507SOL     OW23419   0.673   0.774   1.703
 7507SOL    HW123420   0.632   0.683   1.701
 7507SOL    HW223421   0.600   0.843   1.706
 7508SOL     OW23422   6.727   6.832   2.131
 7508SOL    HW123423   6.741   6.931   2.121
 7508SOL    HW223424   6.792   6.784   2.072
 7509SOL     OW23425   5.881   4.721   1.248
 7509SOL    HW123426   5.919   4.803   1.291
 7509SOL    HW223427   5.901   4.722   1.150
 7510SOL     OW23428   2.668   4.517   5.362
 7510SOL    HW123429   2.728   4.492   5.286
 7510SOL    HW223430   2.574   4.493   5.339
 7511SOL     OW23431   1.811   6.897   3.512
 7511SOL    HW123432   1.802   6.958   3.434
 7511SOL    HW223433   1.858   6.813   3.484
 7512SOL     OW23434   3.279   5.004   6.669
 7512SOL    HW123435   3.341   4.929   6.645
 7512SOL    HW223436   3.295   5.081   6.608
 7513SOL     OW23437   1.973   1.201   1.410
 7513SOL    HW123438   2.058   1.148   1.402
 7513SOL    HW223439   1.920   1.166   1.487
 7514SOL     OW23440   2.350   5.627   1.868
 7514SOL    HW123441   2.381   5.642   1.774
 7514SOL    HW223442   2.425   5.646   1.931
 7515SOL     OW23443   0.257   5.452   2.439
 7515SOL    HW123444   0.307   5.368   2.415
 7515SOL    HW223445   0.313   5.507   2.501
 7516SOL     OW23446   6.346   5.767   4.295
 7516SOL    HW123447   6.389   5.789   4.383
 7516SOL    HW223448   6.251   5.797   4.296
 7517SOL     OW23449   6.841   3.224   1.428
 7517SOL    HW123450   6.877   3.290   1.363
 7517SOL    HW223451   6.769   3.267   1.482
 7518SOL     OW23452   4.334   5.066   3.381
 7518SOL    HW123453   4.406   5.120   3.424
 7518SOL    HW223454   4.296   5.116   3.303
 7519SOL     OW23455   0.318   6.973   4.272
 7519SOL    HW123456   0.234   6.932   4.236
 7519SOL    HW223457   0.302   0.044   4.295
 7520SOL     OW23458   3.047   6.661   1.839
 7520SOL    HW123459   3.104   6.613   1.772
 7520SOL    HW223460   2.981   6.718   1.790
 7521SOL     OW23461   4.566   4.719   6.289
 7521SOL    HW123462   4.508   4.646   6.251
 7521SOL    HW223463   4.640   4.739   6.226
 7522SOL     OW23464   2.772   6.489   6.231
 7522SOL    HW123465   2.841   6.541   6.282
 7522SOL    HW223466   2.687   6.542   6.227
 7523SOL     OW23467   5.634   0.960   6.415
 7523SOL    HW123468   5.604   0.874   6.374
 7523SOL    HW223469   5.566   0.991   6.482
 7524SOL     OW23470   2.009   2.212   6.774
 7524SOL    HW123471   1.916   2.177   6.762
 7524SOL    HW223472   2.006   2.306   6.807
 7525SOL     OW23473   2.741   0.370   6.714
 7525SOL    HW123474   2.683   0.432   6.766
 7525SOL    HW223475   2.834   0.372   6.751
 7526SOL     OW23476   3.107   3.250   1.908
 7526SOL    HW123477   3.070   3.192   1.981
 7526SOL    HW223478   3.158   3.325   1.948
 7527SOL     OW23479   4.274   5.905   3.052
 7527SOL    HW123480   4.245   5.987   3.101
 7527SOL    HW223481   4.197   5.866   3.002
 7528SOL     OW23482   4.449   1.795   6.771
 7528SOL    HW123483   4.547   1.777   6.777
 7528SOL    HW223484   4.434   1.888   6.736
 7529SOL     OW23485   5.970   0.245   4.351
 7529SOL    HW123486   5.996   0.270   4.444
 7529SOL    HW223487   5.875   0.272   4.335
 7530SOL     OW23488   0.047   4.057   1.956
 7530SOL    HW123489   0.044   4.046   1.857
 7530SOL    HW223490   0.121   4.119   1.980
 7531SOL     OW23491   4.594   2.088   3.824
 7531SOL    HW123492   4.564   2.095   3.919
 7531SOL    HW223493   4.522   2.124   3.764
 7532SOL     OW23494   5.541   5.063   1.653
 7532SOL    HW123495   5.533   5.088   1.557
 7532SOL    HW223496   5.464   5.102   1.704
 7533SOL     OW23497   2.764   1.492   2.439
 7533SOL    HW123498   2.803   1.417   2.492
 7533SOL    HW223499   2.676   1.464   2.401
 7534SOL     OW23500   4.240   6.670   6.067
 7534SOL    HW123501   4.293   6.650   6.149
 7534SOL    HW223502   4.300   6.668   5.987
 7535SOL     OW23503   2.951   0.474   5.900
 7535SOL    HW123504   2.853   0.473   5.880
 7535SOL    HW223505   3.000   0.521   5.827
 7536SOL     OW23506   5.321   5.236   5.407
 7536SOL    HW123507   5.410   5.236   5.452
 7536SOL    HW223508   5.298   5.144   5.376
 7537SOL     OW23509   2.591   5.365   3.313
 7537SOL    HW123510   2.524   5.418   3.261
 7537SOL    HW223511   2.552   5.339   3.401
 7538SOL     OW23512   3.558   3.301   1.722
 7538SOL    HW123513   3.480   3.239   1.708
 7538SOL    HW223514   3.611   3.270   1.801
 7539SOL     OW23515   1.522   2.551   4.055
 7539SOL    HW123516   1.431   2.591   4.065
 7539SOL    HW223517   1.514   2.452   4.043
 7540SOL     OW23518   3.323   6.296   5.676
 7540SOL    HW123519   3.349   6.309   5.772
 7540SOL    HW223520   3.252   6.226   5.671
 7541SOL     OW23521   6.829   4.446   4.256
 7541SOL    HW123522   6.763   4.481   4.323
 7541SOL    HW223523   6.787   4.444   4.166
 7542SOL     OW23524   0.599   5.561   6.781
 7542SOL    HW123525   0.677   5.592   6.726
 7542SOL    HW223526   0.535   5.637   6.794
 7543SOL     OW23527   3.705   1.954   1.209
 7543SOL    HW123528   3.642   2.022   1.172
 7543SOL    HW223529   3.729   1.978   1.303
 7544SOL     OW23530   0.587   2.544   3.051
 7544SOL    HW123531   0.581   2.546   3.151
 7544SOL    HW223532   0.643   2.466   3.023
 7545SOL     OW23533   6.069   6.277   2.553
 7545SOL    HW123534   6.149   6.219   2.535
 7545SOL    HW223535   6.068   6.354   2.488
 7546SOL     OW23536   3.198   0.826   2.103
 7546SOL    HW123537   3.228   0.739   2.065
 7546SOL    HW223538   3.119   0.859   2.053
 7547SOL     OW23539   4.543   0.286   0.395
 7547SOL    HW123540   4.571   0.194   0.369
 7547SOL    HW223541   4.569   0.352   0.324
 7548SOL     OW23542   3.676   2.265   0.659
 7548SOL    HW123543   3.746   2.212   0.708
 7548SOL    HW223544   3.719   2.342   0.612
 7549SOL     OW23545   5.511   1.963   0.715
 7549SOL    HW123546   5.522   1.912   0.801
 7549SOL    HW223547   5.463   2.049   0.733
 7550SOL     OW23548   2.325   4.542   2.160
 7550SOL    HW123549   2.394   4.538   2.232
 7550SOL    HW223550   2.320   4.453   2.115
 7551SOL     OW23551   4.698   3.775   6.606
 7551SOL    HW123552   4.720   3.679   6.588
 7551SOL    HW223553   4.647   3.782   6.692
 7552SOL     OW23554   1.722   5.750   3.362
 7552SOL    HW123555   1.715   5.839   3.318
 7552SOL    HW223556   1.705   5.760   3.460
 7553SOL     OW23557   4.702   5.124   5.612
 7553SOL    HW123558   4.750   5.204   5.648
 7553SOL    HW223559   4.715   5.047   5.674
 7554SOL     OW23560   4.284   1.068   1.509
 7554SOL    HW123561   4.242   0.988   1.466
 7554SOL    HW223562   4.265   1.149   1.454
 7555SOL     OW23563   1.940   4.821   5.285
 7555SOL    HW123564   1.848   4.858   5.303
 7555SOL    HW223565   1.935   4.722   5.280
 7556SOL     OW23566   0.713   3.107   5.601
 7556SOL    HW123567   0.768   3.170   5.656
 7556SOL    HW223568   0.711   3.017   5.645
 7557SOL     OW23569   5.263   2.547   5.800
 7557SOL    HW123570   5.255   2.482   5.725
 7557SOL    HW223571   5.181   2.543   5.856
 7558SOL     OW23572   2.044   2.546   4.147
 7558SOL    HW123573   1.956   2.535   4.193
 7558SOL    HW223574   2.043   2.494   4.061
 7559SOL     OW23575   6.335   5.031   6.975
 7559SOL    HW123576   6.240   5.042   6.947
 7559SOL    HW223577   6.386   4.985   6.902
 7560SOL     OW23578   5.262   6.638   0.932
 7560SOL    HW123579   5.275   6.592   1.020
 7560SOL    HW223580   5.286   6.576   0.857
 7561SOL     OW23581   0.795   3.611   6.657
 7561SOL    HW123582   0.758   3.660   6.736
 7561SOL    HW223583   0.755   3.647   6.573
 7562SOL     OW23584   5.896   5.849   5.089
 7562SOL    HW123585   5.868   5.892   5.174
 7562SOL    HW223586   5.850   5.760   5.079
 7563SOL     OW23587   2.681   6.122   1.039
 7563SOL    HW123588   2.710   6.039   1.086
 7563SOL    HW223589   2.602   6.103   0.981
 7564SOL     OW23590   4.918   1.571   3.050
 7564SOL    HW123591   4.962   1.497   3.101
 7564SOL    HW223592   4.861   1.533   2.978
 7565SOL     OW23593   5.467   4.098   0.199
 7565SOL    HW123594   5.561   4.115   0.231
 7565SOL    HW223595   5.406   4.091   0.278
 7566SOL     OW23596   0.123   4.779   3.900
 7566SOL    HW123597   0.143   4.876   3.910
 7566SOL    HW223598   0.052   4.766   3.831
 7567SOL     OW23599   1.906   1.785   5.006
 7567SOL    HW123600   1.824   1.765   5.060
 7567SOL    HW223601   1.949   1.869   5.040
 7568SOL     OW23602   5.410   6.001   3.239
 7568SOL    HW123603   5.472   5.922   3.232
 7568SOL    HW223604   5.402   6.045   3.150
 7569SOL     OW23605   4.028   4.945   6.323
 7569SOL    HW123606   3.978   5.002   6.389
 7569SOL    HW223607   3.965   4.882   6.279
 7570SOL     OW23608   5.407   4.819   5.515
 7570SOL    HW123609   5.336   4.872   5.468
 7570SOL    HW223610   5.430   4.864   5.601
 7571SOL     OW23611   4.716   5.520   3.486
 7571SOL    HW123612   4.739   5.617   3.483
 7571SOL    HW223613   4.725   5.486   3.579
 7572SOL     OW23614   4.405   1.224   2.772
 7572SOL    HW123615   4.496   1.187   2.752
 7572SOL    HW223616   4.345   1.151   2.805
 7573SOL     OW23617   6.482   6.768   4.887
 7573SOL    HW123618   6.549   6.831   4.925
 7573SOL    HW223619   6.520   6.721   4.808
 7574SOL     OW23620   6.534   1.125   4.432
 7574SOL    HW123621   6.468   1.090   4.365
 7574SOL    HW223622   6.556   1.053   4.497
 7575SOL     OW23623   4.018   0.780   5.895
 7575SOL    HW123624   3.971   0.692   5.885
 7575SOL    HW223625   4.073   0.797   5.813
 7576SOL     OW23626   5.878   5.002   0.475
 7576SOL    HW123627   5.903   4.909   0.502
 7576SOL    HW223628   5.784   5.002   0.440
 7577SOL     OW23629   6.980   6.339   5.705
 7577SOL    HW123630   6.977   6.413   5.638
 7577SOL    HW223631   0.031   6.354   5.769
 7578SOL     OW23632   2.798   5.920   2.434
 7578SOL    HW123633   2.854   5.840   2.456
 7578SOL    HW223634   2.836   6.000   2.480
 7579SOL     OW23635   5.656   2.458   1.937
 7579SOL    HW123636   5.630   2.362   1.945
 7579SOL    HW223637   5.579   2.516   1.963
 7580SOL     OW23638   1.482   3.964   4.035
 7580SOL    HW123639   1.392   3.920   4.029
 7580SOL    HW223640   1.545   3.905   4.085
 7581SOL     OW23641   6.906   0.331   1.399
 7581SOL    HW123642   6.822   0.311   1.348
 7581SOL    HW223643   6.898   0.298   1.492
 7582SOL     OW23644   2.554   0.684   0.117
 7582SOL    HW123645   2.645   0.671   0.077
 7582SOL    HW223646   2.553   0.647   0.210
 7583SOL     OW23647   6.299   2.784   0.782
 7583SOL    HW123648   6.209   2.817   0.810
 7583SOL    HW223649   6.335   2.721   0.851
 7584SOL     OW23650   2.490   6.573   1.184
 7584SOL    HW123651   2.577   6.529   1.161
 7584SOL    HW223652   2.498   6.671   1.170
 7585SOL     OW23653   2.181   2.868   5.737
 7585SOL    HW123654   2.245   2.793   5.754
 7585SOL    HW223655   2.231   2.945   5.698
 7586SOL     OW23656   3.556   0.736   3.621
 7586SOL    HW123657   3.493   0.722   3.697
 7586SOL    HW223658   3.639   0.684   3.637
 7587SOL     OW23659   2.573   2.011   6.538
 7587SOL    HW123660   2.646   1.945   6.519
 7587SOL    HW223661   2.603   2.103   6.510
 7588SOL     OW23662   1.206   3.147   2.948
 7588SOL    HW123663   1.243   3.208   2.878
 7588SOL    HW223664   1.237   3.177   3.038
 7589SOL     OW23665   0.076   7.002   2.297
 7589SOL    HW123666   0.117   0.067   2.281
 7589SOL    HW223667   7.000   7.011   2.297
 7590SOL     OW23668   4.352   2.000   6.623
 7590SOL    HW123669   4.261   1.996   6.582
 7590SOL    HW223670   4.396   2.086   6.599
 7591SOL     OW23671   0.056   4.492   0.338
 7591SOL    HW123672   0.061   4.587   0.305
 7591SOL    HW223673   0.013   4.435   0.269
 7592SOL     OW23674   6.430   4.418   6.725
 7592SOL    HW123675   6.459   4.498   6.777
 7592SOL    HW223676   6.403   4.345   6.788
 7593SOL     OW23677   5.410   2.659   1.308
 7593SOL    HW123678   5.474   2.730   1.338
 7593SOL    HW223679   5.326   2.703   1.276
 7594SOL     OW23680   0.570   5.136   2.156
 7594SOL    HW123681   0.550   5.041   2.180
 7594SOL    HW223682   0.541   5.153   2.061
 7595SOL     OW23683   6.921   2.706   6.051
 7595SOL    HW123684   6.949   2.701   5.955
 7595SOL    HW223685   7.002   2.717   6.108
 7596SOL     OW23686   4.791   5.974   3.578
 7596SOL    HW123687   4.876   5.988   3.630
 7596SOL    HW223688   4.740   5.898   3.619
 7597SOL     OW23689   3.244   6.208   2.616
 7597SOL    HW123690   3.244   6.175   2.710
 7597SOL    HW223691   3.277   6.302   2.613
 7598SOL     OW23692   0.219   1.313   3.695
 7598SOL    HW123693   0.236   1.235   3.755
 7598SOL    HW223694   0.249   1.397   3.741
 7599SOL     OW23695   5.499   1.967   2.452
 7599SOL    HW123696   5.412   1.939   2.493
 7599SOL    HW223697   5.574   1.937   2.510
 7600SOL     OW23698   1.719   1.137   2.682
 7600SOL    HW123699   1.796   1.176   2.731
 7600SOL    HW223700   1.749   1.102   2.593
 7601SOL     OW23701   2.015   5.202   2.588
 7601SOL    HW123702   1.926   5.180   2.629
 7601SOL    HW223703   2.038   5.298   2.608
 7602SOL     OW23704   0.523   4.634   6.992
 7602SOL    HW123705   0.585   4.556   6.993
 7602SOL    HW223706   0.568   4.713   0.010
 7603SOL     OW23707   1.923   5.279   5.925
 7603SOL    HW123708   1.999   5.328   5.968
 7603SOL    HW223709   1.956   5.232   5.843
 7604SOL     OW23710   1.514   4.640   4.253
 7604SOL    HW123711   1.448   4.659   4.326
 7604SOL    HW223712   1.486   4.558   4.203
 7605SOL     OW23713   0.470   0.017   0.782
 7605SOL    HW123714   0.551   0.073   0.764
 7605SOL    HW223715   0.426   7.018   0.695
 7606SOL     OW23716   6.629   3.560   3.761
 7606SOL    HW123717   6.610   3.540   3.664
 7606SOL    HW223718   6.727   3.576   3.773
 7607SOL     OW23719   4.428   5.136   0.353
 7607SOL    HW123720   4.414   5.167   0.447
 7607SOL    HW223721   4.525   5.146   0.330
 7608SOL     OW23722   3.374   3.688   3.191
 7608SOL    HW123723   3.463   3.689   3.146
 7608SOL    HW223724   3.386   3.703   3.289
 7609SOL     OW23725   0.582   3.813   4.017
 7609SOL    HW123726   0.551   3.722   3.988
 7609SOL    HW223727   0.514   3.881   3.990
 7610SOL     OW23728   5.842   6.026   0.373
 7610SOL    HW123729   5.827   6.001   0.468
 7610SOL    HW223730   5.939   6.045   0.358
 7611SOL     OW23731   0.281   1.864   6.930
 7611SOL    HW123732   0.302   1.905   6.841
 7611SOL    HW223733   0.352   1.888   6.996
 7612SOL     OW23734   5.358   3.350   5.052
 7612SOL    HW123735   5.388   3.415   4.983
 7612SOL    HW223736   5.305   3.398   5.122
 7613SOL     OW23737   6.251   3.303   1.079
 7613SOL    HW123738   6.218   3.368   1.011
 7613SOL    HW223739   6.335   3.259   1.045
 7614SOL     OW23740   5.215   3.712   0.913
 7614SOL    HW123741   5.162   3.793   0.940
 7614SOL    HW223742   5.212   3.644   0.986
 7615SOL     OW23743   4.219   3.655   6.028
 7615SOL    HW123744   4.277   3.724   6.072
 7615SOL    HW223745   4.130   3.653   6.072
 7616SOL     OW23746   6.376   5.081   5.430
 7616SOL    HW123747   6.390   5.083   5.529
 7616SOL    HW223748   6.400   5.170   5.391
 7617SOL     OW23749   3.811   5.575   2.784
 7617SOL    HW123750   3.748   5.563   2.861
 7617SOL    HW223751   3.899   5.609   2.819
 7618SOL     OW23752   0.389   1.441   5.838
 7618SOL    HW123753   0.350   1.392   5.916
 7618SOL    HW223754   0.337   1.417   5.755
 7619SOL     OW23755   5.781   3.387   5.697
 7619SOL    HW123756   5.722   3.329   5.752
 7619SOL    HW223757   5.725   3.447   5.640
 7620SOL     OW23758   4.060   5.471   0.503
 7620SOL    HW123759   4.017   5.384   0.478
 7620SOL    HW223760   4.104   5.510   0.423
 7621SOL     OW23761   0.141   1.958   0.480
 7621SOL    HW123762   0.075   1.886   0.500
 7621SOL    HW223763   0.121   2.000   0.392
 7622SOL     OW23764   5.246   5.484   1.710
 7622SOL    HW123765   5.188   5.420   1.662
 7622SOL    HW223766   5.307   5.435   1.772
 7623SOL     OW23767   4.381   3.671   6.766
 7623SOL    HW123768   4.403   3.606   6.693
 7623SOL    HW223769   4.337   3.622   6.842
 7624SOL     OW23770   0.149   3.079   5.062
 7624SOL    HW123771   0.225   3.092   4.998
 7624SOL    HW223772   0.126   3.167   5.104
 7625SOL     OW23773   4.989   0.904   1.099
 7625SOL    HW123774   4.923   0.829   1.097
 7625SOL    HW223775   5.040   0.902   1.184
 7626SOL     OW23776   5.839   6.804   4.269
 7626SOL    HW123777   5.875   6.756   4.350
 7626SOL    HW223778   5.877   6.762   4.186
 7627SOL     OW23779   5.443   2.600   6.765
 7627SOL    HW123780   5.513   2.670   6.752
 7627SOL    HW223781   5.479   2.525   6.819
 7628SOL     OW23782   4.263   0.133   2.720
 7628SOL    HW123783   4.273   0.038   2.689
 7628SOL    HW223784   4.185   0.174   2.673
 7629SOL     OW23785   6.754   0.202   2.933
 7629SOL    HW123786   6.773   0.249   3.020
 7629SOL    HW223787   6.832   0.143   2.910
 7630SOL     OW23788   6.297   0.320   1.713
 7630SOL    HW123789   6.261   0.284   1.627
 7630SOL    HW223790   6.396   0.306   1.715
 7631SOL     OW23791   0.896   0.663   6.127
 7631SOL    HW123792   0.804   0.625   6.136
 7631SOL    HW223793   0.899   0.754   6.168
 7632SOL     OW23794   3.655   2.593   1.756
 7632SOL    HW123795   3.560   2.614   1.734
 7632SOL    HW223796   3.664   2.494   1.770
 7633SOL     OW23797   5.293   1.356   1.166
 7633SOL    HW123798   5.334   1.412   1.238
 7633SOL    HW223799   5.361   1.291   1.132
 7634SOL     OW23800   0.749   2.010   2.804
 7634SOL    HW123801   0.715   2.060   2.884
 7634SOL    HW223802   0.688   2.027   2.727
 7635SOL     OW23803   3.452   5.809   4.961
 7635SOL    HW123804   3.469   5.776   4.869
 7635SOL    HW223805   3.420   5.733   5.019
 7636SOL     OW23806   1.172   2.223   4.312
 7636SOL    HW123807   1.159   2.140   4.258
 7636SOL    HW223808   1.099   2.288   4.292
 7637SOL     OW23809   2.531   5.005   1.841
 7637SOL    HW123810   2.443   4.960   1.857
 7637SOL    HW223811   2.605   4.941   1.858
 7638SOL     OW23812   4.023   6.267   0.634
 7638SOL    HW123813   4.001   6.273   0.536
 7638SOL    HW223814   3.943   6.235   0.684
 7639SOL     OW23815   0.959   2.106   0.104
 7639SOL    HW123816   0.869   2.113   0.148
 7639SOL    HW223817   0.960   2.161   0.021
 7640SOL     OW23818   3.237   1.936   6.883
 7640SOL    HW123819   3.205   1.919   6.790
 7640SOL    HW223820   3.163   1.915   6.948
 7641SOL     OW23821   1.329   4.301   1.697
 7641SOL    HW123822   1.351   4.345   1.784
 7641SOL    HW223823   1.261   4.229   1.711
 7642SOL     OW23824   4.093   0.889   3.228
 7642SOL    HW123825   4.177   0.841   3.253
 7642SOL    HW223826   4.104   0.987   3.244
 7643SOL     OW23827   5.000   3.067   4.376
 7643SOL    HW123828   4.919   3.064   4.318
 7643SOL    HW223829   5.081   3.053   4.320
 7644SOL     OW23830   5.857   2.788   2.458
 7644SOL    HW123831   5.804   2.716   2.502
 7644SOL    HW223832   5.932   2.748   2.405
 7645SOL     OW23833   4.005   4.058   5.586
 7645SOL    HW123834   3.979   4.023   5.676
 7645SOL    HW223835   3.923   4.087   5.536
 7646SOL     OW23836   1.628   3.201   2.890
 7646SOL    HW123837   1.700   3.149   2.843
 7646SOL    HW223838   1.549   3.210   2.829
 7647SOL     OW23839   6.603   3.772   2.140
 7647SOL    HW123840   6.633   3.773   2.235
 7647SOL    HW223841   6.550   3.854   2.121
 7648SOL     OW23842   3.209   1.566   3.775
 7648SOL    HW123843   3.169   1.573   3.684
 7648SOL    HW223844   3.173   1.485   3.821
 7649SOL     OW23845   0.547   0.725   2.990
 7649SOL    HW123846   0.610   0.677   3.051
 7649SOL    HW223847   0.497   0.794   3.042
 7650SOL     OW23848   4.511   2.780   1.457
 7650SOL    HW123849   4.571   2.764   1.535
 7650SOL    HW223850   4.529   2.872   1.420
 7651SOL     OW23851   2.534   0.976   4.620
 7651SOL    HW123852   2.610   1.034   4.650
 7651SOL    HW223853   2.569   0.885   4.597
 7652SOL     OW23854   6.683   3.631   4.472
 7652SOL    HW123855   6.602   3.573   4.484
 7652SOL    HW223856   6.745   3.590   4.406
 7653SOL     OW23857   2.506   2.144   7.011
 7653SOL    HW123858   2.533   2.059   0.030
 7653SOL    HW223859   2.547   2.151   6.920
 7654SOL     OW23860   4.824   3.048   3.457
 7654SOL    HW123861   4.791   3.044   3.551
 7654SOL    HW223862   4.848   3.142   3.434
 7655SOL     OW23863   4.223   0.322   3.724
 7655SOL    HW123864   4.125   0.307   3.736
 7655SOL    HW223865   4.268   0.235   3.703
 7656SOL     OW23866   1.925   5.722   6.220
 7656SOL    HW123867   2.003   5.678   6.176
 7656SOL    HW223868   1.840   5.691   6.177
 7657SOL     OW23869   2.039   2.792   3.969
 7657SOL    HW123870   2.125   2.844   3.973
 7657SOL    HW223871   2.052   2.704   4.015
 7658SOL     OW23872   3.498   0.157   5.913
 7658SOL    HW123873   3.492   0.257   5.907
 7658SOL    HW223874   3.496   0.119   5.821
 7659SOL     OW23875   6.129   5.130   0.497
 7659SOL    HW123876   6.172   5.050   0.456
 7659SOL    HW223877   6.035   5.137   0.465
 7660SOL     OW23878   0.633   6.268   3.740
 7660SOL    HW123879   0.566   6.337   3.768
 7660SOL    HW223880   0.627   6.254   3.641
 7661SOL     OW23881   6.359   2.567   4.124
 7661SOL    HW123882   6.426   2.583   4.052
 7661SOL    HW223883   6.342   2.653   4.173
 7662SOL     OW23884   0.960   3.080   2.819
 7662SOL    HW123885   1.046   3.120   2.849
 7662SOL    HW223886   0.928   3.126   2.736
 7663SOL     OW23887   1.385   6.073   5.609
 7663SOL    HW123888   1.473   6.039   5.577
 7663SOL    HW223889   1.318   6.068   5.534
 7664SOL     OW23890   3.687   0.233   1.662
 7664SOL    HW123891   3.723   0.172   1.732
 7664SOL    HW223892   3.588   0.224   1.657
 7665SOL     OW23893   4.612   0.334   5.090
 7665SOL    HW123894   4.599   0.308   4.994
 7665SOL    HW223895   4.603   0.433   5.100
 7666SOL     OW23896   0.507   6.491   1.460
 7666SOL    HW123897   0.522   6.573   1.515
 7666SOL    HW223898   0.553   6.500   1.372
 7667SOL     OW23899   4.726   5.178   2.243
 7667SOL    HW123900   4.745   5.264   2.195
 7667SOL    HW223901   4.639   5.141   2.212
 7668SOL     OW23902   3.193   4.627   0.893
 7668SOL    HW123903   3.139   4.609   0.811
 7668SOL    HW223904   3.196   4.725   0.910
 7669SOL     OW23905   5.773   1.992   5.341
 7669SOL    HW123906   5.718   2.041   5.273
 7669SOL    HW223907   5.741   2.015   5.433
 7670SOL     OW23908   0.594   5.157   0.001
 7670SOL    HW123909   0.652   5.081   6.994
 7670SOL    HW223910   0.552   5.133   0.088
 7671SOL     OW23911   4.048   0.987   3.577
 7671SOL    HW123912   4.031   1.086   3.585
 7671SOL    HW223913   4.019   0.942   3.661
 7672SOL     OW23914   6.624   6.701   2.919
 7672SOL    HW123915   6.612   6.700   3.019
 7672SOL    HW223916   6.721   6.694   2.897
 7673SOL     OW23917   1.569   5.587   0.299
 7673SOL    HW123918   1.636   5.638   0.245
 7673SOL    HW223919   1.615   5.545   0.378
 7674SOL     OW23920   5.509   1.653   3.710
 7674SOL    HW123921   5.416   1.692   3.713
 7674SOL    HW223922   5.529   1.609   3.798
 7675SOL     OW23923   6.043   6.851   2.528
 7675SOL    HW123924   6.030   6.763   2.574
 7675SOL    HW223925   6.130   6.851   2.480
 7676SOL     OW23926   2.114   2.488   0.495
 7676SOL    HW123927   2.117   2.391   0.472
 7676SOL    HW223928   2.021   2.515   0.517
 7677SOL     OW23929   0.520   4.746   1.834
 7677SOL    HW123930   0.606   4.785   1.867
 7677SOL    HW223931   0.469   4.816   1.785
 7678SOL     OW23932   2.345   1.868   4.623
 7678SOL    HW123933   2.256   1.914   4.625
 7678SOL    HW223934   2.341   1.785   4.678
 7679SOL     OW23935   2.869   5.578   6.260
 7679SOL    HW123936   2.961   5.582   6.300
 7679SOL    HW223937   2.804   5.549   6.330
 7680SOL     OW23938   1.815   1.946   0.652
 7680SOL    HW123939   1.842   1.918   0.745
 7680SOL    HW223940   1.757   2.027   0.658
 7681SOL     OW23941   2.447   6.912   0.630
 7681SOL    HW123942   2.533   6.949   0.665
 7681SOL    HW223943   2.420   6.962   0.547
 7682SOL     OW23944   2.940   6.829   2.536
 7682SOL    HW123945   2.889   6.914   2.536
 7682SOL    HW223946   2.942   6.790   2.629
 7683SOL     OW23947   6.249   1.554   3.230
 7683SOL    HW123948   6.223   1.638   3.277
 7683SOL    HW223949   6.181   1.533   3.160
 7684SOL     OW23950   3.926   2.074   2.480
 7684SOL    HW123951   3.906   2.122   2.395
 7684SOL    HW223952   3.974   1.989   2.460
 7685SOL     OW23953   3.541   2.250   6.909
 7685SOL    HW123954   3.525   2.348   6.892
 7685SOL    HW223955   3.491   2.196   6.841
 7686SOL     OW23956   6.460   7.012   3.024
 7686SOL    HW123957   6.490   6.924   3.061
 7686SOL    HW223958   6.406   6.996   2.941
 7687SOL     OW23959   5.788   4.904   4.080
 7687SOL    HW123960   5.716   4.871   4.141
 7687SOL    HW223961   5.873   4.915   4.132
 7688SOL     OW23962   0.713   6.154   5.636
 7688SOL    HW123963   0.794   6.187   5.684
 7688SOL    HW223964   0.738   6.129   5.542
 7689SOL     OW23965   5.476   6.208   3.032
 7689SOL    HW123966   5.455   6.180   2.938
 7689SOL    HW223967   5.403   6.266   3.067
 7690SOL     OW23968   6.133   5.069   0.770
 7690SOL    HW123969   6.203   5.004   0.800
 7690SOL    HW223970   6.154   5.101   0.678
 7691SOL     OW23971   5.258   2.441   4.931
 7691SOL    HW123972   5.309   2.373   4.878
 7691SOL    HW223973   5.320   2.486   4.996
 7692SOL     OW23974   0.437   6.126   1.866
 7692SOL    HW123975   0.435   6.035   1.908
 7692SOL    HW223976   0.389   6.123   1.778
 7693SOL     OW23977   3.831   0.264   1.024
 7693SOL    HW123978   3.834   0.164   1.023
 7693SOL    HW223979   3.752   0.295   0.971
 7694SOL     OW23980   0.281   4.908   5.156
 7694SOL    HW123981   0.268   4.826   5.100
 7694SOL    HW223982   0.195   4.930   5.202
 7695SOL     OW23983   4.259   6.342   0.731
 7695SOL    HW123984   4.316   6.259   0.730
 7695SOL    HW223985   4.173   6.324   0.682
 7696SOL     OW23986   6.916   1.592   4.792
 7696SOL    HW123987   6.896   1.670   4.852
 7696SOL    HW223988   6.886   1.508   4.837
 7697SOL     OW23989   3.042   6.228   2.315
 7697SOL    HW123990   3.060   6.325   2.304
 7697SOL    HW223991   3.032   6.207   2.413
 7698SOL     OW23992   6.607   2.057   3.188
 7698SOL    HW123993   6.645   1.978   3.139
 7698SOL    HW223994   6.508   2.053   3.186
 7699SOL     OW23995   3.823   5.676   6.716
 7699SOL    HW123996   3.908   5.689   6.665
 7699SOL    HW223997   3.749   5.656   6.652
 7700SOL     OW23998   4.832   6.081   4.406
 7700SOL    HW123999   4.742   6.056   4.442
 7700SOL    HW224000   4.872   6.003   4.359
 7701SOL     OW24001   6.929   1.310   0.443
 7701SOL    HW124002   6.970   1.338   0.356
 7701SOL    HW224003   6.864   1.381   0.473
 7702SOL     OW24004   3.566   6.143   5.923
 7702SOL    HW124005   3.476   6.117   5.888
 7702SOL    HW224006   3.590   6.233   5.886
 7703SOL     OW24007   5.929   0.473   5.472
 7703SOL    HW124008   5.903   0.568   5.454
 7703SOL    HW224009   5.973   0.466   5.561
 7704SOL     OW24010   5.095   5.358   5.561
 7704SOL    HW124011   5.013   5.349   5.504
 7704SOL    HW224012   5.176   5.336   5.507
 7705SOL     OW24013   3.730   5.176   6.153
 7705SOL    HW124014   3.698   5.234   6.228
 7705SOL    HW224015   3.807   5.220   6.107
 7706SOL     OW24016   4.419   3.113   5.428
 7706SOL    HW124017   4.513   3.085   5.450
 7706SOL    HW224018   4.355   3.045   5.464
 7707SOL     OW24019   0.508   5.810   6.232
 7707SOL    HW124020   0.439   5.770   6.292
 7707SOL    HW224021   0.582   5.744   6.219
 7708SOL     OW24022   6.134   0.387   5.997
 7708SOL    HW124023   6.172   0.461   6.052
 7708SOL    HW224024   6.207   0.342   5.945
 7709SOL     OW24025   5.371   4.535   1.739
 7709SOL    HW124026   5.351   4.632   1.749
 7709SOL    HW224027   5.445   4.522   1.674
 7710SOL     OW24028   2.887   0.408   0.730
 7710SOL    HW124029   2.818   0.399   0.802
 7710SOL    HW224030   2.942   0.490   0.746
 7711SOL     OW24031   6.366   6.006   5.252
 7711SOL    HW124032   6.418   5.923   5.231
 7711SOL    HW224033   6.389   6.077   5.185
 7712SOL     OW24034   5.307   5.950   2.594
 7712SOL    HW124035   5.308   6.021   2.524
 7712SOL    HW224036   5.237   5.882   2.570
 7713SOL     OW24037   1.505   4.475   0.661
 7713SOL    HW124038   1.427   4.453   0.603
 7713SOL    HW224039   1.509   4.574   0.676
 7714SOL     OW24040   6.590   4.195   5.626
 7714SOL    HW124041   6.496   4.161   5.625
 7714SOL    HW224042   6.653   4.119   5.609
 7715SOL     OW24043   3.845   2.248   6.743
 7715SOL    HW124044   3.904   2.321   6.779
 7715SOL    HW224045   3.892   2.161   6.750
 7716SOL     OW24046   6.529   4.393   3.811
 7716SOL    HW124047   6.440   4.428   3.842
 7716SOL    HW224048   6.518   4.348   3.722
 7717SOL     OW24049   1.530   0.947   4.907
 7717SOL    HW124050   1.523   1.038   4.867
 7717SOL    HW224051   1.611   0.944   4.966
 7718SOL     OW24052   1.340   2.163   3.054
 7718SOL    HW124053   1.374   2.215   2.976
 7718SOL    HW224054   1.355   2.215   3.138
 7719SOL     OW24055   6.753   4.037   4.666
 7719SOL    HW124056   6.757   4.137   4.667
 7719SOL    HW224057   6.705   4.006   4.584
 7720SOL     OW24058   0.400   0.886   7.018
 7720SOL    HW124059   0.322   0.909   6.961
 7720SOL    HW224060   0.382   0.912   0.088
 7721SOL     OW24061   0.434   5.241   2.381
 7721SOL    HW124062   0.491   5.214   2.303
 7721SOL    HW224063   0.421   5.163   2.442
 7722SOL     OW24064   0.667   5.960   3.233
 7722SOL    HW124065   0.651   5.984   3.329
 7722SOL    HW224066   0.708   5.870   3.227
 7723SOL     OW24067   5.097   3.201   6.924
 7723SOL    HW124068   5.121   3.107   6.946
 7723SOL    HW224069   5.022   3.202   6.858
 7724SOL     OW24070   2.959   4.171   1.231
 7724SOL    HW124071   2.966   4.257   1.281
 7724SOL    HW224072   2.936   4.190   1.135
 7725SOL     OW24073   5.985   2.465   3.126
 7725SOL    HW124074   5.911   2.528   3.146
 7725SOL    HW224075   5.974   2.382   3.181
 7726SOL     OW24076   1.886   6.253   5.048
 7726SOL    HW124077   1.832   6.195   4.988
 7726SOL    HW224078   1.916   6.200   5.128
 7727SOL     OW24079   0.450   0.738   2.465
 7727SOL    HW124080   0.389   0.806   2.506
 7727SOL    HW224081   0.539   0.742   2.509
 7728SOL     OW24082   0.981   4.635   3.465
 7728SOL    HW124083   1.000   4.732   3.451
 7728SOL    HW224084   0.974   4.589   3.377
 7729SOL     OW24085   5.842   2.774   0.819
 7729SOL    HW124086   5.764   2.836   0.820
 7729SOL    HW224087   5.810   2.679   0.822
 7730SOL     OW24088   5.936   6.084   1.515
 7730SOL    HW124089   5.945   6.165   1.458
 7730SOL    HW224090   5.847   6.041   1.498
 7731SOL     OW24091   6.543   0.556   0.412
 7731SOL    HW124092   6.619   0.574   0.475
 7731SOL    HW224093   6.504   0.642   0.382
 7732SOL     OW24094   4.437   6.253   0.436
 7732SOL    HW124095   4.492   6.187   0.384
 7732SOL    HW224096   4.427   6.221   0.530
 7733SOL     OW24097   4.633   6.611   2.461
 7733SOL    HW124098   4.638   6.708   2.436
 7733SOL    HW224099   4.542   6.591   2.498
 7734SOL     OW24100   2.725   5.138   2.727
 7734SOL    HW124101   2.766   5.052   2.756
 7734SOL    HW224102   2.675   5.125   2.642
 7735SOL     OW24103   4.905   6.280   6.823
 7735SOL    HW124104   4.996   6.309   6.792
 7735SOL    HW224105   4.870   6.210   6.760
 7736SOL     OW24106   3.220   3.640   0.216
 7736SOL    HW124107   3.131   3.667   0.177
 7736SOL    HW224108   3.294   3.676   0.159
 7737SOL     OW24109   3.234   0.544   2.753
 7737SOL    HW124110   3.173   0.560   2.675
 7737SOL    HW224111   3.267   0.450   2.752
 7738SOL     OW24112   3.175   6.015   0.125
 7738SOL    HW124113   3.215   6.027   0.216
 7738SOL    HW224114   3.150   6.104   0.088
 7739SOL     OW24115   0.821   1.763   1.131
 7739SOL    HW124116   0.758   1.731   1.202
 7739SOL    HW224117   0.814   1.703   1.051
 7740SOL     OW24118   1.926   0.538   3.426
 7740SOL    HW124119   1.985   0.550   3.346
 7740SOL    HW224120   1.980   0.554   3.509
 7741SOL     OW24121   0.718   4.725   5.886
 7741SOL    HW124122   0.683   4.770   5.803
 7741SOL    HW224123   0.817   4.718   5.880
 7742SOL     OW24124   5.801   1.749   3.294
 7742SOL    HW124125   5.787   1.747   3.392
 7742SOL    HW224126   5.751   1.674   3.251
 7743SOL     OW24127   5.758   1.508   0.055
 7743SOL    HW124128   5.769   1.607   0.043
 7743SOL    HW224129   5.805   1.460   7.005
 7744SOL     OW24130   0.924   5.977   3.397
 7744SOL    HW124131   0.884   5.907   3.337
 7744SOL    HW224132   0.855   6.006   3.463
 7745SOL     OW24133   3.448   0.936   5.726
 7745SOL    HW124134   3.470   1.033   5.724
 7745SOL    HW224135   3.530   0.882   5.705
 7746SOL     OW24136   2.876   6.514   0.014
 7746SOL    HW124137   2.880   6.417   7.015
 7746SOL    HW224138   2.885   6.525   0.113
 7747SOL     OW24139   4.566   5.765   1.807
 7747SOL    HW124140   4.662   5.785   1.784
 7747SOL    HW224141   4.512   5.763   1.724
 7748SOL     OW24142   2.872   3.525   5.067
 7748SOL    HW124143   2.950   3.556   5.121
 7748SOL    HW224144   2.842   3.436   5.100
 7749SOL     OW24145   2.629   2.738   5.476
 7749SOL    HW124146   2.711   2.708   5.427
 7749SOL    HW224147   2.550   2.734   5.414
 7750SOL     OW24148   0.058   6.458   1.538
 7750SOL    HW124149   0.017   6.471   1.448
 7750SOL    HW224150   0.058   6.545   1.588
 7751SOL     OW24151   1.601   2.266   2.348
 7751SOL    HW124152   1.630   2.350   2.302
 7751SOL    HW224153   1.681   2.218   2.383
 7752SOL     OW24154   5.255   0.349   5.906
 7752SOL    HW124155   5.302   0.409   5.841
 7752SOL    HW224156   5.243   0.398   5.993
 7753SOL     OW24157   2.709   1.343   4.382
 7753SOL    HW124158   2.764   1.403   4.440
 7753SOL    HW224159   2.765   1.308   4.307
 7754SOL     OW24160   3.361   6.030   0.871
 7754SOL    HW124161   3.274   5.990   0.845
 7754SOL    HW224162   3.422   5.957   0.904
 7755SOL     OW24163   1.990   2.424   5.911
 7755SOL    HW124164   2.046   2.457   5.986
 7755SOL    HW224165   1.989   2.324   5.912
 7756SOL     OW24166   2.577   6.945   2.999
 7756SOL    HW124167   2.605   0.017   2.995
 7756SOL    HW224168   2.644   6.893   3.052
 7757SOL     OW24169   6.018   4.963   1.304
 7757SOL    HW124170   6.034   4.932   1.397
 7757SOL    HW224171   6.105   4.970   1.255
 7758SOL     OW24172   2.093   0.188   6.486
 7758SOL    HW124173   2.080   0.256   6.414
 7758SOL    HW224174   2.054   0.221   6.571
 7759SOL     OW24175   1.735   1.426   5.219
 7759SOL    HW124176   1.670   1.502   5.229
 7759SOL    HW224177   1.695   1.342   5.255
 7760SOL     OW24178   5.902   3.524   2.842
 7760SOL    HW124179   5.929   3.432   2.813
 7760SOL    HW224180   5.982   3.584   2.841
 7761SOL     OW24181   6.553   6.595   4.705
 7761SOL    HW124182   6.638   6.563   4.663
 7761SOL    HW224183   6.479   6.530   4.684
 7762SOL     OW24184   2.410   0.413   4.156
 7762SOL    HW124185   2.431   0.379   4.064
 7762SOL    HW224186   2.383   0.337   4.215
 7763SOL     OW24187   2.314   0.058   6.537
 7763SOL    HW124188   2.229   0.104   6.510
 7763SOL    HW224189   2.361   0.113   6.606
 7764SOL     OW24190   3.217   3.955   5.580
 7764SOL    HW124191   3.122   3.986   5.580
 7764SOL    HW224192   3.256   3.967   5.489
 7765SOL     OW24193   6.036   2.707   4.309
 7765SOL    HW124194   6.082   2.795   4.316
 7765SOL    HW224195   6.021   2.685   4.213
 7766SOL     OW24196   6.798   3.833   0.769
 7766SOL    HW124197   6.878   3.812   0.824
 7766SOL    HW224198   6.724   3.866   0.828
 7767SOL     OW24199   4.590   6.190   2.183
 7767SOL    HW124200   4.600   6.153   2.091
 7767SOL    HW224201   4.502   6.160   2.222
 7768SOL     OW24202   5.041   4.294   3.048
 7768SOL    HW124203   5.018   4.206   3.089
 7768SOL    HW224204   5.140   4.300   3.036
 7769SOL     OW24205   5.122   1.721   4.457
 7769SOL    HW124206   5.127   1.820   4.464
 7769SOL    HW224207   5.037   1.689   4.500
 7770SOL     OW24208   0.861   3.209   5.145
 7770SOL    HW124209   0.855   3.261   5.230
 7770SOL    HW224210   0.774   3.163   5.128
 7771SOL     OW24211   3.190   1.504   5.380
 7771SOL    HW124212   3.096   1.495   5.412
 7771SOL    HW224213   3.215   1.422   5.328
 7772SOL     OW24214   5.313   6.688   1.788
 7772SOL    HW124215   5.330   6.598   1.826
 7772SOL    HW224216   5.327   6.686   1.689
 7773SOL     OW24217   1.526   5.058   5.554
 7773SOL    HW124218   1.623   5.062   5.530
 7773SOL    HW224219   1.511   5.107   5.640
 7774SOL     OW24220   4.996   2.595   4.321
 7774SOL    HW124221   5.017   2.635   4.232
 7774SOL    HW224222   4.901   2.613   4.345
 7775SOL     OW24223   4.412   6.955   0.058
 7775SOL    HW124224   4.348   6.914   0.123
 7775SOL    HW224225   4.398   0.029   0.054
 7776SOL     OW24226   0.807   5.700   6.581
 7776SOL    HW124227   0.892   5.693   6.634
 7776SOL    HW224228   0.826   5.742   6.493
 7777SOL     OW24229   5.990   5.613   4.048
 7777SOL    HW124230   5.892   5.598   4.037
 7777SOL    HW224231   6.008   5.656   4.136
 7778SOL     OW24232   5.726   4.010   2.231
 7778SOL    HW124233   5.779   3.952   2.170
 7778SOL    HW224234   5.635   3.969   2.245
 7779SOL     OW24235   2.740   1.127   2.038
 7779SOL    HW124236   2.664   1.101   1.978
 7779SOL    HW224237   2.737   1.226   2.054
 7780SOL     OW24238   0.989   4.990   5.545
 7780SOL    HW124239   0.934   5.047   5.484
 7780SOL    HW224240   0.946   4.987   5.635
 7781SOL     OW24241   1.894   4.182   1.519
 7781SOL    HW124242   1.962   4.165   1.591
 7781SOL    HW224243   1.887   4.281   1.504
 7782SOL     OW24244   5.073   5.149   4.061
 7782SOL    HW124245   5.118   5.239   4.060
 7782SOL    HW224246   4.974   5.161   4.062
 7783SOL     OW24247   1.044   0.396   5.780
 7783SOL    HW124248   1.020   0.307   5.741
 7783SOL    HW224249   1.039   0.466   5.709
 7784SOL     OW24250   3.483   2.314   1.397
 7784SOL    HW124251   3.392   2.305   1.439
 7784SOL    HW224252   3.485   2.398   1.342
 7785SOL     OW24253   2.273   5.851   4.059
 7785SOL    HW124254   2.291   5.941   4.097
 7785SOL    HW224255   2.202   5.805   4.112
 7786SOL     OW24256   3.583   0.077   0.252
 7786SOL    HW124257   3.603   0.150   0.187
 7786SOL    HW224258   3.493   0.092   0.292
 7787SOL     OW24259   2.102   2.905   6.951
 7787SOL    HW124260   2.012   2.885   6.912
 7787SOL    HW224261   2.100   2.994   6.996
 7788SOL     OW24262   1.561   4.890   1.596
 7788SOL    HW124263   1.603   4.823   1.658
 7788SOL    HW224264   1.632   4.939   1.547
 7789SOL     OW24265   3.245   0.104   6.390
 7789SOL    HW124266   3.246   0.098   6.490
 7789SOL    HW224267   3.152   0.121   6.358
 7790SOL     OW24268   5.251   5.683   2.766
 7790SOL    HW124269   5.339   5.640   2.746
 7790SOL    HW224270   5.205   5.708   2.681
 7791SOL     OW24271   2.159   5.178   2.284
 7791SOL    HW124272   2.206   5.175   2.373
 7791SOL    HW224273   2.080   5.239   2.290
 7792SOL     OW24274   1.268   6.412   4.132
 7792SOL    HW124275   1.349   6.459   4.098
 7792SOL    HW224276   1.231   6.354   4.059
 7793SOL     OW24277   4.026   0.572   0.157
 7793SOL    HW124278   4.014   0.512   0.077
 7793SOL    HW224279   3.957   0.550   0.226
 7794SOL     OW24280   0.224   4.336   1.759
 7794SOL    HW124281   0.320   4.309   1.764
 7794SOL    HW224282   0.171   4.263   1.714
 7795SOL     OW24283   2.707   5.043   4.924
 7795SOL    HW124284   2.622   4.991   4.920
 7795SOL    HW224285   2.783   4.986   4.890
 7796SOL     OW24286   3.646   2.580   5.490
 7796SOL    HW124287   3.637   2.660   5.550
 7796SOL    HW224288   3.734   2.535   5.507
 7797SOL     OW24289   0.664   6.489   1.233
 7797SOL    HW124290   0.704   6.581   1.238
 7797SOL    HW224291   0.718   6.433   1.171
 7798SOL     OW24292   0.963   2.386   2.968
 7798SOL    HW124293   1.007   2.341   2.890
 7798SOL    HW224294   0.995   2.481   2.973
 7799SOL     OW24295   1.996   5.409   2.309
 7799SOL    HW124296   1.900   5.405   2.338
 7799SOL    HW224297   2.038   5.493   2.342
 7800SOL     OW24298   0.794   5.452   3.364
 7800SOL    HW124299   0.861   5.394   3.410
 7800SOL    HW224300   0.790   5.429   3.267
 7801SOL     OW24301   1.780   1.537   2.556
 7801SOL    HW124302   1.820   1.627   2.541
 7801SOL    HW224303   1.852   1.468   2.554
 7802SOL     OW24304   6.550   3.033   0.364
 7802SOL    HW124305   6.481   3.006   0.296
 7802SOL    HW224306   6.511   3.101   0.425
 7803SOL     OW24307   4.311   2.029   0.124
 7803SOL    HW124308   4.250   2.105   0.103
 7803SOL    HW224309   4.293   1.997   0.217
 7804SOL     OW24310   4.881   1.992   5.020
 7804SOL    HW124311   4.913   1.994   5.114
 7804SOL    HW224312   4.812   1.921   5.009
 7805SOL     OW24313   5.192   3.330   2.552
 7805SOL    HW124314   5.248   3.392   2.607
 7805SOL    HW224315   5.231   3.323   2.460
 7806SOL     OW24316   5.810   1.450   6.277
 7806SOL    HW124317   5.779   1.544   6.287
 7806SOL    HW224318   5.733   1.392   6.253
 7807SOL     OW24319   0.860   4.710   5.236
 7807SOL    HW124320   0.831   4.800   5.202
 7807SOL    HW224321   0.936   4.723   5.301
 7808SOL     OW24322   5.919   3.196   3.568
 7808SOL    HW124323   5.884   3.130   3.502
 7808SOL    HW224324   6.017   3.212   3.552
 7809SOL     OW24325   5.155   5.228   5.132
 7809SOL    HW124326   5.183   5.153   5.073
 7809SOL    HW224327   5.216   5.234   5.211
 7810SOL     OW24328   2.857   6.803   5.621
 7810SOL    HW124329   2.863   6.883   5.681
 7810SOL    HW224330   2.761   6.779   5.606
 7811SOL     OW24331   1.369   5.486   1.845
 7811SOL    HW124332   1.290   5.465   1.788
 7811SOL    HW224333   1.445   5.514   1.786
 7812SOL     OW24334   2.288   2.590   4.239
 7812SOL    HW124335   2.350   2.520   4.205
 7812SOL    HW224336   2.194   2.566   4.215
 7813SOL     OW24337   4.265   2.116   1.235
 7813SOL    HW124338   4.207   2.035   1.223
 7813SOL    HW224339   4.355   2.087   1.267
 7814SOL     OW24340   0.027   3.255   3.451
 7814SOL    HW124341   6.969   3.252   3.395
 7814SOL    HW224342   0.104   3.218   3.400
 7815SOL     OW24343   5.944   1.976   4.187
 7815SOL    HW124344   5.894   2.060   4.211
 7815SOL    HW224345   5.905   1.936   4.105
 7816SOL     OW24346   0.669   2.353   6.953
 7816SOL    HW124347   0.760   2.366   6.993
 7816SOL    HW224348   0.678   2.344   6.854
 7817SOL     OW24349   4.799   4.075   5.065
 7817SOL    HW124350   4.800   3.997   5.127
 7817SOL    HW224351   4.734   4.143   5.098
 7818SOL     OW24352   4.783   1.224   2.772
 7818SOL    HW124353   4.718   1.166   2.723
 7818SOL    HW224354   4.867   1.174   2.789
 7819SOL     OW24355   0.366   3.496   3.334
 7819SOL    HW124356   0.354   3.528   3.428
 7819SOL    HW224357   0.287   3.524   3.280
 7820SOL     OW24358   1.850   0.999   5.683
 7820SOL    HW124359   1.762   0.950   5.677
 7820SOL    HW224360   1.911   0.950   5.745
 7821SOL     OW24361   5.596   6.013   1.024
 7821SOL    HW124362   5.661   5.985   1.094
 7821SOL    HW224363   5.614   6.108   0.999
 7822SOL     OW24364   1.391   1.504   0.037
 7822SOL    HW124365   1.362   1.441   6.989
 7822SOL    HW224366   1.371   1.598   0.009
 7823SOL     OW24367   2.238   3.979   5.902
 7823SOL    HW124368   2.298   3.912   5.858
 7823SOL    HW224369   2.287   4.023   5.978
 7824SOL     OW24370   5.864   0.732   4.616
 7824SOL    HW124371   5.882   0.693   4.706
 7824SOL    HW224372   5.939   0.794   4.591
 7825SOL     OW24373   1.376   3.608   0.921
 7825SOL    HW124374   1.444   3.598   0.848
 7825SOL    HW224375   1.325   3.523   0.931
 7826SOL     OW24376   5.773   1.738   6.746
 7826SOL    HW124377   5.701   1.768   6.809
 7826SOL    HW224378   5.740   1.661   6.692
 7827SOL     OW24379   3.048   4.580   0.662
 7827SOL    HW124380   2.979   4.545   0.599
 7827SOL    HW224381   3.138   4.545   0.635
 7828SOL     OW24382   0.642   5.290   0.876
 7828SOL    HW124383   0.706   5.353   0.833
 7828SOL    HW224384   0.592   5.338   0.948
 7829SOL     OW24385   1.977   2.902   0.208
 7829SOL    HW124386   1.927   2.818   0.223
 7829SOL    HW224387   1.983   2.954   0.293
 7830SOL     OW24388   4.366   3.840   6.146
 7830SOL    HW124389   4.436   3.770   6.160
 7830SOL    HW224390   4.399   3.928   6.181
 7831SOL     OW24391   1.434   5.498   1.025
 7831SOL    HW124392   1.335   5.497   1.008
 7831SOL    HW224393   1.463   5.406   1.054
 7832SOL     OW24394   3.312   1.101   4.301
 7832SOL    HW124395   3.407   1.074   4.318
 7832SOL    HW224396   3.304   1.141   4.210
 7833SOL     OW24397   0.399   0.584   6.821
 7833SOL    HW124398   0.349   0.510   6.866
 7833SOL    HW224399   0.497   0.576   6.842
 7834SOL     OW24400   0.391   1.409   3.481
 7834SOL    HW124401   0.362   1.351   3.558
 7834SOL    HW224402   0.489   1.426   3.487
 7835SOL     OW24403   2.228   2.519   4.851
 7835SOL    HW124404   2.204   2.609   4.888
 7835SOL    HW224405   2.185   2.507   4.762
 7836SOL     OW24406   3.841   2.225   5.850
 7836SOL    HW124407   3.927   2.243   5.898
 7836SOL    HW224408   3.854   2.151   5.785
 7837SOL     OW24409   6.543   6.484   1.828
 7837SOL    HW124410   6.580   6.557   1.771
 7837SOL    HW224411   6.595   6.399   1.812
 7838SOL     OW24412   4.246   5.941   0.384
 7838SOL    HW124413   4.228   5.951   0.286
 7838SOL    HW224414   4.343   5.959   0.402
 7839SOL     OW24415   6.040   4.648   5.524
 7839SOL    HW124416   6.052   4.628   5.426
 7839SOL    HW224417   6.031   4.747   5.536
 7840SOL     OW24418   4.861   3.368   4.764
 7840SOL    HW124419   4.764   3.393   4.760
 7840SOL    HW224420   4.899   3.395   4.852
 7841SOL     OW24421   5.470   1.484   0.018
 7841SOL    HW124422   5.453   1.387   0.000
 7841SOL    HW224423   5.569   1.500   0.024
 7842SOL     OW24424   2.173   1.530   2.938
 7842SOL    HW124425   2.164   1.468   3.015
 7842SOL    HW224426   2.265   1.568   2.935
 7843SOL     OW24427   4.937   4.467   2.113
 7843SOL    HW124428   4.923   4.498   2.207
 7843SOL    HW224429   5.002   4.528   2.067
 7844SOL     OW24430   3.925   0.856   3.785
 7844SOL    HW124431   3.838   0.823   3.821
 7844SOL    HW224432   3.985   0.883   3.860
 7845SOL     OW24433   6.286   1.197   3.851
 7845SOL    HW124434   6.343   1.126   3.810
 7845SOL    HW224435   6.212   1.155   3.903
 7846SOL     OW24436   1.777   0.510   1.499
 7846SOL    HW124437   1.695   0.503   1.556
 7846SOL    HW224438   1.766   0.586   1.435
 7847SOL     OW24439   6.458   2.063   1.681
 7847SOL    HW124440   6.387   2.058   1.612
 7847SOL    HW224441   6.499   2.154   1.681
 7848SOL     OW24442   3.142   3.501   1.298
 7848SOL    HW124443   3.195   3.577   1.337
 7848SOL    HW224444   3.115   3.439   1.371
 7849SOL     OW24445   5.651   3.847   3.929
 7849SOL    HW124446   5.653   3.854   3.829
 7849SOL    HW224447   5.675   3.936   3.969
 7850SOL     OW24448   6.952   1.670   3.721
 7850SOL    HW124449   6.866   1.626   3.747
 7850SOL    HW224450   6.986   1.724   3.797
 7851SOL     OW24451   6.677   6.794   0.887
 7851SOL    HW124452   6.651   6.698   0.881
 7851SOL    HW224453   6.597   6.851   0.868
 7852SOL     OW24454   2.865   0.421   5.450
 7852SOL    HW124455   2.866   0.461   5.359
 7852SOL    HW224456   2.847   0.492   5.518
 7853SOL     OW24457   3.867   1.776   1.635
 7853SOL    HW124458   3.888   1.829   1.717
 7853SOL    HW224459   3.825   1.689   1.661
 7854SOL     OW24460   3.493   3.648   0.868
 7854SOL    HW124461   3.482   3.717   0.797
 7854SOL    HW224462   3.489   3.557   0.827
 7855SOL     OW24463   3.152   6.031   5.569
 7855SOL    HW124464   3.093   6.085   5.629
 7855SOL    HW224465   3.111   5.942   5.553
 7856SOL     OW24466   5.564   4.985   3.877
 7856SOL    HW124467   5.649   4.942   3.908
 7856SOL    HW224468   5.522   5.033   3.954
 7857SOL     OW24469   5.919   2.780   5.213
 7857SOL    HW124470   5.998   2.719   5.202
 7857SOL    HW224471   5.908   2.835   5.131
 7858SOL     OW24472   4.513   5.383   3.909
 7858SOL    HW124473   4.460   5.340   3.982
 7858SOL    HW224474   4.529   5.479   3.931
 7859SOL     OW24475   6.351   4.068   5.599
 7859SOL    HW124476   6.310   3.977   5.595
 7859SOL    HW224477   6.289   4.135   5.560
 7860SOL     OW24478   4.386   0.392   3.136
 7860SOL    HW124479   4.409   0.333   3.059
 7860SOL    HW224480   4.376   0.336   3.219
 7861SOL     OW24481   3.843   5.279   1.629
 7861SOL    HW124482   3.785   5.342   1.681
 7861SOL    HW224483   3.790   5.239   1.554
 7862SOL     OW24484   3.145   4.617   1.635
 7862SOL    HW124485   3.059   4.578   1.667
 7862SOL    HW224486   3.217   4.547   1.636
 7863SOL     OW24487   6.667   6.351   3.649
 7863SOL    HW124488   6.569   6.335   3.640
 7863SOL    HW224489   6.698   6.319   3.738
 7864SOL     OW24490   0.169   6.545   5.444
 7864SOL    HW124491   0.084   6.565   5.493
 7864SOL    HW224492   0.203   6.455   5.471
 7865SOL     OW24493   4.605   6.993   4.405
 7865SOL    HW124494   4.698   6.993   4.367
 7865SOL    HW224495   4.610   6.988   4.505
 7866SOL     OW24496   2.465   1.929   6.764
 7866SOL    HW124497   2.370   1.957   6.778
 7866SOL    HW224498   2.504   1.981   6.688
 7867SOL     OW24499   4.946   6.408   2.719
 7867SOL    HW124500   4.875   6.337   2.717
 7867SOL    HW224501   4.902   6.498   2.712
 7868SOL     OW24502   5.485   6.861   2.234
 7868SOL    HW124503   5.388   6.856   2.254
 7868SOL    HW224504   5.519   6.952   2.257
 7869SOL     OW24505   5.921   3.889   0.653
 7869SOL    HW124506   5.998   3.951   0.665
 7869SOL    HW224507   5.851   3.934   0.598
 7870SOL     OW24508   4.893   5.159   4.387
 7870SOL    HW124509   4.885   5.181   4.290
 7870SOL    HW224510   4.988   5.170   4.416
 7871SOL     OW24511   5.625   3.816   2.628
 7871SOL    HW124512   5.643   3.720   2.652
 7871SOL    HW224513   5.531   3.839   2.655
 7872SOL     OW24514   2.135   4.331   2.446
 7872SOL    HW124515   2.061   4.301   2.385
 7872SOL    HW224516   2.097   4.352   2.536
 7873SOL     OW24517   5.250   0.667   5.424
 7873SOL    HW124518   5.280   0.750   5.471
 7873SOL    HW224519   5.328   0.604   5.416
 7874SOL     OW24520   4.747   1.645   0.418
 7874SOL    HW124521   4.845   1.652   0.403
 7874SOL    HW224522   4.718   1.550   0.408
 7875SOL     OW24523   4.595   2.712   6.766
 7875SOL    HW124524   4.604   2.623   6.811
 7875SOL    HW224525   4.646   2.711   6.680
 7876SOL     OW24526   0.018   6.986   4.819
 7876SOL    HW124527   0.013   0.010   4.907
 7876SOL    HW224528   0.042   0.027   4.747
 7877SOL     OW24529   0.028   3.073   2.374
 7877SOL    HW124530   0.090   3.071   2.452
 7877SOL    HW224531   0.052   2.999   2.311
 7878SOL     OW24532   4.468   4.864   4.069
 7878SOL    HW124533   4.458   4.874   4.168
 7878SOL    HW224534   4.436   4.773   4.042
 7879SOL     OW24535   5.031   5.591   3.845
 7879SOL    HW124536   5.058   5.684   3.869
 7879SOL    HW224537   5.056   5.573   3.750
 7880SOL     OW24538   0.952   5.420   0.892
 7880SOL    HW124539   0.982   5.449   0.983
 7880SOL    HW224540   0.954   5.321   0.886
 7881SOL     OW24541   5.758   3.522   4.530
 7881SOL    HW124542   5.727   3.529   4.435
 7881SOL    HW224543   5.713   3.445   4.574
 7882SOL     OW24544   1.578   2.844   3.125
 7882SOL    HW124545   1.653   2.883   3.071
 7882SOL    HW224546   1.510   2.804   3.064
 7883SOL     OW24547   1.598   7.002   1.211
 7883SOL    HW124548   1.601   0.069   1.168
 7883SOL    HW224549   1.539   6.942   1.156
 7884SOL     OW24550   1.831   3.910   3.753
 7884SOL    HW124551   1.927   3.894   3.776
 7884SOL    HW224552   1.774   3.838   3.793
 7885SOL     OW24553   6.305   6.628   2.202
 7885SOL    HW124554   6.397   6.622   2.241
 7885SOL    HW224555   6.311   6.666   2.110
 7886SOL     OW24556   4.259   4.261   0.783
 7886SOL    HW124557   4.256   4.309   0.696
 7886SOL    HW224558   4.181   4.289   0.839
 7887SOL     OW24559   3.519   2.307   5.506
 7887SOL    HW124560   3.544   2.263   5.592
 7887SOL    HW224561   3.575   2.389   5.493
 7888SOL     OW24562   0.225   0.529   5.351
 7888SOL    HW124563   0.297   0.597   5.350
 7888SOL    HW224564   0.257   0.445   5.307
 7889SOL     OW24565   0.651   4.830   0.109
 7889SOL    HW124566   0.736   4.882   0.114
 7889SOL    HW224567   0.627   4.796   0.200
 7890SOL     OW24568   0.517   3.563   3.920
 7890SOL    HW124569   0.541   3.546   3.824
 7890SOL    HW224570   0.585   3.521   3.980
 7891SOL     OW24571   1.575   3.773   4.557
 7891SOL    HW124572   1.539   3.859   4.522
 7891SOL    HW224573   1.669   3.786   4.588
 7892SOL     OW24574   1.472   2.302   4.085
 7892SOL    HW124575   1.502   2.295   4.180
 7892SOL    HW224576   1.435   2.215   4.055
 7893SOL     OW24577   5.988   0.067   2.177
 7893SOL    HW124578   6.073   0.029   2.213
 7893SOL    HW224579   5.925   7.017   2.155
 7894SOL     OW24580   2.931   0.676   1.310
 7894SOL    HW124581   2.962   0.635   1.225
 7894SOL    HW224582   3.000   0.739   1.344
 7895SOL     OW24583   5.015   6.843   4.989
 7895SOL    HW124584   5.014   6.935   5.028
 7895SOL    HW224585   4.924   6.822   4.953
 7896SOL     OW24586   5.429   3.334   0.979
 7896SOL    HW124587   5.418   3.360   0.884
 7896SOL    HW224588   5.409   3.236   0.989
 7897SOL     OW24589   3.667   2.620   1.127
 7897SOL    HW124590   3.637   2.712   1.101
 7897SOL    HW224591   3.602   2.582   1.193
 7898SOL     OW24592   3.768   0.430   3.273
 7898SOL    HW124593   3.715   0.423   3.358
 7898SOL    HW224594   3.842   0.496   3.286
 7899SOL     OW24595   5.791   6.882   1.573
 7899SOL    HW124596   5.784   6.794   1.620
 7899SOL    HW224597   5.759   6.955   1.633
 7900SOL     OW24598   0.904   5.126   1.597
 7900SOL    HW124599   0.963   5.091   1.670
 7900SOL    HW224600   0.887   5.054   1.530
 7901SOL     OW24601   4.990   0.920   6.592
 7901SOL    HW124602   4.940   0.895   6.509
 7901SOL    HW224603   5.003   1.019   6.595
 7902SOL     OW24604   6.189   6.161   3.229
 7902SOL    HW124605   6.151   6.158   3.136
 7902SOL    HW224606   6.147   6.089   3.284
 7903SOL     OW24607   4.551   2.154   2.731
 7903SOL    HW124608   4.527   2.106   2.646
 7903SOL    HW224609   4.470   2.157   2.791
 7904SOL     OW24610   5.620   6.921   3.108
 7904SOL    HW124611   5.659   6.951   3.021
 7904SOL    HW224612   5.586   6.827   3.098
 7905SOL     OW24613   5.427   2.447   0.171
 7905SOL    HW124614   5.375   2.420   0.090
 7905SOL    HW224615   5.410   2.381   0.244
 7906SOL     OW24616   0.874   5.999   0.944
 7906SOL    HW124617   0.794   6.052   0.975
 7906SOL    HW224618   0.870   5.988   0.845
 7907SOL     OW24619   6.650   1.307   3.601
 7907SOL    HW124620   6.686   1.380   3.543
 7907SOL    HW224621   6.565   1.272   3.561
 7908SOL     OW24622   0.958   1.259   6.031
 7908SOL    HW124623   0.954   1.313   5.947
 7908SOL    HW224624   0.921   1.167   6.014
 7909SOL     OW24625   4.586   4.399   3.706
 7909SOL    HW124626   4.639   4.323   3.744
 7909SOL    HW224627   4.563   4.380   3.610
 7910SOL     OW24628   2.071   3.148   0.153
 7910SOL    HW124629   2.037   3.053   0.155
 7910SOL    HW224630   2.064   3.187   0.244
 7911SOL     OW24631   1.121   5.076   1.048
 7911SOL    HW124632   1.032   5.094   1.007
 7911SOL    HW224633   1.113   4.999   1.112
 7912SOL     OW24634   6.158   4.637   1.373
 7912SOL    HW124635   6.065   4.618   1.404
 7912SOL    HW224636   6.217   4.655   1.452
 7913SOL     OW24637   1.733   3.794   2.257
 7913SOL    HW124638   1.685   3.816   2.173
 7913SOL    HW224639   1.735   3.695   2.270
 7914SOL     OW24640   6.878   4.621   1.086
 7914SOL    HW124641   6.977   4.614   1.094
 7914SOL    HW224642   6.855   4.675   1.005
 7915SOL     OW24643   5.078   2.211   2.657
 7915SOL    HW124644   5.072   2.113   2.635
 7915SOL    HW224645   5.081   2.223   2.756
 7916SOL     OW24646   0.172   6.352   5.854
 7916SOL    HW124647   0.193   6.255   5.840
 7916SOL    HW224648   0.239   6.408   5.806
 7917SOL     OW24649   3.950   3.084   5.746
 7917SOL    HW124650   4.039   3.099   5.704
 7917SOL    HW224651   3.879   3.128   5.691
 7918SOL     OW24652   6.756   1.266   4.373
 7918SOL    HW124653   6.667   1.236   4.407
 7918SOL    HW224654   6.782   1.351   4.419
 7919SOL     OW24655   1.557   4.850   2.814
 7919SOL    HW124656   1.537   4.788   2.889
 7919SOL    HW224657   1.634   4.909   2.839
 7920SOL     OW24658   6.375   6.579   1.280
 7920SOL    HW124659   6.420   6.662   1.246
 7920SOL    HW224660   6.277   6.595   1.285
 7921SOL     OW24661   5.497   5.928   2.146
 7921SOL    HW124662   5.415   5.879   2.178
 7921SOL    HW224663   5.552   5.867   2.089
 7922SOL     OW24664   0.498   6.241   6.944
 7922SOL    HW124665   0.510   6.169   7.014
 7922SOL    HW224666   0.467   6.325   6.988
 7923SOL     OW24667   4.082   1.438   6.464
 7923SOL    HW124668   4.004   1.386   6.496
 7923SOL    HW224669   4.070   1.461   6.368
 7924SOL     OW24670   4.838   0.205   1.317
 7924SOL    HW124671   4.806   0.256   1.397
 7924SOL    HW224672   4.779   0.126   1.302
 7925SOL     OW24673   0.697   0.112   6.991
 7925SOL    HW124674   0.777   0.070   0.009
 7925SOL    HW224675   0.685   0.076   6.899
 7926SOL     OW24676   5.205   1.547   6.106
 7926SOL    HW124677   5.254   1.633   6.088
 7926SOL    HW224678   5.140   1.530   6.032
 7927SOL     OW24679   4.656   6.868   2.329
 7927SOL    HW124680   4.669   6.945   2.392
 7927SOL    HW224681   4.712   6.882   2.247
 7928SOL     OW24682   1.026   1.955   3.799
 7928SOL    HW124683   1.034   1.951   3.700
 7928SOL    HW224684   0.929   1.965   3.825
 7929SOL     OW24685   3.910   3.557   6.052
 7929SOL    HW124686   3.949   3.511   5.972
 7929SOL    HW224687   3.824   3.513   6.078
 7930SOL     OW24688   4.508   4.925   6.051
 7930SOL    HW124689   4.604   4.953   6.049
 7930SOL    HW224690   4.460   4.978   6.121
 7931SOL     OW24691   3.272   3.210   0.498
 7931SOL    HW124692   3.201   3.267   0.456
 7931SOL    HW224693   3.263   3.213   0.597
 7932SOL     OW24694   1.114   5.791   6.185
 7932SOL    HW124695   1.135   5.873   6.131
 7932SOL    HW224696   1.103   5.713   6.124
 7933SOL     OW24697   6.382   0.742   6.175
 7933SOL    HW124698   6.446   0.670   6.149
 7933SOL    HW224699   6.428   0.806   6.237
 7934SOL     OW24700   1.377   5.379   6.661
 7934SOL    HW124701   1.352   5.414   6.751
 7934SOL    HW224702   1.447   5.308   6.671
 7935SOL     OW24703   5.751   6.290   1.310
 7935SOL    HW124704   5.821   6.355   1.281
 7935SOL    HW224705   5.757   6.208   1.253
 7936SOL     OW24706   3.232   6.008   2.833
 7936SOL    HW124707   3.236   5.932   2.768
 7936SOL    HW224708   3.250   5.974   2.925
 7937SOL     OW24709   0.198   5.709   4.325
 7937SOL    HW124710   0.247   5.741   4.244
 7937SOL    HW224711   0.222   5.614   4.344
 7938SOL     OW24712   6.349   6.421   4.712
 7938SOL    HW124713   6.352   6.444   4.810
 7938SOL    HW224714   6.255   6.400   4.686
 7939SOL     OW24715   1.914   1.953   6.021
 7939SOL    HW124716   1.969   1.893   5.963
 7939SOL    HW224717   1.870   1.899   6.093
 7940SOL     OW24718   2.488   2.535   2.406
 7940SOL    HW124719   2.433   2.452   2.401
 7940SOL    HW224720   2.585   2.511   2.402
 7941SOL     OW24721   5.670   6.138   2.211
 7941SOL    HW124722   5.633   6.174   2.297
 7941SOL    HW224723   5.620   6.056   2.185
 7942SOL     OW24724   0.147   3.970   2.823
 7942SOL    HW124725   0.056   3.933   2.801
 7942SOL    HW224726   0.210   3.949   2.748
 7943SOL     OW24727   0.597   4.609   6.282
 7943SOL    HW124728   0.639   4.682   6.228
 7943SOL    HW224729   0.556   4.648   6.365
 7944SOL     OW24730   0.800   2.837   0.612
 7944SOL    HW124731   0.777   2.772   0.540
 7944SOL    HW224732   0.818   2.927   0.572
 7945SOL     OW24733   6.384   5.815   1.727
 7945SOL    HW124734   6.319   5.889   1.710
 7945SOL    HW224735   6.379   5.748   1.653
 7946SOL     OW24736   3.388   0.516   5.478
 7946SOL    HW124737   3.396   0.614   5.462
 7946SOL    HW224738   3.322   0.499   5.552
 7947SOL     OW24739   2.935   1.564   5.488
 7947SOL    HW124740   2.844   1.538   5.454
 7947SOL    HW224741   2.925   1.638   5.555
 7948SOL     OW24742   0.854   6.404   0.681
 7948SOL    HW124743   0.944   6.362   0.674
 7948SOL    HW224744   0.784   6.341   0.645
 7949SOL     OW24745   4.264   3.996   5.859
 7949SOL    HW124746   4.234   3.986   5.954
 7949SOL    HW224747   4.360   3.969   5.851
 7950SOL     OW24748   4.803   5.501   4.602
 7950SOL    HW124749   4.816   5.423   4.663
 7950SOL    HW224750   4.890   5.526   4.561
 7951SOL     OW24751   1.932   4.566   2.285
 7951SOL    HW124752   1.865   4.497   2.257
 7951SOL    HW224753   1.889   4.656   2.282
 7952SOL     OW24754   0.231   3.225   6.867
 7952SOL    HW124755   0.212   3.316   6.830
 7952SOL    HW224756   0.304   3.232   6.935
 7953SOL     OW24757   4.353   2.387   2.278
 7953SOL    HW124758   4.405   2.415   2.358
 7953SOL    HW224759   4.259   2.421   2.286
 7954SOL     OW24760   2.941   4.232   6.120
 7954SOL    HW124761   2.956   4.202   6.026
 7954SOL    HW224762   2.898   4.322   6.120
 7955SOL     OW24763   2.401   1.193   6.258
 7955SOL    HW124764   2.445   1.234   6.339
 7955SOL    HW224765   2.303   1.187   6.273
 7956SOL     OW24766   5.299   0.550   1.917
 7956SOL    HW124767   5.236   0.587   1.849
 7956SOL    HW224768   5.347   0.625   1.962
 7957SOL     OW24769   1.596   0.564   0.797
 7957SOL    HW124770   1.641   0.542   0.884
 7957SOL    HW224771   1.666   0.575   0.726
 7958SOL     OW24772   4.717   5.081   6.252
 7958SOL    HW124773   4.748   5.027   6.174
 7958SOL    HW224774   4.641   5.035   6.297
 7959SOL     OW24775   5.209   6.729   1.322
 7959SOL    HW124776   5.237   6.822   1.299
 7959SOL    HW224777   5.109   6.722   1.319
 7960SOL     OW24778   2.232   0.535   5.956
 7960SOL    HW124779   2.297   0.557   6.028
 7960SOL    HW224780   2.169   0.612   5.944
 7961SOL     OW24781   0.035   1.011   0.778
 7961SOL    HW124782   0.109   1.060   0.823
 7961SOL    HW224783   0.013   1.056   0.691
 7962SOL     OW24784   1.224   1.063   5.415
 7962SOL    HW124785   1.133   1.024   5.400
 7962SOL    HW224786   1.267   1.020   5.494
 7963SOL     OW24787   5.630   6.182   4.548
 7963SOL    HW124788   5.615   6.264   4.493
 7963SOL    HW224789   5.550   6.167   4.606
 7964SOL     OW24790   6.994   3.568   2.960
 7964SOL    HW124791   6.935   3.578   3.040
 7964SOL    HW224792   6.939   3.544   2.880
 7965SOL     OW24793   4.072   2.222   6.008
 7965SOL    HW124794   4.110   2.310   6.036
 7965SOL    HW224795   4.146   2.160   5.982
 7966SOL     OW24796   3.000   2.720   5.604
 7966SOL    HW124797   2.946   2.722   5.688
 7966SOL    HW224798   3.096   2.702   5.626
 7967SOL     OW24799   3.290   6.130   1.866
 7967SOL    HW124800   3.306   6.224   1.834
 7967SOL    HW224801   3.231   6.133   1.947
 7968SOL     OW24802   6.735   2.284   3.834
 7968SOL    HW124803   6.745   2.197   3.788
 7968SOL    HW224804   6.820   2.336   3.827
 7969SOL     OW24805   5.450   5.659   0.889
 7969SOL    HW124806   5.505   5.599   0.832
 7969SOL    HW224807   5.370   5.609   0.922
 7970SOL     OW24808   6.437   2.827   1.865
 7970SOL    HW124809   6.455   2.858   1.772
 7970SOL    HW224810   6.339   2.834   1.884
 7971SOL     OW24811   3.254   1.874   1.094
 7971SOL    HW124812   3.171   1.825   1.066
 7971SOL    HW224813   3.328   1.853   1.030
 7972SOL     OW24814   2.764   3.067   0.676
 7972SOL    HW124815   2.691   3.135   0.680
 7972SOL    HW224816   2.846   3.103   0.721
 7973SOL     OW24817   4.250   4.696   4.458
 7973SOL    HW124818   4.241   4.770   4.392
 7973SOL    HW224819   4.162   4.650   4.468
 7974SOL     OW24820   5.837   1.053   5.508
 7974SOL    HW124821   5.785   0.974   5.475
 7974SOL    HW224822   5.774   1.124   5.539
 7975SOL     OW24823   6.447   0.968   1.539
 7975SOL    HW124824   6.531   0.932   1.580
 7975SOL    HW224825   6.370   0.952   1.601
 7976SOL     OW24826   1.273   0.450   5.920
 7976SOL    HW124827   1.233   0.451   5.828
 7976SOL    HW224828   1.206   0.483   5.986
 7977SOL     OW24829   4.542   5.834   2.928
 7977SOL    HW124830   4.590   5.779   2.997
 7977SOL    HW224831   4.448   5.847   2.957
 7978SOL     OW24832   6.522   2.181   5.936
 7978SOL    HW124833   6.478   2.224   5.857
 7978SOL    HW224834   6.487   2.223   6.020
 7979SOL     OW24835   3.708   5.358   5.315
 7979SOL    HW124836   3.662   5.312   5.391
 7979SOL    HW224837   3.751   5.442   5.348
 7980SOL     OW24838   3.514   5.418   6.298
 7980SOL    HW124839   3.417   5.424   6.323
 7980SOL    HW224840   3.543   5.502   6.253
 7981SOL     OW24841   0.820   4.912   1.210
 7981SOL    HW124842   0.916   4.890   1.191
 7981SOL    HW224843   0.762   4.836   1.180
 7982SOL     OW24844   1.482   0.944   0.123
 7982SOL    HW124845   1.581   0.939   0.112
 7982SOL    HW224846   1.460   1.005   0.200
 7983SOL     OW24847   5.939   2.409   0.257
 7983SOL    HW124848   5.879   2.453   0.323
 7983SOL    HW224849   5.907   2.316   0.239
 7984SOL     OW24850   1.138   0.958   0.680
 7984SOL    HW124851   1.133   0.917   0.589
 7984SOL    HW224852   1.189   1.043   0.675
 7985SOL     OW24853   2.822   1.531   4.531
 7985SOL    HW124854   2.860   1.553   4.621
 7985SOL    HW224855   2.725   1.555   4.529
 7986SOL     OW24856   2.742   0.873   6.242
 7986SOL    HW124857   2.644   0.891   6.237
 7986SOL    HW224858   2.764   0.836   6.332
 7987SOL     OW24859   1.806   2.360   0.301
 7987SOL    HW124860   1.887   2.305   0.320
 7987SOL    HW224861   1.725   2.301   0.302
 7988SOL     OW24862   0.925   1.827   2.866
 7988SOL    HW124863   0.847   1.888   2.857
 7988SOL    HW224864   0.971   1.818   2.777
 7989SOL     OW24865   2.814   3.342   0.049
 7989SOL    HW124866   2.822   3.441   0.036
 7989SOL    HW224867   2.874   3.295   7.008
 7990SOL     OW24868   1.646   4.929   4.967
 7990SOL    HW124869   1.696   4.868   5.028
 7990SOL    HW224870   1.599   4.875   4.897
 7991SOL     OW24871   6.170   0.974   3.566
 7991SOL    HW124872   6.143   0.928   3.651
 7991SOL    HW224873   6.263   0.946   3.541
 7992SOL     OW24874   1.022   0.447   0.371
 7992SOL    HW124875   1.103   0.446   0.312
 7992SOL    HW224876   0.939   0.447   0.315
 7993SOL     OW24877   6.950   0.134   1.035
 7993SOL    HW124878   6.997   0.061   1.084
 7993SOL    HW224879   7.013   0.210   1.019
 7994SOL     OW24880   3.773   7.021   3.556
 7994SOL    HW124881   3.871   0.015   3.542
 7994SOL    HW224882   3.720   0.047   3.488
 7995SOL     OW24883   6.167   5.366   3.457
 7995SOL    HW124884   6.128   5.319   3.536
 7995SOL    HW224885   6.262   5.388   3.475
 7996SOL     OW24886   3.499   6.575   3.903
 7996SOL    HW124887   3.567   6.518   3.951
 7996SOL    HW224888   3.443   6.624   3.970
 7997SOL     OW24889   0.368   1.220   1.097
 7997SOL    HW124890   0.358   1.267   1.185
 7997SOL    HW224891   0.462   1.187   1.088
 7998SOL     OW24892   2.510   0.580   0.373
 7998SOL    HW124893   2.434   0.519   0.393
 7998SOL    HW224894   2.594   0.541   0.411
 7999SOL     OW24895   0.872   0.939   6.238
 7999SOL    HW124896   0.867   0.995   6.155
 7999SOL    HW224897   0.781   0.931   6.278
 8000SOL     OW24898   4.951   0.195   6.571
 8000SOL    HW124899   4.867   0.248   6.569
 8000SOL    HW224900   5.003   0.218   6.653
 8001SOL     OW24901   4.437   6.429   1.628
 8001SOL    HW124902   4.343   6.431   1.595
 8001SOL    HW224903   4.461   6.518   1.667
 8002SOL     OW24904   1.841   0.816   6.551
 8002SOL    HW124905   1.789   0.790   6.633
 8002SOL    HW224906   1.778   0.855   6.483
 8003SOL     OW24907   2.773   5.338   1.950
 8003SOL    HW124908   2.869   5.355   1.970
 8003SOL    HW224909   2.717   5.363   2.030
 8004SOL     OW24910   2.214   2.891   3.030
 8004SOL    HW124911   2.240   2.848   2.943
 8004SOL    HW224912   2.256   2.841   3.106
 8005SOL     OW24913   3.004   1.032   3.582
 8005SOL    HW124914   3.013   0.980   3.666
 8005SOL    HW224915   3.093   1.069   3.555
 8006SOL     OW24916   2.030   6.133   5.557
 8006SOL    HW124917   2.126   6.143   5.531
 8006SOL    HW224918   2.017   6.169   5.649
 8007SOL     OW24919   6.096   1.428   5.742
 8007SOL    HW124920   6.106   1.504   5.806
 8007SOL    HW224921   6.171   1.363   5.755
 8008SOL     OW24922   4.033   6.058   6.468
 8008SOL    HW124923   4.058   6.150   6.498
 8008SOL    HW224924   3.996   6.062   6.375
 8009SOL     OW24925   5.621   0.662   1.304
 8009SOL    HW124926   5.658   0.614   1.384
 8009SOL    HW224927   5.592   0.753   1.331
 8010SOL     OW24928   1.996   1.475   5.306
 8010SOL    HW124929   2.020   1.384   5.340
 8010SOL    HW224930   1.902   1.475   5.274
 8011SOL     OW24931   3.112   2.465   0.958
 8011SOL    HW124932   3.154   2.541   0.908
 8011SOL    HW224933   3.080   2.498   1.047
 8012SOL     OW24934   2.503   3.403   0.121
 8012SOL    HW124935   2.449   3.442   0.047
 8012SOL    HW224936   2.591   3.370   0.085
 8013SOL     OW24937   1.438   5.325   3.084
 8013SOL    HW124938   1.352   5.346   3.038
 8013SOL    HW224939   1.486   5.410   3.106
 8014SOL     OW24940   1.209   6.520   4.526
 8014SOL    HW124941   1.189   6.438   4.473
 8014SOL    HW224942   1.288   6.567   4.487
 8015SOL     OW24943   2.459   0.330   6.213
 8015SOL    HW124944   2.481   0.328   6.310
 8015SOL    HW224945   2.457   0.237   6.176
 8016SOL     OW24946   3.863   0.531   5.902
 8016SOL    HW124947   3.863   0.478   5.986
 8016SOL    HW224948   3.769   0.553   5.877
 8017SOL     OW24949   5.747   0.040   0.537
 8017SOL    HW124950   5.685   0.001   0.604
 8017SOL    HW224951   5.699   0.113   0.486
 8018SOL     OW24952   3.305   2.167   6.998
 8018SOL    HW124953   3.385   2.212   6.959
 8018SOL    HW224954   3.276   2.092   6.939
 8019SOL     OW24955   2.643   4.872   0.979
 8019SOL    HW124956   2.734   4.832   0.996
 8019SOL    HW224957   2.597   4.820   0.908
 8020SOL     OW24958   6.054   0.104   6.924
 8020SOL    HW124959   6.005   0.168   6.865
 8020SOL    HW224960   5.991   0.068   6.993
 8021SOL     OW24961   1.237   2.909   0.829
 8021SOL    HW124962   1.194   2.822   0.806
 8021SOL    HW224963   1.168   2.973   0.863
 8022SOL     OW24964   5.847   0.725   2.125
 8022SOL    HW124965   5.860   0.629   2.099
 8022SOL    HW224966   5.898   0.744   2.209
 8023SOL     OW24967   6.548   4.722   2.989
 8023SOL    HW124968   6.518   4.811   2.955
 8023SOL    HW224969   6.595   4.672   2.916
 8024SOL     OW24970   1.221   5.169   5.544
 8024SOL    HW124971   1.167   5.085   5.542
 8024SOL    HW224972   1.294   5.163   5.476
 8025SOL     OW24973   2.324   5.777   0.855
 8025SOL    HW124974   2.230   5.746   0.867
 8025SOL    HW224975   2.346   5.846   0.924
 8026SOL     OW24976   6.900   4.182   0.390
 8026SOL    HW124977   6.984   4.137   0.421
 8026SOL    HW224978   6.918   4.229   0.304
 8027SOL     OW24979   3.881   0.129   5.386
 8027SOL    HW124980   3.860   0.066   5.461
 8027SOL    HW224981   3.956   0.092   5.331
 8028SOL     OW24982   4.383   5.861   5.650
 8028SOL    HW124983   4.292   5.875   5.687
 8028SOL    HW224984   4.444   5.934   5.683
 8029SOL     OW24985   5.419   3.227   1.439
 8029SOL    HW124986   5.455   3.320   1.429
 8029SOL    HW224987   5.445   3.191   1.529
 8030SOL     OW24988   5.283   5.037   0.372
 8030SOL    HW124989   5.274   5.088   0.287
 8030SOL    HW224990   5.192   5.014   0.408
 8031SOL     OW24991   6.282   6.828   2.381
 8031SOL    HW124992   6.278   6.750   2.318
 8031SOL    HW224993   6.373   6.833   2.422
 8032SOL     OW24994   6.312   4.647   1.611
 8032SOL    HW124995   6.287   4.587   1.687
 8032SOL    HW224996   6.396   4.697   1.634
 8033SOL     OW24997   4.581   2.448   6.839
 8033SOL    HW124998   4.491   2.427   6.801
 8033SOL    HW224999   4.645   2.376   6.814
 8034SOL     OW25000   4.389   0.708   5.236
 8034SOL    HW125001   4.326   0.681   5.308
 8034SOL    HW225002   4.340   0.763   5.168
 8035SOL     OW25003   5.044   1.584   2.389
 8035SOL    HW125004   5.037   1.514   2.460
 8035SOL    HW225005   5.098   1.548   2.312
 8036SOL     OW25006   6.629   4.173   4.152
 8036SOL    HW125007   6.599   4.116   4.076
 8036SOL    HW225008   6.619   4.270   4.127
 8037SOL     OW25009   2.361   3.326   6.764
 8037SOL    HW125010   2.331   3.389   6.836
 8037SOL    HW225011   2.318   3.236   6.779
 8038SOL     OW25012   4.762   0.522   2.369
 8038SOL    HW125013   4.725   0.461   2.439
 8038SOL    HW225014   4.728   0.615   2.384
 8039SOL     OW25015   0.253   1.521   5.296
 8039SOL    HW125016   0.309   1.443   5.268
 8039SOL    HW225017   0.171   1.525   5.238
 8040SOL     OW25018   1.287   5.554   0.397
 8040SOL    HW125019   1.372   5.552   0.344
 8040SOL    HW225020   1.307   5.584   0.491
 8041SOL     OW25021   3.231   0.934   2.960
 8041SOL    HW125022   3.212   1.020   2.913
 8041SOL    HW225023   3.307   0.947   3.023
 8042SOL     OW25024   3.897   2.925   5.228
 8042SOL    HW125025   3.818   2.864   5.233
 8042SOL    HW225026   3.898   2.970   5.138
 8043SOL     OW25027   3.764   6.038   0.747
 8043SOL    HW125028   3.754   6.137   0.735
 8043SOL    HW225029   3.698   5.990   0.690
 8044SOL     OW25030   4.949   3.062   0.711
 8044SOL    HW125031   4.877   3.118   0.670
 8044SOL    HW225032   5.017   3.122   0.753
 8045SOL     OW25033   6.321   2.142   2.322
 8045SOL    HW125034   6.331   2.044   2.342
 8045SOL    HW225035   6.406   2.189   2.345
 8046SOL     OW25036   1.040   4.248   1.714
 8046SOL    HW125037   0.951   4.214   1.682
 8046SOL    HW225038   1.034   4.270   1.811
 8047SOL     OW25039   4.041   5.955   5.999
 8047SOL    HW125040   3.972   6.003   5.943
 8047SOL    HW225041   4.005   5.866   6.026
 8048SOL     OW25042   3.779   1.453   0.192
 8048SOL    HW125043   3.727   1.484   0.272
 8048SOL    HW225044   3.748   1.503   0.111
 8049SOL     OW25045   0.875   0.080   6.752
 8049SOL    HW125046   0.918   0.030   6.828
 8049SOL    HW225047   0.789   0.035   6.727
 8050SOL     OW25048   2.133   3.720   3.464
 8050SOL    HW125049   2.119   3.621   3.459
 8050SOL    HW225050   2.172   3.752   3.378
 8051SOL     OW25051   4.524   6.362   4.211
 8051SOL    HW125052   4.520   6.449   4.261
 8051SOL    HW225053   4.619   6.332   4.205
 8052SOL     OW25054   3.026   1.733   1.027
 8052SOL    HW125055   3.005   1.751   0.931
 8052SOL    HW225056   2.961   1.667   1.064
 8053SOL     OW25057   3.891   2.962   4.885
 8053SOL    HW125058   3.814   2.906   4.855
 8053SOL    HW225059   3.860   3.029   4.952
 8054SOL     OW25060   6.671   4.345   4.676
 8054SOL    HW125061   6.599   4.401   4.636
 8054SOL    HW225062   6.649   4.325   4.772
 8055SOL     OW25063   0.330   0.362   5.678
 8055SOL    HW125064   0.357   0.429   5.748
 8055SOL    HW225065   0.289   0.411   5.600
 8056SOL     OW25066   2.644   0.822   4.900
 8056SOL    HW125067   2.618   0.913   4.933
 8056SOL    HW225068   2.668   0.827   4.803
 8057SOL     OW25069   2.705   1.982   3.166
 8057SOL    HW125070   2.683   1.885   3.162
 8057SOL    HW225071   2.624   2.036   3.143
 8058SOL     OW25072   3.071   0.074   3.288
 8058SOL    HW125073   3.147   0.017   3.255
 8058SOL    HW225074   3.003   0.016   3.331
 8059SOL     OW25075   2.570   2.011   4.534
 8059SOL    HW125076   2.580   2.111   4.538
 8059SOL    HW225077   2.490   1.984   4.587
 8060SOL     OW25078   6.724   2.107   6.283
 8060SOL    HW125079   6.713   2.204   6.266
 8060SOL    HW225080   6.822   2.084   6.282
 8061SOL     OW25081   0.041   0.303   2.942
 8061SOL    HW125082   0.097   0.278   2.864
 8061SOL    HW225083   0.018   0.400   2.937
 8062SOL     OW25084   3.448   5.075   4.197
 8062SOL    HW125085   3.409   5.161   4.230
 8062SOL    HW225086   3.430   5.003   4.265
 8063SOL     OW25087   2.377   1.907   2.776
 8063SOL    HW125088   2.379   1.838   2.848
 8063SOL    HW225089   2.428   1.988   2.806
 8064SOL     OW25090   0.038   2.772   0.595
 8064SOL    HW125091   0.029   2.734   0.687
 8064SOL    HW225092   0.029   2.698   0.528
 8065SOL     OW25093   2.568   5.362   3.839
 8065SOL    HW125094   2.513   5.445   3.828
 8065SOL    HW225095   2.619   5.367   3.924
 8066SOL     OW25096   0.510   0.970   5.351
 8066SOL    HW125097   0.491   1.036   5.278
 8066SOL    HW225098   0.505   0.877   5.314
 8067SOL     OW25099   5.063   2.664   2.875
 8067SOL    HW125100   5.035   2.722   2.952
 8067SOL    HW225101   5.129   2.713   2.819
 8068SOL     OW25102   0.031   4.813   1.278
 8068SOL    HW125103   7.016   4.728   1.314
 8068SOL    HW225104   0.110   4.792   1.221
 8069SOL     OW25105   2.326   5.261   1.006
 8069SOL    HW125106   2.375   5.174   1.005
 8069SOL    HW225107   2.293   5.279   1.099
 8070SOL     OW25108   4.425   3.176   0.691
 8070SOL    HW125109   4.414   3.107   0.619
 8070SOL    HW225110   4.410   3.133   0.780
 8071SOL     OW25111   3.349   6.556   5.079
 8071SOL    HW125112   3.352   6.645   5.125
 8071SOL    HW225113   3.420   6.552   5.010
 8072SOL     OW25114   3.666   1.236   0.780
 8072SOL    HW125115   3.719   1.249   0.696
 8072SOL    HW225116   3.721   1.266   0.858
 8073SOL     OW25117   3.059   5.525   4.866
 8073SOL    HW125118   3.103   5.601   4.817
 8073SOL    HW225119   3.089   5.525   4.961
 8074SOL     OW25120   3.273   2.852   0.739
 8074SOL    HW125121   3.252   2.855   0.837
 8074SOL    HW225122   3.369   2.875   0.724
 8075SOL     OW25123   6.446   6.943   0.937
 8075SOL    HW125124   6.463   0.012   0.906
 8075SOL    HW225125   6.350   6.919   0.922
 8076SOL     OW25126   5.961   0.749   5.509
 8076SOL    HW125127   5.983   0.740   5.606
 8076SOL    HW225128   6.027   0.811   5.466
 8077SOL     OW25129   3.525   6.370   2.378
 8077SOL    HW125130   3.457   6.323   2.321
 8077SOL    HW225131   3.597   6.306   2.404
 8078SOL     OW25132   6.759   1.796   0.301
 8078SOL    HW125133   6.834   1.767   0.360
 8078SOL    HW225134   6.770   1.757   0.210
 8079SOL     OW25135   6.454   0.981   3.791
 8079SOL    HW125136   6.431   0.948   3.700
 8079SOL    HW225137   6.543   1.026   3.790
 8080SOL     OW25138   0.709   2.989   2.547
 8080SOL    HW125139   0.689   2.903   2.500
 8080SOL    HW225140   0.712   2.974   2.646
 8081SOL     OW25141   6.442   5.850   6.151
 8081SOL    HW125142   6.440   5.759   6.191
 8081SOL    HW225143   6.417   5.918   6.219
 8082SOL     OW25144   4.009   0.918   1.864
 8082SOL    HW125145   4.102   0.886   1.879
 8082SOL    HW225146   3.948   0.876   1.931
 8083SOL     OW25147   4.874   3.097   2.994
 8083SOL    HW125148   4.857   3.174   3.055
 8083SOL    HW225149   4.819   3.107   2.911
 8084SOL     OW25150   3.861   6.602   6.895
 8084SOL    HW125151   3.819   6.648   6.973
 8084SOL    HW225152   3.854   6.503   6.907
 8085SOL     OW25153   5.787   6.512   2.297
 8085SOL    HW125154   5.762   6.576   2.224
 8085SOL    HW225155   5.715   6.512   2.366
 8086SOL     OW25156   6.595   0.529   2.612
 8086SOL    HW125157   6.650   0.462   2.561
 8086SOL    HW225158   6.545   0.587   2.547
 8087SOL     OW25159   2.131   0.051   0.116
 8087SOL    HW125160   2.177   0.123   0.063
 8087SOL    HW225161   2.149   6.987   0.073
 8088SOL     OW25162   6.301   1.287   1.821
 8088SOL    HW125163   6.240   1.214   1.852
 8088SOL    HW225164   6.369   1.250   1.758
 8089SOL     OW25165   5.988   2.746   0.574
 8089SOL    HW125166   5.931   2.766   0.654
 8089SOL    HW225167   6.066   2.690   0.602
 8090SOL     OW25168   3.903   1.211   6.923
 8090SOL    HW125169   3.812   1.178   6.949
 8090SOL    HW225170   3.926   1.291   6.977
 8091SOL     OW25171   1.802   3.759   5.002
 8091SOL    HW125172   1.749   3.680   5.034
 8091SOL    HW225173   1.897   3.731   4.988
 8092SOL     OW25174   5.955   2.219   5.385
 8092SOL    HW125175   5.981   2.237   5.480
 8092SOL    HW225176   5.924   2.124   5.377
 8093SOL     OW25177   3.443   5.164   3.030
 8093SOL    HW125178   3.374   5.231   3.055
 8093SOL    HW225179   3.470   5.111   3.110
 8094SOL     OW25180   0.734   3.731   4.568
 8094SOL    HW125181   0.694   3.767   4.484
 8094SOL    HW225182   0.664   3.728   4.640
 8095SOL     OW25183   0.478   4.605   4.380
 8095SOL    HW125184   0.481   4.604   4.480
 8095SOL    HW225185   0.463   4.513   4.346
 8096SOL     OW25186   2.068   6.878   2.926
 8096SOL    HW125187   2.064   6.808   2.855
 8096SOL    HW225188   2.164   6.899   2.947
 8097SOL     OW25189   4.030   6.790   4.632
 8097SOL    HW125190   4.126   6.812   4.653
 8097SOL    HW225191   3.984   6.873   4.601
 8098SOL     OW25192   1.892   6.612   3.331
 8098SOL    HW125193   1.940   6.690   3.292
 8098SOL    HW225194   1.804   6.600   3.285
 8099SOL     OW25195   4.045   5.899   4.879
 8099SOL    HW125196   4.006   5.920   4.789
 8099SOL    HW225197   4.063   5.984   4.929
 8100SOL     OW25198   0.315   0.196   6.810
 8100SOL    HW125199   0.358   0.232   6.727
 8100SOL    HW225200   0.217   0.188   6.796
 8101SOL     OW25201   1.712   6.022   2.021
 8101SOL    HW125202   1.685   6.081   2.098
 8101SOL    HW225203   1.809   6.034   2.003
 8102SOL     OW25204   0.538   3.890   3.425
 8102SOL    HW125205   0.464   3.918   3.486
 8102SOL    HW225206   0.621   3.941   3.447
 8103SOL     OW25207   3.090   6.925   1.539
 8103SOL    HW125208   3.175   6.912   1.488
 8103SOL    HW225209   3.014   6.887   1.486
 8104SOL     OW25210   2.183   0.228   6.041
 8104SOL    HW125211   2.216   0.306   5.989
 8104SOL    HW225212   2.261   0.174   6.074
 8105SOL     OW25213   0.559   3.088   2.921
 8105SOL    HW125214   0.511   3.009   2.959
 8105SOL    HW225215   0.588   3.149   2.994
 8106SOL     OW25216   2.933   5.856   2.961
 8106SOL    HW125217   2.952   5.787   3.030
 8106SOL    HW225218   3.014   5.913   2.947
 8107SOL     OW25219   1.199   5.028   4.368
 8107SOL    HW125220   1.296   5.005   4.375
 8107SOL    HW225221   1.148   4.948   4.335
 8108SOL     OW25222   6.042   2.776   5.909
 8108SOL    HW125223   6.123   2.799   5.964
 8108SOL    HW225224   5.990   2.704   5.955
 8109SOL     OW25225   0.173   4.191   5.794
 8109SOL    HW125226   0.180   4.145   5.883
 8109SOL    HW225227   0.102   4.148   5.739
 8110SOL     OW25228   4.127   6.169   2.358
 8110SOL    HW125229   4.173   6.155   2.270
 8110SOL    HW225230   4.147   6.092   2.418
 8111SOL     OW25231   5.213   1.281   4.273
 8111SOL    HW125232   5.309   1.252   4.276
 8111SOL    HW225233   5.206   1.367   4.223
 8112SOL     OW25234   2.526   2.286   4.571
 8112SOL    HW125235   2.533   2.373   4.619
 8112SOL    HW225236   2.504   2.303   4.475
 8113SOL     OW25237   1.756   3.500   0.187
 8113SOL    HW125238   1.853   3.489   0.210
 8113SOL    HW225239   1.737   3.596   0.170
 8114SOL     OW25240   1.461   4.426   3.024
 8114SOL    HW125241   1.484   4.351   3.086
 8114SOL    HW225242   1.461   4.393   2.930
 8115SOL     OW25243   3.581   0.429   6.847
 8115SOL    HW125244   3.665   0.482   6.838
 8115SOL    HW225245   3.507   0.488   6.877
 8116SOL     OW25246   4.495   4.554   6.917
 8116SOL    HW125247   4.582   4.505   6.919
 8116SOL    HW225248   4.423   4.496   6.955
 8117SOL     OW25249   1.958   6.943   3.735
 8117SOL    HW125250   1.892   6.942   3.660
 8117SOL    HW225251   2.041   6.988   3.706
 8118SOL     OW25252   4.994   4.346   6.866
 8118SOL    HW125253   5.028   4.440   6.859
 8118SOL    HW225254   5.040   4.300   6.942
 8119SOL     OW25255   5.340   5.825   6.891
 8119SOL    HW125256   5.258   5.879   6.873
 8119SOL    HW225257   5.341   5.744   6.831
 8120SOL     OW25258   3.079   4.856   0.984
 8120SOL    HW125259   2.999   4.798   0.969
 8120SOL    HW225260   3.071   4.903   1.072
 8121SOL     OW25261   6.879   4.793   2.315
 8121SOL    HW125262   6.972   4.756   2.318
 8121SOL    HW225263   6.847   4.811   2.409
 8122SOL     OW25264   0.415   4.885   3.809
 8122SOL    HW125265   0.471   4.918   3.733
 8122SOL    HW225266   0.386   4.791   3.790
 8123SOL     OW25267   6.920   1.907   6.688
 8123SOL    HW125268   6.877   1.985   6.642
 8123SOL    HW225269   6.932   1.928   6.785
 8124SOL     OW25270   5.381   6.414   1.814
 8124SOL    HW125271   5.453   6.402   1.883
 8124SOL    HW225272   5.391   6.345   1.742
 8125SOL     OW25273   1.389   1.606   2.973
 8125SOL    HW125274   1.370   1.702   2.993
 8125SOL    HW225275   1.404   1.595   2.875
 8126SOL     OW25276   4.739   4.166   2.916
 8126SOL    HW125277   4.798   4.085   2.922
 8126SOL    HW225278   4.794   4.245   2.889
 8127SOL     OW25279   2.811   4.734   6.586
 8127SOL    HW125280   2.720   4.734   6.544
 8127SOL    HW225281   2.872   4.677   6.531
 8128SOL     OW25282   2.935   2.136   2.261
 8128SOL    HW125283   2.924   2.194   2.180
 8128SOL    HW225284   3.029   2.141   2.294
 8129SOL     OW25285   3.891   1.157   6.256
 8129SOL    HW125286   3.851   1.074   6.217
 8129SOL    HW225287   3.955   1.198   6.191
 8130SOL     OW25288   0.354   3.856   6.790
 8130SOL    HW125289   0.438   3.909   6.804
 8130SOL    HW225290   0.346   3.831   6.694
 8131SOL     OW25291   2.590   1.935   1.396
 8131SOL    HW125292   2.536   2.016   1.420
 8131SOL    HW225293   2.615   1.939   1.299
 8132SOL     OW25294   5.939   0.046   6.007
 8132SOL    HW125295   6.036   0.022   6.012
 8132SOL    HW225296   5.924   0.134   6.052
 8133SOL     OW25297   3.404   5.967   1.282
 8133SOL    HW125298   3.343   5.959   1.361
 8133SOL    HW225299   3.470   5.892   1.284
 8134SOL     OW25300   6.729   2.718   5.750
 8134SOL    HW125301   6.672   2.800   5.741
 8134SOL    HW225302   6.819   2.735   5.709
 8135SOL     OW25303   3.233   6.528   1.393
 8135SOL    HW125304   3.150   6.577   1.368
 8135SOL    HW225305   3.280   6.497   1.310
 8136SOL     OW25306   4.654   5.676   3.115
 8136SOL    HW125307   4.568   5.699   3.161
 8136SOL    HW225308   4.693   5.594   3.157
 8137SOL     OW25309   3.565   1.607   5.196
 8137SOL    HW125310   3.589   1.690   5.247
 8137SOL    HW225311   3.641   1.543   5.198
 8138SOL     OW25312   4.897   0.694   0.706
 8138SOL    HW125313   4.920   0.781   0.750
 8138SOL    HW225314   4.979   0.637   0.700
 8139SOL     OW25315   0.498   1.331   2.519
 8139SOL    HW125316   0.427   1.280   2.566
 8139SOL    HW225317   0.509   1.296   2.426
 8140SOL     OW25318   5.608   0.672   6.959
 8140SOL    HW125319   5.663   0.665   0.019
 8140SOL    HW225320   5.527   0.613   6.968
 8141SOL     OW25321   4.355   6.370   4.559
 8141SOL    HW125322   4.440   6.334   4.595
 8141SOL    HW225323   4.365   6.468   4.542
 8142SOL     OW25324   0.187   5.389   0.165
 8142SOL    HW125325   0.283   5.417   0.160
 8142SOL    HW225326   0.182   5.289   0.171
 8143SOL     OW25327   5.606   4.418   1.078
 8143SOL    HW125328   5.673   4.486   1.049
 8143SOL    HW225329   5.538   4.406   1.006
 8144SOL     OW25330   6.039   5.936   6.428
 8144SOL    HW125331   5.955   5.940   6.482
 8144SOL    HW225332   6.099   6.013   6.453
 8145SOL     OW25333   5.616   5.987   1.843
 8145SOL    HW125334   5.663   5.915   1.791
 8145SOL    HW225335   5.652   5.990   1.936
 8146SOL     OW25336   3.771   0.817   4.511
 8146SOL    HW125337   3.794   0.859   4.599
 8146SOL    HW225338   3.848   0.763   4.478
 8147SOL     OW25339   5.903   2.038   1.878
 8147SOL    HW125340   5.864   1.948   1.895
 8147SOL    HW225341   5.984   2.051   1.934
 8148SOL     OW25342   5.033   4.341   0.795
 8148SOL    HW125343   5.060   4.434   0.820
 8148SOL    HW225344   4.994   4.295   0.875
 8149SOL     OW25345   2.900   6.186   2.067
 8149SOL    HW125346   2.850   6.272   2.053
 8149SOL    HW225347   2.983   6.205   2.119
 8150SOL     OW25348   1.859   4.229   0.521
 8150SOL    HW125349   1.853   4.182   0.433
 8150SOL    HW225350   1.914   4.175   0.584
 8151SOL     OW25351   6.387   2.374   1.240
 8151SOL    HW125352   6.348   2.447   1.297
 8151SOL    HW225353   6.324   2.296   1.239
 8152SOL     OW25354   0.034   1.646   2.849
 8152SOL    HW125355   0.093   1.707   2.902
 8152SOL    HW225356   0.018   1.686   2.759
 8153SOL     OW25357   2.072   0.129   3.944
 8153SOL    HW125358   2.103   0.196   3.878
 8153SOL    HW225359   2.040   0.047   3.896
 8154SOL     OW25360   3.226   4.852   2.431
 8154SOL    HW125361   3.220   4.863   2.332
 8154SOL    HW225362   3.272   4.931   2.471
 8155SOL     OW25363   1.742   3.506   2.199
 8155SOL    HW125364   1.829   3.513   2.151
 8155SOL    HW225365   1.751   3.442   2.275
 8156SOL     OW25366   5.198   6.903   0.574
 8156SOL    HW125367   5.280   6.883   0.521
 8156SOL    HW225368   5.224   6.932   0.667
 8157SOL     OW25369   0.102   5.109   6.711
 8157SOL    HW125370   0.161   5.157   6.646
 8157SOL    HW225371   0.152   5.092   6.795
 8158SOL     OW25372   5.156   4.961   0.871
 8158SOL    HW125373   5.094   4.900   0.920
 8158SOL    HW225374   5.230   4.908   0.830
 8159SOL     OW25375   2.995   6.096   2.585
 8159SOL    HW125376   3.002   6.000   2.611
 8159SOL    HW225377   3.086   6.137   2.581
 8160SOL     OW25378   5.120   1.228   3.009
 8160SOL    HW125379   5.096   1.131   3.008
 8160SOL    HW225380   5.080   1.270   3.090
 8161SOL     OW25381   5.154   1.807   6.348
 8161SOL    HW125382   5.071   1.781   6.299
 8161SOL    HW225383   5.183   1.733   6.408
 8162SOL     OW25384   6.092   6.655   5.881
 8162SOL    HW125385   6.111   6.577   5.941
 8162SOL    HW225386   6.172   6.675   5.826
 8163SOL     OW25387   2.494   4.188   5.342
 8163SOL    HW125388   2.460   4.118   5.279
 8163SOL    HW225389   2.418   4.245   5.373
 8164SOL     OW25390   5.765   3.656   0.831
 8164SOL    HW125391   5.671   3.666   0.865
 8164SOL    HW225392   5.771   3.572   0.777
 8165SOL     OW25393   0.969   4.598   6.817
 8165SOL    HW125394   1.013   4.630   6.901
 8165SOL    HW225395   1.010   4.643   6.738
 8166SOL     OW25396   1.716   0.555   1.982
 8166SOL    HW125397   1.618   0.540   1.974
 8166SOL    HW225398   1.755   0.491   2.049
 8167SOL     OW25399   6.405   6.992   4.723
 8167SOL    HW125400   6.364   0.012   4.804
 8167SOL    HW225401   6.422   6.896   4.743
 8168SOL     OW25402   2.613   1.457   3.911
 8168SOL    HW125403   2.658   1.542   3.938
 8168SOL    HW225404   2.515   1.464   3.931
 8169SOL     OW25405   4.785   2.674   1.510
 8169SOL    HW125406   4.761   2.581   1.537
 8169SOL    HW225407   4.791   2.679   1.410
 8170SOL     OW25408   1.708   5.435   2.344
 8170SOL    HW125409   1.666   5.347   2.367
 8170SOL    HW225410   1.682   5.460   2.250
 8171SOL     OW25411   1.377   1.112   0.311
 8171SOL    HW125412   1.287   1.108   0.355
 8171SOL    HW225413   1.434   1.180   0.357
 8172SOL     OW25414   0.975   1.317   1.950
 8172SOL    HW125415   0.998   1.229   1.908
 8172SOL    HW225416   1.012   1.391   1.893
 8173SOL     OW25417   3.937   0.897   1.358
 8173SOL    HW125418   3.898   0.989   1.357
 8173SOL    HW225419   3.864   0.831   1.376
 8174SOL     OW25420   6.033   2.175   0.500
 8174SOL    HW125421   6.002   2.238   0.571
 8174SOL    HW225422   6.133   2.180   0.492
 8175SOL     OW25423   7.018   3.343   6.426
 8175SOL    HW125424   0.020   3.328   6.522
 8175SOL    HW225425   6.944   3.411   6.422
 8176SOL     OW25426   3.165   5.274   2.248
 8176SOL    HW125427   3.097   5.210   2.284
 8176SOL    HW225428   3.252   5.226   2.234
 8177SOL     OW25429   2.544   6.114   3.755
 8177SOL    HW125430   2.630   6.078   3.718
 8177SOL    HW225431   2.497   6.168   3.685
 8178SOL     OW25432   2.988   5.924   6.358
 8178SOL    HW125433   2.971   5.969   6.445
 8178SOL    HW225434   2.901   5.908   6.311
 8179SOL     OW25435   4.179   2.503   6.048
 8179SOL    HW125436   4.114   2.573   6.077
 8179SOL    HW225437   4.261   2.547   6.010
 8180SOL     OW25438   6.560   0.182   4.667
 8180SOL    HW125439   6.510   0.100   4.696
 8180SOL    HW225440   6.654   0.158   4.645
 8181SOL     OW25441   2.338   1.778   1.891
 8181SOL    HW125442   2.244   1.759   1.863
 8181SOL    HW225443   2.400   1.766   1.813
 8182SOL     OW25444   3.578   2.573   6.554
 8182SOL    HW125445   3.644   2.636   6.514
 8182SOL    HW225446   3.577   2.488   6.501
 8183SOL     OW25447   0.353   2.553   4.376
 8183SOL    HW125448   0.377   2.461   4.408
 8183SOL    HW225449   0.433   2.612   4.383
 8184SOL     OW25450   5.342   2.115   5.713
 8184SOL    HW125451   5.416   2.178   5.689
 8184SOL    HW225452   5.381   2.028   5.741
 8185SOL     OW25453   2.658   6.202   0.365
 8185SOL    HW125454   2.628   6.165   0.278
 8185SOL    HW225455   2.590   6.266   0.400
 8186SOL     OW25456   3.241   5.538   6.508
 8186SOL    HW125457   3.171   5.522   6.439
 8186SOL    HW225458   3.199   5.538   6.599
 8187SOL     OW25459   1.625   1.748   5.590
 8187SOL    HW125460   1.699   1.681   5.595
 8187SOL    HW225461   1.593   1.769   5.683
 8188SOL     OW25462   5.252   2.580   2.019
 8188SOL    HW125463   5.292   2.515   1.954
 8188SOL    HW225464   5.153   2.585   2.004
 8189SOL     OW25465   4.848   4.902   2.635
 8189SOL    HW125466   4.894   4.895   2.546
 8189SOL    HW225467   4.752   4.875   2.625
 8190SOL     OW25468   4.392   5.301   4.547
 8190SOL    HW125469   4.425   5.364   4.617
 8190SOL    HW225470   4.294   5.316   4.532
 8191SOL     OW25471   3.110   5.582   3.415
 8191SOL    HW125472   3.209   5.570   3.411
 8191SOL    HW225473   3.068   5.500   3.453
 8192SOL     OW25474   3.527   5.200   0.377
 8192SOL    HW125475   3.553   5.248   0.461
 8192SOL    HW225476   3.498   5.268   0.309
 8193SOL     OW25477   6.812   6.978   4.144
 8193SOL    HW125478   6.818   6.885   4.180
 8193SOL    HW225479   6.731   7.023   4.182
 8194SOL     OW25480   6.417   2.380   0.406
 8194SOL    HW125481   6.335   2.396   0.352
 8194SOL    HW225482   6.490   2.343   0.348
 8195SOL     OW25483   0.689   0.156   0.731
 8195SOL    HW125484   0.709   0.251   0.757
 8195SOL    HW225485   0.732   0.135   0.644
 8196SOL     OW25486   3.378   0.238   5.566
 8196SOL    HW125487   3.384   0.332   5.532
 8196SOL    HW225488   3.443   0.181   5.516
 8197SOL     OW25489   4.112   1.161   6.056
 8197SOL    HW125490   4.098   1.085   5.992
 8197SOL    HW225491   4.084   1.247   6.011
 8198SOL     OW25492   2.747   6.053   2.930
 8198SOL    HW125493   2.779   6.119   2.862
 8198SOL    HW225494   2.821   5.991   2.954
 8199SOL     OW25495   0.150   2.915   6.589
 8199SOL    HW125496   0.237   2.962   6.590
 8199SOL    HW225497   0.140   2.865   6.502
 8200SOL     OW25498   4.423   3.548   1.328
 8200SOL    HW125499   4.378   3.463   1.301
 8200SOL    HW225500   4.361   3.602   1.384
 8201SOL     OW25501   5.287   0.879   4.514
 8201SOL    HW125502   5.327   0.790   4.534
 8201SOL    HW225503   5.354   0.951   4.532
 8202SOL     OW25504   0.514   5.453   4.201
 8202SOL    HW125505   0.522   5.357   4.173
 8202SOL    HW225506   0.557   5.512   4.133
 8203SOL     OW25507   4.858   2.577   0.036
 8203SOL    HW125508   4.927   2.504   0.034
 8203SOL    HW225509   4.767   2.536   0.023
 8204SOL     OW25510   2.956   5.679   0.729
 8204SOL    HW125511   3.035   5.677   0.667
 8204SOL    HW225512   2.945   5.590   0.772
 8205SOL     OW25513   6.751   4.696   1.309
 8205SOL    HW125514   6.770   4.791   1.334
 8205SOL    HW225515   6.784   4.677   1.217
 8206SOL     OW25516   3.648   2.959   5.967
 8206SOL    HW125517   3.605   3.036   5.920
 8206SOL    HW225518   3.581   2.885   5.978
 8207SOL     OW25519   3.772   4.263   5.333
 8207SOL    HW125520   3.686   4.276   5.283
 8207SOL    HW225521   3.753   4.264   5.432
 8208SOL     OW25522   2.577   6.228   1.590
 8208SOL    HW125523   2.480   6.242   1.608
 8208SOL    HW225524   2.630   6.259   1.669
 8209SOL     OW25525   0.517   2.272   5.189
 8209SOL    HW125526   0.452   2.230   5.253
 8209SOL    HW225527   0.475   2.280   5.099
 8210SOL     OW25528   2.746   0.746   1.719
 8210SOL    HW125529   2.706   0.669   1.670
 8210SOL    HW225530   2.732   0.830   1.667
 8211SOL     OW25531   3.584   3.850   3.740
 8211SOL    HW125532   3.604   3.941   3.706
 8211SOL    HW225533   3.628   3.836   3.828
 8212SOL     OW25534   3.124   1.273   1.337
 8212SOL    HW125535   3.132   1.196   1.274
 8212SOL    HW225536   3.038   1.266   1.389
 8213SOL     OW25537   5.467   4.431   2.657
 8213SOL    HW125538   5.368   4.442   2.667
 8213SOL    HW225539   5.487   4.376   2.576
 8214SOL     OW25540   1.667   5.593   3.760
 8214SOL    HW125541   1.713   5.520   3.710
 8214SOL    HW225542   1.694   5.590   3.856
 8215SOL     OW25543   4.382   4.960   6.810
 8215SOL    HW125544   4.417   5.054   6.807
 8215SOL    HW225545   4.359   4.930   6.717
 8216SOL     OW25546   4.712   0.068   3.248
 8216SOL    HW125547   4.770   7.015   3.222
 8216SOL    HW225548   4.662   0.045   3.332
 8217SOL     OW25549   2.153   3.956   2.296
 8217SOL    HW125550   2.134   3.900   2.215
 8217SOL    HW225551   2.218   4.028   2.272
 8218SOL     OW25552   1.724   0.032   4.078
 8218SOL    HW125553   1.748   0.100   4.009
 8218SOL    HW225554   1.724   6.965   4.036
 8219SOL     OW25555   3.939   3.880   1.344
 8219SOL    HW125556   3.878   3.803   1.325
 8219SOL    HW225557   3.935   3.945   1.269
 8220SOL     OW25558   3.275   4.355   5.318
 8220SOL    HW125559   3.284   4.455   5.321
 8220SOL    HW225560   3.179   4.330   5.324
 8221SOL     OW25561   6.618   4.339   3.035
 8221SOL    HW125562   6.597   4.272   3.106
 8221SOL    HW225563   6.688   4.403   3.068
 8222SOL     OW25564   5.214   2.401   0.896
 8222SOL    HW125565   5.167   2.490   0.897
 8222SOL    HW225566   5.308   2.413   0.925
 8223SOL     OW25567   0.041   4.616   5.975
 8223SOL    HW125568   0.110   4.570   5.920
 8223SOL    HW225569   6.982   4.628   5.921
 8224SOL     OW25570   4.892   1.936   1.654
 8224SOL    HW125571   4.809   1.991   1.663
 8224SOL    HW225572   4.969   1.995   1.634
 8225SOL     OW25573   3.581   1.038   0.937
 8225SOL    HW125574   3.503   0.989   0.898
 8225SOL    HW225575   3.612   1.107   0.872
 8226SOL     OW25576   3.180   0.443   1.208
 8226SOL    HW125577   3.199   0.354   1.166
 8226SOL    HW225578   3.201   0.438   1.306
 8227SOL     OW25579   0.320   1.496   2.340
 8227SOL    HW125580   0.370   1.421   2.386
 8227SOL    HW225581   0.376   1.531   2.265
 8228SOL     OW25582   0.417   1.685   5.941
 8228SOL    HW125583   0.436   1.587   5.933
 8228SOL    HW225584   0.421   1.727   5.850
 8229SOL     OW25585   4.423   4.048   0.747
 8229SOL    HW125586   4.515   4.081   0.726
 8229SOL    HW225587   4.356   4.119   0.726
 8230SOL     OW25588   3.818   6.466   5.620
 8230SOL    HW125589   3.771   6.548   5.652
 8230SOL    HW225590   3.916   6.483   5.617
 8231SOL     OW25591   3.529   2.000   2.099
 8231SOL    HW125592   3.449   2.009   2.040
 8231SOL    HW225593   3.592   2.076   2.084
 8232SOL     OW25594   5.241   1.962   2.579
 8232SOL    HW125595   5.239   1.897   2.656
 8232SOL    HW225596   5.153   1.961   2.532
 8233SOL     OW25597   1.294   7.003   6.223
 8233SOL    HW125598   1.313   0.058   6.281
 8233SOL    HW225599   1.327   7.021   6.130
 8234SOL     OW25600   2.981   3.597   0.068
 8234SOL    HW125601   3.053   3.549   0.019
 8234SOL    HW225602   2.905   3.617   0.006
 8235SOL     OW25603   0.591   3.721   0.145
 8235SOL    HW125604   0.537   3.681   0.071
 8235SOL    HW225605   0.657   3.786   0.108
 8236SOL     OW25606   0.571   5.466   6.220
 8236SOL    HW125607   0.487   5.463   6.166
 8236SOL    HW225608   0.618   5.553   6.203
 8237SOL     OW25609   4.849   5.967   6.165
 8237SOL    HW125610   4.759   5.973   6.207
 8237SOL    HW225611   4.903   5.895   6.210
 8238SOL     OW25612   0.350   5.807   0.090
 8238SOL    HW125613   0.392   5.738   0.149
 8238SOL    HW225614   0.348   5.895   0.137
 8239SOL     OW25615   0.663   0.794   5.139
 8239SOL    HW125616   0.672   0.708   5.190
 8239SOL    HW225617   0.743   0.851   5.157
 8240SOL     OW25618   2.975   3.589   3.421
 8240SOL    HW125619   3.048   3.625   3.364
 8240SOL    HW225620   2.962   3.648   3.501
 8241SOL     OW25621   2.131   5.162   6.264
 8241SOL    HW125622   2.223   5.173   6.301
 8241SOL    HW225623   2.137   5.127   6.171
 8242SOL     OW25624   1.095   3.627   4.873
 8242SOL    HW125625   1.076   3.703   4.934
 8242SOL    HW225626   1.172   3.650   4.813
 8243SOL     OW25627   0.261   4.352   0.174
 8243SOL    HW125628   0.296   4.263   0.204
 8243SOL    HW225629   0.266   4.417   0.250
 8244SOL     OW25630   0.399   0.263   3.807
 8244SOL    HW125631   0.405   0.164   3.796
 8244SOL    HW225632   0.354   0.303   3.727
 8245SOL     OW25633   3.581   1.436   3.434
 8245SOL    HW125634   3.576   1.499   3.356
 8245SOL    HW225635   3.647   1.471   3.501
 8246SOL     OW25636   0.338   4.468   6.506
 8246SOL    HW125637   0.244   4.501   6.518
 8246SOL    HW225638   0.402   4.540   6.533
 8247SOL     OW25639   2.620   6.245   3.978
 8247SOL    HW125640   2.591   6.216   3.887
 8247SOL    HW225641   2.613   6.168   4.041
 8248SOL     OW25642   0.715   5.449   5.129
 8248SOL    HW125643   0.650   5.456   5.053
 8248SOL    HW225644   0.678   5.498   5.209
 8249SOL     OW25645   2.512   1.095   5.344
 8249SOL    HW125646   2.452   1.154   5.291
 8249SOL    HW225647   2.555   1.149   5.418
 8250SOL     OW25648   3.226   2.179   1.150
 8250SOL    HW125649   3.298   2.248   1.139
 8250SOL    HW225650   3.264   2.089   1.127
 8251SOL     OW25651   6.155   1.053   4.052
 8251SOL    HW125652   6.164   0.954   4.061
 8251SOL    HW225653   6.063   1.081   4.081
 8252SOL     OW25654   3.430   1.359   0.804
 8252SOL    HW125655   3.375   1.391   0.727
 8252SOL    HW225656   3.500   1.296   0.770
 8253SOL     OW25657   3.877   5.906   6.834
 8253SOL    HW125658   3.818   5.893   6.914
 8253SOL    HW225659   3.869   5.826   6.774
 8254SOL     OW25660   5.616   4.420   6.209
 8254SOL    HW125661   5.648   4.361   6.134
 8254SOL    HW225662   5.694   4.455   6.259
 8255SOL     OW25663   1.119   6.784   6.238
 8255SOL    HW125664   1.166   6.872   6.233
 8255SOL    HW225665   1.044   6.782   6.172
 8256SOL     OW25666   6.502   0.200   3.154
 8256SOL    HW125667   6.549   0.245   3.078
 8256SOL    HW225668   6.486   0.104   3.131
 8257SOL     OW25669   5.887   4.542   4.009
 8257SOL    HW125670   5.789   4.524   4.005
 8257SOL    HW225671   5.920   4.527   4.102
 8258SOL     OW25672   5.419   3.146   1.705
 8258SOL    HW125673   5.502   3.182   1.748
 8258SOL    HW225674   5.340   3.167   1.762
 8259SOL     OW25675   3.841   1.872   5.158
 8259SOL    HW125676   3.887   1.786   5.136
 8259SOL    HW225677   3.757   1.853   5.209
 8260SOL     OW25678   2.103   6.005   1.597
 8260SOL    HW125679   2.070   6.068   1.667
 8260SOL    HW225680   2.148   6.056   1.524
 8261SOL     OW25681   5.121   6.778   3.377
 8261SOL    HW125682   5.209   6.741   3.406
 8261SOL    HW225683   5.048   6.713   3.397
 8262SOL     OW25684   0.789   4.418   0.889
 8262SOL    HW125685   0.804   4.498   0.831
 8262SOL    HW225686   0.798   4.335   0.835
 8263SOL     OW25687   6.862   2.930   6.764
 8263SOL    HW125688   6.909   3.000   6.710
 8263SOL    HW225689   6.890   2.937   6.859
 8264SOL     OW25690   1.473   0.276   1.478
 8264SOL    HW125691   1.411   0.204   1.508
 8264SOL    HW225692   1.496   0.334   1.557
 8265SOL     OW25693   4.876   0.506   1.665
 8265SOL    HW125694   4.838   0.525   1.756
 8265SOL    HW225695   4.879   0.590   1.611
 8266SOL     OW25696   3.210   0.120   5.161
 8266SOL    HW125697   3.170   0.174   5.235
 8266SOL    HW225698   3.161   0.033   5.153
 8267SOL     OW25699   1.888   4.951   1.533
 8267SOL    HW125700   1.835   4.966   1.449
 8267SOL    HW225701   1.952   5.026   1.545
 8268SOL     OW25702   2.957   4.922   5.570
 8268SOL    HW125703   2.906   4.837   5.553
 8268SOL    HW225704   3.042   4.920   5.518
 8269SOL     OW25705   4.746   2.389   3.180
 8269SOL    HW125706   4.690   2.343   3.111
 8269SOL    HW225707   4.771   2.480   3.147
 8270SOL     OW25708   3.018   5.543   5.433
 8270SOL    HW125709   3.023   5.529   5.334
 8270SOL    HW225710   3.101   5.588   5.464
 8271SOL     OW25711   6.933   6.566   4.144
 8271SOL    HW125712   6.889   6.635   4.203
 8271SOL    HW225713   7.017   6.534   4.189
 8272SOL     OW25714   0.698   1.055   2.367
 8272SOL    HW125715   0.705   0.984   2.297
 8272SOL    HW225716   0.612   1.106   2.354
 8273SOL     OW25717   2.936   1.374   0.060
 8273SOL    HW125718   2.937   1.323   6.998
 8273SOL    HW225719   2.879   1.456   0.049
 8274SOL     OW25720   4.227   4.413   6.323
 8274SOL    HW125721   4.193   4.321   6.339
 8274SOL    HW225722   4.326   4.410   6.311
 8275SOL     OW25723   5.477   0.382   4.711
 8275SOL    HW125724   5.545   0.431   4.767
 8275SOL    HW225725   5.525   0.327   4.643
 8276SOL     OW25726   6.414   2.123   5.585
 8276SOL    HW125727   6.396   2.182   5.507
 8276SOL    HW225728   6.380   2.167   5.669
 8277SOL     OW25729   2.272   6.286   5.193
 8277SOL    HW125730   2.184   6.316   5.229
 8277SOL    HW225731   2.265   6.190   5.166
 8278SOL     OW25732   2.835   1.140   6.179
 8278SOL    HW125733   2.809   1.051   6.216
 8278SOL    HW225734   2.754   1.188   6.146
 8279SOL     OW25735   5.819   5.501   6.133
 8279SOL    HW125736   5.855   5.560   6.206
 8279SOL    HW225737   5.893   5.443   6.098
 8280SOL     OW25738   4.816   2.287   0.483
 8280SOL    HW125739   4.732   2.272   0.535
 8280SOL    HW225740   4.819   2.382   0.451
 8281SOL     OW25741   2.140   4.586   1.280
 8281SOL    HW125742   2.224   4.627   1.317
 8281SOL    HW225743   2.092   4.537   1.352
 8282SOL     OW25744   2.769   3.358   0.472
 8282SOL    HW125745   2.692   3.295   0.483
 8282SOL    HW225746   2.824   3.331   0.393
 8283SOL     OW25747   0.821   4.430   3.745
 8283SOL    HW125748   0.754   4.420   3.818
 8283SOL    HW225749   0.776   4.423   3.656
 8284SOL     OW25750   1.257   3.679   2.515
 8284SOL    HW125751   1.289   3.718   2.428
 8284SOL    HW225752   1.252   3.580   2.508
 8285SOL     OW25753   3.261   3.001   5.383
 8285SOL    HW125754   3.271   2.939   5.461
 8285SOL    HW225755   3.207   2.956   5.312
 8286SOL     OW25756   5.519   1.748   5.219
 8286SOL    HW125757   5.587   1.721   5.151
 8286SOL    HW225758   5.450   1.806   5.175
 8287SOL     OW25759   1.502   6.578   3.591
 8287SOL    HW125760   1.530   6.651   3.529
 8287SOL    HW225761   1.408   6.594   3.620
 8288SOL     OW25762   1.356   2.291   2.554
 8288SOL    HW125763   1.400   2.329   2.472
 8288SOL    HW225764   1.361   2.191   2.552
 8289SOL     OW25765   5.994   0.593   6.302
 8289SOL    HW125766   6.065   0.523   6.305
 8289SOL    HW225767   6.027   0.671   6.249
 8290SOL     OW25768   4.145   2.426   1.612
 8290SOL    HW125769   4.057   2.429   1.564
 8290SOL    HW225770   4.214   2.473   1.557
 8291SOL     OW25771   5.611   6.217   6.722
 8291SOL    HW125772   5.690   6.168   6.759
 8291SOL    HW225773   5.544   6.152   6.686
 8292SOL     OW25774   1.901   5.565   5.754
 8292SOL    HW125775   1.999   5.562   5.776
 8292SOL    HW225776   1.887   5.535   5.660
 8293SOL     OW25777   1.367   3.873   1.845
 8293SOL    HW125778   1.398   3.795   1.790
 8293SOL    HW225779   1.322   3.940   1.785
 8294SOL     OW25780   6.101   3.208   4.984
 8294SOL    HW125781   6.035   3.251   4.922
 8294SOL    HW225782   6.089   3.245   5.076
 8295SOL     OW25783   5.374   3.535   2.660
 8295SOL    HW125784   5.301   3.601   2.676
 8295SOL    HW225785   5.447   3.547   2.728
 8296SOL     OW25786   3.929   5.030   6.843
 8296SOL    HW125787   3.886   5.047   6.755
 8296SOL    HW225788   3.860   5.032   6.915
 8297SOL     OW25789   6.579   3.453   2.195
 8297SOL    HW125790   6.520   3.381   2.232
 8297SOL    HW225791   6.633   3.416   2.120
 8298SOL     OW25792   0.053   0.257   6.800
 8298SOL    HW125793   0.010   0.290   6.716
 8298SOL    HW225794   0.078   0.335   6.857
 8299SOL     OW25795   1.024   3.051   0.909
 8299SOL    HW125796   0.995   3.031   1.003
 8299SOL    HW225797   0.944   3.066   0.852
 8300SOL     OW25798   6.123   0.065   4.622
 8300SOL    HW125799   6.196   0.045   4.686
 8300SOL    HW225800   6.085   0.156   4.641
 8301SOL     OW25801   4.579   0.266   6.750
 8301SOL    HW125802   4.584   0.175   6.711
 8301SOL    HW225803   4.490   0.307   6.730
 8302SOL     OW25804   4.157   6.865   5.437
 8302SOL    HW125805   4.137   6.918   5.354
 8302SOL    HW225806   4.158   6.927   5.515
 8303SOL     OW25807   0.123   0.193   3.177
 8303SOL    HW125808   0.076   0.245   3.106
 8303SOL    HW225809   0.093   0.098   3.173
 8304SOL     OW25810   5.752   5.103   2.310
 8304SOL    HW125811   5.722   5.143   2.397
 8304SOL    HW225812   5.806   5.021   2.328
 8305SOL     OW25813   3.938   5.193   4.004
 8305SOL    HW125814   4.031   5.180   3.970
 8305SOL    HW225815   3.910   5.287   3.986
 8306SOL     OW25816   6.508   1.349   2.417
 8306SOL    HW125817   6.444   1.409   2.465
 8306SOL    HW225818   6.530   1.388   2.328
 8307SOL     OW25819   3.167   4.881   1.476
 8307SOL    HW125820   3.239   4.812   1.468
 8307SOL    HW225821   3.077   4.836   1.475
 8308SOL     OW25822   2.052   4.701   0.233
 8308SOL    HW125823   2.051   4.622   0.295
 8308SOL    HW225824   2.099   4.777   0.277
 8309SOL     OW25825   6.398   4.923   3.679
 8309SOL    HW125826   6.299   4.929   3.672
 8309SOL    HW225827   6.437   4.902   3.590
 8310SOL     OW25828   1.095   5.371   0.503
 8310SOL    HW125829   1.022   5.438   0.516
 8310SOL    HW225830   1.180   5.417   0.477
 8311SOL     OW25831   5.138   0.651   4.638
 8311SOL    HW125832   5.151   0.585   4.712
 8311SOL    HW225833   5.151   0.744   4.673
 8312SOL     OW25834   5.346   1.102   0.868
 8312SOL    HW125835   5.367   1.006   0.853
 8312SOL    HW225836   5.266   1.127   0.814
 8313SOL     OW25837   4.478   6.868   5.630
 8313SOL    HW125838   4.382   6.890   5.646
 8313SOL    HW225839   4.511   6.917   5.549
 8314SOL     OW25840   5.957   6.833   6.662
 8314SOL    HW125841   6.000   6.743   6.677
 8314SOL    HW225842   5.906   6.859   6.744
 8315SOL     OW25843   3.756   3.995   2.719
 8315SOL    HW125844   3.773   4.005   2.620
 8315SOL    HW225845   3.828   3.938   2.759
 8316SOL     OW25846   2.080   3.382   0.011
 8316SOL    HW125847   2.106   3.303   0.066
 8316SOL    HW225848   1.998   3.361   6.982
 8317SOL     OW25849   3.080   1.833   4.133
 8317SOL    HW125850   3.150   1.903   4.148
 8317SOL    HW225851   2.994   1.877   4.106
 8318SOL     OW25852   4.826   1.005   5.746
 8318SOL    HW125853   4.769   0.946   5.689
 8318SOL    HW225854   4.783   1.095   5.753
 8319SOL     OW25855   2.003   6.822   6.803
 8319SOL    HW125856   1.927   6.873   6.843
 8319SOL    HW225857   2.087   6.844   6.852
 8320SOL     OW25858   3.673   3.633   3.583
 8320SOL    HW125859   3.583   3.602   3.551
 8320SOL    HW225860   3.664   3.723   3.626
 8321SOL     OW25861   0.308   0.228   6.355
 8321SOL    HW125862   0.331   0.146   6.304
 8321SOL    HW225863   0.218   0.261   6.326
 8322SOL     OW25864   0.393   1.265   0.318
 8322SOL    HW125865   0.384   1.172   0.284
 8322SOL    HW225866   0.424   1.325   0.243
 8323SOL     OW25867   3.662   4.553   1.414
 8323SOL    HW125868   3.719   4.604   1.350
 8323SOL    HW225869   3.587   4.510   1.365
 8324SOL     OW25870   5.859   0.535   0.321
 8324SOL    HW125871   5.860   0.515   0.419
 8324SOL    HW225872   5.885   0.630   0.305
 8325SOL     OW25873   1.130   4.184   5.257
 8325SOL    HW125874   1.092   4.168   5.348
 8325SOL    HW225875   1.139   4.096   5.209
 8326SOL     OW25876   4.239   3.553   6.952
 8326SOL    HW125877   4.186   3.588   0.005
 8326SOL    HW225878   4.224   3.455   6.943
 8327SOL     OW25879   0.697   0.220   5.606
 8327SOL    HW125880   0.617   0.168   5.577
 8327SOL    HW225881   0.762   0.228   5.530
 8328SOL     OW25882   1.713   6.447   5.950
 8328SOL    HW125883   1.694   6.379   6.021
 8328SOL    HW225884   1.809   6.475   5.955
 8329SOL     OW25885   0.068   2.501   4.801
 8329SOL    HW125886   7.024   2.440   4.761
 8329SOL    HW225887   0.097   2.466   4.890
 8330SOL     OW25888   3.557   1.436   6.710
 8330SOL    HW125889   3.500   1.359   6.738
 8330SOL    HW225890   3.573   1.431   6.611
 8331SOL     OW25891   2.759   0.866   1.023
 8331SOL    HW125892   2.847   0.889   1.065
 8331SOL    HW225893   2.694   0.839   1.093
 8332SOL     OW25894   5.468   5.634   2.039
 8332SOL    HW125895   5.463   5.614   2.137
 8332SOL    HW225896   5.548   5.691   2.020
 8333SOL     OW25897   2.206   4.885   0.410
 8333SOL    HW125898   2.265   4.891   0.491
 8333SOL    HW225899   2.160   4.973   0.395
 8334SOL     OW25900   2.626   2.663   5.948
 8334SOL    HW125901   2.544   2.607   5.937
 8334SOL    HW225902   2.682   2.626   6.022
 8335SOL     OW25903   4.232   2.797   6.979
 8335SOL    HW125904   4.144   2.757   7.006
 8335SOL    HW225905   4.245   2.786   6.881
 8336SOL     OW25906   1.227   3.750   3.475
 8336SOL    HW125907   1.304   3.774   3.415
 8336SOL    HW225908   1.220   3.818   3.548
 8337SOL     OW25909   0.783   6.964   4.316
 8337SOL    HW125910   0.740   6.911   4.243
 8337SOL    HW225911   0.874   6.928   4.334
 8338SOL     OW25912   3.821   5.922   1.891
 8338SOL    HW125913   3.783   5.890   1.803
 8338SOL    HW225914   3.920   5.915   1.889
 8339SOL     OW25915   0.220   0.834   1.930
 8339SOL    HW125916   0.158   0.758   1.950
 8339SOL    HW225917   0.179   0.920   1.961
 8340SOL     OW25918   5.130   4.055   0.303
 8340SOL    HW125919   5.034   4.076   0.286
 8340SOL    HW225920   5.158   3.978   0.245
 8341SOL     OW25921   3.616   0.514   0.159
 8341SOL    HW125922   3.608   0.423   0.119
 8341SOL    HW225923   3.644   0.579   0.089
 8342SOL     OW25924   3.830   0.109   0.342
 8342SOL    HW125925   3.883   0.024   0.340
 8342SOL    HW225926   3.736   0.091   0.315
 8343SOL     OW25927   6.125   5.654   3.811
 8343SOL    HW125928   6.075   5.633   3.895
 8343SOL    HW225929   6.179   5.737   3.825
 8344SOL     OW25930   6.760   4.656   4.667
 8344SOL    HW125931   6.837   4.719   4.659
 8344SOL    HW225932   6.750   4.603   4.583
 8345SOL     OW25933   4.826   1.956   3.742
 8345SOL    HW125934   4.754   2.011   3.784
 8345SOL    HW225935   4.916   1.993   3.766
 8346SOL     OW25936   3.475   3.271   6.204
 8346SOL    HW125937   3.563   3.260   6.157
 8346SOL    HW225938   3.435   3.360   6.179
 8347SOL     OW25939   3.545   6.367   6.783
 8347SOL    HW125940   3.559   6.457   6.742
 8347SOL    HW225941   3.507   6.305   6.714
 8348SOL     OW25942   2.466   6.848   1.171
 8348SOL    HW125943   2.495   6.918   1.105
 8348SOL    HW225944   2.387   6.883   1.222
 8349SOL     OW25945   0.921   6.447   1.489
 8349SOL    HW125946   1.001   6.448   1.429
 8349SOL    HW225947   0.920   6.363   1.543
 8350SOL     OW25948   2.732   6.185   6.035
 8350SOL    HW125949   2.827   6.214   6.041
 8350SOL    HW225950   2.678   6.257   5.991
 8351SOL     OW25951   5.725   5.491   3.474
 8351SOL    HW125952   5.660   5.497   3.398
 8351SOL    HW225953   5.760   5.397   3.480
 8352SOL     OW25954   1.770   0.084   3.087
 8352SOL    HW125955   1.806   0.155   3.027
 8352SOL    HW225956   1.757   7.024   3.035
 8353SOL     OW25957   1.071   4.035   1.344
 8353SOL    HW125958   1.161   4.078   1.349
 8353SOL    HW225959   1.030   4.054   1.254
 8354SOL     OW25960   3.666   6.435   3.694
 8354SOL    HW125961   3.697   6.432   3.789
 8354SOL    HW225962   3.644   6.529   3.669
 8355SOL     OW25963   2.170   0.725   5.579
 8355SOL    HW125964   2.087   0.689   5.537
 8355SOL    HW225965   2.205   0.802   5.525
 8356SOL     OW25966   0.569   5.685   1.412
 8356SOL    HW125967   0.568   5.751   1.337
 8356SOL    HW225968   0.592   5.594   1.377
 8357SOL     OW25969   3.844   5.844   5.736
 8357SOL    HW125970   3.795   5.879   5.657
 8357SOL    HW225971   3.797   5.762   5.771
 8358SOL     OW25972   0.674   2.973   4.918
 8358SOL    HW125973   0.718   2.883   4.931
 8358SOL    HW225974   0.626   2.999   5.001
 8359SOL     OW25975   2.153   1.438   4.596
 8359SOL    HW125976   2.208   1.463   4.516
 8359SOL    HW225977   2.113   1.347   4.581
 8360SOL     OW25978   4.699   6.965   1.299
 8360SOL    HW125979   4.663   6.943   1.390
 8360SOL    HW225980   4.637   6.930   1.229
 8361SOL     OW25981   2.952   0.362   6.897
 8361SOL    HW125982   2.997   0.431   6.954
 8361SOL    HW225983   3.014   0.285   6.883
 8362SOL     OW25984   5.564   2.420   1.232
 8362SOL    HW125985   5.562   2.350   1.303
 8362SOL    HW225986   5.506   2.497   1.259
 8363SOL     OW25987   4.857   1.479   0.800
 8363SOL    HW125988   4.850   1.426   0.884
 8363SOL    HW225989   4.773   1.531   0.786
 8364SOL     OW25990   0.569   3.517   4.379
 8364SOL    HW125991   0.639   3.577   4.419
 8364SOL    HW225992   0.609   3.427   4.360
 8365SOL     OW25993   1.637   2.515   2.973
 8365SOL    HW125994   1.665   2.470   3.058
 8365SOL    HW225995   1.642   2.449   2.898
 8366SOL     OW25996   3.934   5.043   0.739
 8366SOL    HW125997   3.998   4.974   0.773
 8366SOL    HW225998   3.968   5.134   0.763
 8367SOL     OW25999   3.524   5.501   5.110
 8367SOL    HW126000   3.537   5.529   5.015
 8367SOL    HW226001   3.593   5.433   5.134
 8368SOL     OW26002   0.926   6.018   0.128
 8368SOL    HW126003   0.952   6.101   0.078
 8368SOL    HW226004   0.920   5.942   0.063
 8369SOL     OW26005   0.649   1.160   6.829
 8369SOL    HW126006   0.631   1.225   6.755
 8369SOL    HW226007   0.602   1.074   6.810
 8370SOL     OW26008   2.417   0.673   6.441
 8370SOL    HW126009   2.361   0.618   6.502
 8370SOL    HW226010   2.513   0.644   6.449
 8371SOL     OW26011   1.986   3.591   6.193
 8371SOL    HW126012   2.010   3.508   6.244
 8371SOL    HW226013   1.984   3.571   6.095
 8372SOL     OW26014   1.587   5.557   1.691
 8372SOL    HW126015   1.612   5.644   1.650
 8372SOL    HW226016   1.639   5.543   1.775
 8373SOL     OW26017   1.787   1.286   4.673
 8373SOL    HW126018   1.751   1.336   4.594
 8373SOL    HW226019   1.734   1.309   4.754
 8374SOL     OW26020   0.178   0.831   4.885
 8374SOL    HW126021   0.154   0.927   4.894
 8374SOL    HW226022   0.130   0.791   4.806
 8375SOL     OW26023   3.901   0.103   6.106
 8375SOL    HW126024   3.812   0.079   6.144
 8375SOL    HW226025   3.960   0.022   6.104
 8376SOL     OW26026   1.455   1.385   3.472
 8376SOL    HW126027   1.438   1.478   3.438
 8376SOL    HW226028   1.512   1.389   3.554
 8377SOL     OW26029   5.827   6.009   0.634
 8377SOL    HW126030   5.733   5.983   0.658
 8377SOL    HW226031   5.875   6.039   0.717
 8378SOL     OW26032   3.862   4.856   3.890
 8378SOL    HW126033   3.951   4.876   3.850
 8378SOL    HW226034   3.846   4.757   3.889
 8379SOL     OW26035   4.652   2.502   2.160
 8379SOL    HW126036   4.684   2.474   2.250
 8379SOL    HW226037   4.556   2.475   2.149
 8380SOL     OW26038   0.094   6.728   6.727
 8380SOL    HW126039   0.022   6.797   6.736
 8380SOL    HW226040   0.144   6.744   6.642
 8381SOL     OW26041   6.972   2.690   3.074
 8381SOL    HW126042   7.024   2.776   3.076
 8381SOL    HW226043   7.009   2.631   3.003
 8382SOL     OW26044   2.644   6.740   0.960
 8382SOL    HW126045   2.658   6.821   0.903
 8382SOL    HW226046   2.629   6.661   0.902
 8383SOL     OW26047   2.578   0.128   5.680
 8383SOL    HW126048   2.585   0.181   5.765
 8383SOL    HW226049   2.667   0.124   5.636
 8384SOL     OW26050   0.155   1.643   0.249
 8384SOL    HW126051   0.111   1.555   0.231
 8384SOL    HW226052   0.254   1.633   0.241
 8385SOL     OW26053   4.310   2.118   0.838
 8385SOL    HW126054   4.377   2.078   0.776
 8385SOL    HW226055   4.273   2.048   0.898
 8386SOL     OW26056   2.171   5.510   1.319
 8386SOL    HW126057   2.161   5.418   1.281
 8386SOL    HW226058   2.240   5.560   1.267
 8387SOL     OW26059   1.591   2.096   1.320
 8387SOL    HW126060   1.665   2.097   1.252
 8387SOL    HW226061   1.592   2.009   1.369
 8388SOL     OW26062   1.438   0.112   0.602
 8388SOL    HW126063   1.338   0.123   0.605
 8388SOL    HW226064   1.460   0.022   0.566
 8389SOL     OW26065   0.604   3.811   4.354
 8389SOL    HW126066   0.578   3.749   4.280
 8389SOL    HW226067   0.569   3.903   4.333
 8390SOL     OW26068   4.078   6.996   6.853
 8390SOL    HW126069   4.121   6.918   6.898
 8390SOL    HW226070   4.062   6.975   6.757
 8391SOL     OW26071   4.679   5.051   1.629
 8391SOL    HW126072   4.647   4.973   1.683
 8391SOL    HW226073   4.652   5.136   1.674
 8392SOL     OW26074   6.839   5.444   5.736
 8392SOL    HW126075   6.813   5.437   5.640
 8392SOL    HW226076   6.774   5.504   5.784
 8393SOL     OW26077   0.098   6.809   4.202
 8393SOL    HW126078   0.140   6.731   4.155
 8393SOL    HW226079   0.090   6.886   4.138
 8394SOL     OW26080   6.778   2.824   1.606
 8394SOL    HW126081   6.803   2.915   1.639
 8394SOL    HW226082   6.779   2.759   1.682
 8395SOL     OW26083   1.815   6.421   4.066
 8395SOL    HW126084   1.787   6.358   3.993
 8395SOL    HW226085   1.912   6.407   4.086
 8396SOL     OW26086   4.480   4.481   2.265
 8396SOL    HW126087   4.535   4.459   2.345
 8396SOL    HW226088   4.495   4.412   2.195
 8397SOL     OW26089   2.601   0.582   3.246
 8397SOL    HW126090   2.648   0.620   3.325
 8397SOL    HW226091   2.667   0.566   3.172
 8398SOL     OW26092   4.187   1.708   6.354
 8398SOL    HW126093   4.208   1.657   6.438
 8398SOL    HW226094   4.090   1.699   6.333
 8399SOL     OW26095   6.336   0.208   7.013
 8399SOL    HW126096   6.347   0.268   0.069
 8399SOL    HW226097   6.252   0.156   7.022
 8400SOL     OW26098   0.971   0.126   3.682
 8400SOL    HW126099   0.895   0.139   3.746
 8400SOL    HW226100   1.057   0.147   3.729
 8401SOL     OW26101   3.441   2.351   6.415
 8401SOL    HW126102   3.466   2.414   6.341
 8401SOL    HW226103   3.346   2.368   6.443
 8402SOL     OW26104   4.042   1.795   5.842
 8402SOL    HW126105   3.994   1.829   5.924
 8402SOL    HW226106   3.979   1.737   5.790
 8403SOL     OW26107   0.791   1.882   3.316
 8403SOL    HW126108   0.694   1.868   3.338
 8403SOL    HW226109   0.843   1.800   3.342
 8404SOL     OW26110   5.513   5.445   6.822
 8404SOL    HW126111   5.436   5.399   6.777
 8404SOL    HW226112   5.561   5.503   6.756
 8405SOL     OW26113   1.921   0.986   6.747
 8405SOL    HW126114   1.857   1.062   6.736
 8405SOL    HW226115   1.934   0.940   6.659
 8406SOL     OW26116   4.254   0.088   0.910
 8406SOL    HW126117   4.271   0.128   1.000
 8406SOL    HW226118   4.251   7.013   0.918
 8407SOL     OW26119   4.991   6.510   3.986
 8407SOL    HW126120   5.067   6.559   4.029
 8407SOL    HW226121   4.945   6.571   3.922
 8408SOL     OW26122   4.894   2.306   2.890
 8408SOL    HW126123   4.943   2.286   2.976
 8408SOL    HW226124   4.861   2.221   2.850
 8409SOL     OW26125   5.946   3.179   3.141
 8409SOL    HW126126   6.009   3.148   3.070
 8409SOL    HW226127   5.862   3.124   3.137
 8410SOL     OW26128   4.243   0.582   1.306
 8410SOL    HW126129   4.312   0.591   1.234
 8410SOL    HW226130   4.269   0.509   1.368
 8411SOL     OW26131   0.938   5.805   4.923
 8411SOL    HW126132   1.030   5.830   4.953
 8411SOL    HW226133   0.927   5.706   4.930
 8412SOL     OW26134   4.312   1.872   1.824
 8412SOL    HW126135   4.285   1.897   1.731
 8412SOL    HW226136   4.371   1.945   1.862
 8413SOL     OW26137   4.949   4.747   0.878
 8413SOL    HW126138   4.878   4.749   0.947
 8413SOL    HW226139   5.025   4.690   0.909
 8414SOL     OW26140   4.644   6.334   2.452
 8414SOL    HW126141   4.598   6.301   2.369
 8414SOL    HW226142   4.627   6.432   2.462
 8415SOL     OW26143   6.723   5.701   3.978
 8415SOL    HW126144   6.698   5.769   4.047
 8415SOL    HW226145   6.802   5.648   4.010
 8416SOL     OW26146   5.577   4.355   3.203
 8416SOL    HW126147   5.548   4.403   3.120
 8416SOL    HW226148   5.670   4.321   3.191
 8417SOL     OW26149   1.091   5.347   5.676
 8417SOL    HW126150   1.143   5.280   5.623
 8417SOL    HW226151   1.152   5.392   5.741
 8418SOL     OW26152   6.264   5.620   1.845
 8418SOL    HW126153   6.339   5.577   1.895
 8418SOL    HW226154   6.296   5.705   1.804
 8419SOL     OW26155   4.989   1.362   2.553
 8419SOL    HW126156   5.028   1.282   2.507
 8419SOL    HW226157   4.890   1.362   2.542
 8420SOL     OW26158   4.022   0.065   0.767
 8420SOL    HW126159   3.951   0.037   0.832
 8420SOL    HW226160   4.099   0.105   0.817
 8421SOL     OW26161   2.718   6.425   1.064
 8421SOL    HW126162   2.802   6.446   1.014
 8421SOL    HW226163   2.715   6.327   1.084
 8422SOL     OW26164   4.713   0.310   1.556
 8422SOL    HW126165   4.768   0.377   1.606
 8422SOL    HW226166   4.715   0.222   1.604
 8423SOL     OW26167   4.079   3.877   6.291
 8423SOL    HW126168   4.082   3.934   6.208
 8423SOL    HW226169   4.171   3.871   6.330
 8424SOL     OW26170   2.340   2.754   2.836
 8424SOL    HW126171   2.421   2.699   2.856
 8424SOL    HW226172   2.322   2.753   2.738
 8425SOL     OW26173   5.329   5.944   1.571
 8425SOL    HW126174   5.381   5.863   1.598
 8425SOL    HW226175   5.261   5.965   1.642
 8426SOL     OW26176   3.357   2.862   4.274
 8426SOL    HW126177   3.388   2.877   4.368
 8426SOL    HW226178   3.262   2.893   4.265
 8427SOL     OW26179   2.825   3.617   5.611
 8427SOL    HW126180   2.868   3.618   5.521
 8427SOL    HW226181   2.731   3.584   5.603
 8428SOL     OW26182   6.774   4.268   1.555
 8428SOL    HW126183   6.740   4.176   1.535
 8428SOL    HW226184   6.749   4.329   1.480
 8429SOL     OW26185   2.163   4.317   3.847
 8429SOL    HW126186   2.192   4.368   3.928
 8429SOL    HW226187   2.129   4.381   3.778
 8430SOL     OW26188   4.239   5.541   3.443
 8430SOL    HW126189   4.299   5.592   3.381
 8430SOL    HW226190   4.293   5.504   3.519
 8431SOL     OW26191   2.897   5.390   0.784
 8431SOL    HW126192   2.947   5.309   0.815
 8431SOL    HW226193   2.869   5.377   0.689
 8432SOL     OW26194   5.301   6.634   5.786
 8432SOL    HW126195   5.396   6.645   5.817
 8432SOL    HW226196   5.264   6.548   5.820
 8433SOL     OW26197   6.425   2.799   6.961
 8433SOL    HW126198   6.475   2.719   6.992
 8433SOL    HW226199   6.483   2.852   6.898
 8434SOL     OW26200   2.736   6.418   5.385
 8434SOL    HW126201   2.681   6.403   5.467
 8434SOL    HW226202   2.677   6.420   5.305
 8435SOL     OW26203   5.172   0.541   0.701
 8435SOL    HW126204   5.150   0.582   0.790
 8435SOL    HW226205   5.250   0.589   0.661
 8436SOL     OW26206   3.212   6.664   4.448
 8436SOL    HW126207   3.309   6.685   4.434
 8436SOL    HW226208   3.190   6.579   4.402
 8437SOL     OW26209   1.673   0.387   3.163
 8437SOL    HW126210   1.740   0.346   3.100
 8437SOL    HW226211   1.582   0.383   3.122
 8438SOL     OW26212   2.872   4.995   2.274
 8438SOL    HW126213   2.923   4.994   2.188
 8438SOL    HW226214   2.799   4.927   2.271
 8439SOL     OW26215   6.737   5.587   1.222
 8439SOL    HW126216   6.727   5.659   1.291
 8439SOL    HW226217   6.771   5.504   1.267
 8440SOL     OW26218   0.631   1.786   3.938
 8440SOL    HW126219   0.617   1.728   3.858
 8440SOL    HW226220   0.679   1.734   4.009
 8441SOL     OW26221   6.105   6.840   6.967
 8441SOL    HW126222   6.115   6.933   6.932
 8441SOL    HW226223   6.167   6.826   0.019
 8442SOL     OW26224   3.445   2.610   6.279
 8442SOL    HW126225   3.484   2.700   6.298
 8442SOL    HW226226   3.472   2.580   6.187
 8443SOL     OW26227   1.069   6.377   3.252
 8443SOL    HW126228   1.072   6.311   3.327
 8443SOL    HW226229   1.035   6.464   3.286
 8444SOL     OW26230   3.370   5.903   3.859
 8444SOL    HW126231   3.348   5.812   3.895
 8444SOL    HW226232   3.297   5.934   3.799
 8445SOL     OW26233   3.511   5.093   1.814
 8445SOL    HW126234   3.561   5.136   1.889
 8445SOL    HW226235   3.464   5.162   1.760
 8446SOL     OW26236   4.408   5.029   1.020
 8446SOL    HW126237   4.316   5.038   1.057
 8446SOL    HW226238   4.442   4.936   1.036
 8447SOL     OW26239   5.853   2.404   2.390
 8447SOL    HW126240   5.911   2.323   2.394
 8447SOL    HW226241   5.757   2.378   2.399
 8448SOL     OW26242   5.662   4.968   4.639
 8448SOL    HW126243   5.634   5.016   4.722
 8448SOL    HW226244   5.694   4.876   4.662
 8449SOL     OW26245   6.813   3.111   4.159
 8449SOL    HW126246   6.899   3.075   4.196
 8449SOL    HW226247   6.829   3.142   4.065
 8450SOL     OW26248   1.781   5.722   1.856
 8450SOL    HW126249   1.734   5.794   1.908
 8450SOL    HW226250   1.840   5.670   1.916
 8451SOL     OW26251   5.029   3.064   0.223
 8451SOL    HW126252   4.978   2.978   0.221
 8451SOL    HW226253   4.985   3.130   0.162
 8452SOL     OW26254   0.415   0.897   2.217
 8452SOL    HW126255   0.449   0.883   2.124
 8452SOL    HW226256   0.434   0.815   2.272
 8453SOL     OW26257   6.559   4.276   7.009
 8453SOL    HW126258   6.566   4.376   7.007
 8453SOL    HW226259   6.465   4.249   6.989
 8454SOL     OW26260   0.376   6.408   0.405
 8454SOL    HW126261   0.325   6.339   0.457
 8454SOL    HW226262   0.415   6.475   0.467
 8455SOL     OW26263   5.130   1.921   0.967
 8455SOL    HW126264   5.150   1.989   0.896
 8455SOL    HW226265   5.039   1.937   1.004
 8456SOL     OW26266   4.700   4.251   3.174
 8456SOL    HW126267   4.696   4.206   3.085
 8456SOL    HW226268   4.671   4.346   3.164
 8457SOL     OW26269   0.187   6.401   5.145
 8457SOL    HW126270   0.116   6.337   5.176
 8457SOL    HW226271   0.147   6.491   5.131
 8458SOL     OW26272   2.306   1.661   6.736
 8458SOL    HW126273   2.335   1.573   6.698
 8458SOL    HW226274   2.375   1.730   6.716
 8459SOL     OW26275   3.210   6.546   1.658
 8459SOL    HW126276   3.303   6.564   1.692
 8459SOL    HW226277   3.212   6.543   1.558
 8460SOL     OW26278   4.272   2.423   5.764
 8460SOL    HW126279   4.253   2.447   5.859
 8460SOL    HW226280   4.370   2.405   5.753
 8461SOL     OW26281   0.580   3.701   2.389
 8461SOL    HW126282   0.538   3.654   2.467
 8461SOL    HW226283   0.512   3.759   2.344
 8462SOL     OW26284   3.724   2.474   0.464
 8462SOL    HW126285   3.765   2.531   0.535
 8462SOL    HW226286   3.630   2.504   0.446
 8463SOL     OW26287   6.286   0.610   0.657
 8463SOL    HW126288   6.228   0.545   0.706
 8463SOL    HW226289   6.248   0.702   0.666
 8464SOL     OW26290   6.085   3.982   5.783
 8464SOL    HW126291   5.995   3.938   5.775
 8464SOL    HW226292   6.079   4.076   5.750
 8465SOL     OW26293   2.330   2.358   0.647
 8465SOL    HW126294   2.246   2.406   0.626
 8465SOL    HW226295   2.351   2.367   0.744
 8466SOL     OW26296   6.672   6.906   5.959
 8466SOL    HW126297   6.665   6.951   6.048
 8466SOL    HW226298   6.585   6.914   5.910
 8467SOL     OW26299   3.746   0.716   1.442
 8467SOL    HW126300   3.811   0.686   1.511
 8467SOL    HW226301   3.654   0.721   1.483
 8468SOL     OW26302   4.852   2.861   0.185
 8468SOL    HW126303   4.805   2.779   0.220
 8468SOL    HW226304   4.875   2.848   0.089
 8469SOL     OW26305   2.563   1.704   5.560
 8469SOL    HW126306   2.522   1.780   5.611
 8469SOL    HW226307   2.571   1.729   5.464
 8470SOL     OW26308   0.993   4.681   0.385
 8470SOL    HW126309   0.958   4.705   0.295
 8470SOL    HW226310   0.962   4.749   0.452
 8471SOL     OW26311   4.286   0.241   5.051
 8471SOL    HW126312   4.369   0.266   5.101
 8471SOL    HW226313   4.211   0.302   5.077
 8472SOL     OW26314   6.138   0.545   5.734
 8472SOL    HW126315   6.176   0.579   5.648
 8472SOL    HW226316   6.213   0.521   5.795
 8473SOL     OW26317   6.630   5.463   0.996
 8473SOL    HW126318   6.678   5.511   1.069
 8473SOL    HW226319   6.659   5.367   0.995
 8474SOL     OW26320   3.363   3.474   1.811
 8474SOL    HW126321   3.337   3.451   1.904
 8474SOL    HW226322   3.442   3.418   1.784
 8475SOL     OW26323   0.202   2.767   2.779
 8475SOL    HW126324   0.248   2.788   2.865
 8475SOL    HW226325   0.251   2.694   2.732
 8476SOL     OW26326   6.202   1.207   1.167
 8476SOL    HW126327   6.169   1.300   1.155
 8476SOL    HW226328   6.170   1.151   1.091
 8477SOL     OW26329   4.397   6.838   2.966
 8477SOL    HW126330   4.403   6.929   3.006
 8477SOL    HW226331   4.489   6.800   2.955
 8478SOL     OW26332   1.446   6.904   5.722
 8478SOL    HW126333   1.451   6.951   5.633
 8478SOL    HW226334   1.521   6.838   5.728
 8479SOL     OW26335   1.473   3.202   1.163
 8479SOL    HW126336   1.374   3.211   1.150
 8479SOL    HW226337   1.519   3.282   1.125
 8480SOL     OW26338   5.263   2.916   0.256
 8480SOL    HW126339   5.236   2.828   0.296
 8480SOL    HW226340   5.186   2.980   0.263
 8481SOL     OW26341   4.553   2.548   4.931
 8481SOL    HW126342   4.620   2.474   4.935
 8481SOL    HW226343   4.571   2.605   4.851
 8482SOL     OW26344   4.829   0.079   2.657
 8482SOL    HW126345   4.883   0.158   2.629
 8482SOL    HW226346   4.744   0.076   2.605
 8483SOL     OW26347   3.494   5.811   2.116
 8483SOL    HW126348   3.534   5.888   2.066
 8483SOL    HW226349   3.397   5.805   2.094
 8484SOL     OW26350   6.778   6.257   3.915
 8484SOL    HW126351   6.724   6.322   3.968
 8484SOL    HW226352   6.819   6.189   3.976
 8485SOL     OW26353   3.713   2.437   0.186
 8485SOL    HW126354   3.720   2.434   0.286
 8485SOL    HW226355   3.722   2.344   0.149
 8486SOL     OW26356   2.486   1.489   2.037
 8486SOL    HW126357   2.438   1.577   2.034
 8486SOL    HW226358   2.420   1.415   2.040
 8487SOL     OW26359   6.160   1.811   5.508
 8487SOL    HW126360   6.138   1.903   5.542
 8487SOL    HW226361   6.081   1.775   5.459
 8488SOL     OW26362   5.565   6.765   1.882
 8488SOL    HW126363   5.472   6.730   1.870
 8488SOL    HW226364   5.561   6.862   1.906
 8489SOL     OW26365   6.441   1.543   1.682
 8489SOL    HW126366   6.390   1.462   1.713
 8489SOL    HW226367   6.389   1.626   1.704
 8490SOL     OW26368   3.645   6.637   5.387
 8490SOL    HW126369   3.555   6.669   5.417
 8490SOL    HW226370   3.670   6.682   5.301
 8491SOL     OW26371   2.184   6.252   2.160
 8491SOL    HW126372   2.249   6.202   2.216
 8491SOL    HW226373   2.108   6.192   2.136
 8492SOL     OW26374   5.391   4.541   5.598
 8492SOL    HW126375   5.490   4.546   5.584
 8492SOL    HW226376   5.354   4.634   5.607
 8493SOL     OW26377   2.276   2.192   5.817
 8493SOL    HW126378   2.176   2.195   5.815
 8493SOL    HW226379   2.307   2.101   5.790
 8494SOL     OW26380   4.175   5.077   1.181
 8494SOL    HW126381   4.079   5.094   1.159
 8494SOL    HW226382   4.217   5.161   1.215
 8495SOL     OW26383   6.733   5.010   1.856
 8495SOL    HW126384   6.821   5.052   1.877
 8495SOL    HW226385   6.743   4.911   1.849
 8496SOL     OW26386   1.535   1.503   2.446
 8496SOL    HW126387   1.490   1.419   2.475
 8496SOL    HW226388   1.621   1.514   2.496
 8497SOL     OW26389   7.016   1.120   3.786
 8497SOL    HW126390   6.963   1.039   3.759
 8497SOL    HW226391   7.001   1.192   3.718
 8498SOL     OW26392   6.314   6.529   3.156
 8498SOL    HW126393   6.339   6.496   3.065
 8498SOL    HW226394   6.383   6.500   3.222
 8499SOL     OW26395   2.040   4.275   6.592
 8499SOL    HW126396   1.990   4.195   6.556
 8499SOL    HW226397   1.992   4.311   6.671
 8500SOL     OW26398   1.456   5.922   5.294
 8500SOL    HW126399   1.480   5.968   5.208
 8500SOL    HW226400   1.358   5.931   5.311
 8501SOL     OW26401   7.013   3.053   5.688
 8501SOL    HW126402   6.945   3.044   5.760
 8501SOL    HW226403   0.051   3.129   5.710
 8502SOL     OW26404   0.251   3.345   1.187
 8502SOL    HW126405   0.281   3.353   1.282
 8502SOL    HW226406   0.257   3.250   1.158
 8503SOL     OW26407   0.206   5.398   4.883
 8503SOL    HW126408   0.123   5.432   4.837
 8503SOL    HW226409   0.183   5.368   4.976
 8504SOL     OW26410   2.376   5.366   2.248
 8504SOL    HW126411   2.287   5.361   2.202
 8504SOL    HW226412   2.408   5.460   2.249
 8505SOL     OW26413   6.624   3.639   2.871
 8505SOL    HW126414   6.695   3.608   2.807
 8505SOL    HW226415   6.626   3.581   2.953
 8506SOL     OW26416   1.103   1.211   6.830
 8506SOL    HW126417   1.126   1.237   6.923
 8506SOL    HW226418   1.187   1.193   6.779
 8507SOL     OW26419   3.193   6.739   4.696
 8507SOL    HW126420   3.197   6.725   4.597
 8507SOL    HW226421   3.136   6.667   4.737
 8508SOL     OW26422   5.114   2.044   4.565
 8508SOL    HW126423   5.074   2.134   4.576
 8508SOL    HW226424   5.097   1.989   4.647
 8509SOL     OW26425   4.794   1.349   3.418
 8509SOL    HW126426   4.736   1.430   3.405
 8509SOL    HW226427   4.739   1.273   3.452
 8510SOL     OW26428   5.718   4.631   2.946
 8510SOL    HW126429   5.677   4.544   2.972
 8510SOL    HW226430   5.800   4.647   3.001
 8511SOL     OW26431   6.130   3.976   2.394
 8511SOL    HW126432   6.217   4.024   2.391
 8511SOL    HW226433   6.055   4.042   2.387
 8512SOL     OW26434   2.595   0.978   2.697
 8512SOL    HW126435   2.678   0.928   2.722
 8512SOL    HW226436   2.521   0.952   2.759
 8513SOL     OW26437   6.757   5.252   0.719
 8513SOL    HW126438   6.772   5.214   0.811
 8513SOL    HW226439   6.838   5.304   0.691
 8514SOL     OW26440   1.714   1.581   3.398
 8514SOL    HW126441   1.771   1.520   3.342
 8514SOL    HW226442   1.636   1.611   3.344
 8515SOL     OW26443   4.838   2.666   1.212
 8515SOL    HW126444   4.759   2.687   1.154
 8515SOL    HW226445   4.837   2.569   1.236
 8516SOL     OW26446   0.647   1.933   2.195
 8516SOL    HW126447   0.585   1.911   2.119
 8516SOL    HW226448   0.740   1.940   2.160
 8517SOL     OW26449   0.746   2.956   5.371
 8517SOL    HW126450   0.846   2.953   5.375
 8517SOL    HW226451   0.712   3.016   5.443
 8518SOL     OW26452   4.795   3.900   0.122
 8518SOL    HW126453   4.808   3.964   0.197
 8518SOL    HW226454   4.791   3.807   0.158
 8519SOL     OW26455   1.879   5.082   1.901
 8519SOL    HW126456   1.920   5.148   1.964
 8519SOL    HW226457   1.837   5.131   1.824
 8520SOL     OW26458   3.355   1.580   1.031
 8520SOL    HW126459   3.385   1.655   1.090
 8520SOL    HW226460   3.435   1.528   1.000
 8521SOL     OW26461   1.661   5.251   5.816
 8521SOL    HW126462   1.650   5.320   5.744
 8521SOL    HW226463   1.742   5.274   5.871
 8522SOL     OW26464   1.272   5.959   2.100
 8522SOL    HW126465   1.240   5.965   2.194
 8522SOL    HW226466   1.245   6.042   2.050
 8523SOL     OW26467   3.379   6.334   6.544
 8523SOL    HW126468   3.348   6.427   6.563
 8523SOL    HW226469   3.304   6.281   6.504
 8524SOL     OW26470   1.164   1.791   5.059
 8524SOL    HW126471   1.083   1.833   5.099
 8524SOL    HW226472   1.140   1.745   4.973
 8525SOL     OW26473   6.171   4.216   2.987
 8525SOL    HW126474   6.097   4.256   2.933
 8525SOL    HW226475   6.247   4.282   2.993
 8526SOL     OW26476   3.035   4.130   0.701
 8526SOL    HW126477   3.018   4.083   0.788
 8526SOL    HW226478   3.024   4.229   0.715
 8527SOL     OW26479   3.107   6.906   5.139
 8527SOL    HW126480   3.059   6.876   5.221
 8527SOL    HW226481   3.045   6.904   5.061
 8528SOL     OW26482   5.121   2.849   5.912
 8528SOL    HW126483   5.134   2.793   5.994
 8528SOL    HW226484   5.201   2.841   5.853
 8529SOL     OW26485   0.969   0.007   0.013
 8529SOL    HW126486   0.985   0.085   0.073
 8529SOL    HW226487   0.934   6.955   0.066
 8530SOL     OW26488   1.743   4.217   5.548
 8530SOL    HW126489   1.701   4.129   5.572
 8530SOL    HW226490   1.833   4.200   5.509
 8531SOL     OW26491   5.456   4.247   2.445
 8531SOL    HW126492   5.443   4.185   2.368
 8531SOL    HW226493   5.460   4.193   2.530
 8532SOL     OW26494   3.999   5.192   4.519
 8532SOL    HW126495   3.926   5.182   4.451
 8532SOL    HW226496   4.000   5.285   4.554
 8533SOL     OW26497   2.089   6.905   6.006
 8533SOL    HW126498   2.007   6.939   5.960
 8533SOL    HW226499   2.103   6.955   6.091
 8534SOL     OW26500   0.090   3.871   3.965
 8534SOL    HW126501   0.107   3.969   3.971
 8534SOL    HW226502   0.020   3.854   3.895
 8535SOL     OW26503   0.670   1.576   4.876
 8535SOL    HW126504   0.646   1.558   4.972
 8535SOL    HW226505   0.749   1.637   4.873
 8536SOL     OW26506   6.051   1.737   4.728
 8536SOL    HW126507   6.018   1.832   4.724
 8536SOL    HW226508   6.078   1.709   4.636
 8537SOL     OW26509   5.827   1.768   1.796
 8537SOL    HW126510   5.873   1.749   1.883
 8537SOL    HW226511   5.831   1.688   1.737
 8538SOL     OW26512   0.449   1.279   5.174
 8538SOL    HW126513   0.546   1.260   5.189
 8538SOL    HW226514   0.412   1.215   5.108
 8539SOL     OW26515   6.712   2.122   1.975
 8539SOL    HW126516   6.616   2.106   1.997
 8539SOL    HW226517   6.770   2.065   2.033
 8540SOL     OW26518   3.243   1.694   0.371
 8540SOL    HW126519   3.203   1.619   0.319
 8540SOL    HW226520   3.219   1.781   0.328
 8541SOL     OW26521   3.031   2.016   4.358
 8541SOL    HW126522   2.938   2.006   4.393
 8541SOL    HW226523   3.071   1.926   4.342
 8542SOL     OW26524   2.729   4.703   5.829
 8542SOL    HW126525   2.702   4.711   5.733
 8542SOL    HW226526   2.651   4.674   5.884
 8543SOL     OW26527   2.908   1.604   5.848
 8543SOL    HW126528   2.823   1.579   5.894
 8543SOL    HW226529   2.963   1.522   5.833
 8544SOL     OW26530   5.555   2.823   4.688
 8544SOL    HW126531   5.645   2.781   4.683
 8544SOL    HW226532   5.485   2.754   4.675
 8545SOL     OW26533   3.612   6.905   4.733
 8545SOL    HW126534   3.590   6.875   4.825
 8545SOL    HW226535   3.648   6.999   4.736
 8546SOL     OW26536   6.833   0.057   2.332
 8546SOL    HW126537   6.778   0.098   2.260
 8546SOL    HW226538   6.778   0.046   2.415
 8547SOL     OW26539   1.018   0.053   5.958
 8547SOL    HW126540   1.013   0.132   6.018
 8547SOL    HW226541   0.969   0.072   5.873
 8548SOL     OW26542   6.853   3.833   5.157
 8548SOL    HW126543   6.812   3.743   5.171
 8548SOL    HW226544   6.952   3.828   5.172
 8549SOL     OW26545   0.992   2.549   4.643
 8549SOL    HW126546   0.906   2.600   4.632
 8549SOL    HW226547   0.998   2.514   4.736
 8550SOL     OW26548   1.420   4.759   0.055
 8550SOL    HW126549   1.491   4.689   0.057
 8550SOL    HW226550   1.356   4.744   0.131
 8551SOL     OW26551   3.051   2.909   6.870
 8551SOL    HW126552   2.995   2.990   6.849
 8551SOL    HW226553   3.104   2.926   6.953
 8552SOL     OW26554   2.008   0.598   3.118
 8552SOL    HW126555   2.050   0.685   3.142
 8552SOL    HW226556   1.911   0.611   3.101
 8553SOL     OW26557   4.544   4.183   6.942
 8553SOL    HW126558   4.587   4.153   0.003
 8553SOL    HW226559   4.446   4.192   6.955
 8554SOL     OW26560   0.312   5.550   0.858
 8554SOL    HW126561   0.329   5.526   0.762
 8554SOL    HW226562   0.214   5.539   0.877
 8555SOL     OW26563   3.896   1.516   3.423
 8555SOL    HW126564   3.854   1.606   3.419
 8555SOL    HW226565   3.884   1.477   3.514
 8556SOL     OW26566   2.134   6.312   4.951
 8556SOL    HW126567   2.040   6.287   4.973
 8556SOL    HW226568   2.197   6.262   5.010
 8557SOL     OW26569   6.671   0.241   2.183
 8557SOL    HW126570   6.612   0.320   2.197
 8557SOL    HW226571   6.646   0.196   2.097
 8558SOL     OW26572   2.111   5.364   2.981
 8558SOL    HW126573   2.130   5.462   2.986
 8558SOL    HW226574   2.138   5.320   3.067
 8559SOL     OW26575   1.886   6.411   2.652
 8559SOL    HW126576   1.837   6.473   2.590
 8559SOL    HW226577   1.968   6.377   2.607
 8560SOL     OW26578   0.915   5.593   1.733
 8560SOL    HW126579   0.998   5.642   1.705
 8560SOL    HW226580   0.887   5.624   1.824
 8561SOL     OW26581   3.110   6.985   3.624
 8561SOL    HW126582   3.035   6.988   3.559
 8561SOL    HW226583   3.116   0.048   3.672
 8562SOL     OW26584   3.509   6.455   0.021
 8562SOL    HW126585   3.538   6.550   0.029
 8562SOL    HW226586   3.551   6.414   6.964
 8563SOL     OW26587   0.748   4.894   1.888
 8563SOL    HW126588   0.720   4.987   1.911
 8563SOL    HW226589   0.785   4.892   1.795
 8564SOL     OW26590   3.157   6.466   5.519
 8564SOL    HW126591   3.229   6.409   5.559
 8564SOL    HW226592   3.126   6.533   5.586
 8565SOL     OW26593   3.456   4.740   1.058
 8565SOL    HW126594   3.426   4.831   1.028
 8565SOL    HW226595   3.552   4.727   1.033
 8566SOL     OW26596   1.113   0.306   1.523
 8566SOL    HW126597   1.087   0.282   1.617
 8566SOL    HW226598   1.050   0.376   1.488
 8567SOL     OW26599   1.128   1.914   1.862
 8567SOL    HW126600   1.049   1.854   1.868
 8567SOL    HW226601   1.183   1.907   1.946
 8568SOL     OW26602   5.584   2.064   0.460
 8568SOL    HW126603   5.555   2.002   0.533
 8568SOL    HW226604   5.669   2.030   0.419
 8569SOL     OW26605   5.521   2.065   5.230
 8569SOL    HW126606   5.509   2.163   5.242
 8569SOL    HW226607   5.497   2.017   5.314
 8570SOL     OW26608   1.383   1.419   4.627
 8570SOL    HW126609   1.438   1.403   4.710
 8570SOL    HW226610   1.323   1.341   4.612
 8571SOL     OW26611   0.836   6.813   5.046
 8571SOL    HW126612   0.809   6.746   5.115
 8571SOL    HW226613   0.865   6.764   4.963
 8572SOL     OW26614   1.711   4.620   5.519
 8572SOL    HW126615   1.798   4.572   5.507
 8572SOL    HW226616   1.694   4.635   5.616
 8573SOL     OW26617   3.379   5.853   6.123
 8573SOL    HW126618   3.395   5.927   6.057
 8573SOL    HW226619   3.283   5.827   6.121
 8574SOL     OW26620   5.962   0.068   6.351
 8574SOL    HW126621   5.953   0.162   6.317
 8574SOL    HW226622   5.872   0.024   6.350
 8575SOL     OW26623   3.015   1.953   3.670
 8575SOL    HW126624   3.023   2.043   3.714
 8575SOL    HW226625   3.029   1.963   3.571
 8576SOL     OW26626   1.661   4.937   3.932
 8576SOL    HW126627   1.676   4.900   4.023
 8576SOL    HW226628   1.749   4.947   3.885
 8577SOL     OW26629   1.667   0.135   6.105
 8577SOL    HW126630   1.762   0.157   6.081
 8577SOL    HW226631   1.605   0.184   6.044
 8578SOL     OW26632   6.447   4.790   5.729
 8578SOL    HW126633   6.496   4.844   5.797
 8578SOL    HW226634   6.417   4.849   5.654
 8579SOL     OW26635   1.708   6.191   2.218
 8579SOL    HW126636   1.715   6.289   2.201
 8579SOL    HW226637   1.665   6.175   2.306
 8580SOL     OW26638   1.801   6.049   0.799
 8580SOL    HW126639   1.735   5.990   0.752
 8580SOL    HW226640   1.766   6.074   0.889
 8581SOL     OW26641   3.417   4.456   1.274
 8581SOL    HW126642   3.393   4.360   1.287
 8581SOL    HW226643   3.347   4.501   1.218
 8582SOL     OW26644   4.834   4.502   5.136
 8582SOL    HW126645   4.887   4.443   5.197
 8582SOL    HW226646   4.754   4.452   5.103
 8583SOL     OW26647   3.769   6.822   3.077
 8583SOL    HW126648   3.784   6.820   2.978
 8583SOL    HW226649   3.806   6.907   3.115
 8584SOL     OW26650   1.089   6.336   5.347
 8584SOL    HW126651   1.030   6.409   5.381
 8584SOL    HW226652   1.056   6.304   5.258
 8585SOL     OW26653   6.130   1.015   0.941
 8585SOL    HW126654   6.186   1.056   0.869
 8585SOL    HW226655   6.042   0.988   0.903
 8586SOL     OW26656   3.726   6.906   1.612
 8586SOL    HW126657   3.700   6.952   1.697
 8586SOL    HW226658   3.661   6.832   1.593
 8587SOL     OW26659   0.999   1.552   4.855
 8587SOL    HW126660   0.966   1.646   4.841
 8587SOL    HW226661   1.013   1.537   4.953
 8588SOL     OW26662   4.682   1.425   6.866
 8588SOL    HW126663   4.681   1.327   6.884
 8588SOL    HW226664   4.598   1.466   6.902
 8589SOL     OW26665   6.311   2.901   4.889
 8589SOL    HW126666   6.343   2.865   4.802
 8589SOL    HW226667   6.384   2.955   4.932
 8590SOL     OW26668   0.769   0.532   2.245
 8590SOL    HW126669   0.717   0.615   2.226
 8590SOL    HW226670   0.859   0.556   2.282
 8591SOL     OW26671   0.350   4.130   0.339
 8591SOL    HW126672   0.354   4.083   0.251
 8591SOL    HW226673   0.321   4.066   0.410
 8592SOL     OW26674   5.698   2.130   6.973
 8592SOL    HW126675   5.755   2.094   6.899
 8592SOL    HW226676   5.614   2.168   6.935
 8593SOL     OW26677   3.360   1.169   6.745
 8593SOL    HW126678   3.445   1.125   6.715
 8593SOL    HW226679   3.350   1.157   6.844
 8594SOL     OW26680   5.683   1.992   5.594
 8594SOL    HW126681   5.707   2.066   5.655
 8594SOL    HW226682   5.611   1.937   5.635
 8595SOL     OW26683   6.351   1.075   4.244
 8595SOL    HW126684   6.315   0.983   4.256
 8595SOL    HW226685   6.320   1.112   4.156
 8596SOL     OW26686   1.367   5.037   2.881
 8596SOL    HW126687   1.415   5.057   2.966
 8596SOL    HW226688   1.420   4.970   2.828
 8597SOL     OW26689   5.356   2.469   1.541
 8597SOL    HW126690   5.385   2.529   1.466
 8597SOL    HW226691   5.324   2.382   1.502
 8598SOL     OW26692   5.493   0.261   6.402
 8598SOL    HW126693   5.491   0.215   6.491
 8598SOL    HW226694   5.539   0.203   6.335
 8599SOL     OW26695   1.747   2.561   5.042
 8599SOL    HW126696   1.806   2.636   5.011
 8599SOL    HW226697   1.801   2.478   5.052
 8600SOL     OW26698   5.285   3.565   6.915
 8600SOL    HW126699   5.240   3.647   6.881
 8600SOL    HW226700   5.227   3.520   6.983
 8601SOL     OW26701   0.857   1.620   3.828
 8601SOL    HW126702   0.793   1.691   3.858
 8601SOL    HW226703   0.896   1.575   3.909
 8602SOL     OW26704   2.384   6.965   2.218
 8602SOL    HW126705   2.302   6.971   2.274
 8602SOL    HW226706   2.358   6.965   2.121
 8603SOL     OW26707   5.263   7.011   1.246
 8603SOL    HW126708   5.335   7.007   1.177
 8603SOL    HW226709   5.278   0.065   1.306
 8604SOL     OW26710   1.586   1.737   6.152
 8604SOL    HW126711   1.531   1.805   6.201
 8604SOL    HW226712   1.670   1.719   6.203
 8605SOL     OW26713   2.082   5.346   3.416
 8605SOL    HW126714   2.006   5.410   3.427
 8605SOL    HW226715   2.118   5.321   3.506
 8606SOL     OW26716   2.298   3.078   6.820
 8606SOL    HW126717   2.239   3.004   6.853
 8606SOL    HW226718   2.371   3.039   6.763
 8607SOL     OW26719   2.482   4.885   6.164
 8607SOL    HW126720   2.411   4.819   6.186
 8607SOL    HW226721   2.569   4.855   6.203
 8608SOL     OW26722   2.394   4.738   2.503
 8608SOL    HW126723   2.430   4.700   2.588
 8608SOL    HW226724   2.305   4.698   2.484
 8609SOL     OW26725   5.241   1.117   3.250
 8609SOL    HW126726   5.229   1.068   3.336
 8609SOL    HW226727   5.172   1.189   3.243
 8610SOL     OW26728   0.571   0.922   2.776
 8610SOL    HW126729   0.479   0.882   2.769
 8610SOL    HW226730   0.587   0.951   2.870
 8611SOL     OW26731   2.859   1.167   4.178
 8611SOL    HW126732   2.795   1.116   4.121
 8611SOL    HW226733   2.873   1.258   4.138
 8612SOL     OW26734   2.950   3.227   1.266
 8612SOL    HW126735   3.033   3.208   1.215
 8612SOL    HW226736   2.888   3.282   1.210
 8613SOL     OW26737   2.763   1.840   1.806
 8613SOL    HW126738   2.722   1.922   1.763
 8613SOL    HW226739   2.757   1.848   1.905
 8614SOL     OW26740   0.880   2.979   3.278
 8614SOL    HW126741   0.972   2.989   3.316
 8614SOL    HW226742   0.878   2.903   3.213
 8615SOL     OW26743   4.440   1.971   5.057
 8615SOL    HW126744   4.484   1.928   5.136
 8615SOL    HW226745   4.502   2.038   5.016
 8616SOL     OW26746   3.025   4.759   1.890
 8616SOL    HW126747   2.952   4.822   1.918
 8616SOL    HW226748   2.988   4.667   1.881
 8617SOL     OW26749   5.891   1.073   4.137
 8617SOL    HW126750   5.838   1.120   4.065
 8617SOL    HW226751   5.879   0.974   4.127
 8618SOL     OW26752   6.473   4.977   1.800
 8618SOL    HW126753   6.558   5.029   1.807
 8618SOL    HW226754   6.489   4.894   1.746
 8619SOL     OW26755   4.173   5.300   2.386
 8619SOL    HW126756   4.093   5.280   2.443
 8619SOL    HW226757   4.183   5.231   2.315
 8620SOL     OW26758   2.175   6.048   3.555
 8620SOL    HW126759   2.202   6.038   3.650
 8620SOL    HW226760   2.136   6.139   3.541
 8621SOL     OW26761   5.139   3.125   2.156
 8621SOL    HW126762   5.173   3.032   2.146
 8621SOL    HW226763   5.178   3.166   2.238
 8622SOL     OW26764   4.950   4.511   1.306
 8622SOL    HW126765   4.912   4.585   1.362
 8622SOL    HW226766   4.875   4.464   1.258
 8623SOL     OW26767   1.273   4.308   5.686
 8623SOL    HW126768   1.319   4.364   5.618
 8623SOL    HW226769   1.240   4.224   5.642
 8624SOL     OW26770   2.130   3.848   5.448
 8624SOL    HW126771   2.068   3.842   5.526
 8624SOL    HW226772   2.222   3.868   5.480
 8625SOL     OW26773   5.065   1.033   5.364
 8625SOL    HW126774   5.126   1.093   5.416
 8625SOL    HW226775   5.104   1.018   5.273
 8626SOL     OW26776   4.120   2.208   0.065
 8626SOL    HW126777   4.075   2.277   0.008
 8626SOL    HW226778   4.067   2.193   0.148
 8627SOL     OW26779   2.351   1.687   2.217
 8627SOL    HW126780   2.297   1.619   2.167
 8627SOL    HW226781   2.307   1.776   2.209
 8628SOL     OW26782   5.781   6.501   0.584
 8628SOL    HW126783   5.836   6.466   0.508
 8628SOL    HW226784   5.684   6.492   0.563
 8629SOL     OW26785   1.646   6.340   5.181
 8629SOL    HW126786   1.713   6.339   5.106
 8629SOL    HW226787   1.583   6.263   5.170
 8630SOL     OW26788   5.234   3.221   3.677
 8630SOL    HW126789   5.155   3.176   3.718
 8630SOL    HW226790   5.305   3.235   3.747
 8631SOL     OW26791   1.166   5.567   6.034
 8631SOL    HW126792   1.169   5.468   6.019
 8631SOL    HW226793   1.256   5.599   6.064
 8632SOL     OW26794   4.259   5.064   5.277
 8632SOL    HW126795   4.185   4.997   5.276
 8632SOL    HW226796   4.344   5.019   5.252
 8633SOL     OW26797   5.690   2.765   6.055
 8633SOL    HW126798   5.677   2.859   6.023
 8633SOL    HW226799   5.616   2.707   6.020
 8634SOL     OW26800   4.877   4.001   6.581
 8634SOL    HW126801   4.845   3.911   6.609
 8634SOL    HW226802   4.963   4.022   6.627
 8635SOL     OW26803   5.347   2.964   6.770
 8635SOL    HW126804   5.305   2.920   6.691
 8635SOL    HW226805   5.281   2.968   6.846
 8636SOL     OW26806   5.656   6.304   0.975
 8636SOL    HW126807   5.582   6.352   0.929
 8636SOL    HW226808   5.652   6.323   1.073
 8637SOL     OW26809   1.816   1.746   6.633
 8637SOL    HW126810   1.783   1.668   6.579
 8637SOL    HW226811   1.755   1.761   6.711
 8638SOL     OW26812   3.826   2.138   5.022
 8638SOL    HW126813   3.844   2.050   5.065
 8638SOL    HW226814   3.740   2.134   4.971
 8639SOL     OW26815   5.170   2.926   7.001
 8639SOL    HW126816   5.180   2.930   0.076
 8639SOL    HW226817   5.085   2.879   6.978
 8640SOL     OW26818   3.611   3.200   0.113
 8640SOL    HW126819   3.568   3.143   0.042
 8640SOL    HW226820   3.585   3.295   0.099
 8641SOL     OW26821   4.122   4.873   4.288
 8641SOL    HW126822   4.161   4.927   4.362
 8641SOL    HW226823   4.038   4.915   4.256
 8642SOL     OW26824   0.881   6.516   4.189
 8642SOL    HW126825   0.834   6.464   4.118
 8642SOL    HW226826   0.847   6.488   4.279
 8643SOL     OW26827   1.558   0.594   0.019
 8643SOL    HW126828   1.504   0.644   6.976
 8643SOL    HW226829   1.521   0.501   0.028
 8644SOL     OW26830   5.518   2.308   5.677
 8644SOL    HW126831   5.609   2.273   5.697
 8644SOL    HW226832   5.525   2.389   5.620
 8645SOL     OW26833   4.299   4.717   1.602
 8645SOL    HW126834   4.266   4.802   1.563
 8645SOL    HW226835   4.396   4.726   1.626
 8646SOL     OW26836   0.575   1.974   6.551
 8646SOL    HW126837   0.665   1.931   6.555
 8646SOL    HW226838   0.549   2.005   6.642
 8647SOL     OW26839   2.664   4.879   6.788
 8647SOL    HW126840   2.747   4.894   6.843
 8647SOL    HW226841   2.689   4.839   6.700
 8648SOL     OW26842   6.733   0.350   2.441
 8648SOL    HW126843   6.820   0.330   2.488
 8648SOL    HW226844   6.747   0.345   2.342
 8649SOL     OW26845   5.784   5.729   0.423
 8649SOL    HW126846   5.691   5.751   0.453
 8649SOL    HW226847   5.834   5.814   0.407
 8650SOL     OW26848   1.389   6.467   5.029
 8650SOL    HW126849   1.309   6.439   4.976
 8650SOL    HW226850   1.466   6.408   5.007
 8651SOL     OW26851   3.952   0.637   0.517
 8651SOL    HW126852   3.989   0.723   0.481
 8651SOL    HW226853   3.897   0.593   0.447
 8652SOL     OW26854   1.000   4.712   3.069
 8652SOL    HW126855   1.081   4.724   3.126
 8652SOL    HW226856   0.961   4.802   3.048
 8653SOL     OW26857   6.944   1.180   6.634
 8653SOL    HW126858   6.912   1.214   6.546
 8653SOL    HW226859   0.012   1.141   6.624
 8654SOL     OW26860   0.628   4.835   1.415
 8654SOL    HW126861   0.656   4.895   1.340
 8654SOL    HW226862   0.701   4.830   1.483
 8655SOL     OW26863   5.617   0.263   4.486
 8655SOL    HW126864   5.624   0.167   4.462
 8655SOL    HW226865   5.637   0.319   4.405
 8656SOL     OW26866   6.531   0.659   2.334
 8656SOL    HW126867   6.493   0.586   2.277
 8656SOL    HW226868   6.566   0.732   2.275
 8657SOL     OW26869   5.279   5.800   0.175
 8657SOL    HW126870   5.336   5.748   0.110
 8657SOL    HW226871   5.199   5.837   0.127
 8658SOL     OW26872   6.449   6.371   0.475
 8658SOL    HW126873   6.535   6.330   0.508
 8658SOL    HW226874   6.408   6.310   0.407
 8659SOL     OW26875   5.205   2.508   2.291
 8659SOL    HW126876   5.194   2.529   2.193
 8659SOL    HW226877   5.165   2.418   2.310
 8660SOL     OW26878   6.495   3.657   1.928
 8660SOL    HW126879   6.441   3.737   1.902
 8660SOL    HW226880   6.552   3.680   2.008
 8661SOL     OW26881   6.310   3.719   1.425
 8661SOL    HW126882   6.259   3.697   1.508
 8661SOL    HW226883   6.280   3.660   1.350
 8662SOL     OW26884   4.221   5.505   1.720
 8662SOL    HW126885   4.233   5.430   1.785
 8662SOL    HW226886   4.185   5.468   1.634
 8663SOL     OW26887   2.468   5.656   2.176
 8663SOL    HW126888   2.507   5.659   2.268
 8663SOL    HW226889   2.539   5.678   2.109
 8664SOL     OW26890   2.346   4.824   1.459
 8664SOL    HW126891   2.305   4.867   1.378
 8664SOL    HW226892   2.402   4.892   1.507
 8665SOL     OW26893   5.844   5.372   5.208
 8665SOL    HW126894   5.931   5.321   5.202
 8665SOL    HW226895   5.798   5.349   5.294
 8666SOL     OW26896   5.645   0.923   3.937
 8666SOL    HW126897   5.625   0.876   4.023
 8666SOL    HW226898   5.743   0.942   3.931
 8667SOL     OW26899   4.856   2.195   4.296
 8667SOL    HW126900   4.875   2.188   4.394
 8667SOL    HW226901   4.877   2.108   4.252
 8668SOL     OW26902   5.374   3.829   3.969
 8668SOL    HW126903   5.472   3.837   3.948
 8668SOL    HW226904   5.363   3.796   4.063
 8669SOL     OW26905   0.285   6.191   6.758
 8669SOL    HW126906   0.360   6.216   6.820
 8669SOL    HW226907   0.319   6.187   6.664
 8670SOL     OW26908   3.958   5.433   6.446
 8670SOL    HW126909   4.033   5.382   6.404
 8670SOL    HW226910   3.871   5.387   6.428
 8671SOL     OW26911   0.212   1.665   3.390
 8671SOL    HW126912   0.287   1.602   3.369
 8671SOL    HW226913   0.137   1.614   3.434
 8672SOL     OW26914   0.466   6.016   3.819
 8672SOL    HW126915   0.368   6.025   3.837
 8672SOL    HW226916   0.506   6.106   3.806
 8673SOL     OW26917   6.067   1.731   0.231
 8673SOL    HW126918   6.092   1.634   0.223
 8673SOL    HW226919   5.968   1.740   0.230
 8674SOL     OW26920   5.814   5.519   3.150
 8674SOL    HW126921   5.824   5.420   3.153
 8674SOL    HW226922   5.898   5.562   3.184
 8675SOL     OW26923   4.420   1.558   4.745
 8675SOL    HW126924   4.408   1.569   4.844
 8675SOL    HW226925   4.467   1.638   4.708
 8676SOL     OW26926   5.039   6.642   3.138
 8676SOL    HW126927   5.039   6.559   3.082
 8676SOL    HW226928   5.117   6.640   3.201
 8677SOL     OW26929   1.852   5.851   5.605
 8677SOL    HW126930   1.788   5.927   5.614
 8677SOL    HW226931   1.802   5.765   5.612
 8678SOL     OW26932   0.960   6.904   0.648
 8678SOL    HW126933   0.907   6.826   0.682
 8678SOL    HW226934   0.906   6.954   0.581
 8679SOL     OW26935   1.332   1.372   3.163
 8679SOL    HW126936   1.310   1.276   3.146
 8679SOL    HW226937   1.349   1.418   3.076
 8680SOL     OW26938   6.022   3.693   0.310
 8680SOL    HW126939   5.993   3.607   0.269
 8680SOL    HW226940   5.942   3.746   0.337
 8681SOL     OW26941   4.638   5.497   1.628
 8681SOL    HW126942   4.587   5.581   1.649
 8681SOL    HW226943   4.641   5.484   1.529
 8682SOL     OW26944   6.105   0.231   2.650
 8682SOL    HW126945   6.196   0.192   2.657
 8682SOL    HW226946   6.044   0.167   2.603
 8683SOL     OW26947   1.841   1.974   5.515
 8683SOL    HW126948   1.804   2.053   5.564
 8683SOL    HW226949   1.777   1.897   5.522
 8684SOL     OW26950   6.153   3.400   4.366
 8684SOL    HW126951   6.080   3.334   4.378
 8684SOL    HW226952   6.114   3.488   4.339
 8685SOL     OW26953   6.023   3.235   6.564
 8685SOL    HW126954   6.025   3.333   6.587
 8685SOL    HW226955   5.992   3.183   6.644
 8686SOL     OW26956   6.874   0.730   2.148
 8686SOL    HW126957   6.883   0.660   2.219
 8686SOL    HW226958   6.857   0.819   2.191
 8687SOL     OW26959   5.356   5.344   2.826
 8687SOL    HW126960   5.429   5.410   2.808
 8687SOL    HW226961   5.272   5.376   2.782
 8688SOL     OW26962   1.294   5.087   6.738
 8688SOL    HW126963   1.369   5.061   6.678
 8688SOL    HW226964   1.325   5.082   6.833
 8689SOL     OW26965   4.186   2.625   0.550
 8689SOL    HW126966   4.164   2.702   0.610
 8689SOL    HW226967   4.264   2.575   0.587
 8690SOL     OW26968   1.202   3.456   4.188
 8690SOL    HW126969   1.120   3.455   4.246
 8690SOL    HW226970   1.282   3.435   4.244
 8691SOL     OW26971   4.281   2.227   6.252
 8691SOL    HW126972   4.261   2.253   6.346
 8691SOL    HW226973   4.204   2.175   6.214
 8692SOL     OW26974   3.519   0.551   4.577
 8692SOL    HW126975   3.487   0.464   4.540
 8692SOL    HW226976   3.615   0.542   4.603
 8693SOL     OW26977   5.904   0.256   0.257
 8693SOL    HW126978   5.941   0.221   0.343
 8693SOL    HW226979   5.939   0.348   0.241
 8694SOL     OW26980   5.673   1.378   4.851
 8694SOL    HW126981   5.740   1.307   4.873
 8694SOL    HW226982   5.718   1.452   4.801
 8695SOL     OW26983   4.287   2.927   6.375
 8695SOL    HW126984   4.349   2.898   6.448
 8695SOL    HW226985   4.252   3.018   6.395
 8696SOL     OW26986   3.191   5.742   5.221
 8696SOL    HW126987   3.207   5.779   5.129
 8696SOL    HW226988   3.094   5.749   5.243
 8697SOL     OW26989   0.575   4.051   6.747
 8697SOL    HW126990   0.617   4.083   6.832
 8697SOL    HW226991   0.502   4.114   6.720
 8698SOL     OW26992   4.651   5.916   4.737
 8698SOL    HW126993   4.689   5.842   4.792
 8698SOL    HW226994   4.638   5.997   4.794
 8699SOL     OW26995   1.713   3.029   5.172
 8699SOL    HW126996   1.721   3.104   5.106
 8699SOL    HW226997   1.644   2.964   5.140
 8700SOL     OW26998   0.586   0.819   4.717
 8700SOL    HW126999   0.671   0.839   4.766
 8700SOL    HW227000   0.555   0.900   4.668
 8701SOL     OW27001   1.552   1.293   0.445
 8701SOL    HW127002   1.628   1.357   0.451
 8701SOL    HW227003   1.487   1.310   0.519
 8702SOL     OW27004   5.321   5.186   1.761
 8702SOL    HW127005   5.248   5.134   1.805
 8702SOL    HW227006   5.361   5.251   1.825
 8703SOL     OW27007   2.805   4.564   6.817
 8703SOL    HW127008   2.856   4.591   6.898
 8703SOL    HW227009   2.829   4.624   6.741
 8704SOL     OW27010   0.061   4.649   3.352
 8704SOL    HW127011   0.062   4.605   3.262
 8704SOL    HW227012   0.149   4.635   3.397
 8705SOL     OW27013   4.934   1.795   6.173
 8705SOL    HW127014   4.837   1.820   6.173
 8705SOL    HW227015   4.985   1.858   6.114
 8706SOL     OW27016   4.549   2.127   6.983
 8706SOL    HW127017   4.600   2.075   6.915
 8706SOL    HW227018   4.499   2.064   0.018
 8707SOL     OW27019   0.963   2.251   4.594
 8707SOL    HW127020   1.049   2.202   4.585
 8707SOL    HW227021   0.978   2.348   4.575
 8708SOL     OW27022   4.002   1.772   3.596
 8708SOL    HW127023   4.023   1.867   3.621
 8708SOL    HW227024   3.917   1.768   3.545
 8709SOL     OW27025   6.603   6.746   6.611
 8709SOL    HW127026   6.634   6.728   6.705
 8709SOL    HW227027   6.519   6.799   6.614
 8710SOL     OW27028   1.996   2.360   3.923
 8710SOL    HW127029   1.938   2.425   3.873
 8710SOL    HW227030   2.019   2.283   3.863
 8711SOL     OW27031   1.986   6.535   3.001
 8711SOL    HW127032   1.987   6.436   3.018
 8711SOL    HW227033   2.012   6.583   3.085
 8712SOL     OW27034   3.451   1.316   4.825
 8712SOL    HW127035   3.398   1.233   4.838
 8712SOL    HW227036   3.427   1.383   4.895
 8713SOL     OW27037   6.907   3.448   1.733
 8713SOL    HW127038   6.947   3.357   1.731
 8713SOL    HW227039   6.808   3.441   1.745
 8714SOL     OW27040   1.493   0.686   5.989
 8714SOL    HW127041   1.446   0.619   5.931
 8714SOL    HW227042   1.587   0.656   6.004
 8715SOL     OW27043   4.017   0.881   0.360
 8715SOL    HW127044   4.003   0.968   0.407
 8715SOL    HW227045   3.994   0.891   0.263
 8716SOL     OW27046   0.177   6.298   6.990
 8716SOL    HW127047   0.103   6.364   6.979
 8716SOL    HW227048   0.209   6.268   6.900
 8717SOL     OW27049   2.858   3.326   5.334
 8717SOL    HW127050   2.887   3.421   5.324
 8717SOL    HW227051   2.782   3.321   5.399
 8718SOL     OW27052   1.509   1.989   6.311
 8718SOL    HW127053   1.442   2.033   6.370
 8718SOL    HW227054   1.547   2.056   6.247
 8719SOL     OW27055   3.326   0.162   0.278
 8719SOL    HW127056   3.239   0.163   0.329
 8719SOL    HW227057   3.337   0.248   0.229
 8720SOL     OW27058   1.028   6.609   5.902
 8720SOL    HW127059   1.029   6.525   5.956
 8720SOL    HW227060   1.120   6.649   5.900
 8721SOL     OW27061   6.234   1.442   0.909
 8721SOL    HW127062   6.149   1.436   0.857
 8721SOL    HW227063   6.226   1.514   0.978
 8722SOL     OW27064   3.098   0.851   1.438
 8722SOL    HW127065   3.081   0.860   1.536
 8722SOL    HW227066   3.185   0.803   1.424
 8723SOL     OW27067   5.191   0.319   1.865
 8723SOL    HW127068   5.206   0.403   1.916
 8723SOL    HW227069   5.167   0.340   1.770
 8724SOL     OW27070   5.684   7.015   4.386
 8724SOL    HW127071   5.741   6.945   4.342
 8724SOL    HW227072   5.588   6.995   4.369
 8725SOL     OW27073   1.291   5.741   5.694
 8725SOL    HW127074   1.339   5.742   5.606
 8725SOL    HW227075   1.195   5.720   5.679
 8726SOL     OW27076   0.371   0.584   1.914
 8726SOL    HW127077   0.327   0.672   1.897
 8726SOL    HW227078   0.316   0.532   1.979
 8727SOL     OW27079   6.274   0.278   1.070
 8727SOL    HW127080   6.256   0.192   1.118
 8727SOL    HW227081   6.223   0.352   1.113
 8728SOL     OW27082   5.712   1.182   2.439
 8728SOL    HW127083   5.728   1.161   2.343
 8728SOL    HW227084   5.614   1.178   2.458
 8729SOL     OW27085   3.488   4.934   5.207
 8729SOL    HW127086   3.426   4.893   5.274
 8729SOL    HW227087   3.576   4.886   5.210
 8730SOL     OW27088   5.220   4.002   3.195
 8730SOL    HW127089   5.217   3.922   3.255
 8730SOL    HW227090   5.147   3.995   3.126
 8731SOL     OW27091   0.766   3.776   3.097
 8731SOL    HW127092   0.862   3.782   3.122
 8731SOL    HW227093   0.715   3.731   3.170
 8732SOL     OW27094   5.956   4.633   2.454
 8732SOL    HW127095   5.906   4.628   2.541
 8732SOL    HW227096   6.052   4.650   2.471
 8733SOL     OW27097   1.094   5.877   0.543
 8733SOL    HW127098   1.033   5.799   0.558
 8733SOL    HW227099   1.061   5.955   0.596
 8734SOL     OW27100   0.582   3.060   3.279
 8734SOL    HW127101   0.580   3.132   3.209
 8734SOL    HW227102   0.673   3.018   3.281
 8735SOL     OW27103   1.010   2.457   5.846
 8735SOL    HW127104   1.094   2.506   5.869
 8735SOL    HW227105   0.996   2.457   5.747
 8736SOL     OW27106   6.710   5.567   2.088
 8736SOL    HW127107   6.680   5.635   2.155
 8736SOL    HW227108   6.773   5.610   2.024
 8737SOL     OW27109   2.401   0.023   7.004
 8737SOL    HW127110   2.432   7.020   0.071
 8737SOL    HW227111   2.476   0.065   6.954
 8738SOL     OW27112   2.480   5.570   3.186
 8738SOL    HW127113   2.491   5.666   3.213
 8738SOL    HW227114   2.388   5.540   3.211
 8739SOL     OW27115   5.555   5.626   6.218
 8739SOL    HW127116   5.614   5.662   6.291
 8739SOL    HW227117   5.601   5.637   6.130
 8740SOL     OW27118   4.118   1.421   3.302
 8740SOL    HW127119   4.048   1.447   3.369
 8740SOL    HW227120   4.206   1.459   3.330
 8741SOL     OW27121   2.238   0.725   2.880
 8741SOL    HW127122   2.242   0.629   2.907
 8741SOL    HW227123   2.146   0.747   2.848
 8742SOL     OW27124   4.608   0.850   1.879
 8742SOL    HW127125   4.696   0.853   1.927
 8742SOL    HW227126   4.621   0.875   1.783
 8743SOL     OW27127   1.514   0.416   1.247
 8743SOL    HW127128   1.573   0.477   1.301
 8743SOL    HW227129   1.463   0.356   1.308
 8744SOL     OW27130   4.393   2.866   0.767
 8744SOL    HW127131   4.354   2.885   0.677
 8744SOL    HW227132   4.381   2.769   0.789
 8745SOL     OW27133   6.155   2.433   5.986
 8745SOL    HW127134   6.198   2.452   6.075
 8745SOL    HW227135   6.080   2.497   5.971
 8746SOL     OW27136   5.171   5.700   4.192
 8746SOL    HW127137   5.113   5.772   4.228
 8746SOL    HW227138   5.256   5.694   4.246
 8747SOL     OW27139   0.737   1.315   2.756
 8747SOL    HW127140   0.750   1.227   2.710
 8747SOL    HW227141   0.781   1.387   2.702
 8748SOL     OW27142   0.663   2.238   4.528
 8748SOL    HW127143   0.762   2.221   4.529
 8748SOL    HW227144   0.625   2.207   4.441
 8749SOL     OW27145   1.616   0.105   5.646
 8749SOL    HW127146   1.669   0.063   5.719
 8749SOL    HW227147   1.603   0.202   5.667
 8750SOL     OW27148   3.441   3.610   5.572
 8750SOL    HW127149   3.412   3.673   5.500
 8750SOL    HW227150   3.361   3.572   5.618
 8751SOL     OW27151   6.900   1.336   2.223
 8751SOL    HW127152   6.990   1.320   2.181
 8751SOL    HW227153   6.911   1.349   2.321
 8752SOL     OW27154   3.726   2.855   0.060
 8752SOL    HW127155   3.807   2.849   0.118
 8752SOL    HW227156   3.663   2.781   0.083
 8753SOL     OW27157   2.510   2.387   6.440
 8753SOL    HW127158   2.437   2.454   6.434
 8753SOL    HW227159   2.487   2.307   6.385
 8754SOL     OW27160   2.275   4.746   5.488
 8754SOL    HW127161   2.275   4.828   5.545
 8754SOL    HW227162   2.321   4.764   5.402
 8755SOL     OW27163   2.212   0.530   0.995
 8755SOL    HW127164   2.178   0.515   1.088
 8755SOL    HW227165   2.216   0.628   0.976
 8756SOL     OW27166   1.713   3.201   3.466
 8756SOL    HW127167   1.728   3.299   3.454
 8756SOL    HW227168   1.787   3.162   3.520
 8757SOL     OW27169   4.738   5.859   7.021
 8757SOL    HW127170   4.738   5.957   7.004
 8757SOL    HW227171   4.688   5.813   6.948
 8758SOL     OW27172   4.795   6.184   2.626
 8758SOL    HW127173   4.747   6.097   2.635
 8758SOL    HW227174   4.748   6.242   2.559
 8759SOL     OW27175   5.601   3.268   6.858
 8759SOL    HW127176   5.505   3.298   6.851
 8759SOL    HW227177   5.607   3.189   6.918
 8760SOL     OW27178   2.924   0.322   5.001
 8760SOL    HW127179   3.023   0.317   5.013
 8760SOL    HW227180   2.901   0.309   4.904
 8761SOL     OW27181   6.075   2.055   0.899
 8761SOL    HW127182   5.996   2.092   0.850
 8761SOL    HW227183   6.044   1.981   0.960
 8762SOL     OW27184   0.287   5.424   4.360
 8762SOL    HW127185   0.365   5.426   4.297
 8762SOL    HW227186   0.317   5.393   4.450
 8763SOL     OW27187   5.793   0.351   5.899
 8763SOL    HW127188   5.707   0.301   5.888
 8763SOL    HW227189   5.836   0.324   5.985
 8764SOL     OW27190   4.673   0.014   5.962
 8764SOL    HW127191   4.574   0.028   5.972
 8764SOL    HW227192   4.720   0.047   6.043
 8765SOL     OW27193   4.994   1.191   4.386
 8765SOL    HW127194   4.963   1.116   4.327
 8765SOL    HW227195   5.071   1.237   4.343
 8766SOL     OW27196   4.360   4.201   5.293
 8766SOL    HW127197   4.310   4.266   5.236
 8766SOL    HW227198   4.297   4.133   5.329
 8767SOL     OW27199   5.074   6.407   2.980
 8767SOL    HW127200   4.986   6.430   2.939
 8767SOL    HW227201   5.112   6.327   2.934
 8768SOL     OW27202   0.714   2.887   1.044
 8768SOL    HW127203   0.692   2.983   1.025
 8768SOL    HW227204   0.715   2.836   0.958
 8769SOL     OW27205   6.936   0.980   2.701
 8769SOL    HW127206   6.864   0.913   2.684
 8769SOL    HW227207   6.947   0.991   2.800
 8770SOL     OW27208   4.606   4.392   2.500
 8770SOL    HW127209   4.587   4.393   2.598
 8770SOL    HW227210   4.620   4.298   2.470
 8771SOL     OW27211   0.974   2.459   6.356
 8771SOL    HW127212   0.894   2.422   6.309
 8771SOL    HW227213   1.025   2.519   6.293
 8772SOL     OW27214   4.549   0.443   6.341
 8772SOL    HW127215   4.460   0.398   6.348
 8772SOL    HW227216   4.603   0.398   6.269
 8773SOL     OW27217   5.758   2.618   3.125
 8773SOL    HW127218   5.712   2.685   3.184
 8773SOL    HW227219   5.728   2.631   3.031
 8774SOL     OW27220   0.934   0.268   0.095
 8774SOL    HW127221   0.858   0.315   0.139
 8774SOL    HW227222   0.932   0.286   7.021
 8775SOL     OW27223   5.560   1.063   5.718
 8775SOL    HW127224   5.549   1.141   5.657
 8775SOL    HW227225   5.636   1.080   5.781
 8776SOL     OW27226   4.745   3.719   1.024
 8776SOL    HW127227   4.670   3.682   0.969
 8776SOL    HW227228   4.795   3.644   1.067
 8777SOL     OW27229   6.622   4.150   3.222
 8777SOL    HW127230   6.546   4.094   3.256
 8777SOL    HW227231   6.702   4.091   3.206
 8778SOL     OW27232   5.347   2.801   5.764
 8778SOL    HW127233   5.326   2.704   5.758
 8778SOL    HW227234   5.371   2.837   5.674
 8779SOL     OW27235   2.163   6.034   2.424
 8779SOL    HW127236   2.086   5.977   2.394
 8779SOL    HW227237   2.247   6.000   2.382
 8780SOL     OW27238   0.651   6.883   2.898
 8780SOL    HW127239   0.599   6.961   2.935
 8780SOL    HW227240   0.588   6.819   2.855
 8781SOL     OW27241   5.032   0.797   3.681
 8781SOL    HW127242   5.018   0.889   3.646
 8781SOL    HW227243   4.952   0.740   3.659
 8782SOL     OW27244   6.451   0.622   1.804
 8782SOL    HW127245   6.384   0.588   1.870
 8782SOL    HW227246   6.540   0.632   1.848
 8783SOL     OW27247   6.799   4.194   3.562
 8783SOL    HW127248   6.841   4.105   3.543
 8783SOL    HW227249   6.854   4.267   3.519
 8784SOL     OW27250   6.691   6.923   6.245
 8784SOL    HW127251   6.754   6.928   6.322
 8784SOL    HW227252   6.639   6.838   6.249
 8785SOL     OW27253   6.621   5.214   6.612
 8785SOL    HW127254   6.708   5.185   6.653
 8785SOL    HW227255   6.567   5.133   6.588
 8786SOL     OW27256   2.898   1.241   1.528
 8786SOL    HW127257   2.920   1.220   1.624
 8786SOL    HW227258   2.808   1.283   1.523
 8787SOL     OW27259   3.169   0.601   2.496
 8787SOL    HW127260   3.157   0.698   2.472
 8787SOL    HW227261   3.111   0.545   2.438
 8788SOL     OW27262   0.019   1.526   5.160
 8788SOL    HW127263   7.008   1.615   5.190
 8788SOL    HW227264   0.039   1.530   5.062
 8789SOL     OW27265   6.367   4.803   5.364
 8789SOL    HW127266   6.385   4.901   5.364
 8789SOL    HW227267   6.335   4.775   5.273
 8790SOL     OW27268   6.090   1.215   6.298
 8790SOL    HW127269   6.080   1.314   6.294
 8790SOL    HW227270   6.019   1.177   6.357
 8791SOL     OW27271   4.624   7.017   4.934
 8791SOL    HW127272   4.653   6.983   4.844
 8791SOL    HW227273   4.581   6.943   4.985
 8792SOL     OW27274   3.412   5.497   3.022
 8792SOL    HW127275   3.501   5.459   2.998
 8792SOL    HW227276   3.357   5.426   3.067
 8793SOL     OW27277   0.792   4.793   2.616
 8793SOL    HW127278   0.803   4.838   2.528
 8793SOL    HW227279   0.829   4.700   2.612
 8794SOL     OW27280   5.886   0.776   3.160
 8794SOL    HW127281   5.789   0.780   3.184
 8794SOL    HW227282   5.902   0.826   3.076
 8795SOL     OW27283   1.248   4.630   5.494
 8795SOL    HW127284   1.170   4.581   5.534
 8795SOL    HW227285   1.303   4.566   5.440
 8796SOL     OW27286   5.835   2.674   2.742
 8796SOL    HW127287   5.893   2.612   2.795
 8796SOL    HW227288   5.822   2.759   2.793
 8797SOL     OW27289   0.057   0.228   5.508
 8797SOL    HW127290   0.084   0.252   5.415
 8797SOL    HW227291   0.095   0.138   5.532
 8798SOL     OW27292   4.340   6.175   6.473
 8798SOL    HW127293   4.400   6.246   6.436
 8798SOL    HW227294   4.388   6.123   6.544
 8799SOL     OW27295   2.454   4.894   3.497
 8799SOL    HW127296   2.526   4.918   3.432
 8799SOL    HW227297   2.366   4.927   3.464
 8800SOL     OW27298   5.225   5.385   6.350
 8800SOL    HW127299   5.229   5.477   6.391
 8800SOL    HW227300   5.139   5.342   6.373
 8801SOL     OW27301   5.848   1.619   4.400
 8801SOL    HW127302   5.947   1.612   4.410
 8801SOL    HW227303   5.824   1.618   4.303
 8802SOL     OW27304   1.402   6.033   5.896
 8802SOL    HW127305   1.431   6.051   5.802
 8802SOL    HW227306   1.433   6.107   5.955
 8803SOL     OW27307   6.995   7.007   6.976
 8803SOL    HW127308   6.950   0.061   7.019
 8803SOL    HW227309   6.960   6.996   6.882
 8804SOL     OW27310   2.648   6.202   1.338
 8804SOL    HW127311   2.638   6.213   1.437
 8804SOL    HW227312   2.735   6.243   1.309
 8805SOL     OW27313   4.437   5.466   3.215
 8805SOL    HW127314   4.428   5.563   3.236
 8805SOL    HW227315   4.491   5.454   3.132
 8806SOL     OW27316   2.585   5.016   0.668
 8806SOL    HW127317   2.662   5.030   0.606
 8806SOL    HW227318   2.619   4.978   0.754
 8807SOL     OW27319   4.349   1.560   0.301
 8807SOL    HW127320   4.294   1.501   0.361
 8807SOL    HW227321   4.444   1.559   0.332
 8808SOL     OW27322   6.750   2.183   5.579
 8808SOL    HW127323   6.703   2.101   5.613
 8808SOL    HW227324   6.706   2.216   5.496
 8809SOL     OW27325   2.376   4.581   3.740
 8809SOL    HW127326   2.351   4.675   3.721
 8809SOL    HW227327   2.348   4.557   3.833
 8810SOL     OW27328   5.867   0.581   5.146
 8810SOL    HW127329   5.956   0.590   5.190
 8810SOL    HW227330   5.808   0.523   5.201
 8811SOL     OW27331   3.224   0.182   2.940
 8811SOL    HW127332   3.187   0.242   3.011
 8811SOL    HW227333   3.148   0.140   2.889
 8812SOL     OW27334   2.236   0.673   0.453
 8812SOL    HW127335   2.232   0.591   0.510
 8812SOL    HW227336   2.171   0.740   0.488
 8813SOL     OW27337   1.760   5.100   3.005
 8813SOL    HW127338   1.778   5.191   3.041
 8813SOL    HW227339   1.670   5.069   3.035
 8814SOL     OW27340   5.920   6.954   0.829
 8814SOL    HW127341   5.920   6.886   0.755
 8814SOL    HW227342   5.934   6.907   0.917
 8815SOL     OW27343   5.666   0.066   1.114
 8815SOL    HW127344   5.604   7.018   1.147
 8815SOL    HW227345   5.657   0.075   1.015
 8816SOL     OW27346   0.952   6.557   6.361
 8816SOL    HW127347   0.985   6.474   6.316
 8816SOL    HW227348   1.026   6.624   6.365
 8817SOL     OW27349   0.132   4.152   3.962
 8817SOL    HW127350   0.038   4.186   3.976
 8817SOL    HW227351   0.194   4.203   4.022
 8818SOL     OW27352   1.160   6.278   3.931
 8818SOL    HW127353   1.083   6.228   3.971
 8818SOL    HW227354   1.189   6.232   3.847
 8819SOL     OW27355   6.234   4.638   5.849
 8819SOL    HW127356   6.154   4.608   5.797
 8819SOL    HW227357   6.296   4.688   5.788
 8820SOL     OW27358   3.289   1.063   4.902
 8820SOL    HW127359   3.219   1.124   4.939
 8820SOL    HW227360   3.251   1.010   4.827
 8821SOL     OW27361   1.156   5.767   0.814
 8821SOL    HW127362   1.082   5.752   0.747
 8821SOL    HW227363   1.177   5.864   0.820
 8822SOL     OW27364   0.535   0.716   3.571
 8822SOL    HW127365   0.566   0.628   3.535
 8822SOL    HW227366   0.435   0.718   3.570
 8823SOL     OW27367   2.125   1.548   2.030
 8823SOL    HW127368   2.078   1.566   2.117
 8823SOL    HW227369   2.098   1.617   1.963
 8824SOL     OW27370   1.717   0.744   0.411
 8824SOL    HW127371   1.776   0.824   0.400
 8824SOL    HW227372   1.726   0.685   0.331
 8825SOL     OW27373   1.574   1.332   1.532
 8825SOL    HW127374   1.533   1.262   1.590
 8825SOL    HW227375   1.651   1.375   1.580
 8826SOL     OW27376   1.051   3.632   1.223
 8826SOL    HW127377   1.025   3.708   1.162
 8826SOL    HW227378   0.993   3.634   1.304
 8827SOL     OW27379   4.431   0.242   3.360
 8827SOL    HW127380   4.391   0.159   3.400
 8827SOL    HW227381   4.487   0.288   3.429
 8828SOL     OW27382   4.110   4.754   6.727
 8828SOL    HW127383   4.032   4.763   6.789
 8828SOL    HW227384   4.114   4.660   6.692
 8829SOL     OW27385   5.723   2.058   1.214
 8829SOL    HW127386   5.700   2.014   1.127
 8829SOL    HW227387   5.772   1.993   1.272
 8830SOL     OW27388   2.027   1.350   2.553
 8830SOL    HW127389   2.062   1.428   2.606
 8830SOL    HW227390   2.085   1.270   2.570
 8831SOL     OW27391   6.184   2.441   2.580
 8831SOL    HW127392   6.087   2.442   2.604
 8831SOL    HW227393   6.220   2.348   2.589
 8832SOL     OW27394   6.283   5.866   3.904
 8832SOL    HW127395   6.222   5.944   3.921
 8832SOL    HW227396   6.329   5.840   3.988
 8833SOL     OW27397   3.930   4.397   6.193
 8833SOL    HW127398   3.863   4.427   6.124
 8833SOL    HW227399   3.983   4.476   6.223
 8834SOL     OW27400   5.512   3.778   4.461
 8834SOL    HW127401   5.475   3.865   4.428
 8834SOL    HW227402   5.455   3.744   4.536
 8835SOL     OW27403   5.262   1.006   5.980
 8835SOL    HW127404   5.357   1.016   5.948
 8835SOL    HW227405   5.223   1.096   5.996
 8836SOL     OW27406   4.937   1.739   1.118
 8836SOL    HW127407   4.857   1.682   1.140
 8836SOL    HW227408   4.907   1.834   1.105
 8837SOL     OW27409   0.190   7.006   2.599
 8837SOL    HW127410   0.236   6.944   2.535
 8837SOL    HW227411   0.092   6.985   2.602
 8838SOL     OW27412   1.664   3.956   3.542
 8838SOL    HW127413   1.733   3.953   3.615
 8838SOL    HW227414   1.699   3.910   3.461
 8839SOL     OW27415   4.088   6.559   2.278
 8839SOL    HW127416   4.118   6.488   2.342
 8839SOL    HW227417   4.167   6.607   2.240
 8840SOL     OW27418   0.164   0.548   2.611
 8840SOL    HW127419   0.250   0.500   2.623
 8840SOL    HW227420   0.144   0.603   2.692
 8841SOL     OW27421   6.454   1.599   3.571
 8841SOL    HW127422   6.375   1.537   3.575
 8841SOL    HW227423   6.469   1.640   3.661
 8842SOL     OW27424   3.376   3.720   3.615
 8842SOL    HW127425   3.453   3.767   3.660
 8842SOL    HW227426   3.296   3.779   3.617
 8843SOL     OW27427   1.698   3.460   3.962
 8843SOL    HW127428   1.705   3.418   3.872
 8843SOL    HW227429   1.617   3.425   4.009
 8844SOL     OW27430   6.548   1.343   4.784
 8844SOL    HW127431   6.604   1.425   4.792
 8844SOL    HW227432   6.455   1.367   4.758
 8845SOL     OW27433   2.815   4.149   0.487
 8845SOL    HW127434   2.746   4.117   0.422
 8845SOL    HW227435   2.812   4.094   0.570
 8846SOL     OW27436   3.749   5.126   4.363
 8846SOL    HW127437   3.724   5.213   4.321
 8846SOL    HW227438   3.774   5.061   4.291
 8847SOL     OW27439   2.278   1.596   3.614
 8847SOL    HW127440   2.239   1.597   3.521
 8847SOL    HW227441   2.361   1.540   3.614
 8848SOL     OW27442   2.889   1.947   2.639
 8848SOL    HW127443   2.846   1.857   2.634
 8848SOL    HW227444   2.840   2.011   2.580
 8849SOL     OW27445   3.476   4.916   3.206
 8849SOL    HW127446   3.496   4.940   3.302
 8849SOL    HW227447   3.381   4.887   3.198
 8850SOL     OW27448   2.797   1.017   0.321
 8850SOL    HW127449   2.878   0.957   0.319
 8850SOL    HW227450   2.766   1.026   0.416
 8851SOL     OW27451   1.154   4.814   1.861
 8851SOL    HW127452   1.114   4.731   1.821
 8851SOL    HW227453   1.222   4.851   1.798
 8852SOL     OW27454   4.005   3.476   5.805
 8852SOL    HW127455   4.077   3.545   5.809
 8852SOL    HW227456   4.014   3.423   5.721
 8853SOL     OW27457   3.131   0.145   5.650
 8853SOL    HW127458   3.139   0.156   5.749
 8853SOL    HW227459   3.214   0.182   5.606
 8854SOL     OW27460   3.165   1.551   6.555
 8854SOL    HW127461   3.222   1.542   6.474
 8854SOL    HW227462   3.221   1.579   6.633
 8855SOL     OW27463   6.843   6.002   0.453
 8855SOL    HW127464   6.805   5.913   0.426
 8855SOL    HW227465   6.807   6.073   0.393
 8856SOL     OW27466   6.298   0.802   5.893
 8856SOL    HW127467   6.345   0.813   5.981
 8856SOL    HW227468   6.203   0.776   5.909
 8857SOL     OW27469   6.519   2.070   3.998
 8857SOL    HW127470   6.466   2.149   4.030
 8857SOL    HW227471   6.458   2.005   3.953
 8858SOL     OW27472   1.175   2.071   5.826
 8858SOL    HW127473   1.113   1.996   5.800
 8858SOL    HW227474   1.193   2.066   5.925
 8859SOL     OW27475   6.964   0.550   4.523
 8859SOL    HW127476   7.009   0.466   4.554
 8859SOL    HW227477   6.880   0.526   4.474
 8860SOL     OW27478   1.232   3.656   3.067
 8860SOL    HW127479   1.277   3.745   3.052
 8860SOL    HW227480   1.292   3.583   3.033
 8861SOL     OW27481   3.679   1.753   5.986
 8861SOL    HW127482   3.596   1.799   5.955
 8861SOL    HW227483   3.756   1.818   5.983
 8862SOL     OW27484   6.256   0.693   3.126
 8862SOL    HW127485   6.182   0.635   3.092
 8862SOL    HW227486   6.232   0.789   3.114
 8863SOL     OW27487   1.773   5.569   4.350
 8863SOL    HW127488   1.751   5.663   4.377
 8863SOL    HW227489   1.857   5.569   4.294
 8864SOL     OW27490   1.952   3.211   6.203
 8864SOL    HW127491   2.041   3.234   6.162
 8864SOL    HW227492   1.953   3.234   6.300
 8865SOL     OW27493   3.548   1.633   5.678
 8865SOL    HW127494   3.526   1.730   5.663
 8865SOL    HW227495   3.478   1.576   5.636
 8866SOL     OW27496   5.110   6.964   4.166
 8866SOL    HW127497   5.165   6.881   4.161
 8866SOL    HW227498   5.014   6.941   4.153
 8867SOL     OW27499   5.183   3.687   2.820
 8867SOL    HW127500   5.105   3.713   2.876
 8867SOL    HW227501   5.259   3.661   2.879
 8868SOL     OW27502   6.501   3.555   0.767
 8868SOL    HW127503   6.419   3.498   0.757
 8868SOL    HW227504   6.520   3.601   0.681
 8869SOL     OW27505   4.109   5.907   4.486
 8869SOL    HW127506   4.194   5.893   4.435
 8869SOL    HW227507   4.085   5.824   4.535
 8870SOL     OW27508   4.466   0.101   0.738
 8870SOL    HW127509   4.376   0.089   0.779
 8870SOL    HW227510   4.479   0.198   0.716
 8871SOL     OW27511   1.595   0.902   3.801
 8871SOL    HW127512   1.502   0.878   3.828
 8871SOL    HW227513   1.631   0.834   3.738
 8872SOL     OW27514   1.327   4.385   5.283
 8872SOL    HW127515   1.404   4.369   5.344
 8872SOL    HW227516   1.278   4.299   5.266
 8873SOL     OW27517   6.897   5.025   2.156
 8873SOL    HW127518   6.867   4.932   2.181
 8873SOL    HW227519   6.977   5.018   2.096
 8874SOL     OW27520   2.776   6.539   1.649
 8874SOL    HW127521   2.859   6.504   1.693
 8874SOL    HW227522   2.770   6.638   1.663
 8875SOL     OW27523   6.283   3.516   4.583
 8875SOL    HW127524   6.213   3.576   4.622
 8875SOL    HW227525   6.264   3.502   4.486
 8876SOL     OW27526   1.799   0.596   4.320
 8876SOL    HW127527   1.704   0.568   4.325
 8876SOL    HW227528   1.806   0.679   4.264
 8877SOL     OW27529   2.380   1.819   4.350
 8877SOL    HW127530   2.451   1.749   4.351
 8877SOL    HW227531   2.356   1.843   4.445
 8878SOL     OW27532   0.036   5.403   0.798
 8878SOL    HW127533   0.050   5.461   0.878
 8878SOL    HW227534   0.018   5.460   0.718
 8879SOL     OW27535   5.056   4.794   1.819
 8879SOL    HW127536   4.988   4.735   1.775
 8879SOL    HW227537   5.012   4.879   1.848
 8880SOL     OW27538   5.986   5.697   4.487
 8880SOL    HW127539   6.000   5.606   4.449
 8880SOL    HW227540   5.893   5.728   4.467
 8881SOL     OW27541   6.190   6.657   5.024
 8881SOL    HW127542   6.164   6.639   5.119
 8881SOL    HW227543   6.265   6.723   5.021
 8882SOL     OW27544   5.243   1.493   0.699
 8882SOL    HW127545   5.200   1.571   0.744
 8882SOL    HW227546   5.173   1.436   0.657
 8883SOL     OW27547   1.884   6.718   5.512
 8883SOL    HW127548   1.962   6.777   5.530
 8883SOL    HW227549   1.830   6.756   5.437
 8884SOL     OW27550   6.010   4.655   6.585
 8884SOL    HW127551   5.970   4.682   6.672
 8884SOL    HW227552   5.992   4.727   6.517
 8885SOL     OW27553   0.430   3.260   0.600
 8885SOL    HW127554   0.431   3.177   0.545
 8885SOL    HW227555   0.379   3.331   0.553
 8886SOL     OW27556   3.641   6.344   5.183
 8886SOL    HW127557   3.546   6.324   5.208
 8886SOL    HW227558   3.643   6.421   5.119
 8887SOL     OW27559   2.836   1.569   1.458
 8887SOL    HW127560   2.842   1.669   1.463
 8887SOL    HW227561   2.842   1.531   1.550
 8888SOL     OW27562   1.370   1.707   0.694
 8888SOL    HW127563   1.451   1.756   0.727
 8888SOL    HW227564   1.288   1.749   0.733
 8889SOL     OW27565   5.598   6.916   5.347
 8889SOL    HW127566   5.581   6.891   5.252
 8889SOL    HW227567   5.525   6.879   5.405
 8890SOL     OW27568   6.140   5.233   3.734
 8890SOL    HW127569   6.068   5.278   3.787
 8890SOL    HW227570   6.226   5.238   3.784
 8891SOL     OW27571   5.106   3.669   5.541
 8891SOL    HW127572   5.198   3.706   5.531
 8891SOL    HW227573   5.039   3.740   5.517
 8892SOL     OW27574   4.051   5.610   2.942
 8892SOL    HW127575   4.072   5.706   2.964
 8892SOL    HW227576   4.131   5.554   2.963
 8893SOL     OW27577   1.052   0.035   2.573
 8893SOL    HW127578   1.082   6.964   2.579
 8893SOL    HW227579   0.952   0.038   2.562
 8894SOL     OW27580   4.086   2.244   5.647
 8894SOL    HW127581   4.124   2.302   5.718
 8894SOL    HW227582   4.153   2.231   5.574
 8895SOL     OW27583   6.364   1.749   1.452
 8895SOL    HW127584   6.318   1.837   1.441
 8895SOL    HW227585   6.427   1.735   1.375
 8896SOL     OW27586   1.581   3.061   5.479
 8896SOL    HW127587   1.563   3.053   5.577
 8896SOL    HW227588   1.659   3.004   5.455
 8897SOL     OW27589   1.917   2.710   3.349
 8897SOL    HW127590   1.918   2.725   3.448
 8897SOL    HW227591   1.874   2.788   3.304
 8898SOL     OW27592   5.640   3.531   4.294
 8898SOL    HW127593   5.577   3.589   4.347
 8898SOL    HW227594   5.595   3.444   4.273
 8899SOL     OW27595   2.419   4.939   6.874
 8899SOL    HW127596   2.510   4.902   6.854
 8899SOL    HW227597   2.351   4.897   6.814
 8900SOL     OW27598   5.542   2.738   2.325
 8900SOL    HW127599   5.583   2.827   2.303
 8900SOL    HW227600   5.546   2.723   2.424
 8901SOL     OW27601   1.918   1.404   4.333
 8901SOL    HW127602   1.969   1.318   4.337
 8901SOL    HW227603   1.830   1.393   4.380
 8902SOL     OW27604   3.568   6.556   0.416
 8902SOL    HW127605   3.579   6.635   0.355
 8902SOL    HW227606   3.652   6.503   0.417
 8903SOL     OW27607   0.713   1.519   4.616
 8903SOL    HW127608   0.774   1.442   4.596
 8903SOL    HW227609   0.689   1.518   4.713
 8904SOL     OW27610   5.925   5.684   3.604
 8904SOL    HW127611   5.890   5.599   3.565
 8904SOL    HW227612   5.996   5.663   3.672
 8905SOL     OW27613   2.197   3.931   4.328
 8905SOL    HW127614   2.150   4.000   4.383
 8905SOL    HW227615   2.182   3.840   4.368
 8906SOL     OW27616   6.637   6.760   6.885
 8906SOL    HW127617   6.583   6.833   6.926
 8906SOL    HW227618   6.699   6.722   6.954
 8907SOL     OW27619   3.248   2.051   4.601
 8907SOL    HW127620   3.214   1.960   4.576
 8907SOL    HW227621   3.211   2.118   4.537
 8908SOL     OW27622   1.461   3.612   0.004
 8908SOL    HW127623   1.448   3.620   6.929
 8908SOL    HW227624   1.432   3.521   0.034
 8909SOL     OW27625   1.828   0.341   5.756
 8909SOL    HW127626   1.882   0.423   5.737
 8909SOL    HW227627   1.731   0.363   5.750
 8910SOL     OW27628   1.068   2.634   6.184
 8910SOL    HW127629   1.052   2.727   6.153
 8910SOL    HW227630   1.159   2.604   6.155
 8911SOL     OW27631   4.323   2.331   4.742
 8911SOL    HW127632   4.273   2.368   4.821
 8911SOL    HW227633   4.258   2.304   4.671
 8912SOL     OW27634   4.083   2.269   0.818
 8912SOL    HW127635   4.171   2.224   0.833
 8912SOL    HW227636   4.017   2.203   0.782
 8913SOL     OW27637   5.064   5.241   0.007
 8913SOL    HW127638   4.999   5.203   0.072
 8913SOL    HW227639   5.033   5.221   6.938
 8914SOL     OW27640   4.086   0.823   5.099
 8914SOL    HW127641   4.022   0.887   5.057
 8914SOL    HW227642   4.134   0.773   5.028
 8915SOL     OW27643   0.809   2.647   3.581
 8915SOL    HW127644   0.769   2.680   3.667
 8915SOL    HW227645   0.881   2.710   3.551
 8916SOL     OW27646   6.869   4.170   0.713
 8916SOL    HW127647   6.826   4.104   0.650
 8916SOL    HW227648   6.930   4.121   0.775
 8917SOL     OW27649   6.402   4.520   6.475
 8917SOL    HW127650   6.461   4.474   6.409
 8917SOL    HW227651   6.414   4.479   6.566
 8918SOL     OW27652   6.941   3.802   1.053
 8918SOL    HW127653   6.853   3.798   1.100
 8918SOL    HW227654   6.953   3.720   0.997
 8919SOL     OW27655   4.057   3.390   0.924
 8919SOL    HW127656   3.969   3.349   0.948
 8919SOL    HW227657   4.043   3.459   0.853
 8920SOL     OW27658   0.927   6.445   6.870
 8920SOL    HW127659   0.929   6.399   6.781
 8920SOL    HW227660   0.996   6.517   6.872
 8921SOL     OW27661   2.522   2.109   2.900
 8921SOL    HW127662   2.583   2.183   2.870
 8921SOL    HW227663   2.573   2.023   2.904
 8922SOL     OW27664   3.748   5.085   0.950
 8922SOL    HW127665   3.837   5.069   0.907
 8922SOL    HW227666   3.684   5.120   0.883
 8923SOL     OW27667   1.299   3.397   6.094
 8923SOL    HW127668   1.372   3.389   6.162
 8923SOL    HW227669   1.244   3.479   6.115
 8924SOL     OW27670   2.981   5.832   5.466
 8924SOL    HW127671   2.934   5.757   5.513
 8924SOL    HW227672   2.920   5.869   5.395
 8925SOL     OW27673   1.040   1.077   2.782
 8925SOL    HW127674   1.036   1.171   2.817
 8925SOL    HW227675   0.949   1.049   2.751
 8926SOL     OW27676   5.551   4.028   6.569
 8926SOL    HW127677   5.556   4.125   6.591
 8926SOL    HW227678   5.636   3.998   6.528
 8927SOL     OW27679   1.111   1.635   4.364
 8927SOL    HW127680   1.195   1.631   4.419
 8927SOL    HW227681   1.135   1.631   4.267
 8928SOL     OW27682   6.761   0.990   5.597
 8928SOL    HW127683   6.738   0.897   5.624
 8928SOL    HW227684   6.801   0.990   5.505
 8929SOL     OW27685   6.822   3.587   4.252
 8929SOL    HW127686   6.843   3.685   4.245
 8929SOL    HW227687   6.862   3.538   4.175
 8930SOL     OW27688   1.862   3.827   4.532
 8930SOL    HW127689   1.953   3.806   4.497
 8930SOL    HW227690   1.863   3.916   4.577
 8931SOL     OW27691   2.939   3.004   1.430
 8931SOL    HW127692   2.936   3.091   1.382
 8931SOL    HW227693   2.847   2.978   1.459
 8932SOL     OW27694   5.574   0.554   0.217
 8932SOL    HW127695   5.659   0.572   0.267
 8932SOL    HW227696   5.584   0.469   0.164
 8933SOL     OW27697   1.421   2.347   6.285
 8933SOL    HW127698   1.428   2.436   6.329
 8933SOL    HW227699   1.488   2.341   6.210
 8934SOL     OW27700   3.326   5.290   4.368
 8934SOL    HW127701   3.397   5.248   4.424
 8934SOL    HW227702   3.245   5.310   4.424
 8935SOL     OW27703   5.471   3.757   1.507
 8935SOL    HW127704   5.452   3.846   1.464
 8935SOL    HW227705   5.411   3.746   1.586
 8936SOL     OW27706   1.250   3.485   1.479
 8936SOL    HW127707   1.260   3.572   1.430
 8936SOL    HW227708   1.156   3.477   1.512
 8937SOL     OW27709   0.280   0.633   4.596
 8937SOL    HW127710   0.376   0.653   4.617
 8937SOL    HW227711   0.227   0.632   4.681
 8938SOL     OW27712   6.967   1.039   0.506
 8938SOL    HW127713   6.968   1.136   0.481
 8938SOL    HW227714   6.875   1.002   0.495
 8939SOL     OW27715   6.064   3.622   4.243
 8939SOL    HW127716   6.049   3.576   4.155
 8939SOL    HW227717   6.077   3.720   4.229
 8940SOL     OW27718   6.009   1.876   1.622
 8940SOL    HW127719   6.026   1.780   1.602
 8940SOL    HW227720   5.940   1.883   1.694
 8941SOL     OW27721   6.655   2.608   2.487
 8941SOL    HW127722   6.623   2.564   2.571
 8941SOL    HW227723   6.597   2.580   2.411
 8942SOL     OW27724   0.798   5.868   4.585
 8942SOL    HW127725   0.772   5.851   4.680
 8942SOL    HW227726   0.887   5.826   4.567
 8943SOL     OW27727   3.755   5.126   0.238
 8943SOL    HW127728   3.829   5.175   0.283
 8943SOL    HW227729   3.669   5.145   0.285
 8944SOL     OW27730   4.765   5.675   4.824
 8944SOL    HW127731   4.752   5.617   4.743
 8944SOL    HW227732   4.807   5.621   4.897
 8945SOL     OW27733   0.053   2.158   4.397
 8945SOL    HW127734   6.998   2.219   4.391
 8945SOL    HW227735   0.088   2.140   4.305
 8946SOL     OW27736   3.632   1.064   4.063
 8946SOL    HW127737   3.723   1.022   4.061
 8946SOL    HW227738   3.563   0.992   4.066
 8947SOL     OW27739   1.845   3.156   5.622
 8947SOL    HW127740   1.872   3.231   5.563
 8947SOL    HW227741   1.757   3.177   5.665
 8948SOL     OW27742   5.858   5.954   3.602
 8948SOL    HW127743   5.932   5.980   3.665
 8948SOL    HW227744   5.848   5.855   3.601
 8949SOL     OW27745   3.995   5.913   0.483
 8949SOL    HW127746   3.978   5.826   0.530
 8949SOL    HW227747   4.093   5.919   0.461
 8950SOL     OW27748   4.373   3.066   0.946
 8950SOL    HW127749   4.439   3.081   1.019
 8950SOL    HW227750   4.400   2.986   0.892
 8951SOL     OW27751   1.972   0.872   5.237
 8951SOL    HW127752   1.947   0.804   5.306
 8951SOL    HW227753   2.061   0.850   5.198
 8952SOL     OW27754   0.596   4.937   3.583
 8952SOL    HW127755   0.655   4.864   3.618
 8952SOL    HW227756   0.587   4.928   3.484
 8953SOL     OW27757   0.906   4.608   1.114
 8953SOL    HW127758   0.987   4.622   1.056
 8953SOL    HW227759   0.933   4.559   1.197
 8954SOL     OW27760   0.119   0.038   4.079
 8954SOL    HW127761   0.091   0.037   3.982
 8954SOL    HW227762   0.198   0.098   4.089
 8955SOL     OW27763   6.850   4.490   3.196
 8955SOL    HW127764   6.846   4.581   3.154
 8955SOL    HW227765   6.773   4.479   3.259
 8956SOL     OW27766   1.623   0.871   5.754
 8956SOL    HW127767   1.594   0.780   5.724
 8956SOL    HW227768   1.542   0.924   5.779
 8957SOL     OW27769   2.287   4.513   1.074
 8957SOL    HW127770   2.302   4.590   1.012
 8957SOL    HW227771   2.214   4.537   1.138
 8958SOL     OW27772   0.900   2.238   5.613
 8958SOL    HW127773   0.952   2.164   5.570
 8958SOL    HW227774   0.925   2.325   5.570
 8959SOL     OW27775   1.880   4.110   3.219
 8959SOL    HW127776   1.896   4.144   3.312
 8959SOL    HW227777   1.960   4.060   3.188
 8960SOL     OW27778   5.626   5.166   3.686
 8960SOL    HW127779   5.553   5.152   3.619
 8960SOL    HW227780   5.609   5.108   3.766
 8961SOL     OW27781   3.627   1.389   4.094
 8961SOL    HW127782   3.600   1.293   4.089
 8961SOL    HW227783   3.641   1.415   4.189
 8962SOL     OW27784   6.486   5.401   1.495
 8962SOL    HW127785   6.433   5.482   1.517
 8962SOL    HW227786   6.429   5.335   1.447
 8963SOL     OW27787   3.644   6.535   4.960
 8963SOL    HW127788   3.677   6.602   4.893
 8963SOL    HW227789   3.598   6.460   4.912
 8964SOL     OW27790   6.127   3.069   2.943
 8964SOL    HW127791   6.129   2.995   2.875
 8964SOL    HW227792   6.217   3.113   2.947
 8965SOL     OW27793   3.057   5.105   0.080
 8965SOL    HW127794   3.008   5.158   0.012
 8965SOL    HW227795   3.086   5.018   0.040
 8966SOL     OW27796   6.663   4.302   0.470
 8966SOL    HW127797   6.665   4.377   0.405
 8966SOL    HW227798   6.749   4.251   0.464
 8967SOL     OW27799   4.309   1.351   2.171
 8967SOL    HW127800   4.269   1.438   2.144
 8967SOL    HW227801   4.313   1.290   2.091
 8968SOL     OW27802   3.851   5.967   2.605
 8968SOL    HW127803   3.843   5.872   2.574
 8968SOL    HW227804   3.948   5.988   2.620
 8969SOL     OW27805   0.334   0.177   3.379
 8969SOL    HW127806   0.418   0.152   3.330
 8969SOL    HW227807   0.256   0.173   3.316
 8970SOL     OW27808   1.652   2.179   6.562
 8970SOL    HW127809   1.727   2.167   6.497
 8970SOL    HW227810   1.565   2.153   6.519
 8971SOL     OW27811   5.401   6.699   1.541
 8971SOL    HW127812   5.339   6.679   1.465
 8971SOL    HW227813   5.492   6.664   1.520
 8972SOL     OW27814   5.100   3.775   0.672
 8972SOL    HW127815   5.029   3.725   0.621
 8972SOL    HW227816   5.119   3.726   0.758
 8973SOL     OW27817   0.021   2.817   2.246
 8973SOL    HW127818   0.013   2.776   2.155
 8973SOL    HW227819   6.974   2.780   2.305
 8974SOL     OW27820   1.818   3.343   3.708
 8974SOL    HW127821   1.722   3.323   3.685
 8974SOL    HW227822   1.872   3.260   3.698
 8975SOL     OW27823   0.371   5.861   6.637
 8975SOL    HW127824   0.450   5.917   6.665
 8975SOL    HW227825   0.351   5.794   6.708
 8976SOL     OW27826   0.207   5.265   0.542
 8976SOL    HW127827   0.135   5.234   0.480
 8976SOL    HW227828   0.177   5.346   0.592
 8977SOL     OW27829   6.627   3.872   6.755
 8977SOL    HW127830   6.621   3.958   6.807
 8977SOL    HW227831   6.688   3.885   6.677
 8978SOL     OW27832   5.840   0.273   4.911
 8978SOL    HW127833   5.876   0.215   4.985
 8978SOL    HW227834   5.765   0.328   4.946
 8979SOL     OW27835   1.214   5.020   6.057
 8979SOL    HW127836   1.296   5.000   6.003
 8979SOL    HW227837   1.194   4.941   6.116
 8980SOL     OW27838   5.496   2.594   5.965
 8980SOL    HW127839   5.520   2.501   5.991
 8980SOL    HW227840   5.427   2.593   5.893
 8981SOL     OW27841   4.836   1.784   5.600
 8981SOL    HW127842   4.773   1.782   5.678
 8981SOL    HW227843   4.783   1.776   5.515
 8982SOL     OW27844   7.013   1.678   0.933
 8982SOL    HW127845   7.012   1.585   0.970
 8982SOL    HW227846   6.927   1.696   0.886
 8983SOL     OW27847   0.622   5.464   0.607
 8983SOL    HW127848   0.538   5.488   0.558
 8983SOL    HW227849   0.633   5.524   0.686
 8984SOL     OW27850   6.476   6.659   3.996
 8984SOL    HW127851   6.457   6.722   4.071
 8984SOL    HW227852   6.398   6.597   3.984
 8985SOL     OW27853   2.467   1.676   1.371
 8985SOL    HW127854   2.494   1.770   1.349
 8985SOL    HW227855   2.513   1.612   1.309
 8986SOL     OW27856   4.520   5.096   2.926
 8986SOL    HW127857   4.485   5.157   2.855
 8986SOL    HW227858   4.523   5.002   2.892
 8987SOL     OW27859   3.054   0.193   1.505
 8987SOL    HW127860   3.093   0.276   1.545
 8987SOL    HW227861   3.086   0.113   1.554
 8988SOL     OW27862   2.490   4.804   0.490
 8988SOL    HW127863   2.529   4.813   0.582
 8988SOL    HW227864   2.518   4.883   0.435
 8989SOL     OW27865   4.924   3.645   2.306
 8989SOL    HW127866   4.886   3.590   2.232
 8989SOL    HW227867   4.955   3.733   2.269
 8990SOL     OW27868   2.305   5.343   1.686
 8990SOL    HW127869   2.378   5.336   1.754
 8990SOL    HW227870   2.256   5.429   1.698
 8991SOL     OW27871   2.535   1.382   0.951
 8991SOL    HW127872   2.529   1.379   0.851
 8991SOL    HW227873   2.587   1.303   0.983
 8992SOL     OW27874   0.086   2.541   6.562
 8992SOL    HW127875   0.000   2.585   6.589
 8992SOL    HW227876   0.066   2.455   6.515
 8993SOL     OW27877   4.619   2.554   2.936
 8993SOL    HW127878   4.597   2.632   2.877
 8993SOL    HW227879   4.648   2.477   2.881
 8994SOL     OW27880   0.951   6.132   4.051
 8994SOL    HW127881   0.997   6.099   4.134
 8994SOL    HW227882   0.920   6.054   3.997
 8995SOL     OW27883   1.280   2.319   5.692
 8995SOL    HW127884   1.227   2.360   5.618
 8995SOL    HW227885   1.229   2.243   5.732
 8996SOL     OW27886   0.294   4.398   1.474
 8996SOL    HW127887   0.257   4.361   1.560
 8996SOL    HW227888   0.371   4.458   1.494
 8997SOL     OW27889   4.530   1.153   6.675
 8997SOL    HW127890   4.519   1.249   6.647
 8997SOL    HW227891   4.582   1.104   6.605
 8998SOL     OW27892   0.777   2.264   4.018
 8998SOL    HW127893   0.780   2.308   3.928
 8998SOL    HW227894   0.789   2.165   4.007
 8999SOL     OW27895   3.995   0.470   6.918
 8999SOL    HW127896   4.007   0.372   6.928
 8999SOL    HW227897   3.917   0.488   6.857
 9000SOL     OW27898   2.707   4.232   6.405
 9000SOL    HW127899   2.669   4.144   6.433
 9000SOL    HW227900   2.716   4.291   6.486
 9001SOL     OW27901   1.913   5.412   2.807
 9001SOL    HW127902   1.987   5.369   2.858
 9001SOL    HW227903   1.825   5.378   2.839
 9002SOL     OW27904   0.314   5.220   5.267
 9002SOL    HW127905   0.252   5.175   5.331
 9002SOL    HW227906   0.357   5.151   5.208
 9003SOL     OW27907   5.640   3.099   1.166
 9003SOL    HW127908   5.670   3.194   1.162
 9003SOL    HW227909   5.541   3.097   1.180
 9004SOL     OW27910   4.386   6.879   1.905
 9004SOL    HW127911   4.419   6.855   1.996
 9004SOL    HW227912   4.293   6.916   1.911
 9005SOL     OW27913   6.177   1.876   4.203
 9005SOL    HW127914   6.221   1.887   4.292
 9005SOL    HW227915   6.083   1.912   4.208
 9006SOL     OW27916   1.577   6.341   0.868
 9006SOL    HW127917   1.554   6.252   0.829
 9006SOL    HW227918   1.660   6.333   0.923
 9007SOL     OW27919   3.381   5.583   3.735
 9007SOL    HW127920   3.334   5.603   3.820
 9007SOL    HW227921   3.416   5.668   3.695
 9008SOL     OW27922   6.833   5.455   2.962
 9008SOL    HW127923   6.770   5.529   2.988
 9008SOL    HW227924   6.927   5.487   2.969
 9009SOL     OW27925   2.853   6.368   0.504
 9009SOL    HW127926   2.807   6.313   0.435
 9009SOL    HW227927   2.898   6.308   0.570
 9010SOL     OW27928   1.024   7.023   4.818
 9010SOL    HW127929   1.045   6.958   4.744
 9010SOL    HW227930   0.950   0.058   4.790
 9011SOL     OW27931   3.770   1.996   1.464
 9011SOL    HW127932   3.676   2.013   1.494
 9011SOL    HW227933   3.815   1.934   1.528
 9012SOL     OW27934   2.767   5.019   1.240
 9012SOL    HW127935   2.739   5.111   1.210
 9012SOL    HW227936   2.866   5.011   1.234
 9013SOL     OW27937   5.925   5.955   4.817
 9013SOL    HW127938   5.920   5.936   4.915
 9013SOL    HW227939   6.002   5.905   4.778
 9014SOL     OW27940   1.111   1.287   0.317
 9014SOL    HW127941   1.201   1.330   0.323
 9014SOL    HW227942   1.057   1.311   0.398
 9015SOL     OW27943   5.898   0.592   0.790
 9015SOL    HW127944   5.831   0.602   0.717
 9015SOL    HW227945   5.961   0.518   0.768
 9016SOL     OW27946   6.637   6.249   6.565
 9016SOL    HW127947   6.677   6.335   6.533
 9016SOL    HW227948   6.710   6.187   6.594
 9017SOL     OW27949   5.595   2.608   2.891
 9017SOL    HW127950   5.556   2.695   2.924
 9017SOL    HW227951   5.584   2.603   2.792
 9018SOL     OW27952   4.366   1.775   5.615
 9018SOL    HW127953   4.331   1.774   5.709
 9018SOL    HW227954   4.438   1.706   5.606
 9019SOL     OW27955   0.816   6.695   0.775
 9019SOL    HW127956   0.793   6.619   0.834
 9019SOL    HW227957   0.732   6.732   0.733
 9020SOL     OW27958   1.521   3.529   2.017
 9020SOL    HW127959   1.620   3.514   2.021
 9020SOL    HW227960   1.478   3.486   2.096
 9021SOL     OW27961   6.478   0.068   3.951
 9021SOL    HW127962   6.428   0.019   3.879
 9021SOL    HW227963   6.413   0.121   4.006
 9022SOL     OW27964   2.548   0.344   1.420
 9022SOL    HW127965   2.540   0.259   1.473
 9022SOL    HW227966   2.630   0.339   1.363
 9023SOL     OW27967   4.066   3.461   2.864
 9023SOL    HW127968   4.065   3.382   2.802
 9023SOL    HW227969   4.069   3.545   2.811
 9024SOL     OW27970   1.511   5.693   6.247
 9024SOL    HW127971   1.480   5.651   6.332
 9024SOL    HW227972   1.544   5.621   6.185
 9025SOL     OW27973   6.875   5.742   1.008
 9025SOL    HW127974   6.810   5.687   1.059
 9025SOL    HW227975   6.837   5.767   0.920
 9026SOL     OW27976   4.074   3.285   3.074
 9026SOL    HW127977   4.072   3.319   2.980
 9026SOL    HW227978   4.101   3.360   3.135
 9027SOL     OW27979   2.823   1.798   3.768
 9027SOL    HW127980   2.898   1.852   3.730
 9027SOL    HW227981   2.806   1.718   3.711
 9028SOL     OW27982   2.510   4.348   5.766
 9028SOL    HW127983   2.575   4.306   5.831
 9028SOL    HW227984   2.445   4.278   5.735
 9029SOL     OW27985   3.352   5.582   5.329
 9029SOL    HW127986   3.418   5.535   5.270
 9029SOL    HW227987   3.283   5.627   5.272
 9030SOL     OW27988   2.483   0.839   2.914
 9030SOL    HW127989   2.496   0.867   3.009
 9030SOL    HW227990   2.397   0.788   2.906
 9031SOL     OW27991   4.821   5.322   6.021
 9031SOL    HW127992   4.753   5.368   6.079
 9031SOL    HW227993   4.825   5.367   5.932
 9032SOL     OW27994   3.994   2.532   0.875
 9032SOL    HW127995   4.024   2.446   0.834
 9032SOL    HW227996   4.060   2.560   0.945
 9033SOL     OW27997   1.846   3.792   3.336
 9033SOL    HW127998   1.920   3.859   3.345
 9033SOL    HW227999   1.824   3.754   3.426
 9034SOL     OW28000   2.835   6.796   5.053
 9034SOL    HW128001   2.803   6.801   5.148
 9034SOL    HW228002   2.795   6.871   5.001
 9035SOL     OW28003   0.804   6.441   4.980
 9035SOL    HW128004   0.726   6.462   4.920
 9035SOL    HW228005   0.886   6.485   4.944
 9036SOL     OW28006   1.370   1.659   4.505
 9036SOL    HW128007   1.363   1.568   4.547
 9036SOL    HW228008   1.467   1.683   4.493
 9037SOL     OW28009   1.326   4.662   6.757
 9037SOL    HW128010   1.341   4.580   6.702
 9037SOL    HW228011   1.244   4.652   6.812
 9038SOL     OW28012   4.567   0.604   5.054
 9038SOL    HW128013   4.513   0.663   5.113
 9038SOL    HW228014   4.539   0.618   4.959
 9039SOL     OW28015   1.651   4.514   4.594
 9039SOL    HW128016   1.621   4.571   4.670
 9039SOL    HW228017   1.722   4.451   4.626
 9040SOL     OW28018   2.564   1.371   3.363
 9040SOL    HW128019   2.535   1.430   3.438
 9040SOL    HW228020   2.662   1.385   3.345
 9041SOL     OW28021   0.843   1.743   1.818
 9041SOL    HW128022   0.837   1.719   1.721
 9041SOL    HW228023   0.795   1.829   1.834
 9042SOL     OW28024   2.979   6.061   4.102
 9042SOL    HW128025   2.950   5.965   4.105
 9042SOL    HW228026   3.035   6.076   4.021
 9043SOL     OW28027   2.318   1.004   5.610
 9043SOL    HW128028   2.307   1.103   5.606
 9043SOL    HW228029   2.378   0.973   5.536
 9044SOL     OW28030   6.375   1.441   1.358
 9044SOL    HW128031   6.384   1.346   1.327
 9044SOL    HW228032   6.420   1.452   1.446
 9045SOL     OW28033   3.485   1.756   2.222
 9045SOL    HW128034   3.524   1.845   2.197
 9045SOL    HW228035   3.535   1.718   2.299
 9046SOL     OW28036   3.291   3.598   4.321
 9046SOL    HW128037   3.196   3.582   4.348
 9046SOL    HW228038   3.352   3.556   4.389
 9047SOL     OW28039   1.609   3.194   5.758
 9047SOL    HW128040   1.596   3.292   5.745
 9047SOL    HW228041   1.618   3.174   5.855
 9048SOL     OW28042   6.236   3.247   6.397
 9048SOL    HW128043   6.163   3.237   6.464
 9048SOL    HW228044   6.234   3.338   6.357
 9049SOL     OW28045   4.443   6.651   6.452
 9049SOL    HW128046   4.435   6.559   6.490
 9049SOL    HW228047   4.467   6.646   6.355
 9050SOL     OW28048   0.412   5.345   5.778
 9050SOL    HW128049   0.315   5.335   5.802
 9050SOL    HW228050   0.426   5.316   5.684
 9051SOL     OW28051   4.407   6.286   1.123
 9051SOL    HW128052   4.337   6.354   1.098
 9051SOL    HW228053   4.497   6.329   1.123
 9052SOL     OW28054   1.905   3.613   3.805
 9052SOL    HW128055   1.904   3.513   3.801
 9052SOL    HW228056   1.865   3.643   3.891
 9053SOL     OW28057   2.505   1.802   3.321
 9053SOL    HW128058   2.475   1.896   3.306
 9053SOL    HW228059   2.478   1.772   3.412
 9054SOL     OW28060   1.500   0.369   1.999
 9054SOL    HW128061   1.541   0.386   2.089
 9054SOL    HW228062   1.414   0.319   2.012
 9055SOL     OW28063   0.233   3.981   3.556
 9055SOL    HW128064   0.232   3.900   3.497
 9055SOL    HW228065   0.215   4.062   3.501
 9056SOL     OW28066   5.417   0.333   2.107
 9056SOL    HW128067   5.441   0.361   2.200
 9056SOL    HW228068   5.379   0.411   2.057
 9057SOL     OW28069   5.635   5.318   6.145
 9057SOL    HW128070   5.705   5.389   6.133
 9057SOL    HW228071   5.549   5.350   6.105
 9058SOL     OW28072   1.919   1.371   3.857
 9058SOL    HW128073   1.957   1.456   3.820
 9058SOL    HW228074   1.926   1.299   3.788
 9059SOL     OW28075   0.142   1.059   4.033
 9059SOL    HW128076   0.095   1.084   3.949
 9059SOL    HW228077   0.130   1.133   4.100
 9060SOL     OW28078   7.020   4.168   1.613
 9060SOL    HW128079   6.936   4.222   1.608
 9060SOL    HW228080   6.999   4.074   1.639
 9061SOL     OW28081   4.185   5.833   2.435
 9061SOL    HW128082   4.158   5.760   2.372
 9061SOL    HW228083   4.155   5.811   2.527
 9062SOL     OW28084   1.455   4.810   2.452
 9062SOL    HW128085   1.510   4.752   2.513
 9062SOL    HW228086   1.388   4.860   2.506
 9063SOL     OW28087   2.460   0.437   2.661
 9063SOL    HW128088   2.510   0.386   2.590
 9063SOL    HW228089   2.524   0.495   2.711
 9064SOL     OW28090   6.060   4.257   4.193
 9064SOL    HW128091   6.120   4.217   4.262
 9064SOL    HW228092   6.026   4.185   4.133
 9065SOL     OW28093   3.412   5.305   6.666
 9065SOL    HW128094   3.422   5.248   6.584
 9065SOL    HW228095   3.343   5.375   6.650
 9066SOL     OW28096   5.897   0.565   6.904
 9066SOL    HW128097   5.909   0.646   6.961
 9066SOL    HW228098   5.825   0.581   6.837
 9067SOL     OW28099   5.719   6.671   5.408
 9067SOL    HW128100   5.645   6.707   5.351
 9067SOL    HW228101   5.805   6.676   5.358
 9068SOL     OW28102   3.227   0.436   5.200
 9068SOL    HW128103   3.275   0.474   5.279
 9068SOL    HW228104   3.134   0.473   5.197
 9069SOL     OW28105   3.295   2.025   1.961
 9069SOL    HW128106   3.202   2.053   1.986
 9069SOL    HW228107   3.290   1.957   1.888
 9070SOL     OW28108   0.654   3.287   5.882
 9070SOL    HW128109   0.591   3.249   5.814
 9070SOL    HW228110   0.743   3.302   5.839
 9071SOL     OW28111   4.953   6.388   1.107
 9071SOL    HW128112   4.947   6.314   1.040
 9071SOL    HW228113   4.957   6.476   1.059
 9072SOL     OW28114   5.165   0.695   1.728
 9072SOL    HW128115   5.093   0.764   1.735
 9072SOL    HW228116   5.134   0.622   1.667
 9073SOL     OW28117   3.765   6.727   1.183
 9073SOL    HW128118   3.681   6.709   1.132
 9073SOL    HW228119   3.750   6.804   1.245
 9074SOL     OW28120   1.758   0.897   0.868
 9074SOL    HW128121   1.675   0.895   0.923
 9074SOL    HW228122   1.777   0.991   0.840
 9075SOL     OW28123   0.743   6.984   1.427
 9075SOL    HW128124   0.645   6.976   1.414
 9075SOL    HW228125   0.786   7.016   1.342
 9076SOL     OW28126   5.847   1.186   4.938
 9076SOL    HW128127   5.863   1.158   4.843
 9076SOL    HW228128   5.782   1.123   4.980
 9077SOL     OW28129   5.215   1.245   6.545
 9077SOL    HW128130   5.133   1.207   6.504
 9077SOL    HW228131   5.266   1.297   6.476
 9078SOL     OW28132   5.052   3.338   0.426
 9078SOL    HW128133   5.045   3.384   0.515
 9078SOL    HW228134   5.142   3.356   0.386
 9079SOL     OW28135   1.757   6.152   3.939
 9079SOL    HW128136   1.671   6.162   3.889
 9079SOL    HW228137   1.766   6.058   3.972
 9080SOL     OW28138   5.627   2.650   6.300
 9080SOL    HW128139   5.713   2.659   6.351
 9080SOL    HW228140   5.631   2.707   6.218
 9081SOL     OW28141   3.192   6.830   2.421
 9081SOL    HW128142   3.260   6.784   2.477
 9081SOL    HW228143   3.106   6.836   2.472
 9082SOL     OW28144   2.617   6.024   5.821
 9082SOL    HW128145   2.616   5.940   5.877
 9082SOL    HW228146   2.695   6.080   5.846
 9083SOL     OW28147   3.697   4.242   5.590
 9083SOL    HW128148   3.738   4.223   5.679
 9083SOL    HW228149   3.626   4.175   5.571
 9084SOL     OW28150   2.122   2.848   6.045
 9084SOL    HW128151   2.068   2.926   6.078
 9084SOL    HW228152   2.110   2.840   5.946
 9085SOL     OW28153   1.545   5.451   0.779
 9085SOL    HW128154   1.501   5.472   0.866
 9085SOL    HW228155   1.478   5.410   0.717
 9086SOL     OW28156   6.631   4.256   0.893
 9086SOL    HW128157   6.595   4.320   0.825
 9086SOL    HW228158   6.712   4.211   0.856
 9087SOL     OW28159   4.926   2.980   1.868
 9087SOL    HW128160   4.876   3.013   1.949
 9087SOL    HW228161   4.887   2.893   1.838
 9088SOL     OW28162   6.601   6.090   0.740
 9088SOL    HW128163   6.517   6.090   0.794
 9088SOL    HW228164   6.639   6.183   0.737
 9089SOL     OW28165   4.565   6.079   5.715
 9089SOL    HW128166   4.621   6.050   5.793
 9089SOL    HW228167   4.484   6.127   5.749
 9090SOL     OW28168   6.515   6.895   3.526
 9090SOL    HW128169   6.487   6.991   3.526
 9090SOL    HW228170   6.533   6.865   3.432
 9091SOL     OW28171   2.777   3.650   0.450
 9091SOL    HW128172   2.715   3.664   0.528
 9091SOL    HW228173   2.778   3.553   0.426
 9092SOL     OW28174   0.049   1.458   0.762
 9092SOL    HW128175   0.123   1.444   0.696
 9092SOL    HW228176   0.075   1.421   0.851
 9093SOL     OW28177   1.585   5.995   6.475
 9093SOL    HW128178   1.625   5.988   6.384
 9093SOL    HW228179   1.599   6.087   6.512
 9094SOL     OW28180   0.113   5.072   3.055
 9094SOL    HW128181   0.144   5.015   3.131
 9094SOL    HW228182   0.028   5.118   3.079
 9095SOL     OW28183   4.231   3.477   6.407
 9095SOL    HW128184   4.199   3.506   6.497
 9095SOL    HW228185   4.196   3.385   6.387
 9096SOL     OW28186   5.503   4.193   1.768
 9096SOL    HW128187   5.565   4.115   1.772
 9096SOL    HW228188   5.495   4.224   1.673
 9097SOL     OW28189   1.242   2.845   6.969
 9097SOL    HW128190   1.332   2.804   6.949
 9097SOL    HW228191   1.193   2.860   6.883
 9098SOL     OW28192   4.045   2.445   6.874
 9098SOL    HW128193   4.038   2.531   6.924
 9098SOL    HW228194   4.096   2.461   6.789
 9099SOL     OW28195   3.542   3.465   7.007
 9099SOL    HW128196   3.478   3.479   6.931
 9099SOL    HW228197   3.492   3.434   0.063
 9100SOL     OW28198   0.923   3.245   4.036
 9100SOL    HW128199   0.885   3.157   4.011
 9100SOL    HW228200   1.011   3.232   4.082
 9101SOL     OW28201   2.722   2.356   3.193
 9101SOL    HW128202   2.628   2.326   3.212
 9101SOL    HW228203   2.778   2.346   3.276
 9102SOL     OW28204   2.666   6.946   2.128
 9102SOL    HW128205   2.568   6.949   2.151
 9102SOL    HW228206   2.689   0.000   2.071
 9103SOL     OW28207   6.411   3.589   0.039
 9103SOL    HW128208   6.494   3.640   0.060
 9103SOL    HW228209   6.397   3.518   0.107
 9104SOL     OW28210   5.917   6.418   2.969
 9104SOL    HW128211   5.978   6.481   3.017
 9104SOL    HW228212   5.842   6.393   3.030
 9105SOL     OW28213   1.706   1.557   0.786
 9105SOL    HW128214   1.656   1.472   0.772
 9105SOL    HW228215   1.641   1.632   0.801
 9106SOL     OW28216   6.619   3.929   0.261
 9106SOL    HW128217   6.689   3.962   0.324
 9106SOL    HW228218   6.529   3.940   0.302
 9107SOL     OW28219   3.348   0.575   6.228
 9107SOL    HW128220   3.422   0.609   6.170
 9107SOL    HW228221   3.369   0.483   6.260
 9108SOL     OW28222   4.708   3.803   5.592
 9108SOL    HW128223   4.622   3.854   5.588
 9108SOL    HW228224   4.715   3.756   5.680
 9109SOL     OW28225   0.596   2.677   2.660
 9109SOL    HW128226   0.649   2.746   2.710
 9109SOL    HW228227   0.658   2.611   2.617
 9110SOL     OW28228   1.479   3.837   3.733
 9110SOL    HW128229   1.555   3.883   3.688
 9110SOL    HW228230   1.496   3.834   3.832
 9111SOL     OW28231   4.174   1.868   0.881
 9111SOL    HW128232   4.217   1.789   0.837
 9111SOL    HW228233   4.097   1.900   0.826
 9112SOL     OW28234   0.759   4.914   4.343
 9112SOL    HW128235   0.797   4.912   4.435
 9112SOL    HW228236   0.730   4.821   4.317
 9113SOL     OW28237   5.080   1.299   2.111
 9113SOL    HW128238   5.111   1.393   2.099
 9113SOL    HW228239   5.136   1.239   2.053
 9114SOL     OW28240   0.551   4.303   1.726
 9114SOL    HW128241   0.516   4.389   1.690
 9114SOL    HW228242   0.613   4.261   1.659
 9115SOL     OW28243   6.911   4.716   5.333
 9115SOL    HW128244   6.924   4.734   5.236
 9115SOL    HW228245   6.914   4.617   5.349
 9116SOL     OW28246   6.596   1.198   1.197
 9116SOL    HW128247   6.656   1.171   1.121
 9116SOL    HW228248   6.545   1.280   1.172
 9117SOL     OW28249   6.132   2.642   6.996
 9117SOL    HW128250   6.175   2.554   6.980
 9117SOL    HW228251   6.201   2.714   6.992
 9118SOL     OW28252   6.442   4.051   0.524
 9118SOL    HW128253   6.399   4.064   0.614
 9118SOL    HW228254   6.506   4.126   0.507
 9119SOL     OW28255   4.772   1.210   1.467
 9119SOL    HW128256   4.853   1.256   1.430
 9119SOL    HW228257   4.753   1.127   1.415
 9120SOL     OW28258   6.137   1.649   5.940
 9120SOL    HW128259   6.118   1.653   6.038
 9120SOL    HW228260   6.091   1.726   5.895
 9121SOL     OW28261   2.641   1.480   5.087
 9121SOL    HW128262   2.551   1.509   5.119
 9121SOL    HW228263   2.689   1.558   5.047
 9122SOL     OW28264   1.583   4.131   2.620
 9122SOL    HW128265   1.526   4.163   2.695
 9122SOL    HW228266   1.526   4.116   2.539
 9123SOL     OW28267   2.204   0.579   4.395
 9123SOL    HW128268   2.127   0.569   4.458
 9123SOL    HW228269   2.207   0.502   4.332
 9124SOL     OW28270   5.749   6.439   0.042
 9124SOL    HW128271   5.776   6.346   0.065
 9124SOL    HW228272   5.705   6.440   6.977
 9125SOL     OW28273   5.045   3.934   0.981
 9125SOL    HW128274   4.978   3.973   0.917
 9125SOL    HW228275   5.000   3.914   1.068
 9126SOL     OW28276   5.797   3.484   2.047
 9126SOL    HW128277   5.733   3.556   2.020
 9126SOL    HW228278   5.891   3.519   2.044
 9127SOL     OW28279   6.831   1.310   5.859
 9127SOL    HW128280   6.847   1.354   5.770
 9127SOL    HW228281   6.734   1.291   5.870
 9128SOL     OW28282   5.761   1.555   5.203
 9128SOL    HW128283   5.798   1.469   5.239
 9128SOL    HW228284   5.692   1.534   5.134
 9129SOL     OW28285   0.863   2.422   0.334
 9129SOL    HW128286   0.958   2.402   0.308
 9129SOL    HW228287   0.804   2.346   0.307
 9130SOL     OW28288   6.846   3.516   6.484
 9130SOL    HW128289   6.920   3.575   6.515
 9130SOL    HW228290   6.805   3.469   6.563
 9131SOL     OW28291   6.154   2.707   5.010
 9131SOL    HW128292   6.194   2.630   5.060
 9131SOL    HW228293   6.226   2.772   4.987
 9132SOL     OW28294   0.728   5.201   4.540
 9132SOL    HW128295   0.792   5.185   4.465
 9132SOL    HW228296   0.678   5.286   4.524
 9133SOL     OW28297   3.685   6.161   1.286
 9133SOL    HW128298   3.680   6.076   1.233
 9133SOL    HW228299   3.593   6.199   1.297
 9134SOL     OW28300   4.559   5.530   0.905
 9134SOL    HW128301   4.585   5.569   0.993
 9134SOL    HW228302   4.636   5.475   0.870
 9135SOL     OW28303   6.352   0.096   1.872
 9135SOL    HW128304   6.280   0.045   1.920
 9135SOL    HW228305   6.323   0.192   1.861
 9136SOL     OW28306   5.130   5.955   6.431
 9136SOL    HW128307   5.217   5.909   6.451
 9136SOL    HW228308   5.147   6.053   6.419
 9137SOL     OW28309   5.630   1.586   0.830
 9137SOL    HW128310   5.609   1.632   0.743
 9137SOL    HW228311   5.577   1.502   0.836
 9138SOL     OW28312   0.106   5.443   6.477
 9138SOL    HW128313   0.127   5.461   6.574
 9138SOL    HW228314   0.105   5.530   6.427
 9139SOL     OW28315   2.796   1.652   3.519
 9139SOL    HW128316   2.852   1.570   3.533
 9139SOL    HW228317   2.806   1.684   3.425
 9140SOL     OW28318   6.851   3.307   2.561
 9140SOL    HW128319   6.888   3.250   2.635
 9140SOL    HW228320   6.754   3.287   2.549
 9141SOL     OW28321   5.666   0.895   0.626
 9141SOL    HW128322   5.603   0.860   0.695
 9141SOL    HW228323   5.615   0.916   0.543
 9142SOL     OW28324   0.588   2.355   0.568
 9142SOL    HW128325   0.521   2.346   0.641
 9142SOL    HW228326   0.626   2.448   0.568
 9143SOL     OW28327   5.959   4.017   6.714
 9143SOL    HW128328   5.886   3.982   6.772
 9143SOL    HW228329   6.012   3.940   6.678
 9144SOL     OW28330   2.472   5.181   4.230
 9144SOL    HW128331   2.443   5.214   4.320
 9144SOL    HW228332   2.572   5.190   4.222
 9145SOL     OW28333   0.141   5.670   0.423
 9145SOL    HW128334   0.130   5.756   0.373
 9145SOL    HW228335   0.231   5.668   0.465
 9146SOL     OW28336   5.383   2.856   3.374
 9146SOL    HW128337   5.332   2.914   3.310
 9146SOL    HW228338   5.334   2.770   3.388
 9147SOL     OW28339   6.266   0.271   5.104
 9147SOL    HW128340   6.294   0.365   5.084
 9147SOL    HW228341   6.205   0.270   5.184
 9148SOL     OW28342   5.017   5.987   1.350
 9148SOL    HW128343   5.034   5.954   1.442
 9148SOL    HW228344   5.101   6.027   1.313
 9149SOL     OW28345   5.824   3.806   3.101
 9149SOL    HW128346   5.741   3.861   3.092
 9149SOL    HW228347   5.900   3.864   3.130
 9150SOL     OW28348   3.566   5.764   1.204
 9150SOL    HW128349   3.654   5.807   1.223
 9150SOL    HW228350   3.576   5.664   1.209
 9151SOL     OW28351   1.935   4.205   3.496
 9151SOL    HW128352   2.022   4.164   3.525
 9151SOL    HW228353   1.870   4.202   3.572
 9152SOL     OW28354   2.216   4.085   4.782
 9152SOL    HW128355   2.245   4.041   4.867
 9152SOL    HW228356   2.257   4.176   4.775
 9153SOL     OW28357   1.104   3.108   6.307
 9153SOL    HW128358   1.123   3.169   6.384
 9153SOL    HW228359   1.112   3.013   6.337
 9154SOL     OW28360   4.750   4.581   0.148
 9154SOL    HW128361   4.700   4.526   0.081
 9154SOL    HW228362   4.694   4.660   0.174
 9155SOL     OW28363   1.782   3.330   2.402
 9155SOL    HW128364   1.774   3.230   2.411
 9155SOL    HW228365   1.860   3.362   2.455
 9156SOL     OW28366   1.059   2.593   6.984
 9156SOL    HW128367   1.126   2.596   0.034
 9156SOL    HW228368   0.989   2.662   6.999
 9157SOL     OW28369   1.491   4.266   6.144
 9157SOL    HW128370   1.463   4.171   6.139
 9157SOL    HW228371   1.500   4.293   6.240
 9158SOL     OW28372   5.205   3.373   4.720
 9158SOL    HW128373   5.164   3.417   4.800
 9158SOL    HW228374   5.139   3.370   4.646
 9159SOL     OW28375   1.737   0.842   1.511
 9159SOL    HW128376   1.813   0.901   1.538
 9159SOL    HW228377   1.662   0.899   1.477
 9160SOL     OW28378   6.517   6.343   5.417
 9160SOL    HW128379   6.429   6.357   5.372
 9160SOL    HW228380   6.547   6.429   5.460
 9161SOL     OW28381   5.341   4.501   4.220
 9161SOL    HW128382   5.360   4.592   4.257
 9161SOL    HW228383   5.309   4.509   4.126
 9162SOL     OW28384   4.024   1.240   3.793
 9162SOL    HW128385   4.118   1.271   3.784
 9162SOL    HW228386   3.998   1.239   3.890
 9163SOL     OW28387   1.386   2.356   4.972
 9163SOL    HW128388   1.346   2.444   4.999
 9163SOL    HW228389   1.313   2.289   4.962
 9164SOL     OW28390   2.679   6.809   6.701
 9164SOL    HW128391   2.684   6.790   6.799
 9164SOL    HW228392   2.752   6.872   6.675
 9165SOL     OW28393   6.607   1.356   5.226
 9165SOL    HW128394   6.536   1.388   5.288
 9165SOL    HW228395   6.581   1.266   5.189
 9166SOL     OW28396   3.925   6.036   1.547
 9166SOL    HW128397   3.900   6.123   1.503
 9166SOL    HW228398   3.933   5.965   1.477
 9167SOL     OW28399   2.232   2.192   6.090
 9167SOL    HW128400   2.148   2.139   6.101
 9167SOL    HW228401   2.251   2.204   5.993
 9168SOL     OW28402   0.190   6.491   6.106
 9168SOL    HW128403   0.240   6.442   6.177
 9168SOL    HW228404   0.213   6.452   6.016
 9169SOL     OW28405   6.224   0.449   6.289
 9169SOL    HW128406   6.300   0.491   6.340
 9169SOL    HW228407   6.254   0.361   6.252
 9170SOL     OW28408   1.188   6.932   6.835
 9170SOL    HW128409   1.104   6.958   6.883
 9170SOL    HW228410   1.264   6.986   6.870
 9171SOL     OW28411   4.262   5.158   0.784
 9171SOL    HW128412   4.357   5.129   0.769
 9171SOL    HW228413   4.218   5.095   0.848
 9172SOL     OW28414   4.927   0.993   2.873
 9172SOL    HW128415   4.876   0.923   2.921
 9172SOL    HW228416   5.025   0.983   2.893
 9173SOL     OW28417   5.937   4.212   6.206
 9173SOL    HW128418   5.928   4.123   6.159
 9173SOL    HW228419   5.906   4.285   6.145
 9174SOL     OW28420   6.466   4.252   1.473
 9174SOL    HW128421   6.543   4.315   1.471
 9174SOL    HW228422   6.412   4.263   1.389
 9175SOL     OW28423   1.156   6.385   6.320
 9175SOL    HW128424   1.149   6.288   6.344
 9175SOL    HW228425   1.232   6.426   6.371
 9176SOL     OW28426   2.305   0.730   3.397
 9176SOL    HW128427   2.244   0.802   3.364
 9176SOL    HW228428   2.309   0.656   3.329
 9177SOL     OW28429   1.035   4.629   4.405
 9177SOL    HW128430   0.977   4.662   4.479
 9177SOL    HW228431   1.050   4.530   4.416
 9178SOL     OW28432   1.822   5.349   0.747
 9178SOL    HW128433   1.724   5.361   0.763
 9178SOL    HW228434   1.871   5.355   0.834
 9179SOL     OW28435   1.855   4.920   3.727
 9179SOL    HW128436   1.763   4.927   3.690
 9179SOL    HW228437   1.910   4.998   3.696
 9180SOL     OW28438   6.617   3.067   3.394
 9180SOL    HW128439   6.691   3.006   3.369
 9180SOL    HW228440   6.543   3.060   3.327
 9181SOL     OW28441   6.218   2.599   4.497
 9181SOL    HW128442   6.188   2.515   4.541
 9181SOL    HW228443   6.144   2.636   4.441
 9182SOL     OW28444   2.300   6.666   3.356
 9182SOL    HW128445   2.381   6.706   3.399
 9182SOL    HW228446   2.327   6.622   3.269
 9183SOL     OW28447   4.526   4.325   0.263
 9183SOL    HW128448   4.428   4.325   0.282
 9183SOL    HW228449   4.576   4.317   0.349
 9184SOL     OW28450   4.512   2.309   0.914
 9184SOL    HW128451   4.473   2.385   0.966
 9184SOL    HW228452   4.438   2.247   0.886
 9185SOL     OW28453   4.605   6.538   5.113
 9185SOL    HW128454   4.621   6.582   5.202
 9185SOL    HW228455   4.526   6.580   5.069
 9186SOL     OW28456   5.854   6.767   4.822
 9186SOL    HW128457   5.939   6.716   4.807
 9186SOL    HW228458   5.848   6.843   4.758
 9187SOL     OW28459   3.572   1.614   0.758
 9187SOL    HW128460   3.522   1.683   0.705
 9187SOL    HW228461   3.511   1.537   0.778
 9188SOL     OW28462   1.803   0.245   1.411
 9188SOL    HW128463   1.807   0.345   1.414
 9188SOL    HW228464   1.708   0.216   1.406
 9189SOL     OW28465   3.245   5.494   2.069
 9189SOL    HW128466   3.197   5.455   2.147
 9189SOL    HW228467   3.189   5.564   2.026
 9190SOL     OW28468   1.824   3.922   5.244
 9190SOL    HW128469   1.848   3.857   5.172
 9190SOL    HW228470   1.792   3.872   5.324
 9191SOL     OW28471   5.528   1.305   0.441
 9191SOL    HW128472   5.611   1.349   0.473
 9191SOL    HW228473   5.457   1.373   0.425
 9192SOL     OW28474   0.381   2.372   6.169
 9192SOL    HW128475   0.281   2.369   6.169
 9192SOL    HW228476   0.415   2.349   6.261
 9193SOL     OW28477   3.712   3.618   5.307
 9193SOL    HW128478   3.721   3.712   5.340
 9193SOL    HW228479   3.617   3.601   5.281
 9194SOL     OW28480   3.260   1.653   3.052
 9194SOL    HW128481   3.239   1.707   2.970
 9194SOL    HW228482   3.345   1.686   3.092
 9195SOL     OW28483   0.690   3.607   2.736
 9195SOL    HW128484   0.611   3.552   2.710
 9195SOL    HW228485   0.744   3.557   2.804
 9196SOL     OW28486   6.123   0.355   3.563
 9196SOL    HW128487   6.096   0.399   3.478
 9196SOL    HW228488   6.097   0.258   3.561
 9197SOL     OW28489   2.926   4.797   1.512
 9197SOL    HW128490   2.856   4.866   1.492
 9197SOL    HW228491   2.886   4.723   1.566
 9198SOL     OW28492   6.070   4.860   6.878
 9198SOL    HW128493   5.985   4.809   6.866
 9198SOL    HW228494   6.061   4.950   6.836
 9199SOL     OW28495   6.817   3.329   5.414
 9199SOL    HW128496   6.778   3.279   5.337
 9199SOL    HW228497   6.916   3.332   5.405
 9200SOL     OW28498   3.472   5.944   6.668
 9200SOL    HW128499   3.410   5.907   6.599
 9200SOL    HW228500   3.560   5.965   6.625
 9201SOL     OW28501   6.878   3.640   0.339
 9201SOL    HW128502   6.827   3.679   0.262
 9201SOL    HW228503   6.947   3.576   0.303
 9202SOL     OW28504   1.088   6.223   3.477
 9202SOL    HW128505   1.066   6.131   3.442
 9202SOL    HW228506   1.055   6.231   3.571
 9203SOL     OW28507   6.265   2.832   6.062
 9203SOL    HW128508   6.239   2.887   6.141
 9203SOL    HW228509   6.360   2.804   6.072
 9204SOL     OW28510   4.855   2.978   4.871
 9204SOL    HW128511   4.856   2.968   4.970
 9204SOL    HW228512   4.895   3.065   4.846
 9205SOL     OW28513   5.456   5.640   3.851
 9205SOL    HW128514   5.505   5.605   3.932
 9205SOL    HW228515   5.520   5.689   3.793
 9206SOL     OW28516   3.102   5.248   3.346
 9206SOL    HW128517   3.025   5.208   3.296
 9206SOL    HW228518   3.096   5.223   3.442
 9207SOL     OW28519   5.015   3.895   6.973
 9207SOL    HW128520   4.976   3.970   6.920
 9207SOL    HW228521   4.971   3.892   0.039
 9208SOL     OW28522   5.442   4.581   3.292
 9208SOL    HW128523   5.499   4.502   3.273
 9208SOL    HW228524   5.386   4.563   3.373
 9209SOL     OW28525   4.979   0.887   0.227
 9209SOL    HW128526   4.950   0.795   0.199
 9209SOL    HW228527   4.984   0.891   0.327
 9210SOL     OW28528   1.582   1.701   1.719
 9210SOL    HW128529   1.606   1.745   1.806
 9210SOL    HW228530   1.486   1.671   1.722
 9211SOL     OW28531   6.029   3.060   5.930
 9211SOL    HW128532   6.042   2.961   5.928
 9211SOL    HW228533   6.049   3.099   5.840
 9212SOL     OW28534   4.497   5.649   4.312
 9212SOL    HW128535   4.536   5.645   4.404
 9212SOL    HW228536   4.468   5.557   4.284
 9213SOL     OW28537   5.594   4.746   4.809
 9213SOL    HW128538   5.543   4.794   4.880
 9213SOL    HW228539   5.571   4.649   4.811
 9214SOL     OW28540   6.776   3.485   5.640
 9214SOL    HW128541   6.693   3.468   5.694
 9214SOL    HW228542   6.777   3.425   5.560
 9215SOL     OW28543   2.091   3.285   2.148
 9215SOL    HW128544   2.004   3.254   2.110
 9215SOL    HW228545   2.127   3.360   2.092
 9216SOL     OW28546   2.463   6.915   3.677
 9216SOL    HW128547   2.546   6.911   3.622
 9216SOL    HW228548   2.433   6.823   3.700
 9217SOL     OW28549   6.087   3.760   6.644
 9217SOL    HW128550   6.020   3.687   6.627
 9217SOL    HW228551   6.148   3.732   6.718
 9218SOL     OW28552   2.999   0.860   0.276
 9218SOL    HW128553   2.984   0.772   0.321
 9218SOL    HW228554   3.051   0.847   0.192
 9219SOL     OW28555   5.398   3.833   6.387
 9219SOL    HW128556   5.410   3.898   6.462
 9219SOL    HW228557   5.343   3.874   6.314
 9220SOL     OW28558   0.894   5.945   1.630
 9220SOL    HW128559   0.958   5.906   1.564
 9220SOL    HW228560   0.932   5.938   1.722
 9221SOL     OW28561   1.991   0.814   2.782
 9221SOL    HW128562   1.895   0.796   2.802
 9221SOL    HW228563   2.013   0.778   2.692
 9222SOL     OW28564   2.397   5.745   6.048
 9222SOL    HW128565   2.403   5.686   6.128
 9222SOL    HW228566   2.463   5.714   5.979
 9223SOL     OW28567   1.316   1.913   4.354
 9223SOL    HW128568   1.311   1.840   4.423
 9223SOL    HW228569   1.234   1.909   4.296
 9224SOL     OW28570   1.090   5.261   4.438
 9224SOL    HW128571   1.048   5.306   4.359
 9224SOL    HW228572   1.130   5.174   4.409
 9225SOL     OW28573   3.552   5.676   6.240
 9225SOL    HW128574   3.485   5.731   6.190
 9225SOL    HW228575   3.607   5.735   6.298
 9226SOL     OW28576   6.981   6.432   1.275
 9226SOL    HW128577   7.023   6.353   1.229
 9226SOL    HW228578   6.895   6.455   1.227
 9227SOL     OW28579   2.016   5.742   1.350
 9227SOL    HW128580   2.063   5.656   1.331
 9227SOL    HW228581   2.012   5.757   1.449
 9228SOL     OW28582   3.132   1.154   6.146
 9228SOL    HW128583   3.182   1.163   6.232
 9228SOL    HW228584   3.034   1.149   6.165
 9229SOL     OW28585   1.275   5.546   5.028
 9229SOL    HW128586   1.361   5.516   5.069
 9229SOL    HW228587   1.201   5.538   5.094
 9230SOL     OW28588   5.224   3.032   3.138
 9230SOL    HW128589   5.186   3.041   3.230
 9230SOL    HW228590   5.156   2.993   3.077
 9231SOL     OW28591   1.236   3.061   4.616
 9231SOL    HW128592   1.260   3.128   4.686
 9231SOL    HW228593   1.154   3.011   4.644
 9232SOL     OW28594   3.700   5.281   6.738
 9232SOL    HW128595   3.730   5.195   6.779
 9232SOL    HW228596   3.600   5.287   6.742
 9233SOL     OW28597   5.912   6.216   2.096
 9233SOL    HW128598   5.937   6.304   2.136
 9233SOL    HW228599   5.827   6.183   2.137
 9234SOL     OW28600   4.113   5.224   6.804
 9234SOL    HW128601   4.164   5.193   6.724
 9234SOL    HW228602   4.037   5.161   6.821
 9235SOL     OW28603   1.587   2.720   3.832
 9235SOL    HW128604   1.602   2.794   3.898
 9235SOL    HW228605   1.593   2.632   3.879
 9236SOL     OW28606   1.694   4.568   6.489
 9236SOL    HW128607   1.640   4.522   6.559
 9236SOL    HW228608   1.763   4.627   6.532
 9237SOL     OW28609   0.045   6.477   3.565
 9237SOL    HW128610   7.005   6.401   3.553
 9237SOL    HW228611   0.078   6.477   3.660
 9238SOL     OW28612   1.959   2.130   0.035
 9238SOL    HW128613   2.052   2.102   0.057
 9238SOL    HW228614   1.960   2.189   6.979
 9239SOL     OW28615   6.966   3.965   0.001
 9239SOL    HW128616   6.870   3.985   7.006
 9239SOL    HW228617   7.020   4.048   7.014
 9240SOL     OW28618   5.126   2.823   2.182
 9240SOL    HW128619   5.204   2.765   2.207
 9240SOL    HW228620   5.097   2.802   2.089
 9241SOL     OW28621   0.827   5.256   5.755
 9241SOL    HW128622   0.838   5.166   5.797
 9241SOL    HW228623   0.917   5.296   5.738
 9242SOL     OW28624   1.430   5.254   0.517
 9242SOL    HW128625   1.389   5.218   0.433
 9242SOL    HW228626   1.504   5.194   0.546
 9243SOL     OW28627   0.287   0.053   1.698
 9243SOL    HW128628   0.339   6.998   1.665
 9243SOL    HW228629   0.238   0.094   1.621
 9244SOL     OW28630   3.639   4.920   6.120
 9244SOL    HW128631   3.678   5.011   6.120
 9244SOL    HW228632   3.712   4.852   6.118
 9245SOL     OW28633   0.996   5.375   3.862
 9245SOL    HW128634   0.896   5.379   3.854
 9245SOL    HW228635   1.023   5.398   3.955
 9246SOL     OW28636   6.465   6.786   1.994
 9246SOL    HW128637   6.512   6.824   2.074
 9246SOL    HW228638   6.389   6.846   1.968
 9247SOL     OW28639   2.057   6.295   3.530
 9247SOL    HW128640   2.017   6.301   3.622
 9247SOL    HW228641   1.994   6.337   3.464
 9248SOL     OW28642   2.319   2.183   4.833
 9248SOL    HW128643   2.274   2.211   4.917
 9248SOL    HW228644   2.316   2.257   4.766
 9249SOL     OW28645   3.742   4.133   1.218
 9249SOL    HW128646   3.661   4.075   1.216
 9249SOL    HW228647   3.736   4.198   1.294
 9250SOL     OW28648   6.017   3.039   3.763
 9250SOL    HW128649   5.944   3.088   3.715
 9250SOL    HW228650   6.064   2.978   3.699
 9251SOL     OW28651   3.613   1.638   2.781
 9251SOL    HW128652   3.694   1.669   2.831
 9251SOL    HW228653   3.562   1.717   2.746
 9252SOL     OW28654   5.223   0.768   3.870
 9252SOL    HW128655   5.212   0.717   3.955
 9252SOL    HW228656   5.140   0.761   3.815
 9253SOL     OW28657   5.550   5.729   5.873
 9253SOL    HW128658   5.545   5.811   5.930
 9253SOL    HW228659   5.645   5.712   5.847
 9254SOL     OW28660   5.826   5.245   3.204
 9254SOL    HW128661   5.924   5.238   3.190
 9254SOL    HW228662   5.797   5.179   3.274
 9255SOL     OW28663   4.263   4.308   0.329
 9255SOL    HW128664   4.225   4.249   0.400
 9255SOL    HW228665   4.221   4.398   0.334
 9256SOL     OW28666   2.803   0.400   2.607
 9256SOL    HW128667   2.877   0.371   2.546
 9256SOL    HW228668   2.777   0.494   2.586
 9257SOL     OW28669   0.384   4.271   3.237
 9257SOL    HW128670   0.291   4.309   3.236
 9257SOL    HW228671   0.400   4.228   3.326
 9258SOL     OW28672   2.991   3.365   3.121
 9258SOL    HW128673   2.998   3.265   3.122
 9258SOL    HW228674   2.949   3.396   3.206
 9259SOL     OW28675   0.772   2.791   6.974
 9259SOL    HW128676   0.809   2.766   0.039
 9259SOL    HW228677   0.786   2.889   6.958
 9260SOL     OW28678   6.100   1.230   4.970
 9260SOL    HW128679   6.002   1.214   4.973
 9260SOL    HW228680   6.120   1.321   5.006
 9261SOL     OW28681   2.579   1.548   0.305
 9261SOL    HW128682   2.575   1.448   0.304
 9261SOL    HW228683   2.671   1.577   0.331
 9262SOL     OW28684   6.701   4.966   5.336
 9262SOL    HW128685   6.610   4.927   5.351
 9262SOL    HW228686   6.770   4.909   5.381
 9263SOL     OW28687   5.039   6.966   1.553
 9263SOL    HW128688   5.063   7.018   1.471
 9263SOL    HW228689   4.960   7.010   1.597
 9264SOL     OW28690   4.999   5.016   0.422
 9264SOL    HW128691   4.977   5.064   0.337
 9264SOL    HW228692   4.943   4.934   0.430
 9265SOL     OW28693   3.489   1.976   0.706
 9265SOL    HW128694   3.444   2.054   0.663
 9265SOL    HW228695   3.562   1.942   0.646
 9266SOL     OW28696   1.783   6.668   0.960
 9266SOL    HW128697   1.837   6.588   0.985
 9266SOL    HW228698   1.713   6.641   0.894
 9267SOL     OW28699   6.934   2.974   4.797
 9267SOL    HW128700   6.931   3.056   4.740
 9267SOL    HW228701   7.003   2.910   4.761
 9268SOL     OW28702   1.060   5.308   2.488
 9268SOL    HW128703   1.142   5.273   2.533
 9268SOL    HW228704   0.988   5.238   2.492
 9269SOL     OW28705   3.892   1.285   6.592
 9269SOL    HW128706   3.876   1.193   6.555
 9269SOL    HW228707   3.805   1.334   6.597
 9270SOL     OW28708   4.426   0.183   6.052
 9270SOL    HW128709   4.374   0.262   6.019
 9270SOL    HW228710   4.519   0.211   6.074
 9271SOL     OW28711   5.602   0.460   0.747
 9271SOL    HW128712   5.528   0.417   0.696
 9271SOL    HW228713   5.641   0.393   0.811
 9272SOL     OW28714   1.064   5.787   4.534
 9272SOL    HW128715   1.108   5.699   4.514
 9272SOL    HW228716   1.119   5.838   4.599
 9273SOL     OW28717   5.357   6.764   3.065
 9273SOL    HW128718   5.364   6.683   3.007
 9273SOL    HW228719   5.326   6.841   3.010
 9274SOL     OW28720   6.259   1.600   6.761
 9274SOL    HW128721   6.266   1.551   6.848
 9274SOL    HW228722   6.324   1.676   6.760
 9275SOL     OW28723   6.074   0.793   0.654
 9275SOL    HW128724   5.991   0.774   0.706
 9275SOL    HW228725   6.052   0.851   0.575
 9276SOL     OW28726   2.006   3.617   1.335
 9276SOL    HW128727   2.030   3.687   1.403
 9276SOL    HW228728   2.028   3.527   1.371
 9277SOL     OW28729   4.608   3.406   0.633
 9277SOL    HW128730   4.588   3.500   0.607
 9277SOL    HW228731   4.532   3.370   0.687
 9278SOL     OW28732   1.906   0.220   6.002
 9278SOL    HW128733   2.005   0.211   6.014
 9278SOL    HW228734   1.887   0.262   5.913
 9279SOL     OW28735   4.193   1.128   2.295
 9279SOL    HW128736   4.258   1.203   2.291
 9279SOL    HW228737   4.100   1.163   2.285
 9280SOL     OW28738   2.359   1.968   3.150
 9280SOL    HW128739   2.329   1.872   3.148
 9280SOL    HW228740   2.279   2.028   3.146
 9281SOL     OW28741   2.480   3.574   6.513
 9281SOL    HW128742   2.497   3.560   6.611
 9281SOL    HW228743   2.562   3.612   6.470
 9282SOL     OW28744   4.874   0.562   3.970
 9282SOL    HW128745   4.879   0.464   3.947
 9282SOL    HW228746   4.967   0.599   3.977
 9283SOL     OW28747   5.444   0.679   3.654
 9283SOL    HW128748   5.521   0.743   3.644
 9283SOL    HW228749   5.391   0.704   3.735
 9284SOL     OW28750   2.938   3.182   5.123
 9284SOL    HW128751   2.911   3.236   5.203
 9284SOL    HW228752   2.856   3.154   5.072
 9285SOL     OW28753   4.789   2.358   0.937
 9285SOL    HW128754   4.694   2.340   0.962
 9285SOL    HW228755   4.792   2.435   0.873
 9286SOL     OW28756   5.158   5.657   1.041
 9286SOL    HW128757   5.174   5.669   1.139
 9286SOL    HW228758   5.092   5.584   1.026
 9287SOL     OW28759   3.109   4.809   0.043
 9287SOL    HW128760   3.179   4.794   0.113
 9287SOL    HW228761   3.036   4.741   0.053
 9288SOL     OW28762   4.532   1.855   3.066
 9288SOL    HW128763   4.566   1.823   3.154
 9288SOL    HW228764   4.453   1.915   3.080
 9289SOL     OW28765   3.721   1.109   2.243
 9289SOL    HW128766   3.698   1.135   2.336
 9289SOL    HW228767   3.649   1.051   2.205
 9290SOL     OW28768   5.843   1.208   2.823
 9290SOL    HW128769   5.786   1.252   2.892
 9290SOL    HW228770   5.940   1.219   2.847
 9291SOL     OW28771   0.992   6.095   4.785
 9291SOL    HW128772   0.964   6.010   4.740
 9291SOL    HW228773   1.013   6.164   4.716
 9292SOL     OW28774   1.634   2.736   6.675
 9292SOL    HW128775   1.716   2.694   6.634
 9292SOL    HW228776   1.606   2.814   6.619
 9293SOL     OW28777   5.188   2.788   6.639
 9293SOL    HW128778   5.112   2.814   6.579
 9293SOL    HW228779   5.152   2.749   6.723
 9294SOL     OW28780   4.214   0.768   5.688
 9294SOL    HW128781   4.284   0.768   5.760
 9294SOL    HW228782   4.239   0.832   5.617
 9295SOL     OW28783   5.428   1.686   4.788
 9295SOL    HW128784   5.411   1.724   4.697
 9295SOL    HW228785   5.511   1.727   4.827
 9296SOL     OW28786   1.237   5.733   0.051
 9296SOL    HW128787   1.275   5.671   7.006
 9296SOL    HW228788   1.244   5.827   0.019
 9297SOL     OW28789   0.157   0.268   2.322
 9297SOL    HW128790   0.083   0.282   2.388
 9297SOL    HW228791   0.239   0.235   2.370
 9298SOL     OW28792   1.060   6.390   6.065
 9298SOL    HW128793   1.134   6.344   6.015
 9298SOL    HW228794   1.077   6.381   6.164
 9299SOL     OW28795   0.474   2.615   4.883
 9299SOL    HW128796   0.493   2.537   4.825
 9299SOL    HW228797   0.519   2.603   4.972
 9300SOL     OW28798   0.100   4.501   5.466
 9300SOL    HW128799   0.175   4.555   5.503
 9300SOL    HW228800   0.133   4.445   5.390
 9301SOL     OW28801   5.515   5.100   4.183
 9301SOL    HW128802   5.424   5.119   4.220
 9301SOL    HW228803   5.555   5.023   4.233
 9302SOL     OW28804   2.310   2.357   4.094
 9302SOL    HW128805   2.256   2.284   4.052
 9302SOL    HW228806   2.337   2.423   4.023
 9303SOL     OW28807   2.486   4.077   0.627
 9303SOL    HW128808   2.547   4.030   0.691
 9303SOL    HW228809   2.431   4.009   0.578
 9304SOL     OW28810   4.011   4.627   1.809
 9304SOL    HW128811   4.107   4.617   1.782
 9304SOL    HW228812   3.970   4.704   1.760
 9305SOL     OW28813   3.283   1.244   1.030
 9305SOL    HW128814   3.339   1.195   1.096
 9305SOL    HW228815   3.342   1.297   0.969
 9306SOL     OW28816   6.978   5.782   5.182
 9306SOL    HW128817   6.891   5.797   5.134
 9306SOL    HW228818   0.009   5.866   5.176
 9307SOL     OW28819   1.526   3.143   1.652
 9307SOL    HW128820   1.454   3.192   1.604
 9307SOL    HW228821   1.503   3.138   1.750
 9308SOL     OW28822   2.577   3.168   0.471
 9308SOL    HW128823   2.605   3.092   0.413
 9308SOL    HW228824   2.495   3.142   0.523
 9309SOL     OW28825   3.854   4.492   5.621
 9309SOL    HW128826   3.800   4.409   5.608
 9309SOL    HW228827   3.949   4.475   5.596
 9310SOL     OW28828   5.016   5.317   6.540
 9310SOL    HW128829   4.937   5.322   6.479
 9310SOL    HW228830   5.006   5.239   6.602
 9311SOL     OW28831   4.655   4.578   1.398
 9311SOL    HW128832   4.606   4.518   1.461
 9311SOL    HW228833   4.655   4.671   1.434
 9312SOL     OW28834   1.065   3.699   0.932
 9312SOL    HW128835   1.165   3.692   0.929
 9312SOL    HW228836   1.025   3.613   0.901
 9313SOL     OW28837   0.551   0.816   0.898
 9313SOL    HW128838   0.640   0.771   0.906
 9313SOL    HW228839   0.482   0.748   0.871
 9314SOL     OW28840   5.390   4.448   0.003
 9314SOL    HW128841   5.410   4.389   6.948
 9314SOL    HW228842   5.359   4.538   6.995
 9315SOL     OW28843   6.238   0.103   4.908
 9315SOL    HW128844   6.160   0.043   4.926
 9315SOL    HW228845   6.242   0.175   4.978
 9316SOL     OW28846   5.665   6.317   6.157
 9316SOL    HW128847   5.717   6.268   6.087
 9316SOL    HW228848   5.571   6.331   6.126
 9317SOL     OW28849   5.603   4.836   3.467
 9317SOL    HW128850   5.557   4.843   3.556
 9317SOL    HW228851   5.536   4.816   3.396
 9318SOL     OW28852   5.735   0.903   6.031
 9318SOL    HW128853   5.806   0.962   6.070
 9318SOL    HW228854   5.697   0.945   5.949
 9319SOL     OW28855   2.741   2.618   6.686
 9319SOL    HW128856   2.706   2.553   6.753
 9319SOL    HW228857   2.687   2.611   6.602
 9320SOL     OW28858   3.576   0.464   5.294
 9320SOL    HW128859   3.510   0.473   5.369
 9320SOL    HW228860   3.546   0.519   5.216
 9321SOL     OW28861   0.625   0.515   4.454
 9321SOL    HW128862   0.575   0.577   4.394
 9321SOL    HW228863   0.619   0.422   4.418
 9322SOL     OW28864   6.693   3.758   5.856
 9322SOL    HW128865   6.621   3.692   5.835
 9322SOL    HW228866   6.653   3.848   5.867
 9323SOL     OW28867   1.417   0.667   5.632
 9323SOL    HW128868   1.414   0.567   5.631
 9323SOL    HW228869   1.473   0.699   5.555
 9324SOL     OW28870   1.304   4.193   1.382
 9324SOL    HW128871   1.284   4.195   1.480
 9324SOL    HW228872   1.295   4.285   1.344
 9325SOL     OW28873   5.841   1.288   0.194
 9325SOL    HW128874   5.794   1.362   0.146
 9325SOL    HW228875   5.786   1.205   0.189
 9326SOL     OW28876   2.334   5.114   0.625
 9326SOL    HW128877   2.411   5.096   0.687
 9326SOL    HW228878   2.281   5.190   0.661
 9327SOL     OW28879   5.271   0.333   2.701
 9327SOL    HW128880   5.356   0.280   2.712
 9327SOL    HW228881   5.218   0.296   2.626
 9328SOL     OW28882   2.617   1.081   4.978
 9328SOL    HW128883   2.673   1.074   5.061
 9328SOL    HW228884   2.638   1.167   4.932
 9329SOL     OW28885   6.354   3.847   0.803
 9329SOL    HW128886   6.347   3.808   0.712
 9329SOL    HW228887   6.342   3.776   0.872
 9330SOL     OW28888   6.396   0.328   5.652
 9330SOL    HW128889   6.401   0.413   5.705
 9330SOL    HW228890   6.427   0.345   5.559
 9331SOL     OW28891   2.136   1.139   0.253
 9331SOL    HW128892   2.101   1.129   0.346
 9331SOL    HW228893   2.066   1.113   0.188
 9332SOL     OW28894   4.147   4.375   1.003
 9332SOL    HW128895   4.062   4.347   1.047
 9332SOL    HW228896   4.224   4.355   1.063
 9333SOL     OW28897   4.012   3.879   6.945
 9333SOL    HW128898   4.047   3.867   6.852
 9333SOL    HW228899   3.941   3.949   6.945
 9334SOL     OW28900   5.161   6.186   3.542
 9334SOL    HW128901   5.236   6.252   3.543
 9334SOL    HW228902   5.182   6.113   3.477
 9335SOL     OW28903   1.069   0.834   6.996
 9335SOL    HW128904   1.004   0.904   6.967
 9335SOL    HW228905   1.103   0.785   6.916
 9336SOL     OW28906   3.320   5.923   5.383
 9336SOL    HW128907   3.243   5.983   5.406
 9336SOL    HW228908   3.287   5.845   5.331
 9337SOL     OW28909   4.021   1.582   4.531
 9337SOL    HW128910   4.046   1.671   4.568
 9337SOL    HW228911   4.078   1.511   4.573
 9338SOL     OW28912   6.218   0.254   1.481
 9338SOL    HW128913   6.143   0.283   1.422
 9338SOL    HW228914   6.241   0.159   1.462
 9339SOL     OW28915   5.850   6.043   1.155
 9339SOL    HW128916   5.884   5.965   1.103
 9339SOL    HW228917   5.896   6.126   1.124
 9340SOL     OW28918   4.845   4.745   3.018
 9340SOL    HW128919   4.791   4.829   3.025
 9340SOL    HW228920   4.873   4.732   2.923
 9341SOL     OW28921   6.968   5.051   1.200
 9341SOL    HW128922   6.997   4.967   1.247
 9341SOL    HW228923   7.013   5.130   1.241
 9342SOL     OW28924   3.155   6.296   3.518
 9342SOL    HW128925   3.075   6.354   3.537
 9342SOL    HW228926   3.238   6.347   3.539
 9343SOL     OW28927   5.018   4.157   1.499
 9343SOL    HW128928   4.921   4.165   1.519
 9343SOL    HW228929   5.071   4.217   1.559
 9344SOL     OW28930   5.263   6.957   2.415
 9344SOL    HW128931   5.279   6.959   2.514
 9344SOL    HW228932   5.225   6.868   2.389
 9345SOL     OW28933   6.656   5.894   1.833
 9345SOL    HW128934   6.558   5.881   1.816
 9345SOL    HW228935   6.706   5.881   1.747
 9346SOL     OW28936   5.793   0.987   1.295
 9346SOL    HW128937   5.827   0.945   1.210
 9346SOL    HW228938   5.852   0.960   1.371
 9347SOL     OW28939   3.565   4.018   0.519
 9347SOL    HW128940   3.646   3.980   0.474
 9347SOL    HW228941   3.513   3.945   0.562
 9348SOL     OW28942   2.322   6.202   3.033
 9348SOL    HW128943   2.310   6.108   3.065
 9348SOL    HW228944   2.318   6.203   2.933
 9349SOL     OW28945   6.784   5.104   2.414
 9349SOL    HW128946   6.874   5.076   2.383
 9349SOL    HW228947   6.724   5.119   2.335
 9350SOL     OW28948   6.782   2.768   5.326
 9350SOL    HW128949   6.862   2.825   5.315
 9350SOL    HW228950   6.749   2.738   5.236
 9351SOL     OW28951   3.435   6.543   6.313
 9351SOL    HW128952   3.510   6.585   6.365
 9351SOL    HW228953   3.435   6.582   6.220
 9352SOL     OW28954   3.654   1.366   6.435
 9352SOL    HW128955   3.719   1.380   6.360
 9352SOL    HW228956   3.627   1.270   6.439
 9353SOL     OW28957   1.194   4.185   1.048
 9353SOL    HW128958   1.244   4.101   1.071
 9353SOL    HW228959   1.096   4.166   1.046
 9354SOL     OW28960   0.121   2.106   6.098
 9354SOL    HW128961   0.151   2.012   6.079
 9354SOL    HW228962   0.063   2.137   6.023
 9355SOL     OW28963   0.338   1.982   4.423
 9355SOL    HW128964   0.327   2.080   4.408
 9355SOL    HW228965   0.255   1.944   4.464
 9356SOL     OW28966   4.664   6.536   2.168
 9356SOL    HW128967   4.724   6.457   2.181
 9356SOL    HW228968   4.636   6.570   2.258
 9357SOL     OW28969   1.657   3.471   6.407
 9357SOL    HW128970   1.677   3.543   6.340
 9357SOL    HW228971   1.723   3.478   6.483
 9358SOL     OW28972   0.233   3.025   1.849
 9358SOL    HW128973   0.321   3.068   1.831
 9358SOL    HW228974   0.245   2.948   1.911
 9359SOL     OW28975   1.731   3.662   5.655
 9359SOL    HW128976   1.755   3.580   5.603
 9359SOL    HW228977   1.815   3.708   5.685
 9360SOL     OW28978   1.019   5.121   6.781
 9360SOL    HW128979   0.984   5.209   6.751
 9360SOL    HW228980   1.104   5.100   6.733
 9361SOL     OW28981   1.713   5.161   2.673
 9361SOL    HW128982   1.642   5.150   2.603
 9361SOL    HW228983   1.677   5.217   2.748
 9362SOL     OW28984   2.094   2.623   3.005
 9362SOL    HW128985   2.083   2.525   3.022
 9362SOL    HW228986   2.144   2.664   3.082
 9363SOL     OW28987   3.518   6.442   1.990
 9363SOL    HW128988   3.567   6.354   1.994
 9363SOL    HW228989   3.423   6.428   2.018
 9364SOL     OW28990   3.286   2.903   6.335
 9364SOL    HW128991   3.344   2.953   6.400
 9364SOL    HW228992   3.337   2.887   6.251
 9365SOL     OW28993   2.458   2.021   4.010
 9365SOL    HW128994   2.513   2.043   4.091
 9365SOL    HW228995   2.370   2.068   4.017
 9366SOL     OW28996   3.958   5.707   6.018
 9366SOL    HW128997   3.957   5.638   5.945
 9366SOL    HW228998   3.933   5.664   6.104
 9367SOL     OW28999   0.147   6.603   2.810
 9367SOL    HW129000   0.191   6.593   2.721
 9367SOL    HW229001   0.199   6.554   2.879
 9368SOL     OW29002   2.823   0.832   2.729
 9368SOL    HW129003   2.780   0.787   2.652
 9368SOL    HW229004   2.922   0.838   2.713
 9369SOL     OW29005   6.645   6.077   4.113
 9369SOL    HW129006   6.549   6.074   4.085
 9369SOL    HW229007   6.654   6.133   4.195
 9370SOL     OW29008   5.775   0.413   3.604
 9370SOL    HW129009   5.692   0.428   3.551
 9370SOL    HW229010   5.753   0.411   3.701
 9371SOL     OW29011   3.011   5.148   0.908
 9371SOL    HW129012   3.032   5.050   0.896
 9371SOL    HW229013   3.086   5.192   0.957
 9372SOL     OW29014   4.647   0.772   1.542
 9372SOL    HW129015   4.740   0.741   1.523
 9372SOL    HW229016   4.650   0.862   1.586
 9373SOL     OW29017   4.900   2.038   1.976
 9373SOL    HW129018   4.919   2.100   1.900
 9373SOL    HW229019   4.876   2.091   2.057
 9374SOL     OW29020   0.312   3.500   0.236
 9374SOL    HW129021   0.273   3.476   0.148
 9374SOL    HW229022   0.343   3.596   0.235
 9375SOL     OW29023   1.035   1.335   1.346
 9375SOL    HW129024   1.124   1.381   1.338
 9375SOL    HW229025   1.040   1.263   1.415
 9376SOL     OW29026   2.310   4.123   1.406
 9376SOL    HW129027   2.406   4.099   1.422
 9376SOL    HW229028   2.282   4.193   1.471
 9377SOL     OW29029   1.784   5.005   3.296
 9377SOL    HW129030   1.838   4.948   3.234
 9377SOL    HW229031   1.781   5.099   3.260
 9378SOL     OW29032   1.962   0.952   3.552
 9378SOL    HW129033   2.036   1.018   3.546
 9378SOL    HW229034   1.921   0.956   3.643
 9379SOL     OW29035   4.858   0.182   5.097
 9379SOL    HW129036   4.829   0.100   5.146
 9379SOL    HW229037   4.779   0.238   5.074
 9380SOL     OW29038   4.312   5.964   5.965
 9380SOL    HW129039   4.213   5.968   5.978
 9380SOL    HW229040   4.357   6.019   6.036
 9381SOL     OW29041   4.388   3.007   5.744
 9381SOL    HW129042   4.459   3.064   5.785
 9381SOL    HW229043   4.431   2.938   5.686
 9382SOL     OW29044   3.400   0.630   4.215
 9382SOL    HW129045   3.494   0.645   4.244
 9382SOL    HW229046   3.398   0.561   4.142
 9383SOL     OW29047   5.742   5.831   4.328
 9383SOL    HW129048   5.753   5.909   4.390
 9383SOL    HW229049   5.646   5.804   4.324
 9384SOL     OW29050   4.385   0.517   2.029
 9384SOL    HW129051   4.477   0.479   2.037
 9384SOL    HW229052   4.354   0.549   2.118
 9385SOL     OW29053   3.823   1.440   3.661
 9385SOL    HW129054   3.892   1.369   3.673
 9385SOL    HW229055   3.802   1.481   3.750
 9386SOL     OW29056   3.389   6.006   5.119
 9386SOL    HW129057   3.441   5.936   5.070
 9386SOL    HW229058   3.438   6.031   5.203
 9387SOL     OW29059   2.784   2.081   0.209
 9387SOL    HW129060   2.823   2.162   0.164
 9387SOL    HW229061   2.687   2.075   0.188
 9388SOL     OW29062   2.820   5.798   3.328
 9388SOL    HW129063   2.843   5.702   3.312
 9388SOL    HW229064   2.795   5.811   3.424
 9389SOL     OW29065   2.222   0.230   3.479
 9389SOL    HW129066   2.185   0.289   3.407
 9389SOL    HW229067   2.313   0.264   3.505
 9390SOL     OW29068   5.371   4.813   6.369
 9390SOL    HW129069   5.388   4.832   6.465
 9390SOL    HW229070   5.294   4.869   6.337
 9391SOL     OW29071   1.687   0.944   5.415
 9391SOL    HW129072   1.781   0.925   5.446
 9391SOL    HW229073   1.658   1.033   5.449
 9392SOL     OW29074   5.338   5.656   5.739
 9392SOL    HW129075   5.348   5.635   5.641
 9392SOL    HW229076   5.422   5.698   5.773
 9393SOL     OW29077   3.139   6.682   6.241
 9393SOL    HW129078   3.202   6.757   6.264
 9393SOL    HW229079   3.165   6.644   6.153
 9394SOL     OW29080   6.689   0.682   1.941
 9394SOL    HW129081   6.738   0.679   2.028
 9394SOL    HW229082   6.707   0.769   1.896
 9395SOL     OW29083   3.238   1.014   1.242
 9395SOL    HW129084   3.234   0.985   1.338
 9395SOL    HW229085   3.180   0.954   1.187
 9396SOL     OW29086   2.276   4.119   4.134
 9396SOL    HW129087   2.280   4.051   4.206
 9396SOL    HW229088   2.254   4.075   4.047
 9397SOL     OW29089   3.655   6.286   6.392
 9397SOL    HW129090   3.648   6.208   6.455
 9397SOL    HW229091   3.570   6.338   6.395
 9398SOL     OW29092   6.118   0.664   5.210
 9398SOL    HW129093   6.184   0.666   5.285
 9398SOL    HW229094   6.091   0.758   5.187
 9399SOL     OW29095   1.063   2.667   5.377
 9399SOL    HW129096   1.003   2.729   5.426
 9399SOL    HW229097   1.090   2.708   5.289
 9400SOL     OW29098   5.488   1.135   1.098
 9400SOL    HW129099   5.483   1.139   0.999
 9400SOL    HW229100   5.566   1.188   1.130
 9401SOL     OW29101   6.344   1.330   2.923
 9401SOL    HW129102   6.333   1.311   2.826
 9401SOL    HW229103   6.434   1.297   2.953
 9402SOL     OW29104   1.501   5.056   3.122
 9402SOL    HW129105   1.505   4.994   3.200
 9402SOL    HW229106   1.488   5.149   3.154
 9403SOL     OW29107   6.449   1.413   2.050
 9403SOL    HW129108   6.387   1.353   1.999
 9403SOL    HW229109   6.531   1.363   2.076
 9404SOL     OW29110   1.070   2.089   0.569
 9404SOL    HW129111   1.095   2.181   0.540
 9404SOL    HW229112   1.096   2.023   0.499
 9405SOL     OW29113   2.138   4.051   3.874
 9405SOL    HW129114   2.169   4.143   3.849
 9405SOL    HW229115   2.135   3.994   3.793
 9406SOL     OW29116   0.687   2.668   6.750
 9406SOL    HW129117   0.733   2.716   6.824
 9406SOL    HW229118   0.754   2.628   6.688
 9407SOL     OW29119   2.518   4.606   3.359
 9407SOL    HW129120   2.512   4.512   3.392
 9407SOL    HW229121   2.432   4.654   3.379
 9408SOL     OW29122   6.760   2.924   5.983
 9408SOL    HW129123   6.836   2.859   5.976
 9408SOL    HW229124   6.745   2.969   5.895
 9409SOL     OW29125   6.406   5.556   0.894
 9409SOL    HW129126   6.417   5.631   0.828
 9409SOL    HW229127   6.496   5.532   0.931
 9410SOL     OW29128   2.029   0.692   2.082
 9410SOL    HW129129   2.108   0.726   2.133
 9410SOL    HW229130   1.961   0.765   2.072
 9411SOL     OW29131   3.919   3.965   3.106
 9411SOL    HW129132   3.832   3.964   3.154
 9411SOL    HW229133   3.980   4.033   3.148
 9412SOL     OW29134   1.918   1.188   2.280
 9412SOL    HW129135   1.885   1.220   2.191
 9412SOL    HW229136   2.017   1.173   2.276
 9413SOL     OW29137   4.216   5.168   3.745
 9413SOL    HW129138   4.126   5.149   3.707
 9413SOL    HW229139   4.237   5.101   3.817
 9414SOL     OW29140   2.845   1.389   3.319
 9414SOL    HW129141   2.840   1.303   3.268
 9414SOL    HW229142   2.889   1.374   3.407
 9415SOL     OW29143   2.046   0.119   2.860
 9415SOL    HW129144   2.045   0.021   2.878
 9415SOL    HW229145   2.035   0.170   2.945
 9416SOL     OW29146   0.125   1.134   6.228
 9416SOL    HW129147   0.142   1.044   6.189
 9416SOL    HW229148   0.047   1.176   6.183
 9417SOL     OW29149   3.499   0.700   0.909
 9417SOL    HW129150   3.448   0.784   0.887
 9417SOL    HW229151   3.576   0.690   0.847
 9418SOL     OW29152   2.723   0.829   1.386
 9418SOL    HW129153   2.662   0.765   1.433
 9418SOL    HW229154   2.809   0.784   1.364
 9419SOL     OW29155   2.226   3.850   6.616
 9419SOL    HW129156   2.323   3.867   6.630
 9419SOL    HW229157   2.198   3.887   6.527
 9420SOL     OW29158   5.428   4.911   1.238
 9420SOL    HW129159   5.478   4.860   1.168
 9420SOL    HW229160   5.331   4.913   1.214
 9421SOL     OW29161   3.026   5.983   4.716
 9421SOL    HW129162   3.023   6.069   4.767
 9421SOL    HW229163   2.972   5.993   4.632
 9422SOL     OW29164   2.746   5.443   2.968
 9422SOL    HW129165   2.735   5.397   2.880
 9422SOL    HW229166   2.709   5.385   3.041
 9423SOL     OW29167   3.531   6.062   3.442
 9423SOL    HW129168   3.573   6.136   3.390
 9423SOL    HW229169   3.449   6.029   3.395
 9424SOL     OW29170   4.665   2.367   4.184
 9424SOL    HW129171   4.603   2.399   4.256
 9424SOL    HW229172   4.721   2.293   4.220
 9425SOL     OW29173   5.156   4.194   1.064
 9425SOL    HW129174   5.067   4.238   1.070
 9425SOL    HW229175   5.146   4.103   1.023
 9426SOL     OW29176   3.261   2.026   6.273
 9426SOL    HW129177   3.235   2.027   6.370
 9426SOL    HW229178   3.221   1.946   6.229
 9427SOL     OW29179   2.781   5.184   3.264
 9427SOL    HW129180   2.714   5.257   3.276
 9427SOL    HW229181   2.820   5.159   3.353
 9428SOL     OW29182   0.237   0.087   1.069
 9428SOL    HW129183   0.317   0.040   1.031
 9428SOL    HW229184   0.181   0.122   0.995
 9429SOL     OW29185   1.760   3.668   3.586
 9429SOL    HW129186   1.674   3.701   3.625
 9429SOL    HW229187   1.822   3.642   3.660
 9430SOL     OW29188   0.189   2.825   5.049
 9430SOL    HW129189   0.148   2.916   5.041
 9430SOL    HW229190   0.259   2.814   4.980
 9431SOL     OW29191   6.511   4.600   0.943
 9431SOL    HW129192   6.573   4.526   0.969
 9431SOL    HW229193   6.538   4.635   0.853
 9432SOL     OW29194   6.324   0.399   3.938
 9432SOL    HW129195   6.352   0.370   4.030
 9432SOL    HW229196   6.226   0.421   3.939
 9433SOL     OW29197   3.070   6.335   2.950
 9433SOL    HW129198   3.101   6.265   3.014
 9433SOL    HW229199   2.996   6.299   2.894
 9434SOL     OW29200   5.697   5.781   2.002
 9434SOL    HW129201   5.727   5.773   1.906
 9434SOL    HW229202   5.776   5.773   2.062
 9435SOL     OW29203   6.928   2.342   3.385
 9435SOL    HW129204   6.831   2.324   3.402
 9435SOL    HW229205   6.951   2.312   3.292
 9436SOL     OW29206   1.652   2.456   2.152
 9436SOL    HW129207   1.687   2.493   2.066
 9436SOL    HW229208   1.553   2.471   2.156
 9437SOL     OW29209   0.276   6.190   3.039
 9437SOL    HW129210   0.346   6.159   2.974
 9437SOL    HW229211   0.197   6.129   3.033
 9438SOL     OW29212   1.054   0.247   1.772
 9438SOL    HW129213   0.959   0.242   1.801
 9438SOL    HW229214   1.109   0.186   1.830
 9439SOL     OW29215   0.712   3.320   0.471
 9439SOL    HW129216   0.709   3.337   0.373
 9439SOL    HW229217   0.620   3.320   0.508
 9440SOL     OW29218   3.518   4.972   3.493
 9440SOL    HW129219   3.500   5.068   3.512
 9440SOL    HW229220   3.617   4.954   3.500
 9441SOL     OW29221   5.954   4.711   5.968
 9441SOL    HW129222   5.954   4.640   5.899
 9441SOL    HW229223   6.044   4.718   6.010
 9442SOL     OW29224   5.714   4.013   1.794
 9442SOL    HW129225   5.772   4.028   1.714
 9442SOL    HW229226   5.684   3.918   1.796
 9443SOL     OW29227   2.825   5.667   0.326
 9443SOL    HW129228   2.872   5.585   0.358
 9443SOL    HW229229   2.760   5.698   0.396
 9444SOL     OW29230   2.295   3.904   0.543
 9444SOL    HW129231   2.219   3.917   0.606
 9444SOL    HW229232   2.336   3.814   0.557
 9445SOL     OW29233   6.274   3.587   3.595
 9445SOL    HW129234   6.267   3.648   3.674
 9445SOL    HW229235   6.298   3.496   3.626
 9446SOL     OW29236   6.156   5.602   5.159
 9446SOL    HW129237   6.176   5.641   5.249
 9446SOL    HW229238   6.072   5.643   5.124
 9447SOL     OW29239   5.763   4.230   3.566
 9447SOL    HW129240   5.760   4.318   3.518
 9447SOL    HW229241   5.794   4.245   3.660
 9448SOL     OW29242   6.597   0.519   5.945
 9448SOL    HW129243   6.611   0.480   6.036
 9448SOL    HW229244   6.656   0.471   5.879
 9449SOL     OW29245   5.472   6.841   0.389
 9449SOL    HW129246   5.445   6.914   0.326
 9449SOL    HW229247   5.522   6.771   0.338
 9450SOL     OW29248   2.396   5.937   3.154
 9450SOL    HW129249   2.359   5.904   3.241
 9450SOL    HW229250   2.492   5.912   3.147
 9451SOL     OW29251   4.910   5.770   5.728
 9451SOL    HW129252   4.865   5.783   5.640
 9451SOL    HW229253   4.938   5.674   5.737
 9452SOL     OW29254   1.668   4.335   0.192
 9452SOL    HW129255   1.760   4.303   0.171
 9452SOL    HW229256   1.672   4.406   0.262
 9453SOL     OW29257   2.859   5.392   2.713
 9453SOL    HW129258   2.835   5.295   2.716
 9453SOL    HW229259   2.959   5.402   2.711
 9454SOL     OW29260   3.426   3.508   6.765
 9454SOL    HW129261   3.461   3.599   6.744
 9454SOL    HW229262   3.403   3.462   6.679
 9455SOL     OW29263   3.272   1.832   3.710
 9455SOL    HW129264   3.180   1.868   3.693
 9455SOL    HW229265   3.268   1.733   3.716
 9456SOL     OW29266   6.780   3.503   0.772
 9456SOL    HW129267   6.691   3.535   0.804
 9456SOL    HW229268   6.766   3.435   0.699
 9457SOL     OW29269   1.211   4.297   3.933
 9457SOL    HW129270   1.172   4.337   4.016
 9457SOL    HW229271   1.153   4.318   3.855
 9458SOL     OW29272   0.402   3.557   6.171
 9458SOL    HW129273   0.380   3.653   6.192
 9458SOL    HW229274   0.337   3.497   6.218
 9459SOL     OW29275   5.619   4.527   3.954
 9459SOL    HW129276   5.533   4.520   3.902
 9459SOL    HW229277   5.615   4.464   4.032
 9460SOL     OW29278   2.062   3.609   4.967
 9460SOL    HW129279   2.095   3.685   5.023
 9460SOL    HW229280   2.078   3.523   5.016
 9461SOL     OW29281   0.648   1.685   1.339
 9461SOL    HW129282   0.556   1.712   1.368
 9461SOL    HW229283   0.650   1.587   1.318
 9462SOL     OW29284   1.366   2.460   3.497
 9462SOL    HW129285   1.453   2.491   3.458
 9462SOL    HW229286   1.346   2.512   3.580
 9463SOL     OW29287   5.892   0.475   1.300
 9463SOL    HW129288   5.850   0.474   1.390
 9463SOL    HW229289   5.918   0.382   1.274
 9464SOL     OW29290   5.775   0.388   0.971
 9464SOL    HW129291   5.706   0.420   1.036
 9464SOL    HW229292   5.806   0.463   0.914
 9465SOL     OW29293   7.017   3.863   1.759
 9465SOL    HW129294   0.040   3.779   1.786
 9465SOL    HW229295   6.923   3.841   1.731
 9466SOL     OW29296   3.194   4.912   5.348
 9466SOL    HW129297   3.143   4.969   5.284
 9466SOL    HW229298   3.160   4.818   5.342
 9467SOL     OW29299   1.023   3.077   1.188
 9467SOL    HW129300   1.053   3.169   1.164
 9467SOL    HW229301   1.101   3.023   1.219
 9468SOL     OW29302   5.192   4.253   6.366
 9468SOL    HW129303   5.146   4.286   6.449
 9468SOL    HW229304   5.291   4.254   6.380
 9469SOL     OW29305   0.645   5.632   1.651
 9469SOL    HW129306   0.605   5.657   1.563
 9469SOL    HW229307   0.744   5.645   1.648
 9470SOL     OW29308   5.290   3.368   0.261
 9470SOL    HW129309   5.304   3.460   0.298
 9470SOL    HW229310   5.213   3.369   0.197
 9471SOL     OW29311   6.799   2.693   4.367
 9471SOL    HW129312   6.819   2.612   4.421
 9471SOL    HW229313   6.880   2.718   4.313
 9472SOL     OW29314   6.975   2.964   5.237
 9472SOL    HW129315   0.001   2.934   5.156
 9472SOL    HW229316   0.009   3.023   5.292
 9473SOL     OW29317   3.214   4.552   0.221
 9473SOL    HW129318   3.138   4.603   0.261
 9473SOL    HW229319   3.283   4.534   0.291
 9474SOL     OW29320   6.601   3.401   1.173
 9474SOL    HW129321   6.623   3.416   1.269
 9474SOL    HW229322   6.555   3.481   1.136
 9475SOL     OW29323   3.789   3.343   0.466
 9475SOL    HW129324   3.754   3.272   0.526
 9475SOL    HW229325   3.833   3.301   0.386
 9476SOL     OW29326   4.009   3.929   4.539
 9476SOL    HW129327   4.013   3.842   4.489
 9476SOL    HW229328   4.019   4.004   4.474
 9477SOL     OW29329   0.477   2.766   1.130
 9477SOL    HW129330   0.567   2.808   1.129
 9477SOL    HW229331   0.444   2.761   1.224
 9478SOL     OW29332   5.142   3.501   1.355
 9478SOL    HW129333   5.105   3.559   1.428
 9478SOL    HW229334   5.079   3.424   1.340
 9479SOL     OW29335   4.213   6.359   0.337
 9479SOL    HW129336   4.264   6.445   0.333
 9479SOL    HW229337   4.264   6.292   0.391
 9480SOL     OW29338   5.769   5.189   0.624
 9480SOL    HW129339   5.788   5.124   0.551
 9480SOL    HW229340   5.764   5.281   0.587
 9481SOL     OW29341   4.882   2.807   2.570
 9481SOL    HW129342   4.933   2.724   2.589
 9481SOL    HW229343   4.892   2.831   2.473
 9482SOL     OW29344   0.713   0.723   2.567
 9482SOL    HW129345   0.696   0.780   2.648
 9482SOL    HW229346   0.796   0.753   2.522
 9483SOL     OW29347   1.162   0.249   0.816
 9483SOL    HW129348   1.154   0.332   0.761
 9483SOL    HW229349   1.224   0.265   0.892
 9484SOL     OW29350   3.914   0.018   4.500
 9484SOL    HW129351   3.839   0.082   4.482
 9484SOL    HW229352   3.940   6.997   4.415
 9485SOL     OW29353   0.603   1.090   1.067
 9485SOL    HW129354   0.591   1.010   1.127
 9485SOL    HW229355   0.600   1.060   0.972
 9486SOL     OW29356   4.401   6.120   0.670
 9486SOL    HW129357   4.454   6.102   0.752
 9486SOL    HW229358   4.341   6.042   0.650
 9487SOL     OW29359   3.157   4.002   4.050
 9487SOL    HW129360   3.173   3.951   4.134
 9487SOL    HW229361   3.107   3.945   3.985
 9488SOL     OW29362   2.872   0.027   1.001
 9488SOL    HW129363   2.793   0.055   0.946
 9488SOL    HW229364   2.875   0.081   1.085
 9489SOL     OW29365   4.967   4.551   1.639
 9489SOL    HW129366   4.909   4.470   1.634
 9489SOL    HW229367   5.060   4.523   1.665
 9490SOL     OW29368   6.323   5.530   3.118
 9490SOL    HW129369   6.317   5.484   3.029
 9490SOL    HW229370   6.270   5.615   3.114
 9491SOL     OW29371   4.972   4.849   3.850
 9491SOL    HW129372   5.041   4.913   3.884
 9491SOL    HW229373   5.002   4.755   3.870
 9492SOL     OW29374   3.880   3.602   4.686
 9492SOL    HW129375   3.974   3.608   4.718
 9492SOL    HW229376   3.847   3.508   4.697
 9493SOL     OW29377   2.717   5.765   4.404
 9493SOL    HW129378   2.639   5.803   4.454
 9493SOL    HW229379   2.754   5.687   4.455
 9494SOL     OW29380   5.462   2.878   2.889
 9494SOL    HW129381   5.454   2.960   2.945
 9494SOL    HW229382   5.377   2.862   2.840
 9495SOL     OW29383   6.995   2.272   3.123
 9495SOL    HW129384   0.065   2.283   3.154
 9495SOL    HW229385   6.979   2.176   3.098
 9496SOL     OW29386   6.211   3.716   1.720
 9496SOL    HW129387   6.113   3.734   1.714
 9496SOL    HW229388   6.226   3.629   1.767
 9497SOL     OW29389   5.343   6.156   5.545
 9497SOL    HW129390   5.289   6.100   5.607
 9497SOL    HW229391   5.438   6.125   5.546
 9498SOL     OW29392   5.633   5.525   4.663
 9498SOL    HW129393   5.663   5.609   4.710
 9498SOL    HW229394   5.713   5.471   4.638
 9499SOL     OW29395   1.581   5.497   6.012
 9499SOL    HW129396   1.545   5.405   5.998
 9499SOL    HW229397   1.526   5.563   5.960
 9500SOL     OW29398   4.553   7.023   0.317
 9500SOL    HW129399   4.568   6.942   0.373
 9500SOL    HW229400   4.543   6.996   0.222
 9501SOL     OW29401   2.589   1.318   4.843
 9501SOL    HW129402   2.649   1.374   4.901
 9501SOL    HW229403   2.500   1.363   4.833
 9502SOL     OW29404   6.056   2.779   4.763
 9502SOL    HW129405   6.116   2.718   4.815
 9502SOL    HW229406   5.967   2.736   4.749
 9503SOL     OW29407   0.425   1.639   0.252
 9503SOL    HW129408   0.451   1.555   0.205
 9503SOL    HW229409   0.476   1.716   0.213
 9504SOL     OW29410   6.845   3.240   1.115
 9504SOL    HW129411   6.833   3.143   1.092
 9504SOL    HW229412   6.756   3.285   1.118
 9505SOL     OW29413   5.488   4.860   5.034
 9505SOL    HW129414   5.459   4.786   5.095
 9505SOL    HW229415   5.550   4.921   5.083
 9506SOL     OW29416   1.835   2.539   0.084
 9506SOL    HW129417   1.820   2.487   0.168
 9506SOL    HW229418   1.798   2.631   0.094
 9507SOL     OW29419   0.729   1.144   1.866
 9507SOL    HW129420   0.719   1.243   1.858
 9507SOL    HW229421   0.791   1.111   1.795
 9508SOL     OW29422   5.871   2.496   2.135
 9508SOL    HW129423   5.854   2.481   2.233
 9508SOL    HW229424   5.802   2.447   2.081
 9509SOL     OW29425   0.351   0.868   4.029
 9509SOL    HW129426   0.263   0.913   4.022
 9509SOL    HW229427   0.424   0.936   4.031
 9510SOL     OW29428   1.222   3.926   3.664
 9510SOL    HW129429   1.319   3.915   3.681
 9510SOL    HW229430   1.205   4.015   3.622
 9511SOL     OW29431   2.217   6.981   1.253
 9511SOL    HW129432   2.270   0.035   1.220
 9511SOL    HW229433   2.120   6.997   1.234
 9512SOL     OW29434   6.324   1.803   1.093
 9512SOL    HW129435   6.235   1.848   1.084
 9512SOL    HW229436   6.324   1.746   1.175
 9513SOL     OW29437   2.270   4.179   5.692
 9513SOL    HW129438   2.240   4.142   5.780
 9513SOL    HW229439   2.266   4.279   5.695
 9514SOL     OW29440   2.379   5.304   6.034
 9514SOL    HW129441   2.290   5.346   6.049
 9514SOL    HW229442   2.444   5.338   6.103
 9515SOL     OW29443   1.687   5.372   1.371
 9515SOL    HW129444   1.608   5.400   1.426
 9515SOL    HW229445   1.771   5.405   1.414
 9516SOL     OW29446   5.731   5.151   6.808
 9516SOL    HW129447   5.820   5.173   6.767
 9516SOL    HW229448   5.661   5.148   6.736
 9517SOL     OW29449   1.516   3.653   1.480
 9517SOL    HW129450   1.600   3.618   1.521
 9517SOL    HW229451   1.511   3.625   1.384
 9518SOL     OW29452   1.454   1.883   0.337
 9518SOL    HW129453   1.456   1.942   0.417
 9518SOL    HW229454   1.471   1.789   0.364
 9519SOL     OW29455   3.496   3.087   5.269
 9519SOL    HW129456   3.409   3.061   5.311
 9519SOL    HW229457   3.570   3.076   5.336
 9520SOL     OW29458   2.429   1.655   2.943
 9520SOL    HW129459   2.490   1.665   3.022
 9520SOL    HW229460   2.470   1.591   2.878
 9521SOL     OW29461   5.099   5.789   2.538
 9521SOL    HW129462   5.035   5.751   2.605
 9521SOL    HW229463   5.050   5.850   2.477
 9522SOL     OW29464   2.889   5.537   1.160
 9522SOL    HW129465   2.831   5.497   1.089
 9522SOL    HW229466   2.865   5.498   1.249
 9523SOL     OW29467   3.664   5.222   4.870
 9523SOL    HW129468   3.669   5.321   4.871
 9523SOL    HW229469   3.591   5.191   4.932
 9524SOL     OW29470   3.543   2.172   1.161
 9524SOL    HW129471   3.539   2.212   1.253
 9524SOL    HW229472   3.509   2.239   1.095
 9525SOL     OW29473   2.349   2.574   5.975
 9525SOL    HW129474   2.270   2.543   6.028
 9525SOL    HW229475   2.332   2.557   5.878
 9526SOL     OW29476   4.754   5.434   2.141
 9526SOL    HW129477   4.780   5.473   2.229
 9526SOL    HW229478   4.675   5.482   2.104
 9527SOL     OW29479   1.052   0.713   2.668
 9527SOL    HW129480   1.000   0.775   2.727
 9527SOL    HW229481   1.066   0.626   2.716
 9528SOL     OW29482   6.722   0.675   0.614
 9528SOL    HW129483   6.664   0.656   0.693
 9528SOL    HW229484   6.806   0.621   0.622
 9529SOL     OW29485   6.167   3.023   5.625
 9529SOL    HW129486   6.128   2.931   5.617
 9529SOL    HW229487   6.094   3.091   5.622
 9530SOL     OW29488   1.818   3.058   2.758
 9530SOL    HW129489   1.892   3.101   2.810
 9530SOL    HW229490   1.854   2.978   2.709
 9531SOL     OW29491   4.488   6.313   2.752
 9531SOL    HW129492   4.539   6.321   2.667
 9531SOL    HW229493   4.539   6.255   2.816
 9532SOL     OW29494   0.177   6.469   2.142
 9532SOL    HW129495   0.123   6.549   2.169
 9532SOL    HW229496   0.133   6.425   2.063
 9533SOL     OW29497   6.674   0.421   5.216
 9533SOL    HW129498   6.667   0.380   5.126
 9533SOL    HW229499   6.752   0.483   5.219
 9534SOL     OW29500   6.028   3.297   5.244
 9534SOL    HW129501   5.936   3.276   5.278
 9534SOL    HW229502   6.096   3.247   5.299
 9535SOL     OW29503   2.362   1.338   5.778
 9535SOL    HW129504   2.445   1.378   5.738
 9535SOL    HW229505   2.310   1.291   5.707
 9536SOL     OW29506   3.009   5.031   5.185
 9536SOL    HW129507   3.029   5.081   5.101
 9536SOL    HW229508   2.927   4.974   5.171
 9537SOL     OW29509   2.440   6.673   2.557
 9537SOL    HW129510   2.484   6.719   2.480
 9537SOL    HW229511   2.470   6.715   2.643
 9538SOL     OW29512   6.431   1.757   3.778
 9538SOL    HW129513   6.346   1.766   3.830
 9538SOL    HW229514   6.454   1.845   3.736
 9539SOL     OW29515   1.826   3.492   5.433
 9539SOL    HW129516   1.761   3.559   5.397
 9539SOL    HW229517   1.849   3.426   5.362
 9540SOL     OW29518   4.981   3.558   4.332
 9540SOL    HW129519   4.941   3.492   4.395
 9540SOL    HW229520   5.079   3.567   4.351
 9541SOL     OW29521   3.151   2.175   5.858
 9541SOL    HW129522   3.218   2.150   5.928
 9541SOL    HW229523   3.173   2.128   5.773
 9542SOL     OW29524   5.059   3.719   4.629
 9542SOL    HW129525   5.042   3.758   4.720
 9542SOL    HW229526   4.985   3.744   4.567
 9543SOL     OW29527   3.280   0.671   4.587
 9543SOL    HW129528   3.362   0.618   4.611
 9543SOL    HW229529   3.290   0.705   4.493
 9544SOL     OW29530   6.971   1.385   2.783
 9544SOL    HW129531   6.952   1.476   2.822
 9544SOL    HW229532   0.046   1.369   2.786
 9545SOL     OW29533   6.689   4.523   3.619
 9545SOL    HW129534   6.748   4.596   3.653
 9545SOL    HW229535   6.645   4.477   3.696
 9546SOL     OW29536   2.649   2.476   5.572
 9546SOL    HW129537   2.740   2.439   5.594
 9546SOL    HW229538   2.658   2.572   5.545
 9547SOL     OW29539   1.993   5.596   3.658
 9547SOL    HW129540   2.000   5.621   3.755
 9547SOL    HW229541   1.974   5.678   3.604
 9548SOL     OW29542   5.869   6.227   4.794
 9548SOL    HW129543   5.891   6.134   4.822
 9548SOL    HW229544   5.782   6.228   4.744
 9549SOL     OW29545   2.948   3.764   1.314
 9549SOL    HW129546   3.005   3.687   1.344
 9549SOL    HW229547   2.871   3.729   1.260
 9550SOL     OW29548   0.108   1.370   0.243
 9550SOL    HW129549   0.200   1.338   0.267
 9550SOL    HW229550   0.088   1.344   0.149
 9551SOL     OW29551   6.696   0.787   4.403
 9551SOL    HW129552   6.717   0.839   4.321
 9551SOL    HW229553   6.701   0.689   4.383
 9552SOL     OW29554   0.987   6.009   2.124
 9552SOL    HW129555   1.001   6.086   2.186
 9552SOL    HW229556   1.053   5.937   2.146
 9553SOL     OW29557   6.016   4.307   6.760
 9553SOL    HW129558   5.990   4.211   6.749
 9553SOL    HW229559   5.987   4.359   6.679
 9554SOL     OW29560   2.588   0.081   1.512
 9554SOL    HW129561   2.603   7.011   1.481
 9554SOL    HW229562   2.629   0.093   1.602
 9555SOL     OW29563   0.570   0.826   1.215
 9555SOL    HW129564   0.493   0.767   1.237
 9555SOL    HW229565   0.624   0.784   1.141
 9556SOL     OW29566   2.793   2.530   1.126
 9556SOL    HW129567   2.791   2.458   1.194
 9556SOL    HW229568   2.763   2.493   1.037
 9557SOL     OW29569   6.487   1.072   2.808
 9557SOL    HW129570   6.516   1.015   2.732
 9557SOL    HW229571   6.548   1.151   2.817
 9558SOL     OW29572   5.710   5.512   4.057
 9558SOL    HW129573   5.644   5.466   4.116
 9558SOL    HW229574   5.710   5.469   3.967
 9559SOL     OW29575   0.282   3.672   1.436
 9559SOL    HW129576   0.188   3.670   1.401
 9559SOL    HW229577   0.299   3.590   1.491
 9560SOL     OW29578   1.601   1.653   2.221
 9560SOL    HW129579   1.581   1.586   2.293
 9560SOL    HW229580   1.565   1.742   2.247
 9561SOL     OW29581   1.563   6.876   0.556
 9561SOL    HW129582   1.649   6.926   0.563
 9561SOL    HW229583   1.577   6.793   0.502
 9562SOL     OW29584   2.892   6.515   5.023
 9562SOL    HW129585   2.927   6.494   5.114
 9562SOL    HW229586   2.868   6.612   5.018
 9563SOL     OW29587   6.264   6.399   0.704
 9563SOL    HW129588   6.209   6.451   0.638
 9563SOL    HW229589   6.351   6.375   0.662
 9564SOL     OW29590   2.932   6.667   6.381
 9564SOL    HW129591   2.925   6.766   6.391
 9564SOL    HW229592   3.018   6.644   6.335
 9565SOL     OW29593   4.027   6.358   5.129
 9565SOL    HW129594   4.101   6.304   5.168
 9565SOL    HW229595   3.985   6.413   5.200
 9566SOL     OW29596   3.679   4.406   0.193
 9566SOL    HW129597   3.605   4.405   0.125
 9566SOL    HW229598   3.742   4.331   0.174
 9567SOL     OW29599   6.429   5.372   6.349
 9567SOL    HW129600   6.333   5.368   6.374
 9567SOL    HW229601   6.451   5.298   6.285
 9568SOL     OW29602   4.744   2.958   6.825
 9568SOL    HW129603   4.658   2.930   6.866
 9568SOL    HW229604   4.753   3.058   6.831
 9569SOL     OW29605   0.120   0.396   2.000
 9569SOL    HW129606   0.052   0.331   1.965
 9569SOL    HW229607   0.187   0.347   2.055
 9570SOL     OW29608   1.095   2.180   1.846
 9570SOL    HW129609   1.105   2.081   1.855
 9570SOL    HW229610   1.039   2.201   1.765
 9571SOL     OW29611   2.746   3.610   6.937
 9571SOL    HW129612   2.683   3.539   6.905
 9571SOL    HW229613   2.700   3.699   6.937
 9572SOL     OW29614   1.981   5.203   0.967
 9572SOL    HW129615   1.929   5.134   0.916
 9572SOL    HW229616   1.924   5.239   1.041
 9573SOL     OW29617   0.763   1.770   6.577
 9573SOL    HW129618   0.778   1.682   6.533
 9573SOL    HW229619   0.850   1.818   6.588
 9574SOL     OW29620   4.011   3.122   4.694
 9574SOL    HW129621   4.056   3.206   4.725
 9574SOL    HW229622   3.992   3.064   4.773
 9575SOL     OW29623   5.424   0.645   0.633
 9575SOL    HW129624   5.397   0.617   0.541
 9575SOL    HW229625   5.500   0.588   0.665
 9576SOL     OW29626   3.386   1.343   2.765
 9576SOL    HW129627   3.418   1.420   2.711
 9576SOL    HW229628   3.319   1.290   2.713
 9577SOL     OW29629   1.425   0.726   3.167
 9577SOL    HW129630   1.423   0.745   3.265
 9577SOL    HW229631   1.332   0.716   3.132
 9578SOL     OW29632   6.808   3.951   3.157
 9578SOL    HW129633   6.726   3.906   3.120
 9578SOL    HW229634   6.887   3.926   3.101
 9579SOL     OW29635   1.533   6.083   3.227
 9579SOL    HW129636   1.469   6.126   3.290
 9579SOL    HW229637   1.572   6.152   3.166
 9580SOL     OW29638   5.433   3.082   0.443
 9580SOL    HW129639   5.468   3.102   0.351
 9580SOL    HW229640   5.334   3.068   0.440
 9581SOL     OW29641   1.394   5.155   6.268
 9581SOL    HW129642   1.299   5.182   6.252
 9581SOL    HW229643   1.396   5.063   6.308
 9582SOL     OW29644   4.407   4.712   4.878
 9582SOL    HW129645   4.403   4.657   4.961
 9582SOL    HW229646   4.345   4.790   4.886
 9583SOL     OW29647   3.028   3.375   1.538
 9583SOL    HW129648   3.033   3.406   1.633
 9583SOL    HW229649   2.934   3.350   1.516
 9584SOL     OW29650   6.061   5.929   6.810
 9584SOL    HW129651   6.015   5.878   6.883
 9584SOL    HW229652   6.105   5.866   6.747
 9585SOL     OW29653   6.677   0.901   2.915
 9585SOL    HW129654   6.639   0.809   2.926
 9585SOL    HW229655   6.605   0.964   2.888
 9586SOL     OW29656   5.855   4.157   1.979
 9586SOL    HW129657   5.798   4.157   2.061
 9586SOL    HW229658   5.813   4.099   1.909
 9587SOL     OW29659   6.228   0.357   2.338
 9587SOL    HW129660   6.246   0.259   2.347
 9587SOL    HW229661   6.197   0.393   2.425
 9588SOL     OW29662   0.645   1.434   1.872
 9588SOL    HW129663   0.671   1.440   1.775
 9588SOL    HW229664   0.669   1.519   1.918
 9589SOL     OW29665   2.741   5.754   6.527
 9589SOL    HW129666   2.736   5.757   6.626
 9589SOL    HW229667   2.654   5.723   6.490
 9590SOL     OW29668   0.128   4.736   2.356
 9590SOL    HW129669   0.125   4.638   2.335
 9590SOL    HW229670   0.188   4.782   2.291
 9591SOL     OW29671   3.295   5.804   0.355
 9591SOL    HW129672   3.349   5.831   0.276
 9591SOL    HW229673   3.340   5.835   0.438
 9592SOL     OW29674   3.693   5.160   2.011
 9592SOL    HW129675   3.710   5.115   2.098
 9592SOL    HW229676   3.705   5.259   2.021
 9593SOL     OW29677   5.207   1.429   4.811
 9593SOL    HW129678   5.289   1.374   4.797
 9593SOL    HW229679   5.168   1.454   4.723
 9594SOL     OW29680   6.872   5.866   3.785
 9594SOL    HW129681   6.847   5.812   3.866
 9594SOL    HW229682   6.789   5.894   3.737
 9595SOL     OW29683   1.841   4.466   4.289
 9595SOL    HW129684   1.788   4.416   4.220
 9595SOL    HW229685   1.781   4.494   4.364
 9596SOL     OW29686   0.146   4.824   6.754
 9596SOL    HW129687   0.112   4.885   6.682
 9596SOL    HW229688   0.242   4.845   6.773
 9597SOL     OW29689   0.487   4.057   0.935
 9597SOL    HW129690   0.521   4.131   0.994
 9597SOL    HW229691   0.390   4.042   0.953
 9598SOL     OW29692   0.530   4.255   5.262
 9598SOL    HW129693   0.609   4.307   5.231
 9598SOL    HW229694   0.553   4.158   5.265
 9599SOL     OW29695   3.461   0.585   5.039
 9599SOL    HW129696   3.468   0.684   5.026
 9599SOL    HW229697   3.372   0.563   5.078
 9600SOL     OW29698   2.630   6.991   6.017
 9600SOL    HW129699   2.645   6.933   6.097
 9600SOL    HW229700   2.532   6.997   5.997
 9601SOL     OW29701   6.117   4.348   5.985
 9601SOL    HW129702   6.176   4.367   6.064
 9601SOL    HW229703   6.023   4.372   6.007
 9602SOL     OW29704   6.828   4.893   6.565
 9602SOL    HW129705   6.862   4.975   6.610
 9602SOL    HW229706   6.764   4.846   6.626
 9603SOL     OW29707   2.277   6.981   4.504
 9603SOL    HW129708   2.364   6.952   4.544
 9603SOL    HW229709   2.208   6.911   4.520
 9604SOL     OW29710   5.249   0.815   0.469
 9604SOL    HW129711   5.263   0.805   0.567
 9604SOL    HW229712   5.286   0.735   0.421
 9605SOL     OW29713   0.436   5.015   5.853
 9605SOL    HW129714   0.340   4.992   5.867
 9605SOL    HW229715   0.461   5.094   5.909
 9606SOL     OW29716   1.047   6.923   4.074
 9606SOL    HW129717   0.991   6.876   4.006
 9606SOL    HW229718   1.027   6.887   4.165
 9607SOL     OW29719   1.340   1.996   1.476
 9607SOL    HW129720   1.277   1.979   1.400
 9607SOL    HW229721   1.410   1.925   1.477
 9608SOL     OW29722   0.476   6.760   2.713
 9608SOL    HW129723   0.549   6.716   2.660
 9608SOL    HW229724   0.409   6.798   2.650
 9609SOL     OW29725   1.423   3.423   5.143
 9609SOL    HW129726   1.372   3.409   5.059
 9609SOL    HW229727   1.421   3.340   5.198
 9610SOL     OW29728   1.068   3.264   5.359
 9610SOL    HW129729   0.989   3.325   5.356
 9610SOL    HW229730   1.100   3.255   5.453
 9611SOL     OW29731   0.042   6.897   1.208
 9611SOL    HW129732   0.134   6.935   1.214
 9611SOL    HW229733   0.036   6.835   1.130
 9612SOL     OW29734   6.504   2.635   0.263
 9612SOL    HW129735   6.449   2.713   0.292
 9612SOL    HW229736   6.583   2.625   0.325
 9613SOL     OW29737   5.277   6.110   4.534
 9613SOL    HW129738   5.245   6.193   4.580
 9613SOL    HW229739   5.327   6.052   4.599
 9614SOL     OW29740   4.179   3.372   1.501
 9614SOL    HW129741   4.241   3.301   1.533
 9614SOL    HW229742   4.184   3.379   1.401
 9615SOL     OW29743   1.942   6.083   2.962
 9615SOL    HW129744   1.957   6.005   3.022
 9615SOL    HW229745   1.998   6.073   2.880
 9616SOL     OW29746   4.537   3.411   0.949
 9616SOL    HW129747   4.517   3.508   0.937
 9616SOL    HW229748   4.452   3.360   0.965
 9617SOL     OW29749   1.239   3.864   3.955
 9617SOL    HW129750   1.166   3.799   3.978
 9617SOL    HW229751   1.244   3.873   3.856
 9618SOL     OW29752   3.163   0.515   6.765
 9618SOL    HW129753   3.105   0.593   6.743
 9618SOL    HW229754   3.106   0.432   6.774
 9619SOL     OW29755   0.896   6.821   1.029
 9619SOL    HW129756   0.885   6.762   0.950
 9619SOL    HW229757   0.937   6.908   1.001
 9620SOL     OW29758   4.234   1.838   6.971
 9620SOL    HW129759   4.265   1.913   0.004
 9620SOL    HW229760   4.302   1.821   6.900
 9621SOL     OW29761   1.551   1.109   1.709
 9621SOL    HW129762   1.635   1.164   1.711
 9621SOL    HW229763   1.562   1.029   1.768
 9622SOL     OW29764   6.354   1.222   6.643
 9622SOL    HW129765   6.303   1.241   6.727
 9622SOL    HW229766   6.440   1.273   6.643
 9623SOL     OW29767   4.793   5.293   6.817
 9623SOL    HW129768   4.880   5.245   6.815
 9623SOL    HW229769   4.736   5.261   6.741
 9624SOL     OW29770   5.173   4.657   5.382
 9624SOL    HW129771   5.241   4.647   5.455
 9624SOL    HW229772   5.096   4.596   5.399
 9625SOL     OW29773   4.445   4.197   6.666
 9625SOL    HW129774   4.434   4.288   6.625
 9625SOL    HW229775   4.488   4.206   6.757
 9626SOL     OW29776   2.078   5.346   4.384
 9626SOL    HW129777   2.176   5.350   4.404
 9626SOL    HW229778   2.033   5.293   4.456
 9627SOL     OW29779   0.884   4.467   4.842
 9627SOL    HW129780   0.882   4.429   4.934
 9627SOL    HW229781   0.979   4.489   4.817
 9628SOL     OW29782   5.877   3.884   0.954
 9628SOL    HW129783   5.887   3.837   0.866
 9628SOL    HW229784   5.781   3.884   0.981
 9629SOL     OW29785   6.576   6.260   3.236
 9629SOL    HW129786   6.548   6.248   3.141
 9629SOL    HW229787   6.659   6.316   3.239
 9630SOL     OW29788   5.835   6.031   5.305
 9630SOL    HW129789   5.857   6.061   5.397
 9630SOL    HW229790   5.782   6.102   5.258
 9631SOL     OW29791   4.501   1.736   1.139
 9631SOL    HW129792   4.419   1.725   1.082
 9631SOL    HW229793   4.473   1.751   1.234
 9632SOL     OW29794   2.167   5.233   1.235
 9632SOL    HW129795   2.118   5.196   1.156
 9632SOL    HW229796   2.113   5.219   1.318
 9633SOL     OW29797   3.816   3.300   0.975
 9633SOL    HW129798   3.737   3.354   1.001
 9633SOL    HW229799   3.802   3.205   1.004
 9634SOL     OW29800   6.021   5.581   3.337
 9634SOL    HW129801   5.980   5.656   3.389
 9634SOL    HW229802   6.080   5.527   3.397
 9635SOL     OW29803   0.548   4.584   4.989
 9635SOL    HW129804   0.595   4.518   5.047
 9635SOL    HW229805   0.485   4.639   5.044
 9636SOL     OW29806   3.357   1.581   6.172
 9636SOL    HW129807   3.360   1.504   6.237
 9636SOL    HW229808   3.353   1.545   6.079
 9637SOL     OW29809   3.234   3.210   1.460
 9637SOL    HW129810   3.208   3.134   1.400
 9637SOL    HW229811   3.154   3.267   1.479
 9638SOL     OW29812   0.138   3.751   6.362
 9638SOL    HW129813   0.103   3.843   6.345
 9638SOL    HW229814   0.097   3.687   6.297
 9639SOL     OW29815   4.548   2.776   1.733
 9639SOL    HW129816   4.564   2.856   1.790
 9639SOL    HW229817   4.517   2.700   1.791
 9640SOL     OW29818   3.941   1.259   2.225
 9640SOL    HW129819   3.861   1.199   2.227
 9640SOL    HW229820   3.930   1.328   2.154
 9641SOL     OW29821   5.316   6.173   2.448
 9641SOL    HW129822   5.381   6.222   2.507
 9641SOL    HW229823   5.339   6.190   2.352
 9642SOL     OW29824   1.290   0.025   4.017
 9642SOL    HW129825   1.326   0.096   4.078
 9642SOL    HW229826   1.198   7.023   4.046
 9643SOL     OW29827   5.166   3.661   3.855
 9643SOL    HW129828   5.249   3.716   3.858
 9643SOL    HW229829   5.162   3.610   3.769
 9644SOL     OW29830   1.759   6.101   4.858
 9644SOL    HW129831   1.782   6.171   4.791
 9644SOL    HW229832   1.712   6.026   4.812
 9645SOL     OW29833   1.909   4.483   5.055
 9645SOL    HW129834   1.889   4.389   5.081
 9645SOL    HW229835   1.993   4.513   5.100
 9646SOL     OW29836   3.165   5.496   2.696
 9646SOL    HW129837   3.193   5.592   2.699
 9646SOL    HW229838   3.159   5.466   2.600
 9647SOL     OW29839   0.238   6.944   3.165
 9647SOL    HW129840   0.211   6.966   3.071
 9647SOL    HW229841   0.325   6.893   3.164
 9648SOL     OW29842   4.973   2.957   1.300
 9648SOL    HW129843   4.932   2.949   1.392
 9648SOL    HW229844   5.050   2.894   1.293
 9649SOL     OW29845   2.531   4.188   6.740
 9649SOL    HW129846   2.626   4.206   6.712
 9649SOL    HW229847   2.472   4.261   6.707
 9650SOL     OW29848   5.399   4.404   3.510
 9650SOL    HW129849   5.308   4.446   3.513
 9650SOL    HW229850   5.396   4.323   3.451
 9651SOL     OW29851   3.828   0.950   1.004
 9651SOL    HW129852   3.853   0.853   1.001
 9651SOL    HW229853   3.731   0.960   0.982
 9652SOL     OW29854   0.442   4.902   1.072
 9652SOL    HW129855   0.523   4.843   1.072
 9652SOL    HW229856   0.450   4.969   1.146
 9653SOL     OW29857   4.729   4.915   5.787
 9653SOL    HW129858   4.780   4.829   5.789
 9653SOL    HW229859   4.769   4.980   5.851
 9654SOL     OW29860   3.086   3.047   3.338
 9654SOL    HW129861   3.081   3.140   3.374
 9654SOL    HW229862   3.136   2.989   3.403
 9655SOL     OW29863   0.079   1.846   0.085
 9655SOL    HW129864   0.150   1.847   0.015
 9655SOL    HW229865   0.113   1.797   0.166
 9656SOL     OW29866   4.624   2.062   0.980
 9656SOL    HW129867   4.610   1.997   0.906
 9656SOL    HW229868   4.580   2.149   0.957
 9657SOL     OW29869   5.936   4.352   2.927
 9657SOL    HW129870   5.998   4.420   2.887
 9657SOL    HW229871   5.898   4.295   2.855
 9658SOL     OW29872   5.778   2.218   2.787
 9658SOL    HW129873   5.703   2.253   2.843
 9658SOL    HW229874   5.748   2.212   2.691
 9659SOL     OW29875   1.239   2.541   0.183
 9659SOL    HW129876   1.323   2.505   0.144
 9659SOL    HW229877   1.181   2.465   0.213
 9660SOL     OW29878   0.604   0.098   2.027
 9660SOL    HW129879   0.509   0.118   2.004
 9660SOL    HW229880   0.638   0.166   2.092
 9661SOL     OW29881   4.378   6.028   1.111
 9661SOL    HW129882   4.388   6.122   1.078
 9661SOL    HW229883   4.451   6.008   1.175
 9662SOL     OW29884   5.053   3.713   0.284
 9662SOL    HW129885   5.013   3.659   0.358
 9662SOL    HW229886   5.152   3.708   0.289
 9663SOL     OW29887   0.358   5.760   2.450
 9663SOL    HW129888   0.433   5.824   2.432
 9663SOL    HW229889   0.303   5.749   2.368
 9664SOL     OW29890   5.570   4.460   4.788
 9664SOL    HW129891   5.519   4.426   4.709
 9664SOL    HW229892   5.532   4.422   4.872
 9665SOL     OW29893   6.270   6.249   5.866
 9665SOL    HW129894   6.255   6.216   5.773
 9665SOL    HW229895   6.196   6.218   5.925
 9666SOL     OW29896   6.279   3.480   1.921
 9666SOL    HW129897   6.364   3.532   1.915
 9666SOL    HW229898   6.292   3.399   1.978
 9667SOL     OW29899   4.137   3.572   1.132
 9667SOL    HW129900   4.110   3.483   1.096
 9667SOL    HW229901   4.168   3.631   1.057
 9668SOL     OW29902   1.224   0.859   6.669
 9668SOL    HW129903   1.161   0.927   6.632
 9668SOL    HW229904   1.172   0.779   6.699
 9669SOL     OW29905   2.081   6.697   1.568
 9669SOL    HW129906   2.013   6.697   1.494
 9669SOL    HW229907   2.113   6.790   1.584
 9670SOL     OW29908   0.095   5.568   5.232
 9670SOL    HW129909   0.115   5.571   5.330
 9670SOL    HW229910   0.043   5.649   5.206
 9671SOL     OW29911   6.474   4.364   0.688
 9671SOL    HW129912   6.388   4.413   0.673
 9671SOL    HW229913   6.533   4.377   0.608
 9672SOL     OW29914   1.289   4.824   3.424
 9672SOL    HW129915   1.386   4.842   3.406
 9672SOL    HW229916   1.234   4.899   3.387
 9673SOL     OW29917   3.698   3.704   1.293
 9673SOL    HW129918   3.663   3.682   1.384
 9673SOL    HW229919   3.628   3.753   1.241
 9674SOL     OW29920   3.832   6.391   3.249
 9674SOL    HW129921   3.893   6.453   3.200
 9674SOL    HW229922   3.867   6.376   3.342
 9675SOL     OW29923   4.955   2.532   6.730
 9675SOL    HW129924   4.889   2.481   6.784
 9675SOL    HW229925   5.043   2.534   6.777
 9676SOL     OW29926   1.354   3.752   5.941
 9676SOL    HW129927   1.450   3.731   5.958
 9676SOL    HW229928   1.297   3.703   6.008
 9677SOL     OW29929   6.717   4.939   5.822
 9677SOL    HW129930   6.807   4.980   5.805
 9677SOL    HW229931   6.678   4.977   5.905
 9678SOL     OW29932   3.025   3.554   4.371
 9678SOL    HW129933   2.938   3.511   4.396
 9678SOL    HW229934   3.032   3.643   4.414
 9679SOL     OW29935   2.366   0.122   4.000
 9679SOL    HW129936   2.369   0.083   4.092
 9679SOL    HW229937   2.271   0.127   3.969
 9680SOL     OW29938   4.199   0.565   5.428
 9680SOL    HW129939   4.285   0.519   5.406
 9680SOL    HW229940   4.162   0.529   5.513
 9681SOL     OW29941   3.189   2.155   0.824
 9681SOL    HW129942   3.276   2.168   0.778
 9681SOL    HW229943   3.150   2.244   0.848
 9682SOL     OW29944   5.005   3.945   3.532
 9682SOL    HW129945   4.962   4.006   3.466
 9682SOL    HW229946   5.066   3.882   3.485
 9683SOL     OW29947   3.436   6.431   1.178
 9683SOL    HW129948   3.368   6.427   1.105
 9683SOL    HW229949   3.526   6.408   1.141
 9684SOL     OW29950   0.953   4.238   5.048
 9684SOL    HW129951   1.005   4.255   4.964
 9684SOL    HW229952   1.013   4.246   5.127
 9685SOL     OW29953   4.734   4.075   1.104
 9685SOL    HW129954   4.665   4.034   1.163
 9685SOL    HW229955   4.752   4.013   1.027
 9686SOL     OW29956   0.783   3.206   6.497
 9686SOL    HW129957   0.688   3.227   6.520
 9686SOL    HW229958   0.822   3.280   6.443
 9687SOL     OW29959   6.616   1.133   3.188
 9687SOL    HW129960   6.517   1.135   3.202
 9687SOL    HW229961   6.646   1.221   3.151
 9688SOL     OW29962   1.386   3.345   0.804
 9688SOL    HW129963   1.354   3.373   0.713
 9688SOL    HW229964   1.388   3.245   0.810
 9689SOL     OW29965   0.710   4.538   6.742
 9689SOL    HW129966   0.803   4.567   6.763
 9689SOL    HW229967   0.666   4.504   6.826
 9690SOL     OW29968   5.552   6.653   5.904
 9690SOL    HW129969   5.585   6.663   5.810
 9690SOL    HW229970   5.539   6.743   5.945
 9691SOL     OW29971   2.955   3.874   1.846
 9691SOL    HW129972   2.892   3.948   1.823
 9691SOL    HW229973   2.963   3.812   1.768
 9692SOL     OW29974   4.721   5.808   0.949
 9692SOL    HW129975   4.820   5.819   0.948
 9692SOL    HW229976   4.688   5.796   0.855
 9693SOL     OW29977   6.253   3.956   2.952
 9693SOL    HW129978   6.228   4.049   2.978
 9693SOL    HW229979   6.327   3.924   3.012
 9694SOL     OW29980   2.961   0.682   2.258
 9694SOL    HW129981   3.041   0.728   2.297
 9694SOL    HW229982   2.891   0.750   2.237
 9695SOL     OW29983   6.697   2.578   2.987
 9695SOL    HW129984   6.793   2.595   3.010
 9695SOL    HW229985   6.645   2.565   3.072
 9696SOL     OW29986   5.799   2.947   1.347
 9696SOL    HW129987   5.824   2.988   1.435
 9696SOL    HW229988   5.759   3.017   1.288
 9697SOL     OW29989   0.508   6.471   0.173
 9697SOL    HW129990   0.601   6.435   0.165
 9697SOL    HW229991   0.465   6.433   0.255
 9698SOL     OW29992   5.530   2.322   5.961
 9698SOL    HW129993   5.513   2.331   5.863
 9698SOL    HW229994   5.527   2.225   5.987
 9699SOL     OW29995   6.983   5.470   0.289
 9699SOL    HW129996   7.006   5.539   0.357
 9699SOL    HW229997   0.038   5.454   0.230
 9700SOL     OW29998   5.843   4.791   4.908
 9700SOL    HW129999   5.902   4.711   4.913
 9700SOL    HW230000   5.752   4.765   4.879
 9701SOL     OW30001   4.588   4.384   5.849
 9701SOL    HW130002   4.604   4.369   5.947
 9701SOL    HW230003   4.520   4.319   5.817
 9702SOL     OW30004   3.956   2.184   0.276
 9702SOL    HW130005   3.869   2.175   0.227
 9702SOL    HW230006   3.971   2.279   0.301
 9703SOL     OW30007   4.928   3.696   3.956
 9703SOL    HW130008   4.907   3.602   3.982
 9703SOL    HW230009   5.022   3.701   3.922
 9704SOL     OW30010   3.545   6.001   1.583
 9704SOL    HW130011   3.447   5.987   1.568
 9704SOL    HW230012   3.590   5.912   1.592
 9705SOL     OW30013   5.108   4.465   6.220
 9705SOL    HW130014   5.182   4.521   6.183
 9705SOL    HW230015   5.146   4.388   6.271
 9706SOL     OW30016   2.836   2.120   0.888
 9706SOL    HW130017   2.887   2.151   0.968
 9706SOL    HW230018   2.781   2.196   0.852
 9707SOL     OW30019   6.386   4.978   2.486
 9707SOL    HW130020   6.432   4.894   2.458
 9707SOL    HW230021   6.444   5.028   2.550
 9708SOL     OW30022   0.649   1.453   3.530
 9708SOL    HW130023   0.684   1.521   3.594
 9708SOL    HW230024   0.726   1.410   3.481
 9709SOL     OW30025   5.553   5.175   2.540
 9709SOL    HW130026   5.476   5.124   2.577
 9709SOL    HW230027   5.609   5.211   2.615
 9710SOL     OW30028   0.061   1.553   1.545
 9710SOL    HW130029   0.058   1.651   1.567
 9710SOL    HW230030   0.013   1.537   1.458
 9711SOL     OW30031   4.774   5.328   6.404
 9711SOL    HW130032   4.759   5.246   6.347
 9711SOL    HW230033   4.703   5.332   6.474
 9712SOL     OW30034   5.719   3.781   0.095
 9712SOL    HW130035   5.620   3.787   0.079
 9712SOL    HW230036   5.741   3.694   0.138
 9713SOL     OW30037   2.014   4.578   3.434
 9713SOL    HW130038   2.011   4.520   3.352
 9713SOL    HW230039   1.927   4.626   3.445
 9714SOL     OW30040   4.258   6.414   6.275
 9714SOL    HW130041   4.211   6.503   6.283
 9714SOL    HW230042   4.229   6.354   6.349
 9715SOL     OW30043   5.797   4.054   0.060
 9715SOL    HW130044   5.890   4.057   0.023
 9715SOL    HW230045   5.773   3.960   0.082
 9716SOL     OW30046   3.374   4.413   6.595
 9716SOL    HW130047   3.417   4.424   6.506
 9716SOL    HW230048   3.364   4.315   6.615
 9717SOL     OW30049   5.172   6.704   6.076
 9717SOL    HW130050   5.111   6.782   6.065
 9717SOL    HW230051   5.262   6.726   6.038
 9718SOL     OW30052   5.005   3.285   1.288
 9718SOL    HW130053   5.006   3.249   1.195
 9718SOL    HW230054   4.955   3.223   1.348
 9719SOL     OW30055   5.730   0.476   6.203
 9719SOL    HW130056   5.709   0.497   6.108
 9719SOL    HW230057   5.741   0.562   6.254
 9720SOL     OW30058   0.951   4.228   2.389
 9720SOL    HW130059   0.972   4.209   2.485
 9720SOL    HW230060   0.871   4.288   2.384
 9721SOL     OW30061   0.430   1.427   0.104
 9721SOL    HW130062   0.514   1.431   0.049
 9721SOL    HW230063   0.353   1.459   0.049
 9722SOL     OW30064   3.500   1.269   5.169
 9722SOL    HW130065   3.515   1.174   5.195
 9722SOL    HW230066   3.586   1.311   5.142
 9723SOL     OW30067   3.890   6.037   3.604
 9723SOL    HW130068   3.982   6.016   3.639
 9723SOL    HW230069   3.833   6.070   3.679
 9724SOL     OW30070   1.344   5.070   0.320
 9724SOL    HW130071   1.412   5.091   0.250
 9724SOL    HW230072   1.252   5.082   0.282
 9725SOL     OW30073   4.224   6.114   6.214
 9725SOL    HW130074   4.260   6.132   6.306
 9725SOL    HW230075   4.249   6.189   6.153
 9726SOL     OW30076   4.284   1.625   3.544
 9726SOL    HW130077   4.195   1.662   3.570
 9726SOL    HW230078   4.337   1.605   3.626
 9727SOL     OW30079   0.840   2.555   6.560
 9727SOL    HW130080   0.803   2.476   6.608
 9727SOL    HW230081   0.901   2.525   6.487
 9728SOL     OW30082   0.706   1.230   5.284
 9728SOL    HW130083   0.715   1.271   5.375
 9728SOL    HW230084   0.730   1.133   5.290
 9729SOL     OW30085   1.227   4.785   4.140
 9729SOL    HW130086   1.153   4.720   4.157
 9729SOL    HW230087   1.206   4.839   4.059
 9730SOL     OW30088   1.049   4.312   3.155
 9730SOL    HW130089   1.117   4.308   3.228
 9730SOL    HW230090   1.010   4.404   3.151
 9731SOL     OW30091   5.018   5.420   1.946
 9731SOL    HW130092   5.074   5.482   2.002
 9731SOL    HW230093   4.924   5.454   1.943
 9732SOL     OW30094   1.254   3.946   2.573
 9732SOL    HW130095   1.276   3.851   2.550
 9732SOL    HW230096   1.308   4.008   2.516
 9733SOL     OW30097   5.006   5.792   0.029
 9733SOL    HW130098   5.005   5.692   0.035
 9733SOL    HW230099   4.916   5.828   0.051
 9734SOL     OW30100   6.730   0.369   0.477
 9734SOL    HW130101   6.694   0.339   0.566
 9734SOL    HW230102   6.654   0.393   0.417
 9735SOL     OW30103   1.941   3.058   3.624
 9735SOL    HW130104   1.988   2.972   3.603
 9735SOL    HW230105   1.995   3.111   3.689
 9736SOL     OW30106   5.007   1.325   5.712
 9736SOL    HW130107   4.913   1.296   5.729
 9736SOL    HW230108   5.007   1.419   5.678
 9737SOL     OW30109   5.127   2.529   3.123
 9737SOL    HW130110   5.115   2.578   3.037
 9737SOL    HW230111   5.100   2.433   3.111
 9738SOL     OW30112   2.536   6.645   0.558
 9738SOL    HW130113   2.620   6.618   0.605
 9738SOL    HW230114   2.493   6.722   0.606
 9739SOL     OW30115   5.165   5.727   0.780
 9739SOL    HW130116   5.189   5.643   0.732
 9739SOL    HW230117   5.164   5.710   0.879
 9740SOL     OW30118   0.376   1.019   3.509
 9740SOL    HW130119   0.432   1.069   3.442
 9740SOL    HW230120   0.392   0.921   3.499
 9741SOL     OW30121   2.472   0.913   2.472
 9741SOL    HW130122   2.381   0.897   2.511
 9741SOL    HW230123   2.533   0.948   2.543
 9742SOL     OW30124   3.636   0.995   0.528
 9742SOL    HW130125   3.626   1.069   0.462
 9742SOL    HW230126   3.724   1.004   0.574
 9743SOL     OW30127   6.505   4.243   3.537
 9743SOL    HW130128   6.600   4.214   3.546
 9743SOL    HW230129   6.446   4.163   3.524
 9744SOL     OW30130   1.169   6.819   1.676
 9744SOL    HW130131   1.141   6.910   1.644
 9744SOL    HW230132   1.217   6.772   1.602
 9745SOL     OW30133   4.376   2.802   6.611
 9745SOL    HW130134   4.471   2.803   6.643
 9745SOL    HW230135   4.324   2.736   6.664
 9746SOL     OW30136   5.681   0.378   5.583
 9746SOL    HW130137   5.637   0.392   5.672
 9746SOL    HW230138   5.779   0.364   5.598
 9747SOL     OW30139   2.686   2.217   2.030
 9747SOL    HW130140   2.617   2.285   2.052
 9747SOL    HW230141   2.775   2.262   2.018
 9748SOL     OW30142   6.127   6.698   3.839
 9748SOL    HW130143   6.152   6.795   3.840
 9748SOL    HW230144   6.047   6.685   3.779
 9749SOL     OW30145   1.302   0.642   3.956
 9749SOL    HW130146   1.393   0.659   3.994
 9749SOL    HW230147   1.261   0.729   3.928
 9750SOL     OW30148   6.085   5.223   3.209
 9750SOL    HW130149   6.146   5.149   3.238
 9750SOL    HW230150   6.111   5.307   3.255
 9751SOL     OW30151   2.788   0.172   1.214
 9751SOL    HW130152   2.827   0.143   1.301
 9751SOL    HW230153   2.796   0.272   1.206
 9752SOL     OW30154   4.148   1.564   5.213
 9752SOL    HW130155   4.192   1.640   5.260
 9752SOL    HW230156   4.211   1.524   5.147
 9753SOL     OW30157   0.066   5.568   5.743
 9753SOL    HW130158   6.990   5.573   5.749
 9753SOL    HW230159   0.096   5.477   5.770
 9754SOL     OW30160   2.195   0.322   0.818
 9754SOL    HW130161   2.140   0.240   0.833
 9754SOL    HW230162   2.191   0.380   0.900
 9755SOL     OW30163   3.709   3.547   4.443
 9755SOL    HW130164   3.758   3.497   4.372
 9755SOL    HW230165   3.773   3.573   4.516
 9756SOL     OW30166   5.547   1.622   5.457
 9756SOL    HW130167   5.588   1.642   5.367
 9756SOL    HW230168   5.466   1.678   5.469
 9757SOL     OW30169   5.714   4.680   4.547
 9757SOL    HW130170   5.733   4.585   4.570
 9757SOL    HW230171   5.653   4.720   4.616
 9758SOL     OW30172   2.019   0.820   0.136
 9758SOL    HW130173   1.962   0.749   0.178
 9758SOL    HW230174   2.111   0.814   0.174
 9759SOL     OW30175   1.003   0.661   0.548
 9759SOL    HW130176   1.010   0.579   0.490
 9759SOL    HW230177   1.018   0.742   0.492
 9760SOL     OW30178   4.650   3.378   5.716
 9760SOL    HW130179   4.723   3.311   5.703
 9760SOL    HW230180   4.570   3.333   5.756
 9761SOL     OW30181   0.561   2.012   1.440
 9761SOL    HW130182   0.463   1.992   1.430
 9761SOL    HW230183   0.574   2.075   1.517
 9762SOL     OW30184   3.625   2.106   4.840
 9762SOL    HW130185   3.606   2.109   4.742
 9762SOL    HW230186   3.542   2.129   4.890
 9763SOL     OW30187   5.174   1.748   3.089
 9763SOL    HW130188   5.092   1.691   3.101
 9763SOL    HW230189   5.191   1.761   2.992
 9764SOL     OW30190   6.895   2.713   2.453
 9764SOL    HW130191   6.802   2.685   2.479
 9764SOL    HW230192   6.960   2.678   2.521
 9765SOL     OW30193   6.678   6.667   3.370
 9765SOL    HW130194   6.743   6.661   3.445
 9765SOL    HW230195   6.620   6.585   3.370
 9766SOL     OW30196   2.184   6.710   2.247
 9766SOL    HW130197   2.141   6.799   2.232
 9766SOL    HW230198   2.238   6.685   2.167
 9767SOL     OW30199   2.888   1.825   5.676
 9767SOL    HW130200   2.888   1.913   5.723
 9767SOL    HW230201   2.890   1.751   5.744
 9768SOL     OW30202   5.341   1.250   1.566
 9768SOL    HW130203   5.276   1.259   1.641
 9768SOL    HW230204   5.390   1.164   1.574
 9769SOL     OW30205   4.112   0.746   4.655
 9769SOL    HW130206   4.086   0.654   4.683
 9769SOL    HW230207   4.170   0.741   4.574
 9770SOL     OW30208   3.668   1.153   5.953
 9770SOL    HW130209   3.626   1.094   6.022
 9770SOL    HW230210   3.598   1.190   5.893
 9771SOL     OW30211   2.714   5.457   0.964
 9771SOL    HW130212   2.668   5.522   0.904
 9771SOL    HW230213   2.773   5.397   0.910
 9772SOL     OW30214   1.230   6.100   1.654
 9772SOL    HW130215   1.145   6.151   1.641
 9772SOL    HW230216   1.211   6.019   1.711
 9773SOL     OW30217   5.464   5.408   4.098
 9773SOL    HW130218   5.456   5.316   4.136
 9773SOL    HW230219   5.401   5.419   4.022
 9774SOL     OW30220   6.656   5.287   1.979
 9774SOL    HW130221   6.677   5.199   1.936
 9774SOL    HW230222   6.726   5.354   1.952
 9775SOL     OW30223   2.844   0.508   3.602
 9775SOL    HW130224   2.943   0.500   3.589
 9775SOL    HW230225   2.816   0.455   3.683
 9776SOL     OW30226   6.956   4.932   5.506
 9776SOL    HW130227   7.017   4.898   5.578
 9776SOL    HW230228   6.951   4.864   5.432
 9777SOL     OW30229   5.997   4.736   0.622
 9777SOL    HW130230   6.096   4.749   0.636
 9777SOL    HW230231   5.947   4.767   0.703
 9778SOL     OW30232   0.621   1.927   4.334
 9778SOL    HW130233   0.527   1.925   4.368
 9778SOL    HW230234   0.673   1.852   4.375
 9779SOL     OW30235   0.479   2.009   4.092
 9779SOL    HW130236   0.541   1.971   4.162
 9779SOL    HW230237   0.493   1.960   4.006
 9780SOL     OW30238   2.289   2.781   0.202
 9780SOL    HW130239   2.200   2.826   0.198
 9780SOL    HW230240   2.331   2.797   0.291
 9781SOL     OW30241   2.159   2.325   5.016
 9781SOL    HW130242   2.202   2.396   4.960
 9781SOL    HW230243   2.156   2.355   5.112
 9782SOL     OW30244   0.605   1.784   0.486
 9782SOL    HW130245   0.609   1.884   0.497
 9782SOL    HW230246   0.513   1.757   0.457
 9783SOL     OW30247   4.685   2.825   3.758
 9783SOL    HW130248   4.679   2.741   3.704
 9783SOL    HW230249   4.634   2.898   3.713
 9784SOL     OW30250   3.358   1.103   5.976
 9784SOL    HW130251   3.276   1.111   6.033
 9784SOL    HW230252   3.354   1.170   5.902
 9785SOL     OW30253   0.188   2.102   5.766
 9785SOL    HW130254   0.096   2.099   5.804
 9785SOL    HW230255   0.255   2.098   5.841
 9786SOL     OW30256   2.645   4.067   0.281
 9786SOL    HW130257   2.614   4.162   0.281
 9786SOL    HW230258   2.727   4.060   0.224
 9787SOL     OW30259   3.128   3.182   2.709
 9787SOL    HW130260   3.224   3.195   2.733
 9787SOL    HW230261   3.072   3.188   2.791
 9788SOL     OW30262   0.790   0.185   3.018
 9788SOL    HW130263   0.700   0.170   2.977
 9788SOL    HW230264   0.834   0.097   3.033
 9789SOL     OW30265   1.686   5.503   0.542
 9789SOL    HW130266   1.741   5.458   0.612
 9789SOL    HW230267   1.599   5.533   0.581
 9790SOL     OW30268   6.440   5.010   6.519
 9790SOL    HW130269   6.386   4.928   6.500
 9790SOL    HW230270   6.392   5.090   6.482
 9791SOL     OW30271   0.730   6.796   6.664
 9791SOL    HW130272   0.702   6.712   6.709
 9791SOL    HW230273   0.681   6.874   6.704
 9792SOL     OW30274   3.285   4.074   0.781
 9792SOL    HW130275   3.355   4.145   0.771
 9792SOL    HW230276   3.206   4.097   0.724
 9793SOL     OW30277   4.622   0.341   2.557
 9793SOL    HW130278   4.559   0.414   2.583
 9793SOL    HW230279   4.668   0.306   2.639
 9794SOL     OW30280   6.996   4.269   6.492
 9794SOL    HW130281   0.044   4.214   6.532
 9794SOL    HW230282   6.961   4.223   6.410
 9795SOL     OW30283   1.143   2.051   4.705
 9795SOL    HW130284   1.214   2.098   4.654
 9795SOL    HW230285   1.164   1.953   4.709
 9796SOL     OW30286   4.048   3.467   2.020
 9796SOL    HW130287   3.970   3.441   1.962
 9796SOL    HW230288   4.109   3.388   2.031
 9797SOL     OW30289   2.114   5.666   0.476
 9797SOL    HW130290   2.054   5.745   0.467
 9797SOL    HW230291   2.066   5.594   0.527
 9798SOL     OW30292   3.456   0.664   2.416
 9798SOL    HW130293   3.472   0.693   2.322
 9798SOL    HW230294   3.358   0.650   2.430
 9799SOL     OW30295   2.394   4.443   5.518
 9799SOL    HW130296   2.373   4.540   5.502
 9799SOL    HW230297   2.443   4.434   5.604
 9800SOL     OW30298   4.863   5.299   5.358
 9800SOL    HW130299   4.815   5.383   5.334
 9800SOL    HW230300   4.905   5.260   5.275
 9801SOL     OW30301   4.352   3.862   6.968
 9801SOL    HW130302   4.441   3.877   7.011
 9801SOL    HW230303   4.363   3.807   6.886
 9802SOL     OW30304   6.021   4.366   1.944
 9802SOL    HW130305   5.985   4.446   1.991
 9802SOL    HW230306   5.960   4.288   1.959
 9803SOL     OW30307   2.112   2.296   6.316
 9803SOL    HW130308   2.183   2.277   6.249
 9803SOL    HW230309   2.077   2.388   6.303
 9804SOL     OW30310   0.746   6.248   2.980
 9804SOL    HW130311   0.733   6.185   3.057
 9804SOL    HW230312   0.660   6.258   2.931
 9805SOL     OW30313   0.865   6.975   3.069
 9805SOL    HW130314   0.796   6.915   3.030
 9805SOL    HW230315   0.927   6.922   3.127
 9806SOL     OW30316   1.377   1.248   6.758
 9806SOL    HW130317   1.357   1.346   6.755
 9806SOL    HW230318   1.402   1.223   6.851
 9807SOL     OW30319   3.267   3.666   1.511
 9807SOL    HW130320   3.258   3.752   1.561
 9807SOL    HW230321   3.349   3.618   1.544
 9808SOL     OW30322   3.766   6.762   5.182
 9808SOL    HW130323   3.838   6.748   5.115
 9808SOL    HW230324   3.683   6.794   5.137
 9809SOL     OW30325   1.035   3.728   6.681
 9809SOL    HW130326   1.079   3.725   6.592
 9809SOL    HW230327   0.952   3.672   6.680
 9810SOL     OW30328   2.694   2.336   4.010
 9810SOL    HW130329   2.774   2.316   4.067
 9810SOL    HW230330   2.650   2.250   3.983
 9811SOL     OW30331   5.475   4.815   3.200
 9811SOL    HW130332   5.383   4.853   3.194
 9811SOL    HW230333   5.469   4.718   3.222
 9812SOL     OW30334   3.761   1.849   5.556
 9812SOL    HW130335   3.797   1.769   5.604
 9812SOL    HW230336   3.806   1.932   5.591
 9813SOL     OW30337   4.549   1.292   0.679
 9813SOL    HW130338   4.545   1.192   0.684
 9813SOL    HW230339   4.568   1.329   0.769
 9814SOL     OW30340   6.833   0.177   6.620
 9814SOL    HW130341   6.760   0.214   6.676
 9814SOL    HW230342   6.859   0.087   6.655
 9815SOL     OW30343   5.010   3.325   4.521
 9815SOL    HW130344   4.990   3.235   4.481
 9815SOL    HW230345   4.960   3.334   4.607
 9816SOL     OW30346   1.105   0.994   6.357
 9816SOL    HW130347   1.022   0.975   6.304
 9816SOL    HW230348   1.083   0.986   6.455
 9817SOL     OW30349   2.656   6.315   3.057
 9817SOL    HW130350   2.735   6.374   3.045
 9817SOL    HW230351   2.683   6.220   3.044
 9818SOL     OW30352   0.412   0.571   3.987
 9818SOL    HW130353   0.352   0.495   3.967
 9818SOL    HW230354   0.358   0.654   4.003
 9819SOL     OW30355   4.913   3.645   3.565
 9819SOL    HW130356   4.999   3.613   3.605
 9819SOL    HW230357   4.903   3.743   3.581
 9820SOL     OW30358   3.924   2.791   6.213
 9820SOL    HW130359   3.911   2.887   6.189
 9820SOL    HW230360   4.022   2.771   6.216
 9821SOL     OW30361   5.173   1.539   6.992
 9821SOL    HW130362   5.183   1.462   6.930
 9821SOL    HW230363   5.260   1.558   0.012
 9822SOL     OW30364   2.174   0.138   3.162
 9822SOL    HW130365   2.172   0.053   3.215
 9822SOL    HW230366   2.169   0.216   3.224
 9823SOL     OW30367   2.385   0.426   6.917
 9823SOL    HW130368   2.311   0.491   6.907
 9823SOL    HW230369   2.384   0.387   7.009
 9824SOL     OW30370   2.019   5.115   4.547
 9824SOL    HW130371   2.091   5.059   4.586
 9824SOL    HW230372   1.932   5.093   4.591
 9825SOL     OW30373   4.823   5.762   5.459
 9825SOL    HW130374   4.768   5.683   5.487
 9825SOL    HW230375   4.884   5.736   5.385
 9826SOL     OW30376   5.210   5.040   6.660
 9826SOL    HW130377   5.158   5.014   6.579
 9826SOL    HW230378   5.283   4.972   6.676
 9827SOL     OW30379   2.146   3.833   3.200
 9827SOL    HW130380   2.100   3.797   3.119
 9827SOL    HW230381   2.176   3.927   3.183
 9828SOL     OW30382   2.437   2.726   5.686
 9828SOL    HW130383   2.356   2.714   5.629
 9828SOL    HW230384   2.518   2.695   5.635
 9829SOL     OW30385   4.161   5.054   0.253
 9829SOL    HW130386   4.153   4.994   0.173
 9829SOL    HW230387   4.257   5.060   0.280
 9830SOL     OW30388   5.798   3.000   1.830
 9830SOL    HW130389   5.812   3.014   1.732
 9830SOL    HW230390   5.762   2.907   1.846
 9831SOL     OW30391   2.275   4.909   1.225
 9831SOL    HW130392   2.215   4.900   1.145
 9831SOL    HW230393   2.356   4.963   1.200
 9832SOL     OW30394   4.673   5.294   3.045
 9832SOL    HW130395   4.763   5.268   3.011
 9832SOL    HW230396   4.604   5.231   3.008
 9833SOL     OW30397   3.682   3.890   5.336
 9833SOL    HW130398   3.758   3.941   5.294
 9833SOL    HW230399   3.665   3.927   5.428
 9834SOL     OW30400   2.806   4.856   5.187
 9834SOL    HW130401   2.790   4.856   5.285
 9834SOL    HW230402   2.798   4.762   5.152
 9835SOL     OW30403   3.577   3.397   5.618
 9835SOL    HW130404   3.536   3.330   5.557
 9835SOL    HW230405   3.528   3.483   5.612
 9836SOL     OW30406   6.834   4.735   3.700
 9836SOL    HW130407   6.854   4.815   3.644
 9836SOL    HW230408   6.748   4.749   3.749
 9837SOL     OW30409   3.061   0.222   3.517
 9837SOL    HW130410   3.069   0.318   3.491
 9837SOL    HW230411   3.067   0.164   3.435
 9838SOL     OW30412   2.053   6.660   6.587
 9838SOL    HW130413   2.137   6.696   6.548
 9838SOL    HW230414   2.041   6.696   6.680
 9839SOL     OW30415   5.951   0.648   3.640
 9839SOL    HW130416   5.959   0.715   3.567
 9839SOL    HW230417   5.919   0.561   3.602
 9840SOL     OW30418   6.217   1.574   1.188
 9840SOL    HW130419   6.117   1.574   1.197
 9840SOL    HW230420   6.256   1.523   1.265
 9841SOL     OW30421   1.975   4.498   4.769
 9841SOL    HW130422   1.922   4.432   4.716
 9841SOL    HW230423   1.966   4.477   4.866
 9842SOL     OW30424   4.082   3.191   2.086
 9842SOL    HW130425   4.167   3.142   2.108
 9842SOL    HW230426   4.022   3.131   2.034
 9843SOL     OW30427   6.076   0.909   1.281
 9843SOL    HW130428   6.140   0.963   1.226
 9843SOL    HW230429   6.024   0.848   1.221
 9844SOL     OW30430   6.458   0.418   2.188
 9844SOL    HW130431   6.425   0.427   2.094
 9844SOL    HW230432   6.380   0.399   2.249
 9845SOL     OW30433   2.307   2.789   3.792
 9845SOL    HW130434   2.334   2.771   3.887
 9845SOL    HW230435   2.353   2.723   3.731
 9846SOL     OW30436   3.939   3.581   1.313
 9846SOL    HW130437   3.856   3.617   1.271
 9846SOL    HW230438   4.012   3.578   1.244
 9847SOL     OW30439   3.422   2.862   4.018
 9847SOL    HW130440   3.408   2.883   4.115
 9847SOL    HW230441   3.443   2.765   4.008
 9848SOL     OW30442   3.459   3.491   5.320
 9848SOL    HW130443   3.451   3.460   5.414
 9848SOL    HW230444   3.446   3.590   5.316
 9849SOL     OW30445   0.241   6.720   6.493
 9849SOL    HW130446   0.328   6.714   6.444
 9849SOL    HW230447   0.172   6.663   6.447
 9850SOL     OW30448   5.477   0.094   3.944
 9850SOL    HW130449   5.575   0.115   3.936
 9850SOL    HW230450   5.462   7.023   3.917
 9851SOL     OW30451   5.460   0.647   4.598
 9851SOL    HW130452   5.441   0.554   4.631
 9851SOL    HW230453   5.528   0.690   4.657
 9852SOL     OW30454   4.124   2.313   3.501
 9852SOL    HW130455   4.180   2.318   3.418
 9852SOL    HW230456   4.036   2.272   3.479
 9853SOL     OW30457   5.189   3.718   4.970
 9853SOL    HW130458   5.098   3.733   4.931
 9853SOL    HW230459   5.217   3.800   5.020
 9854SOL     OW30460   6.854   6.089   4.898
 9854SOL    HW130461   6.912   6.008   4.882
 9854SOL    HW230462   6.759   6.060   4.911
 9855SOL     OW30463   2.361   3.208   1.061
 9855SOL    HW130464   2.392   3.292   1.106
 9855SOL    HW230465   2.261   3.209   1.054
 9856SOL     OW30466   5.235   4.975   5.353
 9856SOL    HW130467   5.150   5.010   5.392
 9856SOL    HW230468   5.214   4.903   5.286
 9857SOL     OW30469   4.703   2.790   3.377
 9857SOL    HW130470   4.729   2.886   3.371
 9857SOL    HW230471   4.690   2.753   3.284
 9858SOL     OW30472   0.321   0.672   1.216
 9858SOL    HW130473   0.317   0.618   1.132
 9858SOL    HW230474   0.233   0.718   1.231
 9859SOL     OW30475   6.244   0.061   2.278
 9859SOL    HW130476   6.233   6.999   2.327
 9859SOL    HW230477   6.326   0.108   2.311
 9860SOL     OW30478   1.213   1.409   3.608
 9860SOL    HW130479   1.192   1.329   3.664
 9860SOL    HW230480   1.312   1.414   3.594
 9861SOL     OW30481   2.807   0.149   3.614
 9861SOL    HW130482   2.905   0.164   3.600
 9861SOL    HW230483   2.778   0.191   3.700
 9862SOL     OW30484   3.845   3.093   7.013
 9862SOL    HW130485   3.820   3.186   0.017
 9862SOL    HW230486   3.772   3.030   0.013
 9863SOL     OW30487   3.070   6.833   3.005
 9863SOL    HW130488   3.127   6.894   3.059
 9863SOL    HW230489   3.117   6.746   2.993
 9864SOL     OW30490   4.070   6.986   3.770
 9864SOL    HW130491   4.113   7.007   3.682
 9864SOL    HW230492   4.067   6.887   3.784
 9865SOL     OW30493   1.582   0.876   4.405
 9865SOL    HW130494   1.671   0.908   4.438
 9865SOL    HW230495   1.525   0.849   4.483
 9866SOL     OW30496   5.179   4.971   6.196
 9866SOL    HW130497   5.122   5.052   6.212
 9866SOL    HW230498   5.259   4.996   6.143
 9867SOL     OW30499   6.320   0.845   1.070
 9867SOL    HW130500   6.362   0.897   1.144
 9867SOL    HW230501   6.232   0.886   1.046
 9868SOL     OW30502   0.221   3.847   5.982
 9868SOL    HW130503   0.180   3.758   5.964
 9868SOL    HW230504   0.304   3.835   6.037
 9869SOL     OW30505   1.460   3.248   2.256
 9869SOL    HW130506   1.458   3.342   2.290
 9869SOL    HW230507   1.541   3.234   2.200
 9870SOL     OW30508   3.726   5.711   2.554
 9870SOL    HW130509   3.744   5.670   2.644
 9870SOL    HW230510   3.627   5.717   2.540
 9871SOL     OW30511   0.442   5.983   6.025
 9871SOL    HW130512   0.516   5.991   5.958
 9871SOL    HW230513   0.465   5.913   6.092
 9872SOL     OW30514   2.223   5.312   3.666
 9872SOL    HW130515   2.184   5.251   3.735
 9872SOL    HW230516   2.213   5.407   3.697
 9873SOL     OW30517   2.872   2.584   0.166
 9873SOL    HW130518   2.964   2.546   0.158
 9873SOL    HW230519   2.845   2.624   0.078
 9874SOL     OW30520   6.279   3.091   4.558
 9874SOL    HW130521   6.357   3.112   4.616
 9874SOL    HW230522   6.197   3.079   4.614
 9875SOL     OW30523   6.268   6.226   2.358
 9875SOL    HW130524   6.354   6.189   2.322
 9875SOL    HW230525   6.237   6.300   2.298
 9876SOL     OW30526   6.441   0.134   3.524
 9876SOL    HW130527   6.391   0.177   3.449
 9876SOL    HW230528   6.425   0.185   3.609
 9877SOL     OW30529   6.902   6.034   4.089
 9877SOL    HW130530   6.802   6.045   4.089
 9877SOL    HW230531   6.929   5.973   4.164
 9878SOL     OW30532   2.553   4.671   4.962
 9878SOL    HW130533   2.560   4.754   4.907
 9878SOL    HW230534   2.639   4.656   5.011
 9879SOL     OW30535   5.513   5.334   5.178
 9879SOL    HW130536   5.565   5.409   5.220
 9879SOL    HW230537   5.526   5.336   5.079
 9880SOL     OW30538   3.778   0.838   6.741
 9880SOL    HW130539   3.857   0.885   6.703
 9880SOL    HW230540   3.704   0.904   6.755
 9881SOL     OW30541   0.852   1.000   5.225
 9881SOL    HW130542   0.921   1.024   5.156
 9881SOL    HW230543   0.891   1.011   5.316
 9882SOL     OW30544   1.356   3.408   4.440
 9882SOL    HW130545   1.349   3.394   4.539
 9882SOL    HW230546   1.408   3.333   4.400
 9883SOL     OW30547   1.271   6.460   0.633
 9883SOL    HW130548   1.229   6.433   0.720
 9883SOL    HW230549   1.281   6.559   0.630
 9884SOL     OW30550   5.277   2.705   1.689
 9884SOL    HW130551   5.340   2.779   1.666
 9884SOL    HW230552   5.321   2.617   1.675
 9885SOL     OW30553   6.764   2.070   4.820
 9885SOL    HW130554   6.698   2.097   4.890
 9885SOL    HW230555   6.782   1.971   4.828
 9886SOL     OW30556   1.400   4.621   1.960
 9886SOL    HW130557   1.408   4.627   2.060
 9886SOL    HW230558   1.325   4.679   1.929
 9887SOL     OW30559   4.115   0.486   6.276
 9887SOL    HW130560   4.170   0.526   6.202
 9887SOL    HW230561   4.167   0.414   6.321
 9888SOL     OW30562   5.889   4.900   2.336
 9888SOL    HW130563   5.894   4.817   2.392
 9888SOL    HW230564   5.966   4.903   2.272
 9889SOL     OW30565   6.500   4.730   1.207
 9889SOL    HW130566   6.497   4.674   1.124
 9889SOL    HW230567   6.576   4.700   1.265
 9890SOL     OW30568   1.401   2.893   1.038
 9890SOL    HW130569   1.434   2.981   1.072
 9890SOL    HW230570   1.325   2.908   0.976
 9891SOL     OW30571   5.592   3.467   1.794
 9891SOL    HW130572   5.493   3.468   1.777
 9891SOL    HW230573   5.612   3.412   1.875
 9892SOL     OW30574   0.743   5.152   1.265
 9892SOL    HW130575   0.802   5.073   1.250
 9892SOL    HW230576   0.794   5.222   1.316
 9893SOL     OW30577   0.427   0.889   1.748
 9893SOL    HW130578   0.432   0.971   1.691
 9893SOL    HW230579   0.340   0.887   1.797
 9894SOL     OW30580   3.363   2.281   0.230
 9894SOL    HW130581   3.385   2.185   0.213
 9894SOL    HW230582   3.265   2.295   0.216
 9895SOL     OW30583   5.723   4.225   5.232
 9895SOL    HW130584   5.704   4.133   5.265
 9895SOL    HW230585   5.821   4.244   5.242
 9896SOL     OW30586   6.257   0.975   0.686
 9896SOL    HW130587   6.183   0.908   0.692
 9896SOL    HW230588   6.344   0.931   0.709
 9897SOL     OW30589   5.644   6.561   2.608
 9897SOL    HW130590   5.569   6.518   2.659
 9897SOL    HW230591   5.731   6.525   2.639
 9898SOL     OW30592   0.844   5.194   5.406
 9898SOL    HW130593   0.895   5.226   5.325
 9898SOL    HW230594   0.851   5.263   5.478
 9899SOL     OW30595   1.783   5.266   1.131
 9899SOL    HW130596   1.753   5.303   1.219
 9899SOL    HW230597   1.708   5.212   1.091
 9900SOL     OW30598   1.417   2.745   2.945
 9900SOL    HW130599   1.437   2.647   2.950
 9900SOL    HW230600   1.319   2.758   2.930
 9901SOL     OW30601   2.802   0.712   7.013
 9901SOL    HW130602   2.785   0.688   6.917
 9901SOL    HW230603   2.780   0.809   0.003
 9902SOL     OW30604   2.973   4.592   1.322
 9902SOL    HW130605   2.943   4.673   1.374
 9902SOL    HW230606   2.908   4.575   1.248
 9903SOL     OW30607   5.527   2.168   1.862
 9903SOL    HW130608   5.588   2.121   1.799
 9903SOL    HW230609   5.576   2.188   1.947
 9904SOL     OW30610   0.717   3.968   0.051
 9904SOL    HW130611   0.687   4.045   0.107
 9904SOL    HW230612   0.816   3.956   0.061
 9905SOL     OW30613   2.401   0.586   6.179
 9905SOL    HW130614   2.396   0.489   6.201
 9905SOL    HW230615   2.379   0.640   6.260
 9906SOL     OW30616   1.776   3.286   0.564
 9906SOL    HW130617   1.748   3.229   0.641
 9906SOL    HW230618   1.694   3.323   0.519
 9907SOL     OW30619   0.824   0.051   1.189
 9907SOL    HW130620   0.874   0.049   1.103
 9907SOL    HW230621   0.808   0.146   1.216
 9908SOL     OW30622   6.239   1.923   5.009
 9908SOL    HW130623   6.237   1.956   4.915
 9908SOL    HW230624   6.313   1.856   5.019
 9909SOL     OW30625   4.235   0.990   2.843
 9909SOL    HW130626   4.228   0.895   2.812
 9909SOL    HW230627   4.164   1.044   2.800
 9910SOL     OW30628   1.345   4.966   1.759
 9910SOL    HW130629   1.368   4.991   1.852
 9910SOL    HW230630   1.426   4.973   1.701
 9911SOL     OW30631   2.873   6.230   2.761
 9911SOL    HW130632   2.825   6.310   2.724
 9911SOL    HW230633   2.913   6.178   2.685
 9912SOL     OW30634   3.512   1.015   1.209
 9912SOL    HW130635   3.417   0.986   1.222
 9912SOL    HW230636   3.529   1.030   1.112
 9913SOL     OW30637   6.418   3.738   0.554
 9913SOL    HW130638   6.517   3.740   0.571
 9913SOL    HW230639   6.401   3.706   0.461
 9914SOL     OW30640   6.164   0.981   4.955
 9914SOL    HW130641   6.151   1.076   4.984
 9914SOL    HW230642   6.262   0.963   4.945
 9915SOL     OW30643   6.124   1.237   3.562
 9915SOL    HW130644   6.169   1.150   3.581
 9915SOL    HW230645   6.102   1.243   3.464
 9916SOL     OW30646   2.471   2.238   3.164
 9916SOL    HW130647   2.408   2.205   3.235
 9916SOL    HW230648   2.444   2.200   3.076
 9917SOL     OW30649   4.169   4.154   6.396
 9917SOL    HW130650   4.197   4.150   6.492
 9917SOL    HW230651   4.096   4.088   6.380
 9918SOL     OW30652   1.693   2.286   2.822
 9918SOL    HW130653   1.739   2.219   2.765
 9918SOL    HW230654   1.597   2.292   2.796
 9919SOL     OW30655   1.427   5.679   1.271
 9919SOL    HW130656   1.432   5.607   1.201
 9919SOL    HW230657   1.519   5.712   1.292
 9920SOL     OW30658   5.520   0.739   2.302
 9920SOL    HW130659   5.470   0.822   2.329
 9920SOL    HW230660   5.492   0.712   2.209
 9921SOL     OW30661   4.317   6.188   4.273
 9921SOL    HW130662   4.403   6.221   4.233
 9921SOL    HW230663   4.311   6.216   4.368
 9922SOL     OW30664   3.796   3.810   0.986
 9922SOL    HW130665   3.720   3.792   1.049
 9922SOL    HW230666   3.812   3.730   0.929
 9923SOL     OW30667   5.852   4.717   6.802
 9923SOL    HW130668   5.767   4.768   6.793
 9923SOL    HW230669   5.832   4.625   6.836
 9924SOL     OW30670   6.046   1.575   3.022
 9924SOL    HW130671   5.951   1.606   3.021
 9924SOL    HW230672   6.051   1.485   2.979
 9925SOL     OW30673   0.220   5.360   3.934
 9925SOL    HW130674   0.281   5.280   3.933
 9925SOL    HW230675   0.161   5.356   4.015
 9926SOL     OW30676   4.050   2.289   1.168
 9926SOL    HW130677   4.137   2.240   1.172
 9926SOL    HW230678   3.995   2.253   1.094
 9927SOL     OW30679   1.361   0.587   0.946
 9927SOL    HW130680   1.340   0.495   0.977
 9927SOL    HW230681   1.435   0.584   0.878
 9928SOL     OW30682   4.840   4.928   3.646
 9928SOL    HW130683   4.921   4.909   3.703
 9928SOL    HW230684   4.808   5.020   3.664
 9929SOL     OW30685   3.360   4.007   4.729
 9929SOL    HW130686   3.329   4.058   4.810
 9929SOL    HW230687   3.434   4.057   4.684
 9930SOL     OW30688   0.168   6.678   5.220
 9930SOL    HW130689   0.262   6.689   5.191
 9930SOL    HW230690   0.166   6.651   5.317
 9931SOL     OW30691   6.903   5.155   4.755
 9931SOL    HW130692   6.987   5.120   4.796
 9931SOL    HW230693   6.908   5.146   4.655
 9932SOL     OW30694   2.614   2.936   5.775
 9932SOL    HW130695   2.551   2.962   5.702
 9932SOL    HW230696   2.581   2.853   5.819
 9933SOL     OW30697   1.901   0.022   4.269
 9933SOL    HW130698   1.922   0.113   4.304
 9933SOL    HW230699   1.841   0.029   4.190
 9934SOL     OW30700   6.901   2.362   5.763
 9934SOL    HW130701   6.853   2.305   5.696
 9934SOL    HW230702   6.991   2.387   5.728
 9935SOL     OW30703   3.001   6.982   0.782
 9935SOL    HW130704   2.968   7.016   0.871
 9935SOL    HW230705   3.093   7.019   0.765
 9936SOL     OW30706   6.105   4.354   0.911
 9936SOL    HW130707   6.147   4.401   0.990
 9936SOL    HW230708   6.043   4.283   0.944
 9937SOL     OW30709   0.207   2.013   1.245
 9937SOL    HW130710   0.200   2.112   1.229
 9937SOL    HW230711   0.277   1.974   1.186
 9938SOL     OW30712   5.725   4.604   3.702
 9938SOL    HW130713   5.693   4.589   3.795
 9938SOL    HW230714   5.681   4.686   3.665
 9939SOL     OW30715   4.631   2.975   1.269
 9939SOL    HW130716   4.728   2.954   1.276
 9939SOL    HW230717   4.613   3.025   1.184
 9940SOL     OW30718   1.214   0.752   1.944
 9940SOL    HW130719   1.143   0.813   1.979
 9940SOL    HW230720   1.176   0.695   1.871
 9941SOL     OW30721   3.293   2.893   5.022
 9941SOL    HW130722   3.218   2.894   5.089
 9941SOL    HW230723   3.372   2.847   5.063
 9942SOL     OW30724   3.471   5.347   2.450
 9942SOL    HW130725   3.432   5.311   2.535
 9942SOL    HW230726   3.444   5.289   2.374
 9943SOL     OW30727   1.019   4.784   6.409
 9943SOL    HW130728   1.085   4.804   6.482
 9943SOL    HW230729   0.940   4.737   6.448
 9944SOL     OW30730   0.504   4.676   6.574
 9944SOL    HW130731   0.572   4.657   6.645
 9944SOL    HW230732   0.459   4.762   6.593
 9945SOL     OW30733   4.382   6.063   0.062
 9945SOL    HW130734   4.431   6.094   0.143
 9945SOL    HW230735   4.295   6.022   0.090
 9946SOL     OW30736   6.140   0.498   3.330
 9946SOL    HW130737   6.132   0.503   3.231
 9946SOL    HW230738   6.121   0.587   3.370
 9947SOL     OW30739   2.793   2.215   4.568
 9947SOL    HW130740   2.711   2.241   4.619
 9947SOL    HW230741   2.867   2.192   4.633
 9948SOL     OW30742   7.008   4.954   6.339
 9948SOL    HW130743   0.009   5.050   6.329
 9948SOL    HW230744   6.909   4.946   6.351
 9949SOL     OW30745   6.542   4.713   4.125
 9949SOL    HW130746   6.547   4.765   4.040
 9949SOL    HW230747   6.623   4.731   4.181
 9950SOL     OW30748   5.890   6.052   6.222
 9950SOL    HW130749   5.818   6.093   6.278
 9950SOL    HW230750   5.949   5.996   6.281
 9951SOL     OW30751   1.626   2.156   3.580
 9951SOL    HW130752   1.648   2.079   3.640
 9951SOL    HW230753   1.535   2.144   3.541
 9952SOL     OW30754   1.438   4.829   0.439
 9952SOL    HW130755   1.365   4.776   0.481
 9952SOL    HW230756   1.408   4.923   0.425
 9953SOL     OW30757   6.541   2.434   3.946
 9953SOL    HW130758   6.488   2.399   4.024
 9953SOL    HW230759   6.620   2.376   3.930
 9954SOL     OW30760   1.032   0.764   5.681
 9954SOL    HW130761   1.024   0.860   5.653
 9954SOL    HW230762   1.059   0.760   5.777
 9955SOL     OW30763   4.774   4.050   6.121
 9955SOL    HW130764   4.852   4.027   6.179
 9955SOL    HW230765   4.760   3.977   6.054
 9956SOL     OW30766   0.598   5.461   3.597
 9956SOL    HW130767   0.673   5.397   3.587
 9956SOL    HW230768   0.598   5.525   3.519
 9957SOL     OW30769   5.777   0.091   1.741
 9957SOL    HW130770   5.692   0.119   1.698
 9957SOL    HW230771   5.853   0.144   1.704
 9958SOL     OW30772   2.138   5.639   6.623
 9958SOL    HW130773   2.137   5.637   6.523
 9958SOL    HW230774   2.048   5.665   6.657
 9959SOL     OW30775   4.112   3.675   4.116
 9959SOL    HW130776   4.144   3.767   4.140
 9959SOL    HW230777   4.145   3.651   4.025
 9960SOL     OW30778   6.923   0.348   2.243
 9960SOL    HW130779   6.852   0.290   2.205
 9960SOL    HW230780   7.010   0.328   2.198
 9961SOL     OW30781   1.441   4.919   4.541
 9961SOL    HW130782   1.443   4.856   4.463
 9961SOL    HW230783   1.372   4.889   4.607
 9962SOL     OW30784   4.623   0.438   2.156
 9962SOL    HW130785   4.622   0.338   2.160
 9962SOL    HW230786   4.663   0.474   2.240
 9963SOL     OW30787   2.654   2.140   6.002
 9963SOL    HW130788   2.616   2.229   6.029
 9963SOL    HW230789   2.689   2.145   5.909
 9964SOL     OW30790   4.501   3.861   5.791
 9964SOL    HW130791   4.456   3.825   5.709
 9964SOL    HW230792   4.508   3.788   5.859
 9965SOL     OW30793   3.875   4.760   6.153
 9965SOL    HW130794   3.816   4.695   6.106
 9965SOL    HW230795   3.965   4.719   6.167
 9966SOL     OW30796   2.431   6.115   2.278
 9966SOL    HW130797   2.512   6.100   2.222
 9966SOL    HW230798   2.456   6.164   2.362
 9967SOL     OW30799   5.838   6.363   1.871
 9967SOL    HW130800   5.917   6.422   1.851
 9967SOL    HW230801   5.871   6.276   1.908
 9968SOL     OW30802   3.196   3.659   6.527
 9968SOL    HW130803   3.167   3.681   6.620
 9968SOL    HW230804   3.291   3.627   6.527
 9969SOL     OW30805   1.377   2.679   4.333
 9969SOL    HW130806   1.313   2.664   4.258
 9969SOL    HW230807   1.466   2.707   4.297
 9970SOL     OW30808   5.763   4.611   2.665
 9970SOL    HW130809   5.678   4.562   2.644
 9970SOL    HW230810   5.775   4.618   2.764
 9971SOL     OW30811   2.925   3.783   0.277
 9971SOL    HW130812   2.850   3.737   0.324
 9971SOL    HW230813   2.961   3.723   0.205
 9972SOL     OW30814   3.903   4.463   0.441
 9972SOL    HW130815   3.812   4.460   0.400
 9972SOL    HW230816   3.964   4.517   0.383
 9973SOL     OW30817   4.022   1.694   3.856
 9973SOL    HW130818   3.945   1.734   3.905
 9973SOL    HW230819   4.007   1.704   3.757
 9974SOL     OW30820   6.359   4.011   3.524
 9974SOL    HW130821   6.418   3.930   3.525
 9974SOL    HW230822   6.295   4.005   3.448
 9975SOL     OW30823   6.394   4.573   0.323
 9975SOL    HW130824   6.379   4.663   0.282
 9975SOL    HW230825   6.483   4.538   0.295
 9976SOL     OW30826   0.392   5.759   5.438
 9976SOL    HW130827   0.302   5.727   5.466
 9976SOL    HW230828   0.384   5.852   5.400
 9977SOL     OW30829   0.183   5.308   6.119
 9977SOL    HW130830   0.119   5.316   6.194
 9977SOL    HW230831   0.208   5.213   6.105
 9978SOL     OW30832   6.421   3.080   3.206
 9978SOL    HW130833   6.437   3.120   3.116
 9978SOL    HW230834   6.357   3.137   3.257
 9979SOL     OW30835   6.087   5.009   5.439
 9979SOL    HW130836   6.173   4.980   5.398
 9979SOL    HW230837   6.099   5.099   5.482
 9980SOL     OW30838   1.639   1.240   6.462
 9980SOL    HW130839   1.548   1.205   6.441
 9980SOL    HW230840   1.705   1.202   6.397
 9981SOL     OW30841   2.137   1.842   1.217
 9981SOL    HW130842   2.052   1.884   1.249
 9981SOL    HW230843   2.165   1.770   1.280
 9982SOL     OW30844   0.515   1.168   3.997
 9982SOL    HW130845   0.471   1.150   3.909
 9982SOL    HW230846   0.614   1.178   3.984
 9983SOL     OW30847   1.021   2.389   2.472
 9983SOL    HW130848   0.991   2.358   2.562
 9983SOL    HW230849   1.094   2.330   2.439
 9984SOL     OW30850   1.527   0.316   0.422
 9984SOL    HW130851   1.503   0.239   0.480
 9984SOL    HW230852   1.627   0.325   0.419
 9985SOL     OW30853   2.348   0.887   1.933
 9985SOL    HW130854   2.419   0.949   1.901
 9985SOL    HW230855   2.388   0.798   1.956
 9986SOL     OW30856   5.149   4.017   6.674
 9986SOL    HW130857   5.159   3.921   6.646
 9986SOL    HW230858   5.154   4.023   6.773
 9987SOL     OW30859   6.238   1.929   2.837
 9987SOL    HW130860   6.257   1.978   2.922
 9987SOL    HW230861   6.139   1.925   2.822
 9988SOL     OW30862   0.043   5.935   4.750
 9988SOL    HW130863   0.072   5.917   4.656
 9988SOL    HW230864   0.122   5.930   4.811
 9989SOL     OW30865   6.211   4.091   3.315
 9989SOL    HW130866   6.295   4.057   3.275
 9989SOL    HW230867   6.230   4.175   3.366
 9990SOL     OW30868   2.535   6.856   2.748
 9990SOL    HW130869   2.538   6.943   2.700
 9990SOL    HW230870   2.535   6.872   2.847
 9991SOL     OW30871   2.204   3.134   4.137
 9991SOL    HW130872   2.245   3.100   4.052
 9991SOL    HW230873   2.224   3.070   4.211
 9992SOL     OW30874   4.601   3.654   0.520
 9992SOL    HW130875   4.513   3.678   0.561
 9992SOL    HW230876   4.586   3.613   0.430
 9993SOL     OW30877   3.732   0.430   2.109
 9993SOL    HW130878   3.703   0.429   2.014
 9993SOL    HW230879   3.832   0.428   2.114
 9994SOL     OW30880   0.042   4.756   4.170
 9994SOL    HW130881   0.053   4.658   4.182
 9994SOL    HW230882   0.063   4.780   4.075
 9995SOL     OW30883   3.440   0.700   2.858
 9995SOL    HW130884   3.357   0.656   2.824
 9995SOL    HW230885   3.469   0.656   2.943
 9996SOL     OW30886   3.006   3.120   2.126
 9996SOL    HW130887   2.999   3.197   2.189
 9996SOL    HW230888   2.929   3.057   2.140
 9997SOL     OW30889   4.038   1.544   1.090
 9997SOL    HW130890   3.961   1.573   1.033
 9997SOL    HW230891   4.027   1.580   1.183
 9998SOL     OW30892   5.874   4.446   1.639
 9998SOL    HW130893   5.921   4.477   1.722
 9998SOL    HW230894   5.931   4.381   1.590
 9999SOL     OW30895   6.070   3.549   5.145
 9999SOL    HW130896   6.168   3.566   5.152
 9999SOL    HW230897   6.049   3.457   5.179
10000SOL     OW30898   6.065   3.622   7.021
10000SOL    HW130899   6.081   3.571   0.082
10000SOL    HW230900   6.151   3.656   6.985
10001SOL     OW30901   5.193   1.085   1.976
10001SOL    HW130902   5.135   1.117   1.901
10001SOL    HW230903   5.289   1.097   1.951
10002SOL     OW30904   1.745   0.680   1.304
10002SOL    HW130905   1.749   0.746   1.379
10002SOL    HW230906   1.752   0.728   1.217
10003SOL     OW30907   3.623   1.737   4.319
10003SOL    HW130908   3.622   1.637   4.312
10003SOL    HW230909   3.707   1.772   4.278
10004SOL     OW30910   4.271   1.994   4.557
10004SOL    HW130911   4.335   1.927   4.593
10004SOL    HW230912   4.282   2.081   4.605
10005SOL     OW30913   4.753   0.062   3.944
10005SOL    HW130914   4.794   0.153   3.955
10005SOL    HW230915   4.807   0.008   3.881
10006SOL     OW30916   5.271   0.945   3.456
10006SOL    HW130917   5.232   0.857   3.427
10006SOL    HW230918   5.330   0.931   3.535
10007SOL     OW30919   0.521   5.300   4.943
10007SOL    HW130920   0.489   5.223   4.999
10007SOL    HW230921   0.453   5.373   4.944
10008SOL     OW30922   4.268   1.236   4.459
10008SOL    HW130923   4.254   1.294   4.539
10008SOL    HW230924   4.366   1.217   4.450
10009SOL     OW30925   2.016   3.856   1.505
10009SOL    HW130926   2.024   3.919   1.582
10009SOL    HW230927   1.933   3.877   1.453
10010SOL     OW30928   1.903   6.601   6.375
10010SOL    HW130929   1.950   6.637   6.295
10010SOL    HW230930   1.961   6.611   6.456
10011SOL     OW30931   5.783   1.587   4.709
10011SOL    HW130932   5.735   1.674   4.695
10011SOL    HW230933   5.864   1.584   4.650
10012SOL     OW30934   4.520   1.244   3.200
10012SOL    HW130935   4.525   1.338   3.167
10012SOL    HW230936   4.448   1.195   3.150
10013SOL     OW30937   1.369   1.855   3.581
10013SOL    HW130938   1.306   1.829   3.655
10013SOL    HW230939   1.348   1.803   3.499
10014SOL     OW30940   6.542   3.220   6.659
10014SOL    HW130941   6.574   3.209   6.565
10014SOL    HW230942   6.446   3.249   6.659
10015SOL     OW30943   2.542   4.315   0.184
10015SOL    HW130944   2.489   4.267   0.115
10015SOL    HW230945   2.500   4.403   0.203
10016SOL     OW30946   1.984   0.156   5.624
10016SOL    HW130947   1.926   0.221   5.672
10016SOL    HW230948   2.064   0.204   5.587
10017SOL     OW30949   2.494   2.540   2.843
10017SOL    HW130950   2.406   2.504   2.813
10017SOL    HW230951   2.563   2.522   2.774
10018SOL     OW30952   4.793   0.039   5.693
10018SOL    HW130953   4.793   0.021   5.791
10018SOL    HW230954   4.768   6.980   5.644
10019SOL     OW30955   0.500   1.875   2.930
10019SOL    HW130956   0.458   1.966   2.940
10019SOL    HW230957   0.533   1.864   2.836
10020SOL     OW30958   0.918   2.783   1.512
10020SOL    HW130959   1.010   2.809   1.543
10020SOL    HW230960   0.925   2.733   1.425
10021SOL     OW30961   0.097   2.383   0.764
10021SOL    HW130962   0.037   2.432   0.701
10021SOL    HW230963   0.063   2.393   0.858
10022SOL     OW30964   3.055   0.120   6.819
10022SOL    HW130965   3.151   0.098   6.803
10022SOL    HW230966   3.024   0.079   6.904
10023SOL     OW30967   1.096   5.269   5.978
10023SOL    HW130968   1.000   5.268   6.004
10023SOL    HW230969   1.129   5.175   5.967
10024SOL     OW30970   2.064   6.436   1.702
10024SOL    HW130971   2.135   6.371   1.677
10024SOL    HW230972   2.098   6.529   1.690
10025SOL     OW30973   1.636   1.585   1.388
10025SOL    HW130974   1.626   1.491   1.356
10025SOL    HW230975   1.688   1.586   1.473
10026SOL     OW30976   5.161   6.718   4.058
10026SOL    HW130977   5.165   6.757   3.966
10026SOL    HW230978   5.240   6.659   4.073
10027SOL     OW30979   6.660   3.928   5.351
10027SOL    HW130980   6.731   3.865   5.318
10027SOL    HW230981   6.670   3.942   5.449
10028SOL     OW30982   1.858   1.812   1.046
10028SOL    HW130983   1.905   1.796   0.959
10028SOL    HW230984   1.765   1.776   1.041
10029SOL     OW30985   3.825   2.139   4.446
10029SOL    HW130986   3.837   2.080   4.526
10029SOL    HW230987   3.729   2.140   4.419
10030SOL     OW30988   2.345   6.644   3.772
10030SOL    HW130989   2.321   6.584   3.696
10030SOL    HW230990   2.265   6.698   3.798
10031SOL     OW30991   6.014   4.919   4.223
10031SOL    HW130992   6.000   4.908   4.321
10031SOL    HW230993   6.087   4.859   4.192
10032SOL     OW30994   2.498   2.018   5.200
10032SOL    HW130995   2.443   2.066   5.268
10032SOL    HW230996   2.568   2.080   5.163
10033SOL     OW30997   5.801   2.028   3.788
10033SOL    HW130998   5.742   2.083   3.848
10033SOL    HW230999   5.763   2.028   3.696
10034SOL     OW31000   2.816   0.181   4.258
10034SOL    HW131001   2.860   0.266   4.230
10034SOL    HW231002   2.882   0.106   4.252
10035SOL     OW31003   6.426   4.312   1.914
10035SOL    HW131004   6.395   4.249   1.843
10035SOL    HW231005   6.512   4.278   1.953
10036SOL     OW31006   6.274   2.406   1.602
10036SOL    HW131007   6.235   2.319   1.633
10036SOL    HW231008   6.373   2.404   1.613
10037SOL     OW31009   6.423   0.808   0.821
10037SOL    HW131010   6.515   0.774   0.842
10037SOL    HW231011   6.378   0.834   0.906
10038SOL     OW31012   5.157   1.071   0.388
10038SOL    HW131013   5.073   1.057   0.335
10038SOL    HW231014   5.209   0.986   0.390
10039SOL     OW31015   3.426   0.377   3.211
10039SOL    HW131016   3.486   0.424   3.146
10039SOL    HW231017   3.332   0.381   3.180
10040SOL     OW31018   5.026   4.983   6.482
10040SOL    HW131019   4.938   5.006   6.522
10040SOL    HW231020   5.017   4.899   6.428
10041SOL     OW31021   4.186   5.889   6.792
10041SOL    HW131022   4.155   5.859   6.701
10041SOL    HW231023   4.106   5.905   6.850
10042SOL     OW31024   1.142   1.963   4.147
10042SOL    HW131025   1.063   1.977   4.207
10042SOL    HW231026   1.115   1.981   4.052
10043SOL     OW31027   6.298   1.304   5.321
10043SOL    HW131028   6.340   1.304   5.412
10043SOL    HW231029   6.204   1.336   5.328
10044SOL     OW31030   1.917   2.025   4.762
10044SOL    HW131031   2.005   2.007   4.719
10044SOL    HW231032   1.844   2.015   4.694
10045SOL     OW31033   3.986   0.388   2.743
10045SOL    HW131034   3.963   0.475   2.700
10045SOL    HW231035   4.050   0.403   2.818
10046SOL     OW31036   2.497   3.616   0.897
10046SOL    HW131037   2.476   3.707   0.932
10046SOL    HW231038   2.515   3.555   0.974
10047SOL     OW31039   0.909   3.246   4.520
10047SOL    HW131040   0.869   3.261   4.610
10047SOL    HW231041   0.957   3.328   4.490
10048SOL     OW31042   6.998   0.336   2.547
10048SOL    HW131043   0.056   0.390   2.565
10048SOL    HW231044   6.993   0.260   2.611
10049SOL     OW31045   1.457   1.172   5.796
10049SOL    HW131046   1.408   1.160   5.710
10049SOL    HW231047   1.501   1.262   5.798
10050SOL     OW31048   5.378   3.752   5.500
10050SOL    HW131049   5.360   3.849   5.484
10050SOL    HW231050   5.424   3.713   5.420
10051SOL     OW31051   0.093   3.935   5.179
10051SOL    HW131052   0.152   3.948   5.099
10051SOL    HW231053   0.065   4.024   5.214
10052SOL     OW31054   2.277   1.064   3.054
10052SOL    HW131055   2.243   1.151   3.090
10052SOL    HW231056   2.236   1.046   2.965
10053SOL     OW31057   4.365   5.882   4.392
10053SOL    HW131058   4.425   5.810   4.358
10053SOL    HW231059   4.340   5.943   4.316
10054SOL     OW31060   5.617   6.064   5.530
10054SOL    HW131061   5.688   6.115   5.481
10054SOL    HW231062   5.656   6.021   5.611
10055SOL     OW31063   6.424   1.625   5.308
10055SOL    HW131064   6.361   1.599   5.381
10055SOL    HW231065   6.410   1.722   5.285
10056SOL     OW31066   5.543   4.405   2.947
10056SOL    HW131067   5.548   4.306   2.937
10056SOL    HW231068   5.530   4.447   2.856
10057SOL     OW31069   5.004   3.376   5.504
10057SOL    HW131070   5.042   3.464   5.534
10057SOL    HW231071   4.933   3.392   5.435
10058SOL     OW31072   6.267   3.858   4.888
10058SOL    HW131073   6.253   3.927   4.960
10058SOL    HW231074   6.282   3.769   4.930
10059SOL     OW31075   0.256   1.587   6.938
10059SOL    HW131076   0.200   1.595   6.856
10059SOL    HW231077   0.289   1.677   6.965
10060SOL     OW31078   2.342   2.750   2.534
10060SOL    HW131079   2.388   2.669   2.497
10060SOL    HW231080   2.291   2.795   2.461
10061SOL     OW31081   4.698   1.358   3.751
10061SOL    HW131082   4.671   1.336   3.657
10061SOL    HW231083   4.727   1.274   3.797
10062SOL     OW31084   6.740   0.502   4.378
10062SOL    HW131085   6.798   0.478   4.300
10062SOL    HW231086   6.679   0.426   4.399
10063SOL     OW31087   3.569   0.998   4.384
10063SOL    HW131088   3.619   1.000   4.298
10063SOL    HW231089   3.619   0.943   4.451
10064SOL     OW31090   5.176   6.910   6.809
10064SOL    HW131091   5.124   6.856   6.742
10064SOL    HW231092   5.223   6.849   6.872
10065SOL     OW31093   2.169   1.069   2.007
10065SOL    HW131094   2.076   1.033   2.013
10065SOL    HW231095   2.233   0.994   1.992
10066SOL     OW31096   0.527   3.273   4.692
10066SOL    HW131097   0.513   3.202   4.623
10066SOL    HW231098   0.622   3.270   4.723
10067SOL     OW31099   0.023   3.523   6.206
10067SOL    HW131100   6.955   3.519   6.169
10067SOL    HW231101   0.037   3.448   6.271
10068SOL     OW31102   0.865   3.303   3.360
10068SOL    HW131103   0.852   3.240   3.283
10068SOL    HW231104   0.902   3.390   3.327
10069SOL     OW31105   3.145   5.074   1.767
10069SOL    HW131106   3.177   5.135   1.695
10069SOL    HW231107   3.099   5.127   1.838
10070SOL     OW31108   6.984   5.900   5.434
10070SOL    HW131109   7.019   5.992   5.450
10070SOL    HW231110   6.982   5.881   5.336
10071SOL     OW31111   1.028   6.853   4.346
10071SOL    HW131112   1.036   6.773   4.406
10071SOL    HW231113   1.107   6.912   4.359
10072SOL     OW31114   0.143   0.834   3.804
10072SOL    HW131115   0.153   0.750   3.858
10072SOL    HW231116   0.048   0.845   3.777
10073SOL     OW31117   0.123   4.277   3.643
10073SOL    HW131118   0.136   4.287   3.742
10073SOL    HW231119   0.078   4.359   3.607
10074SOL     OW31120   2.403   6.374   6.643
10074SOL    HW131121   2.350   6.316   6.705
10074SOL    HW231122   2.468   6.428   6.697
10075SOL     OW31123   1.397   1.546   1.966
10075SOL    HW131124   1.329   1.600   2.015
10075SOL    HW231125   1.384   1.557   1.867
10076SOL     OW31126   4.628   6.091   2.920
10076SOL    HW131127   4.717   6.045   2.914
10076SOL    HW231128   4.555   6.024   2.916
10077SOL     OW31129   4.388   2.608   0.837
10077SOL    HW131130   4.355   2.579   0.927
10077SOL    HW231131   4.384   2.532   0.773
10078SOL     OW31132   6.647   6.152   4.461
10078SOL    HW131133   6.709   6.075   4.477
10078SOL    HW231134   6.695   6.224   4.410
10079SOL     OW31135   6.374   2.924   2.314
10079SOL    HW131136   6.323   2.842   2.342
10079SOL    HW231137   6.322   3.006   2.339
10080SOL     OW31138   4.594   1.569   6.297
10080SOL    HW131139   4.546   1.657   6.302
10080SOL    HW231140   4.678   1.580   6.244
10081SOL     OW31141   1.025   1.633   6.857
10081SOL    HW131142   1.024   1.614   6.955
10081SOL    HW231143   0.960   1.573   6.810
10082SOL     OW31144   1.158   5.321   2.977
10082SOL    HW131145   1.200   5.237   3.010
10082SOL    HW231146   1.103   5.302   2.896
10083SOL     OW31147   3.079   6.976   3.903
10083SOL    HW131148   3.091   6.911   3.828
10083SOL    HW231149   2.982   6.993   3.917
10084SOL     OW31150   0.504   7.020   5.340
10084SOL    HW131151   0.453   0.048   5.408
10084SOL    HW231152   0.600   7.016   5.367
10085SOL     OW31153   4.049   0.333   0.603
10085SOL    HW131154   4.063   0.236   0.624
10085SOL    HW231155   3.958   0.346   0.566
10086SOL     OW31156   6.256   6.878   3.185
10086SOL    HW131157   6.232   6.971   3.215
10086SOL    HW231158   6.195   6.851   3.110
10087SOL     OW31159   6.427   6.242   3.842
10087SOL    HW131160   6.400   6.301   3.918
10087SOL    HW231161   6.487   6.169   3.875
10088SOL     OW31162   6.984   0.363   1.709
10088SOL    HW131163   0.023   0.377   1.633
10088SOL    HW231164   6.999   0.273   1.749
10089SOL     OW31165   3.228   1.847   2.844
10089SOL    HW131166   3.261   1.937   2.871
10089SOL    HW231167   3.221   1.842   2.744
10090SOL     OW31168   0.464   4.909   2.237
10090SOL    HW131169   0.479   4.882   2.332
10090SOL    HW231170   0.417   4.835   2.189
10091SOL     OW31171   6.656   5.955   6.754
10091SOL    HW131172   6.706   5.869   6.738
10091SOL    HW231173   6.587   5.967   6.682
10092SOL     OW31174   1.002   2.911   5.702
10092SOL    HW131175   0.917   2.884   5.747
10092SOL    HW231176   1.070   2.933   5.772
10093SOL     OW31177   5.047   3.476   4.967
10093SOL    HW131178   5.125   3.539   4.968
10093SOL    HW231179   4.962   3.527   4.964
10094SOL     OW31180   2.471   6.453   0.880
10094SOL    HW131181   2.547   6.465   0.943
10094SOL    HW231182   2.389   6.496   0.918
10095SOL     OW31183   5.541   1.853   4.055
10095SOL    HW131184   5.632   1.883   4.025
10095SOL    HW231185   5.532   1.869   4.153
10096SOL     OW31186   4.731   0.522   2.902
10096SOL    HW131187   4.775   0.459   2.838
10096SOL    HW231188   4.728   0.481   2.993
10097SOL     OW31189   2.298   1.990   6.434
10097SOL    HW131190   2.394   1.974   6.456
10097SOL    HW231191   2.272   2.082   6.464
10098SOL     OW31192   2.656   6.869   5.265
10098SOL    HW131193   2.605   6.786   5.287
10098SOL    HW231194   2.592   6.943   5.245
10099SOL     OW31195   6.775   4.466   1.776
10099SOL    HW131196   6.791   4.401   1.701
10099SOL    HW231197   6.836   4.444   1.852
10100SOL     OW31198   5.542   6.238   5.829
10100SOL    HW131199   5.557   6.290   5.745
10100SOL    HW231200   5.498   6.296   5.897
10101SOL     OW31201   6.356   3.162   1.312
10101SOL    HW131202   6.284   3.129   1.251
10101SOL    HW231203   6.330   3.144   1.407
10102SOL     OW31204   0.115   0.463   1.516
10102SOL    HW131205   0.061   0.398   1.463
10102SOL    HW231206   0.212   0.447   1.499
10103SOL     OW31207   1.629   0.606   5.160
10103SOL    HW131208   1.693   0.546   5.208
10103SOL    HW231209   1.612   0.571   5.068
10104SOL     OW31210   1.845   0.872   6.213
10104SOL    HW131211   1.817   0.908   6.123
10104SOL    HW231212   1.764   0.865   6.271
10105SOL     OW31213   1.866   0.639   5.734
10105SOL    HW131214   1.964   0.629   5.717
10105SOL    HW231215   1.849   0.642   5.833
10106SOL     OW31216   3.957   6.596   0.686
10106SOL    HW131217   4.041   6.648   0.672
10106SOL    HW231218   3.979   6.501   0.708
10107SOL     OW31219   5.724   1.760   5.822
10107SOL    HW131220   5.811   1.808   5.831
10107SOL    HW231221   5.736   1.664   5.847
10108SOL     OW31222   0.722   2.577   0.486
10108SOL    HW131223   0.772   2.504   0.441
10108SOL    HW231224   0.638   2.597   0.435
10109SOL     OW31225   0.773   1.120   0.271
10109SOL    HW131226   0.857   1.073   0.246
10109SOL    HW231227   0.699   1.053   0.283
10110SOL     OW31228   4.575   4.877   3.605
10110SOL    HW131229   4.674   4.876   3.595
10110SOL    HW231230   4.549   4.941   3.678
10111SOL     OW31231   0.070   3.207   3.126
10111SOL    HW131232   7.014   3.246   3.171
10111SOL    HW231233   0.152   3.234   3.176
10112SOL     OW31234   5.669   3.483   3.256
10112SOL    HW131235   5.764   3.461   3.275
10112SOL    HW231236   5.641   3.561   3.312
10113SOL     OW31237   4.023   6.926   0.532
10113SOL    HW131238   4.012   6.986   0.611
10113SOL    HW231239   4.106   6.952   0.482
10114SOL     OW31240   3.941   2.193   3.202
10114SOL    HW131241   3.950   2.193   3.103
10114SOL    HW231242   4.016   2.142   3.243
10115SOL     OW31243   3.725   1.851   4.841
10115SOL    HW131244   3.670   1.768   4.846
10115SOL    HW231245   3.666   1.930   4.830
10116SOL     OW31246   6.816   0.478   6.192
10116SOL    HW131247   6.827   0.567   6.148
10116SOL    HW231248   6.859   0.407   6.136
10117SOL     OW31249   6.950   6.104   5.866
10117SOL    HW131250   6.975   6.176   5.802
10117SOL    HW231251   6.856   6.075   5.849
10118SOL     OW31252   2.714   4.667   4.284
10118SOL    HW131253   2.738   4.669   4.187
10118SOL    HW231254   2.615   4.657   4.294
10119SOL     OW31255   6.266   5.335   4.606
10119SOL    HW131256   6.287   5.318   4.509
10119SOL    HW231257   6.209   5.261   4.641
10120SOL     OW31258   1.305   3.145   3.702
10120SOL    HW131259   1.210   3.126   3.681
10120SOL    HW231260   1.365   3.084   3.650
10121SOL     OW31261   5.916   4.464   1.229
10121SOL    HW131262   5.900   4.561   1.249
10121SOL    HW231263   5.996   4.456   1.169
10122SOL     OW31264   6.309   2.293   3.650
10122SOL    HW131265   6.343   2.271   3.741
10122SOL    HW231266   6.318   2.391   3.633
10123SOL     OW31267   5.685   6.617   0.869
10123SOL    HW131268   5.782   6.627   0.847
10123SOL    HW231269   5.631   6.642   0.788
10124SOL     OW31270   1.250   5.149   1.527
10124SOL    HW131271   1.345   5.132   1.503
10124SOL    HW231272   1.226   5.097   1.609
10125SOL     OW31273   2.584   1.462   1.228
10125SOL    HW131274   2.681   1.474   1.205
10125SOL    HW231275   2.535   1.427   1.149
10126SOL     OW31276   6.650   0.195   6.028
10126SOL    HW131277   6.684   0.217   6.119
10126SOL    HW231278   6.727   0.181   5.965
10127SOL     OW31279   1.549   4.387   6.649
10127SOL    HW131280   1.538   4.410   6.746
10127SOL    HW231281   1.621   4.319   6.639
10128SOL     OW31282   3.017   0.711   6.703
10128SOL    HW131283   3.022   0.810   6.709
10128SOL    HW231284   2.981   0.684   6.613
10129SOL     OW31285   0.468   1.496   2.107
10129SOL    HW131286   0.564   1.523   2.118
10129SOL    HW231287   0.461   1.428   2.034
10130SOL     OW31288   0.902   3.009   1.850
10130SOL    HW131289   0.962   2.981   1.775
10130SOL    HW231290   0.830   2.940   1.863
10131SOL     OW31291   1.519   0.579   4.324
10131SOL    HW131292   1.491   0.491   4.364
10131SOL    HW231293   1.453   0.650   4.350
10132SOL     OW31294   1.360   0.343   2.384
10132SOL    HW131295   1.335   0.436   2.412
10132SOL    HW231296   1.458   0.340   2.362
10133SOL     OW31297   4.604   6.614   0.920
10133SOL    HW131298   4.538   6.600   0.847
10133SOL    HW231299   4.685   6.659   0.883
10134SOL     OW31300   6.951   2.001   3.037
10134SOL    HW131301   6.977   1.959   3.124
10134SOL    HW231302   6.862   1.964   3.009
10135SOL     OW31303   5.444   1.749   3.146
10135SOL    HW131304   5.351   1.742   3.109
10135SOL    HW231305   5.442   1.740   3.245
10136SOL     OW31306   5.126   2.246   2.355
10136SOL    HW131307   5.100   2.248   2.451
10136SOL    HW231308   5.047   2.221   2.299
10137SOL     OW31309   0.206   4.840   5.992
10137SOL    HW131310   0.297   4.803   5.972
10137SOL    HW231311   0.138   4.767   5.983
10138SOL     OW31312   5.189   2.056   0.373
10138SOL    HW131313   5.234   2.145   0.361
10138SOL    HW231314   5.251   1.993   0.420
10139SOL     OW31315   3.744   3.351   4.829
10139SOL    HW131316   3.701   3.382   4.913
10139SOL    HW231317   3.686   3.284   4.784
10140SOL     OW31318   6.873   6.615   6.374
10140SOL    HW131319   6.901   6.552   6.301
10140SOL    HW231320   6.807   6.570   6.434
10141SOL     OW31321   4.329   1.024   3.606
10141SOL    HW131322   4.311   1.111   3.653
10141SOL    HW231323   4.247   0.996   3.556
10142SOL     OW31324   5.973   6.691   5.274
10142SOL    HW131325   6.046   6.698   5.343
10142SOL    HW231326   5.929   6.780   5.263
10143SOL     OW31327   5.796   2.843   0.269
10143SOL    HW131328   5.708   2.887   0.252
10143SOL    HW231329   5.784   2.744   0.262
10144SOL     OW31330   4.371   0.049   5.445
10144SOL    HW131331   4.291   0.108   5.452
10144SOL    HW231332   4.444   0.097   5.396
10145SOL     OW31333   4.357   6.074   2.703
10145SOL    HW131334   4.345   6.171   2.720
10145SOL    HW231335   4.441   6.058   2.652
10146SOL     OW31336   6.922   4.362   4.526
10146SOL    HW131337   6.890   4.314   4.444
10146SOL    HW231338   6.847   4.369   4.592
10147SOL     OW31339   4.983   4.737   0.098
10147SOL    HW131340   5.063   4.746   0.157
10147SOL    HW231341   4.912   4.686   0.147
10148SOL     OW31342   5.811   4.220   1.335
10148SOL    HW131343   5.843   4.314   1.323
10148SOL    HW231344   5.741   4.199   1.267
10149SOL     OW31345   4.909   5.170   1.515
10149SOL    HW131346   4.934   5.110   1.439
10149SOL    HW231347   4.853   5.119   1.580
10150SOL     OW31348   5.354   3.513   1.697
10150SOL    HW131349   5.335   3.610   1.715
10150SOL    HW231350   5.370   3.500   1.599
10151SOL     OW31351   0.585   6.764   5.595
10151SOL    HW131352   0.606   6.785   5.500
10151SOL    HW231353   0.670   6.746   5.645
10152SOL     OW31354   6.252   5.892   3.480
10152SOL    HW131355   6.326   5.958   3.469
10152SOL    HW231356   6.289   5.802   3.502
10153SOL     OW31357   4.456   5.971   3.868
10153SOL    HW131358   4.484   6.066   3.858
10153SOL    HW231359   4.395   5.962   3.947
10154SOL     OW31360   3.949   5.296   6.038
10154SOL    HW131361   3.975   5.371   5.977
10154SOL    HW231362   4.031   5.248   6.069
10155SOL     OW31363   5.123   2.152   5.881
10155SOL    HW131364   5.155   2.197   5.964
10155SOL    HW231365   5.193   2.160   5.810
10156SOL     OW31366   4.700   0.402   1.150
10156SOL    HW131367   4.757   0.456   1.087
10156SOL    HW231368   4.756   0.333   1.195
10157SOL     OW31369   0.112   2.075   0.210
10157SOL    HW131370   0.116   2.011   0.133
10157SOL    HW231371   0.020   2.077   0.248
10158SOL     OW31372   6.046   6.615   2.672
10158SOL    HW131373   5.971   6.551   2.654
10158SOL    HW231374   6.133   6.565   2.671
10159SOL     OW31375   4.155   3.526   3.210
10159SOL    HW131376   4.147   3.531   3.310
10159SOL    HW231377   4.239   3.572   3.181
10160SOL     OW31378   2.008   4.389   3.214
10160SOL    HW131379   1.909   4.395   3.203
10160SOL    HW231380   2.033   4.296   3.241
10161SOL     OW31381   3.643   4.530   6.624
10161SOL    HW131382   3.664   4.547   6.527
10161SOL    HW231383   3.585   4.604   6.659
10162SOL     OW31384   2.516   4.459   1.175
10162SOL    HW131385   2.424   4.477   1.142
10162SOL    HW231386   2.536   4.361   1.170
10163SOL     OW31387   0.731   5.668   6.169
10163SOL    HW131388   0.788   5.733   6.218
10163SOL    HW231389   0.761   5.662   6.074
10164SOL     OW31390   6.213   3.288   3.611
10164SOL    HW131391   6.285   3.223   3.635
10164SOL    HW231392   6.201   3.290   3.512
10165SOL     OW31393   6.076   2.229   3.485
10165SOL    HW131394   6.088   2.189   3.576
10165SOL    HW231395   6.160   2.278   3.460
10166SOL     OW31396   1.590   3.412   1.006
10166SOL    HW131397   1.537   3.391   0.924
10166SOL    HW231398   1.664   3.474   0.982
10167SOL     OW31399   0.224   5.113   0.163
10167SOL    HW131400   0.149   5.062   0.204
10167SOL    HW231401   0.227   5.094   0.065
10168SOL     OW31402   6.254   1.219   5.878
10168SOL    HW131403   6.294   1.289   5.937
10168SOL    HW231404   6.326   1.177   5.823
10169SOL     OW31405   6.528   3.883   3.021
10169SOL    HW131406   6.547   3.972   2.980
10169SOL    HW231407   6.574   3.811   2.969
10170SOL     OW31408   6.236   5.300   6.645
10170SOL    HW131409   6.327   5.328   6.675
10170SOL    HW231410   6.204   5.360   6.572
10171SOL     OW31411   0.867   2.240   5.920
10171SOL    HW131412   0.853   2.226   5.822
10171SOL    HW231413   0.935   2.313   5.934
10172SOL     OW31414   0.437   0.144   4.451
10172SOL    HW131415   0.430   0.151   4.550
10172SOL    HW231416   0.529   0.171   4.422
10173SOL     OW31417   2.597   3.854   6.948
10173SOL    HW131418   2.666   3.926   6.938
10173SOL    HW231419   2.540   3.874   0.004
10174SOL     OW31420   4.555   5.101   3.795
10174SOL    HW131421   4.466   5.144   3.810
10174SOL    HW231422   4.621   5.138   3.861
10175SOL     OW31423   6.576   1.521   3.336
10175SOL    HW131424   6.516   1.551   3.410
10175SOL    HW231425   6.671   1.539   3.360
10176SOL     OW31426   6.381   3.822   5.374
10176SOL    HW131427   6.351   3.739   5.327
10176SOL    HW231428   6.445   3.872   5.315
10177SOL     OW31429   1.968   0.151   0.894
10177SOL    HW131430   1.885   0.109   0.857
10177SOL    HW231431   1.946   0.205   0.975
10178SOL     OW31432   1.517   1.040   0.705
10178SOL    HW131433   1.564   1.009   0.622
10178SOL    HW231434   1.514   0.966   0.772
10179SOL     OW31435   0.123   4.175   6.949
10179SOL    HW131436   0.160   4.265   6.971
10179SOL    HW231437   0.107   4.168   6.851
10180SOL     OW31438   4.288   0.269   0.360
10180SOL    HW131439   4.248   0.360   0.358
10180SOL    HW231440   4.387   0.275   0.372
10181SOL     OW31441   0.248   2.971   1.397
10181SOL    HW131442   0.323   3.032   1.375
10181SOL    HW231443   0.180   3.020   1.452
10182SOL     OW31444   4.951   1.266   0.064
10182SOL    HW131445   4.996   1.184   0.028
10182SOL    HW231446   4.863   1.278   0.020
10183SOL     OW31447   5.978   3.210   6.158
10183SOL    HW131448   6.001   3.151   6.080
10183SOL    HW231449   5.998   3.162   6.243
10184SOL     OW31450   5.715   3.166   6.628
10184SOL    HW131451   5.814   3.174   6.619
10184SOL    HW231452   5.690   3.167   6.725
10185SOL     OW31453   5.043   6.080   2.674
10185SOL    HW131454   5.106   6.084   2.596
10185SOL    HW231455   4.953   6.113   2.646
10186SOL     OW31456   4.938   3.847   4.862
10186SOL    HW131457   4.892   3.759   4.854
10186SOL    HW231458   4.877   3.919   4.831
10187SOL     OW31459   1.952   4.112   5.413
10187SOL    HW131460   2.052   4.109   5.419
10187SOL    HW231461   1.919   4.031   5.365
10188SOL     OW31462   3.095   5.516   0.011
10188SOL    HW131463   3.159   5.476   0.077
10188SOL    HW231464   3.137   5.596   6.993
10189SOL     OW31465   1.673   0.737   6.776
10189SOL    HW131466   1.582   0.762   6.808
10189SOL    HW231467   1.736   0.736   6.853
10190SOL     OW31468   3.588   2.939   1.343
10190SOL    HW131469   3.668   2.939   1.403
10190SOL    HW231470   3.509   2.905   1.394
10191SOL     OW31471   5.685   5.965   1.491
10191SOL    HW131472   5.622   6.042   1.494
10191SOL    HW231473   5.638   5.884   1.456
10192SOL     OW31474   2.599   1.700   4.826
10192SOL    HW131475   2.561   1.767   4.890
10192SOL    HW231476   2.527   1.670   4.762
10193SOL     OW31477   2.984   3.986   2.718
10193SOL    HW131478   2.958   3.891   2.703
10193SOL    HW231479   2.910   4.033   2.767
10194SOL     OW31480   3.896   6.998   5.025
10194SOL    HW131481   3.929   0.013   4.939
10194SOL    HW231482   3.811   0.020   5.052
10195SOL     OW31483   6.702   0.090   1.547
10195SOL    HW131484   6.791   0.046   1.558
10195SOL    HW231485   6.630   0.028   1.576
10196SOL     OW31486   5.799   2.350   3.622
10196SOL    HW131487   5.828   2.272   3.678
10196SOL    HW231488   5.745   2.317   3.544
10197SOL     OW31489   5.429   1.125   4.148
10197SOL    HW131490   5.506   1.065   4.171
10197SOL    HW231491   5.439   1.158   4.055
10198SOL     OW31492   3.306   6.528   0.778
10198SOL    HW131493   3.293   6.617   0.822
10198SOL    HW231494   3.296   6.456   0.846
10199SOL     OW31495   0.603   1.358   6.641
10199SOL    HW131496   0.655   1.365   6.556
10199SOL    HW231497   0.513   1.398   6.629
10200SOL     OW31498   4.928   3.187   5.228
10200SOL    HW131499   4.884   3.269   5.266
10200SOL    HW231500   5.008   3.164   5.282
10201SOL     OW31501   0.685   6.229   1.009
10201SOL    HW131502   0.699   6.215   1.107
10201SOL    HW231503   0.699   6.326   0.988
10202SOL     OW31504   1.460   3.628   0.474
10202SOL    HW131505   1.403   3.604   0.396
10202SOL    HW231506   1.482   3.726   0.470
10203SOL     OW31507   1.511   3.075   1.907
10203SOL    HW131508   1.592   3.068   1.964
10203SOL    HW231509   1.429   3.071   1.965
10204SOL     OW31510   3.877   5.070   6.527
10204SOL    HW131511   3.844   5.154   6.485
10204SOL    HW231512   3.805   5.000   6.522
10205SOL     OW31513   3.948   1.095   2.630
10205SOL    HW131514   3.887   1.095   2.709
10205SOL    HW231515   3.942   1.184   2.584
10206SOL     OW31516   4.905   6.225   6.205
10206SOL    HW131517   4.868   6.265   6.289
10206SOL    HW231518   4.858   6.139   6.186
10207SOL     OW31519   2.003   0.817   0.595
10207SOL    HW131520   1.979   0.854   0.505
10207SOL    HW231521   1.979   0.884   0.665
10208SOL     OW31522   6.297   5.011   4.461
10208SOL    HW131523   6.363   5.034   4.533
10208SOL    HW231524   6.206   5.001   4.501
10209SOL     OW31525   0.713   0.904   5.537
10209SOL    HW131526   0.625   0.919   5.492
10209SOL    HW231527   0.725   0.806   5.556
10210SOL     OW31528   5.051   0.311   1.613
10210SOL    HW131529   4.996   0.394   1.610
10210SOL    HW231530   4.992   0.233   1.637
10211SOL     OW31531   4.606   6.450   5.921
10211SOL    HW131532   4.537   6.522   5.913
10211SOL    HW231533   4.562   6.365   5.950
10212SOL     OW31534   0.458   1.633   4.343
10212SOL    HW131535   0.383   1.568   4.352
10212SOL    HW231536   0.460   1.693   4.424
10213SOL     OW31537   6.673   1.876   2.188
10213SOL    HW131538   6.686   1.867   2.287
10213SOL    HW231539   6.643   1.789   2.150
10214SOL     OW31540   0.952   1.438   2.209
10214SOL    HW131541   0.956   1.360   2.146
10214SOL    HW231542   0.888   1.418   2.283
10215SOL     OW31543   3.252   2.935   4.702
10215SOL    HW131544   3.245   3.020   4.754
10215SOL    HW231545   3.226   2.858   4.760
10216SOL     OW31546   6.903   6.937   0.841
10216SOL    HW131547   6.810   6.905   0.861
10216SOL    HW231548   6.909   0.011   0.858
10217SOL     OW31549   2.472   1.065   3.750
10217SOL    HW131550   2.381   1.104   3.736
10217SOL    HW231551   2.504   1.024   3.665
10218SOL     OW31552   1.177   0.871   0.939
10218SOL    HW131553   1.161   0.877   0.840
10218SOL    HW231554   1.180   0.774   0.965
10219SOL     OW31555   0.516   3.103   1.829
10219SOL    HW131556   0.503   3.191   1.874
10219SOL    HW231557   0.569   3.042   1.888
10220SOL     OW31558   3.874   1.641   2.227
10220SOL    HW131559   3.824   1.567   2.181
10220SOL    HW231560   3.833   1.658   2.317
10221SOL     OW31561   1.339   2.140   3.517
10221SOL    HW131562   1.275   2.135   3.440
10221SOL    HW231563   1.348   2.050   3.558
10222SOL     OW31564   1.310   3.301   5.809
10222SOL    HW131565   1.373   3.368   5.770
10222SOL    HW231566   1.310   3.310   5.909
10223SOL     OW31567   1.515   6.007   6.851
10223SOL    HW131568   1.448   6.070   6.891
10223SOL    HW231569   1.565   6.054   6.778
10224SOL     OW31570   0.116   1.103   4.627
10224SOL    HW131571   0.077   1.048   4.553
10224SOL    HW231572   0.047   1.120   4.697
10225SOL     OW31573   1.536   6.449   5.506
10225SOL    HW131574   1.472   6.472   5.432
10225SOL    HW231575   1.485   6.414   5.585
10226SOL     OW31576   2.670   0.088   6.911
10226SOL    HW131577   2.698   0.155   6.979
10226SOL    HW231578   2.750   0.037   6.879
10227SOL     OW31579   4.525   4.760   0.924
10227SOL    HW131580   4.549   4.758   0.827
10227SOL    HW231581   4.608   4.752   0.979
10228SOL     OW31582   1.329   5.721   2.380
10228SOL    HW131583   1.380   5.752   2.299
10228SOL    HW231584   1.258   5.656   2.351
10229SOL     OW31585   0.910   1.236   4.072
10229SOL    HW131586   0.861   1.160   4.116
10229SOL    HW231587   0.930   1.211   3.977
10230SOL     OW31588   6.486   6.658   3.686
10230SOL    HW131589   6.523   6.687   3.774
10230SOL    HW231590   6.510   6.725   3.616
10231SOL     OW31591   0.077   6.122   6.152
10231SOL    HW131592   0.041   6.078   6.070
10231SOL    HW231593   0.170   6.156   6.134
10232SOL     OW31594   2.578   0.610   4.317
10232SOL    HW131595   2.517   0.647   4.247
10232SOL    HW231596   2.567   0.662   4.402
10233SOL     OW31597   5.280   3.432   5.314
10233SOL    HW131598   5.184   3.457   5.307
10233SOL    HW231599   5.292   3.367   5.389
10234SOL     OW31600   5.554   0.895   1.427
10234SOL    HW131601   5.637   0.947   1.411
10234SOL    HW231602   5.474   0.954   1.415
10235SOL     OW31603   4.426   2.041   0.589
10235SOL    HW131604   4.345   2.095   0.569
10235SOL    HW231605   4.450   1.984   0.510
10236SOL     OW31606   1.575   6.694   2.013
10236SOL    HW131607   1.638   6.660   2.083
10236SOL    HW231608   1.611   6.673   1.922
10237SOL     OW31609   5.757   3.865   1.399
10237SOL    HW131610   5.852   3.842   1.376
10237SOL    HW231611   5.713   3.905   1.320
10238SOL     OW31612   3.372   4.160   4.171
10238SOL    HW131613   3.304   4.169   4.098
10238SOL    HW231614   3.330   4.119   4.252
10239SOL     OW31615   1.503   4.061   5.122
10239SOL    HW131616   1.566   3.983   5.129
10239SOL    HW231617   1.456   4.057   5.033
10240SOL     OW31618   2.014   4.933   2.952
10240SOL    HW131619   2.042   5.022   2.915
10240SOL    HW231620   2.072   4.861   2.912
10241SOL     OW31621   0.380   0.284   2.150
10241SOL    HW131622   0.424   0.370   2.176
10241SOL    HW231623   0.334   0.245   2.229
10242SOL     OW31624   6.776   1.614   6.810
10242SOL    HW131625   6.755   1.672   6.732
10242SOL    HW231626   6.839   1.541   6.782
10243SOL     OW31627   0.549   5.487   1.035
10243SOL    HW131628   0.610   5.556   1.075
10243SOL    HW231629   0.490   5.530   0.967
10244SOL     OW31630   2.052   5.145   0.363
10244SOL    HW131631   1.964   5.191   0.360
10244SOL    HW231632   2.114   5.186   0.295
10245SOL     OW31633   3.161   4.238   0.060
10245SOL    HW131634   3.190   4.334   0.061
10245SOL    HW231635   3.137   4.210   0.153
10246SOL     OW31636   2.929   3.727   4.144
10246SOL    HW131637   3.029   3.727   4.145
10246SOL    HW231638   2.895   3.727   4.238
10247SOL     OW31639   6.982   5.373   5.072
10247SOL    HW131640   7.020   5.450   5.121
10247SOL    HW231641   6.963   5.298   5.136
10248SOL     OW31642   3.246   6.395   1.994
10248SOL    HW131643   3.228   6.411   2.091
10248SOL    HW231644   3.192   6.458   1.939
10249SOL     OW31645   3.236   0.798   5.797
10249SOL    HW131646   3.308   0.865   5.786
10249SOL    HW231647   3.275   0.706   5.799
10250SOL     OW31648   6.600   1.931   1.472
10250SOL    HW131649   6.653   1.989   1.410
10250SOL    HW231650   6.504   1.956   1.466
10251SOL     OW31651   2.703   2.179   5.082
10251SOL    HW131652   2.668   2.268   5.053
10251SOL    HW231653   2.785   2.157   5.029
10252SOL     OW31654   6.513   5.900   0.537
10252SOL    HW131655   6.575   5.886   0.460
10252SOL    HW231656   6.558   5.954   0.608
10253SOL     OW31657   5.601   5.892   0.792
10253SOL    HW131658   5.609   5.928   0.884
10253SOL    HW231659   5.559   5.801   0.794
10254SOL     OW31660   4.247   1.894   4.877
10254SOL    HW131661   4.320   1.913   4.943
10254SOL    HW231662   4.199   1.978   4.854
10255SOL     OW31663   2.385   5.239   1.445
10255SOL    HW131664   2.304   5.220   1.388
10255SOL    HW231665   2.356   5.275   1.533
10256SOL     OW31666   5.692   0.816   1.726
10256SOL    HW131667   5.615   0.779   1.675
10256SOL    HW231668   5.751   0.741   1.757
10257SOL     OW31669   2.040   5.167   4.135
10257SOL    HW131670   2.132   5.199   4.157
10257SOL    HW231671   1.976   5.197   4.206
10258SOL     OW31672   4.529   0.466   4.218
10258SOL    HW131673   4.624   0.485   4.194
10258SOL    HW231674   4.477   0.444   4.135
10259SOL     OW31675   0.968   4.902   3.454
10259SOL    HW131676   1.002   4.956   3.531
10259SOL    HW231677   0.898   4.954   3.404
10260SOL     OW31678   0.395   0.305   3.087
10260SOL    HW131679   0.315   0.245   3.095
10260SOL    HW231680   0.398   0.367   3.165
10261SOL     OW31681   6.723   6.077   2.889
10261SOL    HW131682   6.649   6.010   2.884
10261SOL    HW231683   6.788   6.051   2.960
10262SOL     OW31684   2.629   6.279   4.527
10262SOL    HW131685   2.708   6.301   4.470
10262SOL    HW231686   2.549   6.267   4.469
10263SOL     OW31687   4.629   1.250   6.316
10263SOL    HW131688   4.725   1.261   6.293
10263SOL    HW231689   4.585   1.340   6.321
10264SOL     OW31690   5.405   2.066   6.788
10264SOL    HW131691   5.413   2.030   6.695
10264SOL    HW231692   5.458   2.150   6.796
10265SOL     OW31693   3.339   2.128   2.920
10265SOL    HW131694   3.388   2.143   2.834
10265SOL    HW231695   3.242   2.145   2.907
10266SOL     OW31696   3.474   2.664   5.290
10266SOL    HW131697   3.515   2.604   5.358
10266SOL    HW231698   3.377   2.642   5.280
10267SOL     OW31699   5.800   2.101   6.076
10267SOL    HW131700   5.701   2.111   6.091
10267SOL    HW231701   5.836   2.032   6.139
10268SOL     OW31702   3.865   5.921   2.173
10268SOL    HW131703   3.901   6.012   2.194
10268SOL    HW231704   3.833   5.920   2.078
10269SOL     OW31705   1.552   1.957   5.384
10269SOL    HW131706   1.569   2.043   5.432
10269SOL    HW231707   1.552   1.882   5.451
10270SOL     OW31708   2.508   5.254   2.836
10270SOL    HW131709   2.591   5.207   2.805
10270SOL    HW231710   2.428   5.197   2.820
10271SOL     OW31711   4.252   2.850   0.227
10271SOL    HW131712   4.246   2.865   0.128
10271SOL    HW231713   4.161   2.828   0.263
10272SOL     OW31714   0.708   0.206   4.326
10272SOL    HW131715   0.777   0.256   4.377
10272SOL    HW231716   0.736   0.110   4.317
10273SOL     OW31717   4.743   5.114   3.287
10273SOL    HW131718   4.717   5.053   3.212
10273SOL    HW231719   4.661   5.138   3.340
10274SOL     OW31720   1.121   4.514   4.712
10274SOL    HW131721   1.183   4.512   4.634
10274SOL    HW231722   1.173   4.522   4.797
10275SOL     OW31723   0.732   6.287   2.202
10275SOL    HW131724   0.789   6.367   2.218
10275SOL    HW231725   0.689   6.294   2.112
10276SOL     OW31726   5.877   5.686   5.887
10276SOL    HW131727   5.953   5.676   5.952
10276SOL    HW231728   5.832   5.774   5.903
10277SOL     OW31729   2.819   5.811   4.142
10277SOL    HW131730   2.794   5.790   4.236
10277SOL    HW231731   2.758   5.762   4.079
10278SOL     OW31732   5.631   0.845   4.752
10278SOL    HW131733   5.730   0.835   4.744
10278SOL    HW231734   5.604   0.829   4.847
10279SOL     OW31735   2.031   6.343   4.243
10279SOL    HW131736   2.016   6.436   4.277
10279SOL    HW231737   2.124   6.336   4.206
10280SOL     OW31738   2.011   3.869   1.159
10280SOL    HW131739   1.986   3.950   1.212
10280SOL    HW231740   1.933   3.808   1.152
10281SOL     OW31741   6.559   2.280   2.362
10281SOL    HW131742   6.654   2.249   2.363
10281SOL    HW231743   6.553   2.369   2.315
10282SOL     OW31744   6.504   4.238   4.430
10282SOL    HW131745   6.580   4.177   4.408
10282SOL    HW231746   6.438   4.190   4.488
10283SOL     OW31747   0.817   3.415   0.717
10283SOL    HW131748   0.805   3.383   0.623
10283SOL    HW231749   0.747   3.375   0.775
10284SOL     OW31750   4.938   3.905   5.505
10284SOL    HW131751   4.971   3.938   5.594
10284SOL    HW231752   4.854   3.852   5.519
10285SOL     OW31753   4.489   0.405   0.617
10285SOL    HW131754   4.569   0.463   0.602
10285SOL    HW231755   4.486   0.334   0.547
10286SOL     OW31756   3.205   2.158   4.169
10286SOL    HW131757   3.183   2.137   4.264
10286SOL    HW231758   3.298   2.128   4.149
10287SOL     OW31759   1.875   6.554   1.874
10287SOL    HW131760   1.925   6.512   1.798
10287SOL    HW231761   1.917   6.528   1.960
10288SOL     OW31762   5.327   6.234   2.168
10288SOL    HW131763   5.256   6.239   2.098
10288SOL    HW231764   5.396   6.304   2.150
10289SOL     OW31765   3.617   0.632   2.673
10289SOL    HW131766   3.567   0.668   2.752
10289SOL    HW231767   3.563   0.645   2.590
10290SOL     OW31768   3.604   4.077   2.244
10290SOL    HW131769   3.637   4.066   2.150
10290SOL    HW231770   3.508   4.106   2.242
10291SOL     OW31771   3.987   1.242   4.076
10291SOL    HW131772   3.922   1.299   4.126
10291SOL    HW231773   4.057   1.209   4.139
10292SOL     OW31774   1.096   1.367   4.663
10292SOL    HW131775   1.010   1.364   4.611
10292SOL    HW231776   1.088   1.434   4.736
10293SOL     OW31777   1.998   5.840   3.506
10293SOL    HW131778   1.906   5.867   3.477
10293SOL    HW231779   2.057   5.921   3.508
10294SOL     OW31780   4.910   3.734   2.909
10294SOL    HW131781   4.894   3.769   2.817
10294SOL    HW231782   4.863   3.647   2.921
10295SOL     OW31783   6.272   5.542   5.960
10295SOL    HW131784   6.274   5.610   5.886
10295SOL    HW231785   6.343   5.474   5.944
10296SOL     OW31786   5.036   2.856   6.412
10296SOL    HW131787   4.992   2.914   6.481
10296SOL    HW231788   5.075   2.914   6.340
10297SOL     OW31789   1.901   6.477   5.204
10297SOL    HW131790   1.819   6.532   5.223
10297SOL    HW231791   1.873   6.388   5.168
10298SOL     OW31792   4.129   4.813   2.605
10298SOL    HW131793   4.179   4.754   2.543
10298SOL    HW231794   4.192   4.879   2.647
10299SOL     OW31795   4.602   4.384   2.781
10299SOL    HW131796   4.583   4.289   2.808
10299SOL    HW231797   4.699   4.403   2.790
10300SOL     OW31798   2.014   4.632   2.741
10300SOL    HW131799   1.940   4.670   2.686
10300SOL    HW231800   1.979   4.610   2.832
10301SOL     OW31801   6.039   2.274   2.777
10301SOL    HW131802   5.943   2.253   2.795
10301SOL    HW231803   6.063   2.360   2.823
10302SOL     OW31804   0.591   6.192   4.115
10302SOL    HW131805   0.666   6.235   4.066
10302SOL    HW231806   0.625   6.110   4.162
10303SOL     OW31807   3.269   5.486   1.270
10303SOL    HW131808   3.365   5.464   1.259
10303SOL    HW231809   3.248   5.571   1.222
10304SOL     OW31810   5.480   0.656   2.779
10304SOL    HW131811   5.524   0.568   2.795
10304SOL    HW231812   5.545   0.730   2.795
10305SOL     OW31813   0.388   5.297   6.774
10305SOL    HW131814   0.335   5.278   6.692
10305SOL    HW231815   0.463   5.360   6.752
10306SOL     OW31816   4.523   6.378   6.498
10306SOL    HW131817   4.609   6.385   6.447
10306SOL    HW231818   4.541   6.383   6.596
10307SOL     OW31819   2.098   1.895   4.347
10307SOL    HW131820   2.067   1.973   4.292
10307SOL    HW231821   2.193   1.875   4.325
10308SOL     OW31822   2.668   5.007   3.968
10308SOL    HW131823   2.675   4.907   3.971
10308SOL    HW231824   2.571   5.032   3.961
10309SOL     OW31825   6.643   0.462   3.690
10309SOL    HW131826   6.683   0.386   3.742
10309SOL    HW231827   6.548   0.441   3.669
10310SOL     OW31828   3.817   2.635   1.519
10310SOL    HW131829   3.845   2.547   1.480
10310SOL    HW231830   3.773   2.620   1.607
10311SOL     OW31831   0.535   5.875   1.173
10311SOL    HW131832   0.550   5.972   1.194
10311SOL    HW231833   0.450   5.865   1.122
10312SOL     OW31834   3.137   5.678   1.088
10312SOL    HW131835   3.053   5.624   1.093
10312SOL    HW231836   3.115   5.775   1.099
10313SOL     OW31837   3.834   6.979   2.053
10313SOL    HW131838   3.806   6.910   2.120
10313SOL    HW231839   3.925   7.013   2.075
10314SOL     OW31840   6.276   0.836   1.710
10314SOL    HW131841   6.226   0.784   1.640
10314SOL    HW231842   6.331   0.772   1.765
10315SOL     OW31843   6.144   5.843   4.658
10315SOL    HW131844   6.084   5.808   4.585
10315SOL    HW231845   6.199   5.767   4.693
10316SOL     OW31846   6.436   3.573   5.011
10316SOL    HW131847   6.379   3.528   4.942
10316SOL    HW231848   6.531   3.576   4.978
10317SOL     OW31849   3.670   4.628   5.822
10317SOL    HW131850   3.588   4.641   5.766
10317SOL    HW231851   3.750   4.620   5.763
10318SOL     OW31852   5.991   5.361   1.085
10318SOL    HW131853   6.031   5.447   1.052
10318SOL    HW231854   6.055   5.286   1.070
10319SOL     OW31855   1.185   3.216   5.586
10319SOL    HW131856   1.229   3.243   5.671
10319SOL    HW231857   1.238   3.143   5.543
10320SOL     OW31858   0.720   0.414   0.847
10320SOL    HW131859   0.648   0.407   0.916
10320SOL    HW231860   0.804   0.445   0.891
10321SOL     OW31861   4.040   0.504   4.909
10321SOL    HW131862   4.070   0.469   4.998
10321SOL    HW231863   3.950   0.546   4.919
10322SOL     OW31864   5.967   5.784   0.004
10322SOL    HW131865   5.882   5.733   0.011
10322SOL    HW231866   6.036   5.742   0.063
10323SOL     OW31867   6.139   4.051   6.322
10323SOL    HW131868   6.220   4.076   6.269
10323SOL    HW231869   6.063   4.112   6.299
10324SOL     OW31870   3.373   3.077   3.087
10324SOL    HW131871   3.410   3.169   3.090
10324SOL    HW231872   3.428   3.016   3.143
10325SOL     OW31873   6.827   4.726   3.045
10325SOL    HW131874   6.873   4.795   2.989
10325SOL    HW231875   6.728   4.739   3.039
10326SOL     OW31876   4.553   2.554   0.345
10326SOL    HW131877   4.571   2.516   0.254
10326SOL    HW231878   4.532   2.651   0.337
10327SOL     OW31879   2.927   1.500   2.219
10327SOL    HW131880   2.855   1.479   2.285
10327SOL    HW231881   2.914   1.592   2.184
10328SOL     OW31882   6.051   3.470   1.408
10328SOL    HW131883   6.127   3.429   1.356
10328SOL    HW231884   6.058   3.443   1.504
10329SOL     OW31885   3.313   6.980   4.790
10329SOL    HW131886   3.368   6.939   4.863
10329SOL    HW231887   3.267   6.907   4.739
10330SOL     OW31888   3.344   5.714   2.847
10330SOL    HW131889   3.375   5.630   2.891
10330SOL    HW231890   3.364   5.710   2.749
10331SOL     OW31891   6.215   0.962   3.111
10331SOL    HW131892   6.294   1.013   3.145
10331SOL    HW231893   6.194   0.993   3.018
10332SOL     OW31894   6.003   1.374   0.756
10332SOL    HW131895   5.942   1.417   0.690
10332SOL    HW231896   6.029   1.283   0.724
10333SOL     OW31897   6.099   4.395   4.542
10333SOL    HW131898   6.105   4.464   4.471
10333SOL    HW231899   6.128   4.306   4.506
10334SOL     OW31900   2.144   5.682   3.097
10334SOL    HW131901   2.222   5.627   3.128
10334SOL    HW231902   2.177   5.761   3.045
10335SOL     OW31903   2.002   4.661   6.853
10335SOL    HW131904   1.978   4.721   6.929
10335SOL    HW231905   2.048   4.580   6.888
10336SOL     OW31906   5.158   6.575   3.685
10336SOL    HW131907   5.233   6.516   3.655
10336SOL    HW231908   5.087   6.577   3.614
10337SOL     OW31909   6.687   6.112   5.804
10337SOL    HW131910   6.598   6.083   5.839
10337SOL    HW231911   6.705   6.206   5.833
10338SOL     OW31912   3.432   6.724   1.267
10338SOL    HW131913   3.461   6.757   1.178
10338SOL    HW231914   3.419   6.625   1.264
10339SOL     OW31915   3.911   4.556   0.716
10339SOL    HW131916   3.866   4.468   0.703
10339SOL    HW231917   3.918   4.604   0.629
10340SOL     OW31918   1.078   5.558   0.204
10340SOL    HW131919   1.137   5.622   0.154
10340SOL    HW231920   1.114   5.546   0.296
10341SOL     OW31921   2.447   3.121   1.636
10341SOL    HW131922   2.542   3.152   1.638
10341SOL    HW231923   2.411   3.130   1.543
10342SOL     OW31924   2.629   5.825   5.324
10342SOL    HW131925   2.708   5.862   5.276
10342SOL    HW231926   2.580   5.900   5.370
10343SOL     OW31927   2.463   3.897   0.139
10343SOL    HW131928   2.370   3.901   0.176
10343SOL    HW231929   2.524   3.952   0.195
10344SOL     OW31930   3.829   3.905   3.497
10344SOL    HW131931   3.761   3.934   3.430
10344SOL    HW231932   3.836   3.974   3.569
10345SOL     OW31933   1.742   0.388   6.229
10345SOL    HW131934   1.695   0.337   6.157
10345SOL    HW231935   1.709   0.356   6.318
10346SOL     OW31936   6.113   0.722   1.524
10346SOL    HW131937   6.165   0.692   1.445
10346SOL    HW231938   6.059   0.803   1.500
10347SOL     OW31939   4.887   2.722   1.759
10347SOL    HW131940   4.833   2.710   1.676
10347SOL    HW231941   4.835   2.689   1.838
10348SOL     OW31942   6.882   1.289   6.376
10348SOL    HW131943   6.846   1.382   6.383
10348SOL    HW231944   6.912   1.271   6.282
10349SOL     OW31945   6.668   0.738   0.933
10349SOL    HW131946   6.646   0.735   1.031
10349SOL    HW231947   6.719   0.655   0.908
10350SOL     OW31948   2.976   6.213   4.870
10350SOL    HW131949   3.047   6.199   4.939
10350SOL    HW231950   3.008   6.278   4.801
10351SOL     OW31951   6.148   5.280   5.571
10351SOL    HW131952   6.241   5.315   5.570
10351SOL    HW231953   6.107   5.295   5.661
10352SOL     OW31954   5.489   2.090   6.081
10352SOL    HW131955   5.520   2.050   6.167
10352SOL    HW231956   5.398   2.128   6.092
10353SOL     OW31957   6.584   3.473   4.185
10353SOL    HW131958   6.674   3.505   4.213
10353SOL    HW231959   6.592   3.424   4.098
10354SOL     OW31960   0.606   3.148   1.010
10354SOL    HW131961   0.566   3.208   0.941
10354SOL    HW231962   0.655   3.204   1.077
10355SOL     OW31963   0.822   0.747   0.733
10355SOL    HW131964   0.876   0.774   0.814
10355SOL    HW231965   0.884   0.717   0.661
10356SOL     OW31966   6.784   3.572   6.066
10356SOL    HW131967   6.813   3.490   6.018
10356SOL    HW231968   6.761   3.643   5.999
10357SOL     OW31969   3.463   1.866   5.878
10357SOL    HW131970   3.455   1.865   5.778
10357SOL    HW231971   3.459   1.961   5.911
10358SOL     OW31972   1.056   2.775   3.488
10358SOL    HW131973   1.082   2.862   3.446
10358SOL    HW231974   1.098   2.768   3.578
10359SOL     OW31975   4.855   2.277   2.166
10359SOL    HW131976   4.811   2.294   2.078
10359SOL    HW231977   4.790   2.235   2.229
10360SOL     OW31978   5.188   5.331   2.579
10360SOL    HW131979   5.212   5.426   2.558
10360SOL    HW231980   5.142   5.291   2.500
10361SOL     OW31981   2.585   0.307   2.463
10361SOL    HW131982   2.661   0.339   2.520
10361SOL    HW231983   2.601   0.336   2.368
10362SOL     OW31984   0.717   5.059   2.724
10362SOL    HW131985   0.740   4.981   2.665
10362SOL    HW231986   0.728   5.144   2.674
10363SOL     OW31987   4.773   2.589   0.785
10363SOL    HW131988   4.727   2.658   0.729
10363SOL    HW231989   4.872   2.602   0.779
10364SOL     OW31990   4.745   4.656   1.915
10364SOL    HW131991   4.760   4.754   1.898
10364SOL    HW231992   4.721   4.642   2.011
10365SOL     OW31993   5.570   4.583   0.469
10365SOL    HW131994   5.621   4.498   0.483
10365SOL    HW231995   5.507   4.573   0.393
10366SOL     OW31996   3.965   6.600   3.522
10366SOL    HW131997   3.921   6.510   3.528
10366SOL    HW231998   3.897   6.669   3.499
10367SOL     OW31999   0.089   1.652   2.364
10367SOL    HW132000   0.072   1.668   2.267
10367SOL    HW232001   0.173   1.600   2.375
10368SOL     OW32002   2.020   0.814   2.461
10368SOL    HW132003   1.947   0.882   2.450
10368SOL    HW232004   2.070   0.805   2.375
10369SOL     OW32005   2.520   6.216   6.229
10369SOL    HW132006   2.600   6.252   6.182
10369SOL    HW232007   2.468   6.158   6.166
10370SOL     OW32008   6.125   1.485   5.038
10370SOL    HW132009   6.051   1.552   5.046
10370SOL    HW232010   6.162   1.465   5.129
10371SOL     OW32011   2.228   6.705   4.175
10371SOL    HW132012   2.306   6.682   4.116
10371SOL    HW232013   2.176   6.780   4.133
10372SOL     OW32014   2.986   0.990   1.105
10372SOL    HW132015   2.941   1.049   1.172
10372SOL    HW232016   3.016   1.046   1.027
10373SOL     OW32017   0.568   6.669   4.966
10373SOL    HW132018   0.595   6.593   4.906
10373SOL    HW232019   0.532   6.744   4.911
10374SOL     OW32020   3.077   0.341   3.938
10374SOL    HW132021   3.001   0.277   3.924
10374SOL    HW232022   3.041   0.427   3.976
10375SOL     OW32023   2.900   2.103   5.822
10375SOL    HW132024   2.860   2.181   5.775
10375SOL    HW232025   2.995   2.122   5.845
10376SOL     OW32026   0.779   6.322   3.981
10376SOL    HW132027   0.848   6.257   4.011
10376SOL    HW232028   0.748   6.298   3.889
10377SOL     OW32029   0.498   1.635   1.655
10377SOL    HW132030   0.574   1.576   1.629
10377SOL    HW232031   0.436   1.646   1.577
10378SOL     OW32032   6.079   5.699   6.078
10378SOL    HW132033   6.050   5.711   6.173
10378SOL    HW232034   6.150   5.629   6.073
10379SOL     OW32035   3.318   5.680   4.016
10379SOL    HW132036   3.408   5.717   4.041
10379SOL    HW232037   3.287   5.618   4.087
10380SOL     OW32038   0.525   2.979   4.682
10380SOL    HW132039   0.593   2.968   4.755
10380SOL    HW232040   0.448   2.917   4.699
10381SOL     OW32041   4.369   3.743   0.629
10381SOL    HW132042   4.376   3.842   0.638
10381SOL    HW232043   4.272   3.717   0.623
10382SOL     OW32044   3.125   5.946   1.751
10382SOL    HW132045   3.036   5.987   1.768
10382SOL    HW232046   3.196   6.005   1.789
10383SOL     OW32047   1.542   3.897   0.391
10383SOL    HW132048   1.612   3.961   0.360
10383SOL    HW232049   1.493   3.937   0.469
10384SOL     OW32050   6.592   6.848   0.473
10384SOL    HW132051   6.679   6.854   0.521
10384SOL    HW232052   6.525   6.802   0.531
10385SOL     OW32053   4.041   5.789   6.577
10385SOL    HW132054   4.102   5.729   6.527
10385SOL    HW232055   4.039   5.879   6.532
10386SOL     OW32056   0.715   0.620   5.567
10386SOL    HW132057   0.809   0.614   5.536
10386SOL    HW232058   0.697   0.548   5.634
10387SOL     OW32059   5.128   2.488   2.674
10387SOL    HW132060   5.091   2.507   2.765
10387SOL    HW232061   5.118   2.390   2.654
10388SOL     OW32062   1.608   6.609   0.780
10388SOL    HW132063   1.526   6.650   0.741
10388SOL    HW232064   1.585   6.520   0.820
10389SOL     OW32065   5.368   3.888   1.185
10389SOL    HW132066   5.388   3.918   1.279
10389SOL    HW232067   5.305   3.810   1.188
10390SOL     OW32068   1.539   3.082   0.054
10390SOL    HW132069   1.494   2.993   0.042
10390SOL    HW232070   1.527   3.113   0.149
10391SOL     OW32071   0.549   5.918   4.178
10391SOL    HW132072   0.474   5.875   4.129
10391SOL    HW232073   0.636   5.881   4.145
10392SOL     OW32074   5.565   5.255   5.551
10392SOL    HW132075   5.639   5.270   5.486
10392SOL    HW232076   5.602   5.222   5.637
10393SOL     OW32077   2.118   3.799   3.742
10393SOL    HW132078   2.144   3.787   3.646
10393SOL    HW232079   2.067   3.719   3.773
10394SOL     OW32080   2.350   5.514   4.871
10394SOL    HW132081   2.344   5.517   4.772
10394SOL    HW232082   2.345   5.419   4.902
10395SOL     OW32083   0.275   0.144   1.337
10395SOL    HW132084   0.354   0.205   1.344
10395SOL    HW232085   0.241   0.144   1.243
10396SOL     OW32086   3.441   1.780   3.961
10396SOL    HW132087   3.362   1.819   3.913
10396SOL    HW232088   3.512   1.757   3.895
10397SOL     OW32089   3.299   1.443   4.606
10397SOL    HW132090   3.360   1.388   4.662
10397SOL    HW232091   3.279   1.395   4.520
10398SOL     OW32092   6.208   2.408   0.247
10398SOL    HW132093   6.108   2.403   0.252
10398SOL    HW232094   6.235   2.435   0.154
10399SOL     OW32095   5.268   2.609   3.373
10399SOL    HW132096   5.203   2.600   3.449
10399SOL    HW232097   5.230   2.568   3.291
10400SOL     OW32098   4.461   5.922   6.835
10400SOL    HW132099   4.461   5.952   6.931
10400SOL    HW232100   4.369   5.893   6.810
10401SOL     OW32101   7.013   6.455   2.574
10401SOL    HW132102   6.936   6.516   2.589
10401SOL    HW232103   7.007   6.378   2.639
10402SOL     OW32104   6.405   1.905   5.381
10402SOL    HW132105   6.443   1.976   5.441
10402SOL    HW232106   6.327   1.861   5.427
10403SOL     OW32107   4.677   2.607   3.578
10403SOL    HW132108   4.661   2.681   3.513
10403SOL    HW232109   4.745   2.543   3.541
10404SOL     OW32110   5.749   6.591   4.547
10404SOL    HW132111   5.714   6.534   4.473
10404SOL    HW232112   5.847   6.606   4.534
10405SOL     OW32113   1.362   6.923   4.360
10405SOL    HW132114   1.351   6.910   4.459
10405SOL    HW232115   1.299   6.995   4.330
10406SOL     OW32116   2.184   4.124   3.565
10406SOL    HW132117   2.223   4.217   3.561
10406SOL    HW232118   2.212   4.073   3.484
10407SOL     OW32119   2.529   6.628   6.236
10407SOL    HW132120   2.493   6.597   6.324
10407SOL    HW232121   2.569   6.720   6.246
10408SOL     OW32122   4.502   0.365   1.368
10408SOL    HW132123   4.560   0.346   1.447
10408SOL    HW232124   4.551   0.345   1.284
10409SOL     OW32125   0.290   5.087   1.456
10409SOL    HW132126   0.361   5.062   1.389
10409SOL    HW232127   0.200   5.066   1.418
10410SOL     OW32128   5.116   2.216   1.933
10410SOL    HW132129   5.176   2.137   1.922
10410SOL    HW232130   5.171   2.299   1.944
10411SOL     OW32131   3.621   6.682   3.263
10411SOL    HW132132   3.666   6.695   3.175
10411SOL    HW232133   3.677   6.722   3.335
10412SOL     OW32134   0.178   0.967   6.863
10412SOL    HW132135   0.085   0.989   6.891
10412SOL    HW232136   0.201   1.019   6.780
10413SOL     OW32137   0.202   2.761   7.024
10413SOL    HW132138   0.145   2.680   0.011
10413SOL    HW232139   0.234   2.766   6.929
10414SOL     OW32140   4.340   5.620   5.909
10414SOL    HW132141   4.394   5.547   5.951
10414SOL    HW232142   4.397   5.702   5.898
10415SOL     OW32143   1.651   3.691   5.337
10415SOL    HW132144   1.589   3.682   5.415
10415SOL    HW232145   1.616   3.635   5.261
10416SOL     OW32146   6.060   0.318   5.276
10416SOL    HW132147   5.980   0.284   5.225
10416SOL    HW232148   6.030   0.385   5.344
10417SOL     OW32149   3.112   5.094   3.954
10417SOL    HW132150   3.086   5.058   3.864
10417SOL    HW232151   3.029   5.119   4.004
10418SOL     OW32152   6.397   4.081   6.195
10418SOL    HW132153   6.350   4.039   6.117
10418SOL    HW232154   6.441   4.010   6.250
10419SOL     OW32155   2.689   6.627   5.793
10419SOL    HW132156   2.728   6.719   5.794
10419SOL    HW232157   2.625   6.619   5.716
10420SOL     OW32158   0.325   3.546   3.594
10420SOL    HW132159   0.360   3.478   3.658
10420SOL    HW232160   0.282   3.621   3.645
10421SOL     OW32161   1.090   2.244   3.828
10421SOL    HW132162   1.013   2.290   3.783
10421SOL    HW232163   1.074   2.145   3.828
10422SOL     OW32164   5.825   3.494   5.035
10422SOL    HW132165   5.918   3.525   5.052
10422SOL    HW232166   5.816   3.397   5.060
10423SOL     OW32167   5.824   4.949   5.445
10423SOL    HW132168   5.784   4.892   5.517
10423SOL    HW232169   5.923   4.954   5.457
10424SOL     OW32170   4.804   2.561   0.395
10424SOL    HW132171   4.813   2.644   0.450
10424SOL    HW232172   4.707   2.542   0.379
10425SOL     OW32173   0.912   6.685   1.965
10425SOL    HW132174   0.905   6.679   1.866
10425SOL    HW232175   0.931   6.780   1.991
10426SOL     OW32176   5.466   5.191   0.524
10426SOL    HW132177   5.386   5.142   0.489
10426SOL    HW232178   5.463   5.191   0.624
10427SOL     OW32179   3.853   1.007   6.485
10427SOL    HW132180   3.843   1.063   6.403
10427SOL    HW232181   3.877   0.913   6.459
10428SOL     OW32182   3.363   0.695   3.821
10428SOL    HW132183   3.279   0.653   3.785
10428SOL    HW232184   3.403   0.636   3.890
10429SOL     OW32185   6.988   4.032   0.926
10429SOL    HW132186   6.992   3.940   0.964
10429SOL    HW232187   0.018   4.094   0.982
10430SOL     OW32188   4.905   0.156   4.827
10430SOL    HW132189   4.923   0.238   4.773
10430SOL    HW232190   4.883   0.182   4.921
10431SOL     OW32191   2.564   5.663   4.659
10431SOL    HW132192   2.649   5.619   4.690
10431SOL    HW232193   2.533   5.728   4.729
10432SOL     OW32194   5.502   6.884   4.828
10432SOL    HW132195   5.555   6.969   4.828
10432SOL    HW232196   5.404   6.906   4.829
10433SOL     OW32197   1.103   5.747   1.616
10433SOL    HW132198   1.177   5.779   1.675
10433SOL    HW232199   1.128   5.762   1.520
10434SOL     OW32200   4.204   6.089   3.245
10434SOL    HW132201   4.108   6.058   3.248
10434SOL    HW232202   4.230   6.123   3.335
10435SOL     OW32203   0.053   1.252   5.275
10435SOL    HW132204   0.046   1.348   5.249
10435SOL    HW232205   6.993   1.205   5.248
10436SOL     OW32206   0.135   4.876   5.698
10436SOL    HW132207   0.147   4.883   5.797
10436SOL    HW232208   0.178   4.792   5.665
10437SOL     OW32209   4.794   3.843   5.934
10437SOL    HW132210   4.768   3.777   5.863
10437SOL    HW232211   4.849   3.916   5.893
10438SOL     OW32212   5.881   6.399   0.365
10438SOL    HW132213   5.909   6.422   0.272
10438SOL    HW232214   5.923   6.312   0.391
10439SOL     OW32215   3.940   1.000   5.485
10439SOL    HW132216   3.952   1.014   5.584
10439SOL    HW232217   4.005   0.931   5.453
10440SOL     OW32218   1.283   0.022   0.207
10440SOL    HW132219   1.380   0.043   0.222
10440SOL    HW232220   1.241   0.096   0.153
10441SOL     OW32221   3.441   1.223   1.415
10441SOL    HW132222   3.349   1.259   1.405
10441SOL    HW232223   3.453   1.142   1.358
10442SOL     OW32224   3.833   6.357   6.197
10442SOL    HW132225   3.798   6.427   6.135
10442SOL    HW232226   3.757   6.308   6.239
10443SOL     OW32227   4.714   4.196   3.824
10443SOL    HW132228   4.699   4.098   3.829
10443SOL    HW232229   4.702   4.237   3.914
10444SOL     OW32230   4.156   6.109   4.057
10444SOL    HW132231   4.147   6.011   4.077
10444SOL    HW232232   4.212   6.153   4.128
10445SOL     OW32233   0.792   4.969   4.713
10445SOL    HW132234   0.841   4.990   4.798
10445SOL    HW232235   0.776   5.053   4.662
10446SOL     OW32236   1.237   2.941   5.523
10446SOL    HW132237   1.296   2.921   5.602
10446SOL    HW232238   1.141   2.936   5.551
10447SOL     OW32239   0.417   1.149   1.628
10447SOL    HW132240   0.473   1.204   1.566
10447SOL    HW232241   0.328   1.192   1.641
10448SOL     OW32242   4.647   0.751   2.511
10448SOL    HW132243   4.597   0.749   2.597
10448SOL    HW232244   4.741   0.780   2.528
10449SOL     OW32245   2.918   5.324   4.711
10449SOL    HW132246   2.829   5.282   4.728
10449SOL    HW232247   2.955   5.358   4.798
10450SOL     OW32248   0.913   1.908   0.746
10450SOL    HW132249   0.959   1.974   0.686
10450SOL    HW232250   0.898   1.949   0.836
10451SOL     OW32251   1.410   5.374   2.311
10451SOL    HW132252   1.426   5.293   2.368
10451SOL    HW232253   1.316   5.406   2.324
10452SOL     OW32254   6.268   3.204   1.976
10452SOL    HW132255   6.213   3.175   1.898
10452SOL    HW232256   6.264   3.134   2.047
10453SOL     OW32257   4.041   6.772   1.437
10453SOL    HW132258   3.977   6.705   1.473
10453SOL    HW232259   4.011   6.864   1.462
10454SOL     OW32260   4.214   3.201   0.309
10454SOL    HW132261   4.301   3.227   0.267
10454SOL    HW232262   4.228   3.185   0.407
10455SOL     OW32263   6.482   6.473   3.385
10455SOL    HW132264   6.528   6.388   3.358
10455SOL    HW232265   6.423   6.456   3.464
10456SOL     OW32266   2.928   6.560   0.957
10456SOL    HW132267   2.883   6.565   0.868
10456SOL    HW232268   2.929   6.651   0.999
10457SOL     OW32269   3.009   3.314   2.336
10457SOL    HW132270   2.939   3.382   2.316
10457SOL    HW232271   3.095   3.360   2.359
10458SOL     OW32272   6.955   1.750   6.311
10458SOL    HW132273   6.995   1.672   6.262
10458SOL    HW232274   6.865   1.771   6.273
10459SOL     OW32275   4.798   5.847   1.703
10459SOL    HW132276   4.885   5.812   1.669
10459SOL    HW232277   4.791   5.945   1.683
10460SOL     OW32278   0.846   4.184   2.041
10460SOL    HW132279   0.854   4.150   2.135
10460SOL    HW232280   0.762   4.238   2.033
10461SOL     OW32281   0.603   5.098   5.484
10461SOL    HW132282   0.677   5.142   5.434
10461SOL    HW232283   0.547   5.168   5.530
10462SOL     OW32284   6.131   1.751   3.400
10462SOL    HW132285   6.065   1.679   3.421
10462SOL    HW232286   6.160   1.796   3.484
10463SOL     OW32287   3.906   2.791   5.802
10463SOL    HW132288   3.934   2.884   5.827
10463SOL    HW232289   3.934   2.772   5.708
10464SOL     OW32290   6.463   6.842   1.231
10464SOL    HW132291   6.562   6.845   1.246
10464SOL    HW232292   6.442   6.878   1.141
10465SOL     OW32293   6.346   5.637   1.478
10465SOL    HW132294   6.390   5.710   1.426
10465SOL    HW232295   6.253   5.623   1.443
10466SOL     OW32296   4.581   5.289   6.597
10466SOL    HW132297   4.554   5.215   6.659
10466SOL    HW232298   4.505   5.354   6.588
10467SOL     OW32299   2.160   1.920   6.200
10467SOL    HW132300   2.226   1.916   6.275
10467SOL    HW232301   2.078   1.967   6.231
10468SOL     OW32302   3.771   4.932   3.107
10468SOL    HW132303   3.680   4.893   3.094
10468SOL    HW232304   3.835   4.891   3.041
10469SOL     OW32305   3.928   3.472   5.396
10469SOL    HW132306   4.015   3.520   5.402
10469SOL    HW232307   3.860   3.530   5.352
10470SOL     OW32308   2.647   2.355   3.733
10470SOL    HW132309   2.651   2.262   3.771
10470SOL    HW232310   2.664   2.422   3.805
10471SOL     OW32311   2.669   1.966   1.128
10471SOL    HW132312   2.750   2.016   1.096
10471SOL    HW232313   2.633   1.911   1.053
10472SOL     OW32314   3.712   5.473   0.219
10472SOL    HW132315   3.635   5.420   0.185
10472SOL    HW232316   3.776   5.491   0.144
10473SOL     OW32317   6.778   0.602   6.757
10473SOL    HW132318   6.836   0.662   6.702
10473SOL    HW232319   6.710   0.557   6.699
10474SOL     OW32320   4.765   1.893   4.524
10474SOL    HW132321   4.709   1.914   4.443
10474SOL    HW232322   4.817   1.809   4.507
10475SOL     OW32323   4.875   6.928   2.141
10475SOL    HW132324   4.930   6.921   2.224
10475SOL    HW232325   4.870   7.024   2.112
10476SOL     OW32326   6.827   6.380   6.868
10476SOL    HW132327   6.830   6.324   6.786
10476SOL    HW232328   6.914   6.429   6.878
10477SOL     OW32329   6.708   1.896   4.043
10477SOL    HW132330   6.639   1.964   4.017
10477SOL    HW232331   6.676   1.805   4.018
10478SOL     OW32332   0.322   0.666   0.811
10478SOL    HW132333   0.285   0.644   0.720
10478SOL    HW232334   0.282   0.751   0.844
10479SOL     OW32335   0.449   2.480   1.077
10479SOL    HW132336   0.472   2.421   1.154
10479SOL    HW232337   0.448   2.575   1.106
10480SOL     OW32338   6.275   0.463   1.958
10480SOL    HW132339   6.194   0.436   2.010
10480SOL    HW232340   6.275   0.415   1.870
10481SOL     OW32341   2.715   6.805   4.498
10481SOL    HW132342   2.648   6.864   4.543
10481SOL    HW232343   2.672   6.718   4.473
10482SOL     OW32344   6.703   5.761   4.981
10482SOL    HW132345   6.678   5.858   4.978
10482SOL    HW232346   6.780   5.744   4.920
10483SOL     OW32347   6.937   5.276   0.449
10483SOL    HW132348   6.846   5.236   0.449
10483SOL    HW232349   6.940   5.354   0.386
10484SOL     OW32350   6.147   1.503   1.783
10484SOL    HW132351   6.180   1.411   1.807
10484SOL    HW232352   6.154   1.563   1.863
10485SOL     OW32353   3.440   4.053   1.755
10485SOL    HW132354   3.526   4.031   1.800
10485SOL    HW232355   3.365   4.043   1.821
10486SOL     OW32356   6.701   0.753   5.709
10486SOL    HW132357   6.675   0.761   5.805
10486SOL    HW232358   6.751   0.667   5.695
10487SOL     OW32359   4.502   1.982   1.983
10487SOL    HW132360   4.596   1.973   1.948
10487SOL    HW232361   4.497   2.063   2.042
10488SOL     OW32362   2.256   1.623   5.624
10488SOL    HW132363   2.300   1.688   5.685
10488SOL    HW232364   2.319   1.547   5.606
10489SOL     OW32365   6.264   6.747   4.197
10489SOL    HW132366   6.233   6.653   4.210
10489SOL    HW232367   6.219   6.807   4.263
10490SOL     OW32368   6.020   1.720   0.790
10490SOL    HW132369   6.059   1.653   0.728
10490SOL    HW232370   5.935   1.755   0.752
10491SOL     OW32371   2.636   1.798   5.304
10491SOL    HW132372   2.575   1.863   5.259
10491SOL    HW232373   2.696   1.756   5.236
10492SOL     OW32374   5.039   6.254   1.586
10492SOL    HW132375   5.076   6.271   1.495
10492SOL    HW232376   5.000   6.339   1.623
10493SOL     OW32377   2.763   6.443   2.091
10493SOL    HW132378   2.721   6.458   2.181
10493SOL    HW232379   2.818   6.522   2.066
10494SOL     OW32380   5.472   4.266   6.366
10494SOL    HW132381   5.524   4.330   6.309
10494SOL    HW232382   5.499   4.173   6.343
10495SOL     OW32383   0.194   0.359   0.672
10495SOL    HW132384   0.276   0.307   0.646
10495SOL    HW232385   0.196   0.449   0.627
10496SOL     OW32386   6.144   4.470   6.418
10496SOL    HW132387   6.243   4.476   6.432
10496SOL    HW232388   6.097   4.525   6.486
10497SOL     OW32389   1.295   6.498   2.065
10497SOL    HW132390   1.242   6.519   1.983
10497SOL    HW232391   1.317   6.583   2.113
10498SOL     OW32392   5.721   5.282   0.882
10498SOL    HW132393   5.727   5.233   0.795
10498SOL    HW232394   5.791   5.249   0.945
10499SOL     OW32395   4.844   0.938   1.977
10499SOL    HW132396   4.893   0.893   2.051
10499SOL    HW232397   4.846   1.037   1.990
10500SOL     OW32398   5.911   1.732   5.386
10500SOL    HW132399   5.863   1.664   5.330
10500SOL    HW232400   5.855   1.814   5.393
10501SOL     OW32401   2.530   5.275   1.836
10501SOL    HW132402   2.624   5.307   1.847
10501SOL    HW232403   2.526   5.178   1.858
10502SOL     OW32404   3.198   3.165   1.142
10502SOL    HW132405   3.221   3.261   1.129
10502SOL    HW232406   3.265   3.108   1.093
10503SOL     OW32407   5.776   3.411   0.614
10503SOL    HW132408   5.693   3.360   0.637
10503SOL    HW232409   5.821   3.369   0.535
10504SOL     OW32410   0.063   3.124   5.439
10504SOL    HW132411   0.100   3.211   5.471
10504SOL    HW232412   0.011   3.081   5.513
10505SOL     OW32413   5.825   5.450   1.296
10505SOL    HW132414   5.855   5.412   1.208
10505SOL    HW232415   5.903   5.488   1.345
10506SOL     OW32416   1.116   3.897   0.303
10506SOL    HW132417   1.040   3.945   0.347
10506SOL    HW232418   1.081   3.817   0.253
10507SOL     OW32419   1.944   5.412   0.492
10507SOL    HW132420   1.855   5.438   0.455
10507SOL    HW232421   1.933   5.378   0.585
10508SOL     OW32422   6.916   5.731   4.847
10508SOL    HW132423   6.940   5.636   4.826
10508SOL    HW232424   6.990   5.791   4.817
10509SOL     OW32425   6.491   4.918   5.006
10509SOL    HW132426   6.419   4.865   5.051
10509SOL    HW232427   6.567   4.858   4.983
10510SOL     OW32428   4.605   6.405   0.136
10510SOL    HW132429   4.662   6.483   0.110
10510SOL    HW232430   4.629   6.377   0.229
10511SOL     OW32431   3.123   0.854   2.465
10511SOL    HW132432   3.118   0.851   2.564
10511SOL    HW232433   3.205   0.904   2.436
10512SOL     OW32434   3.531   0.950   6.107
10512SOL    HW132435   3.464   0.998   6.051
10512SOL    HW232436   3.488   0.874   6.154
10513SOL     OW32437   6.846   3.192   3.284
10513SOL    HW132438   6.770   3.172   3.346
10513SOL    HW232439   6.871   3.109   3.234
10514SOL     OW32440   0.827   2.566   1.692
10514SOL    HW132441   0.845   2.645   1.633
10514SOL    HW232442   0.733   2.534   1.677
10515SOL     OW32443   1.818   3.567   4.583
10515SOL    HW132444   1.835   3.665   4.576
10515SOL    HW232445   1.842   3.523   4.496
10516SOL     OW32446   2.848   1.577   0.351
10516SOL    HW132447   2.904   1.645   0.303
10516SOL    HW232448   2.870   1.579   0.449
10517SOL     OW32449   0.892   3.577   1.599
10517SOL    HW132450   0.925   3.483   1.588
10517SOL    HW232451   0.954   3.627   1.660
10518SOL     OW32452   6.966   6.271   1.711
10518SOL    HW132453   7.019   6.337   1.657
10518SOL    HW232454   0.002   6.223   1.774
10519SOL     OW32455   3.070   3.707   0.738
10519SOL    HW132456   3.038   3.754   0.656
10519SOL    HW232457   3.033   3.614   0.738
10520SOL     OW32458   0.410   2.831   5.765
10520SOL    HW132459   0.369   2.841   5.856
10520SOL    HW232460   0.394   2.914   5.712
10521SOL     OW32461   0.156   5.509   1.295
10521SOL    HW132462   0.099   5.444   1.347
10521SOL    HW232463   0.188   5.581   1.356
10522SOL     OW32464   6.997   2.460   4.016
10522SOL    HW132465   0.068   2.452   3.987
10522SOL    HW232466   6.978   2.391   4.087
10523SOL     OW32467   0.884   5.005   2.964
10523SOL    HW132468   0.818   5.039   3.031
10523SOL    HW232469   0.848   5.018   2.872
10524SOL     OW32470   6.751   6.312   4.256
10524SOL    HW132471   6.725   6.376   4.184
10524SOL    HW232472   6.843   6.336   4.290
10525SOL     OW32473   3.480   0.856   4.980
10525SOL    HW132474   3.522   0.819   4.897
10525SOL    HW232475   3.409   0.921   4.955
10526SOL     OW32476   1.072   0.010   1.544
10526SOL    HW132477   0.997   7.006   1.604
10526SOL    HW232478   1.062   0.107   1.521
10527SOL     OW32479   1.322   0.933   5.632
10527SOL    HW132480   1.273   0.974   5.709
10527SOL    HW232481   1.335   0.836   5.649
10528SOL     OW32482   1.479   4.364   6.383
10528SOL    HW132483   1.452   4.410   6.468
10528SOL    HW232484   1.575   4.336   6.389
10529SOL     OW32485   2.304   5.947   4.387
10529SOL    HW132486   2.403   5.957   4.375
10529SOL    HW232487   2.273   6.009   4.459
10530SOL     OW32488   1.307   6.577   6.129
10530SOL    HW132489   1.229   6.636   6.147
10530SOL    HW232490   1.330   6.526   6.212
10531SOL     OW32491   2.032   2.117   4.230
10531SOL    HW132492   2.083   2.177   4.292
10531SOL    HW232493   1.951   2.165   4.197
10532SOL     OW32494   0.432   6.683   6.298
10532SOL    HW132495   0.412   6.690   6.201
10532SOL    HW232496   0.530   6.664   6.311
10533SOL     OW32497   2.887   6.099   3.318
10533SOL    HW132498   2.875   6.003   3.291
10533SOL    HW232499   2.859   6.109   3.414
10534SOL     OW32500   6.410   4.837   2.041
10534SOL    HW132501   6.497   4.797   2.069
10534SOL    HW232502   6.426   4.904   1.969
10535SOL     OW32503   2.180   1.556   2.658
10535SOL    HW132504   2.125   1.633   2.626
10535SOL    HW232505   2.199   1.567   2.756
10536SOL     OW32506   4.223   1.115   4.183
10536SOL    HW132507   4.289   1.189   4.193
10536SOL    HW232508   4.214   1.066   4.270
10537SOL     OW32509   4.713   6.752   4.176
10537SOL    HW132510   4.684   6.684   4.108
10537SOL    HW232511   4.638   6.770   4.239
10538SOL     OW32512   6.676   3.346   0.567
10538SOL    HW132513   6.599   3.296   0.607
10538SOL    HW232514   6.651   3.378   0.476
10539SOL     OW32515   6.278   5.566   1.156
10539SOL    HW132516   6.366   5.599   1.189
10539SOL    HW232517   6.284   5.547   1.058
10540SOL     OW32518   1.784   2.666   5.487
10540SOL    HW132519   1.838   2.639   5.566
10540SOL    HW232520   1.785   2.765   5.478
10541SOL     OW32521   4.031   3.908   2.211
10541SOL    HW132522   3.982   3.886   2.127
10541SOL    HW232523   4.117   3.953   2.189
10542SOL     OW32524   6.975   0.847   5.132
10542SOL    HW132525   6.961   0.753   5.166
10542SOL    HW232526   0.045   0.857   5.100
10543SOL     OW32527   1.245   1.666   4.140
10543SOL    HW132528   1.225   1.753   4.095
10543SOL    HW232529   1.344   1.658   4.155
10544SOL     OW32530   2.371   6.455   2.081
10544SOL    HW132531   2.296   6.392   2.059
10544SOL    HW232532   2.456   6.403   2.089
10545SOL     OW32533   1.083   2.524   1.579
10545SOL    HW132534   1.108   2.615   1.610
10545SOL    HW232535   1.017   2.484   1.643
10546SOL     OW32536   2.974   6.212   0.164
10546SOL    HW132537   2.907   6.250   0.100
10546SOL    HW232538   2.942   6.124   0.198
10547SOL     OW32539   5.507   3.067   3.541
10547SOL    HW132540   5.479   3.003   3.469
10547SOL    HW232541   5.425   3.109   3.580
10548SOL     OW32542   0.039   4.486   4.133
10548SOL    HW132543   0.110   4.456   4.198
10548SOL    HW232544   6.974   4.480   4.176
10549SOL     OW32545   0.770   1.330   0.872
10549SOL    HW132546   0.671   1.343   0.865
10549SOL    HW232547   0.794   1.240   0.837
10550SOL     OW32548   4.582   6.399   3.636
10550SOL    HW132549   4.668   6.451   3.633
10550SOL    HW232550   4.585   6.325   3.569
10551SOL     OW32551   1.599   2.017   0.004
10551SOL    HW132552   1.511   2.033   0.048
10551SOL    HW232553   1.668   1.997   0.074
10552SOL     OW32554   1.889   0.731   5.477
10552SOL    HW132555   1.829   0.661   5.437
10552SOL    HW232556   1.860   0.749   5.571
10553SOL     OW32557   0.639   4.715   1.083
10553SOL    HW132558   0.567   4.650   1.059
10553SOL    HW232559   0.725   4.667   1.098
10554SOL     OW32560   4.894   5.432   1.426
10554SOL    HW132561   4.907   5.338   1.460
10554SOL    HW232562   4.895   5.495   1.503
10555SOL     OW32563   2.468   2.642   0.646
10555SOL    HW132564   2.450   2.706   0.571
10555SOL    HW232565   2.455   2.688   0.734
10556SOL     OW32566   2.109   1.106   3.940
10556SOL    HW132567   2.078   1.116   4.034
10556SOL    HW232568   2.031   1.085   3.881
10557SOL     OW32569   2.049   2.773   3.621
10557SOL    HW132570   2.097   2.780   3.708
10557SOL    HW232571   1.956   2.738   3.638
10558SOL     OW32572   4.081   5.946   5.648
10558SOL    HW132573   4.050   5.966   5.555
10558SOL    HW232574   4.009   5.898   5.698
10559SOL     OW32575   4.089   0.463   1.644
10559SOL    HW132576   4.102   0.440   1.741
10559SOL    HW232577   4.168   0.432   1.592
10560SOL     OW32578   4.827   0.282   3.088
10560SOL    HW132579   4.820   0.255   2.992
10560SOL    HW232580   4.764   0.227   3.143
10561SOL     OW32581   3.690   4.368   1.720
10561SOL    HW132582   3.607   4.319   1.695
10561SOL    HW232583   3.667   4.446   1.778
10562SOL     OW32584   4.495   5.356   0.162
10562SOL    HW132585   4.418   5.416   0.140
10562SOL    HW232586   4.502   5.345   0.261
10563SOL     OW32587   0.998   0.622   2.400
10563SOL    HW132588   0.985   0.591   2.495
10563SOL    HW232589   1.043   0.711   2.400
10564SOL     OW32590   5.473   6.551   3.726
10564SOL    HW132591   5.446   6.585   3.816
10564SOL    HW232592   5.522   6.622   3.676
10565SOL     OW32593   6.719   6.468   5.782
10565SOL    HW132594   6.674   6.474   5.693
10565SOL    HW232595   6.816   6.450   5.770
10566SOL     OW32596   3.688   1.744   6.490
10566SOL    HW132597   3.772   1.797   6.500
10566SOL    HW232598   3.693   1.690   6.406
10567SOL     OW32599   2.002   2.539   5.677
10567SOL    HW132600   2.002   2.506   5.771
10567SOL    HW232601   2.095   2.536   5.640
10568SOL     OW32602   6.491   3.154   0.684
10568SOL    HW132603   6.568   3.090   0.685
10568SOL    HW232604   6.412   3.110   0.641
10569SOL     OW32605   5.965   0.947   2.461
10569SOL    HW132606   5.973   0.850   2.435
10569SOL    HW232607   5.885   0.958   2.522
10570SOL     OW32608   1.422   4.752   3.820
10570SOL    HW132609   1.446   4.715   3.910
10570SOL    HW232610   1.326   4.733   3.801
10571SOL     OW32611   0.291   4.624   5.110
10571SOL    HW132612   0.312   4.550   5.046
10571SOL    HW232613   0.244   4.587   5.190
10572SOL     OW32614   6.847   4.436   2.284
10572SOL    HW132615   6.780   4.363   2.269
10572SOL    HW232616   6.811   4.501   2.351
10573SOL     OW32617   5.329   1.000   4.878
10573SOL    HW132618   5.314   0.955   4.790
10573SOL    HW232619   5.409   1.060   4.872
10574SOL     OW32620   0.985   1.511   4.074
10574SOL    HW132621   1.073   1.555   4.091
10574SOL    HW232622   0.986   1.418   4.110
10575SOL     OW32623   0.116   0.616   3.995
10575SOL    HW132624   0.095   0.549   3.923
10575SOL    HW232625   0.034   0.667   4.019
10576SOL     OW32626   0.757   5.769   4.097
10576SOL    HW132627   0.854   5.744   4.104
10576SOL    HW232628   0.708   5.700   4.044
10577SOL     OW32629   1.761   4.481   0.409
10577SOL    HW132630   1.800   4.403   0.458
10577SOL    HW232631   1.793   4.566   0.451
10578SOL     OW32632   3.759   1.463   3.159
10578SOL    HW132633   3.816   1.467   3.077
10578SOL    HW232634   3.818   1.461   3.240
10579SOL     OW32635   4.214   2.749   1.652
10579SOL    HW132636   4.153   2.681   1.694
10579SOL    HW232637   4.306   2.712   1.647
10580SOL     OW32638   6.535   6.711   6.166
10580SOL    HW132639   6.463   6.775   6.191
10580SOL    HW232640   6.516   6.621   6.206
10581SOL     OW32641   5.801   0.343   3.055
10581SOL    HW132642   5.738   0.283   3.105
10581SOL    HW232643   5.878   0.367   3.115
10582SOL     OW32644   4.418   4.927   6.328
10582SOL    HW132645   4.367   4.896   6.408
10582SOL    HW232646   4.477   4.854   6.296
10583SOL     OW32647   4.508   1.096   3.993
10583SOL    HW132648   4.529   1.028   4.064
10583SOL    HW232649   4.458   1.172   4.034
10584SOL     OW32650   6.399   0.331   0.509
10584SOL    HW132651   6.351   0.368   0.429
10584SOL    HW232652   6.436   0.407   0.562
10585SOL     OW32653   2.811   1.745   5.092
10585SOL    HW132654   2.856   1.778   5.009
10585SOL    HW232655   2.879   1.733   5.165
10586SOL     OW32656   5.401   4.699   5.907
10586SOL    HW132657   5.376   4.663   5.996
10586SOL    HW232658   5.486   4.655   5.876
10587SOL     OW32659   6.791   5.375   6.857
10587SOL    HW132660   6.771   5.433   6.777
10587SOL    HW232661   6.707   5.363   6.910
10588SOL     OW32662   1.710   2.105   4.959
10588SOL    HW132663   1.637   2.135   4.898
10588SOL    HW232664   1.793   2.088   4.905
10589SOL     OW32665   5.507   1.036   4.577
10589SOL    HW132666   5.559   0.968   4.628
10589SOL    HW232667   5.561   1.119   4.567
10590SOL     OW32668   0.394   0.035   0.535
10590SOL    HW132669   0.296   0.031   0.514
10590SOL    HW232670   0.442   0.076   0.457
10591SOL     OW32671   2.336   2.275   0.139
10591SOL    HW132672   2.369   2.290   0.233
10591SOL    HW232673   2.409   2.234   0.085
10592SOL     OW32674   5.660   3.583   3.894
10592SOL    HW132675   5.659   3.675   3.933
10592SOL    HW232676   5.693   3.587   3.800
10593SOL     OW32677   3.098   5.966   1.088
10593SOL    HW132678   3.038   6.022   1.031
10593SOL    HW232679   3.193   5.997   1.077
10594SOL     OW32680   4.631   1.802   2.316
10594SOL    HW132681   4.547   1.749   2.307
10594SOL    HW232682   4.703   1.743   2.353
10595SOL     OW32683   5.819   6.855   0.375
10595SOL    HW132684   5.750   6.809   0.319
10595SOL    HW232685   5.776   6.929   0.427
10596SOL     OW32686   4.219   0.771   0.097
10596SOL    HW132687   4.138   0.716   0.116
10596SOL    HW232688   4.191   0.858   0.056
10597SOL     OW32689   3.510   1.212   5.711
10597SOL    HW132690   3.600   1.248   5.685
10597SOL    HW232691   3.439   1.259   5.658
10598SOL     OW32692   3.563   2.648   0.117
10598SOL    HW132693   3.631   2.575   0.116
10598SOL    HW232694   3.489   2.625   0.053
10599SOL     OW32695   5.119   3.379   6.597
10599SOL    HW132696   5.147   3.474   6.582
10599SOL    HW232697   5.183   3.335   6.661
10600SOL     OW32698   3.407   2.491   1.695
10600SOL    HW132699   3.329   2.497   1.632
10600SOL    HW232700   3.417   2.396   1.726
10601SOL     OW32701   1.248   4.652   5.868
10601SOL    HW132702   1.268   4.696   5.781
10601SOL    HW232703   1.328   4.600   5.899
10602SOL     OW32704   1.194   1.210   1.044
10602SOL    HW132705   1.207   1.278   0.972
10602SOL    HW232706   1.098   1.212   1.075
10603SOL     OW32707   4.198   6.793   3.478
10603SOL    HW132708   4.272   6.725   3.481
10603SOL    HW232709   4.112   6.749   3.503
10604SOL     OW32710   6.039   4.642   5.257
10604SOL    HW132711   5.984   4.726   5.255
10604SOL    HW232712   5.980   4.564   5.237
10605SOL     OW32713   1.971   6.021   0.161
10605SOL    HW132714   1.963   6.079   0.080
10605SOL    HW232715   2.058   5.971   0.158
10606SOL     OW32716   0.575   0.774   0.593
10606SOL    HW132717   0.486   0.802   0.629
10606SOL    HW232718   0.644   0.779   0.664
10607SOL     OW32719   4.138   4.468   6.664
10607SOL    HW132720   4.237   4.452   6.662
10607SOL    HW232721   4.095   4.413   6.592
10608SOL     OW32722   0.035   4.103   4.269
10608SOL    HW132723   0.057   4.151   4.184
10608SOL    HW232724   0.119   4.066   4.309
10609SOL     OW32725   2.921   6.947   6.965
10609SOL    HW132726   2.858   6.871   6.979
10609SOL    HW232727   3.010   6.912   6.935
10610SOL     OW32728   0.716   2.374   3.764
10610SOL    HW132729   0.724   2.431   3.682
10610SOL    HW232730   0.650   2.300   3.746
10611SOL     OW32731   2.976   4.573   6.457
10611SOL    HW132732   2.937   4.525   6.379
10611SOL    HW232733   3.012   4.507   6.523
10612SOL     OW32734   4.316   2.034   4.274
10612SOL    HW132735   4.308   2.131   4.250
10612SOL    HW232736   4.307   2.024   4.373
10613SOL     OW32737   5.783   5.937   5.989
10613SOL    HW132738   5.820   5.952   6.081
10613SOL    HW232739   5.694   5.983   5.981
10614SOL     OW32740   4.815   1.603   4.495
10614SOL    HW132741   4.829   1.507   4.518
10614SOL    HW232742   4.779   1.611   4.402
10615SOL     OW32743   3.190   1.173   6.405
10615SOL    HW132744   3.164   1.077   6.394
10615SOL    HW232745   3.145   1.210   6.486
10616SOL     OW32746   2.203   6.850   7.002
10616SOL    HW132747   2.280   6.915   7.005
10616SOL    HW232748   2.238   6.759   6.978
10617SOL     OW32749   3.106   4.003   1.394
10617SOL    HW132750   3.074   4.095   1.371
10617SOL    HW232751   3.038   3.936   1.365
10618SOL     OW32752   1.486   4.493   5.984
10618SOL    HW132753   1.490   4.578   6.037
10618SOL    HW232754   1.479   4.415   6.046
10619SOL     OW32755   0.168   2.682   3.489
10619SOL    HW132756   0.071   2.661   3.500
10619SOL    HW232757   0.181   2.741   3.410
10620SOL     OW32758   1.179   0.212   4.851
10620SOL    HW132759   1.119   0.133   4.864
10620SOL    HW232760   1.164   0.279   4.924
10621SOL     OW32761   0.855   4.809   1.633
10621SOL    HW132762   0.834   4.725   1.683
10621SOL    HW232763   0.934   4.793   1.573
10622SOL     OW32764   4.561   1.973   2.521
10622SOL    HW132765   4.589   1.907   2.452
10622SOL    HW232766   4.522   1.925   2.600
10623SOL     OW32767   6.786   5.293   5.955
10623SOL    HW132768   6.800   5.325   5.861
10623SOL    HW232769   6.690   5.267   5.967
10624SOL     OW32770   0.568   2.772   5.289
10624SOL    HW132771   0.642   2.831   5.322
10624SOL    HW232772   0.483   2.826   5.283
10625SOL     OW32773   0.944   4.464   1.378
10625SOL    HW132774   0.869   4.419   1.330
10625SOL    HW232775   0.971   4.410   1.457
10626SOL     OW32776   3.542   2.806   0.623
10626SOL    HW132777   3.509   2.782   0.532
10626SOL    HW232778   3.568   2.722   0.671
10627SOL     OW32779   5.874   1.790   0.006
10627SOL    HW132780   5.927   1.874   0.017
10627SOL    HW232781   5.923   1.727   6.970
10628SOL     OW32782   4.641   6.418   1.092
10628SOL    HW132783   4.633   6.499   1.035
10628SOL    HW232784   4.721   6.426   1.151
10629SOL     OW32785   2.689   5.137   4.654
10629SOL    HW132786   2.735   5.050   4.634
10629SOL    HW232787   2.669   5.142   4.752
10630SOL     OW32788   6.703   1.739   2.750
10630SOL    HW132789   6.612   1.699   2.751
10630SOL    HW232790   6.759   1.691   2.681
10631SOL     OW32791   3.840   4.913   5.138
10631SOL    HW132792   3.838   4.845   5.211
10631SOL    HW232793   3.848   5.005   5.178
10632SOL     OW32794   5.372   6.449   3.217
10632SOL    HW132795   5.459   6.406   3.240
10632SOL    HW232796   5.379   6.548   3.229
10633SOL     OW32797   2.753   2.651   1.541
10633SOL    HW132798   2.670   2.633   1.595
10633SOL    HW232799   2.790   2.565   1.508
10634SOL     OW32800   2.456   4.563   0.384
10634SOL    HW132801   2.463   4.492   0.455
10634SOL    HW232802   2.461   4.653   0.427
10635SOL     OW32803   2.001   3.935   6.734
10635SOL    HW132804   2.083   3.920   6.679
10635SOL    HW232805   1.943   3.854   6.729
10636SOL     OW32806   0.180   2.034   0.855
10636SOL    HW132807   0.248   2.103   0.882
10636SOL    HW232808   0.149   2.052   0.762
10637SOL     OW32809   0.717   4.799   6.156
10637SOL    HW132810   0.715   4.766   6.061
10637SOL    HW232811   0.804   4.845   6.173
10638SOL     OW32812   5.729   5.833   2.757
10638SOL    HW132813   5.716   5.929   2.783
10638SOL    HW232814   5.697   5.820   2.663
10639SOL     OW32815   1.020   3.864   3.147
10639SOL    HW132816   1.049   3.863   3.243
10639SOL    HW232817   1.092   3.823   3.091
10640SOL     OW32818   5.106   0.217   3.862
10640SOL    HW132819   5.068   0.209   3.954
10640SOL    HW232820   5.133   0.127   3.829
10641SOL     OW32821   2.591   1.833   2.298
10641SOL    HW132822   2.505   1.796   2.266
10641SOL    HW232823   2.609   1.802   2.391
10642SOL     OW32824   6.415   1.856   0.838
10642SOL    HW132825   6.506   1.896   0.846
10642SOL    HW232826   6.385   1.823   0.927
10643SOL     OW32827   2.145   5.657   4.508
10643SOL    HW132828   2.133   5.704   4.420
10643SOL    HW232829   2.135   5.723   4.582
10644SOL     OW32830   5.766   2.786   1.112
10644SOL    HW132831   5.790   2.858   1.046
10644SOL    HW232832   5.775   2.823   1.205
10645SOL     OW32833   1.772   2.547   4.470
10645SOL    HW132834   1.759   2.462   4.521
10645SOL    HW232835   1.718   2.543   4.386
10646SOL     OW32836   0.270   6.772   5.644
10646SOL    HW132837   0.270   6.673   5.660
10646SOL    HW232838   0.361   6.802   5.618
10647SOL     OW32839   3.096   5.709   4.629
10647SOL    HW132840   3.000   5.736   4.635
10647SOL    HW232841   3.137   5.751   4.548
10648SOL     OW32842   5.830   4.529   6.339
10648SOL    HW132843   5.819   4.620   6.298
10648SOL    HW232844   5.911   4.529   6.398
10649SOL     OW32845   0.635   4.280   3.125
10649SOL    HW132846   0.544   4.271   3.165
10649SOL    HW232847   0.686   4.195   3.141
10650SOL     OW32848   0.757   0.201   3.863
10650SOL    HW132849   0.669   0.155   3.877
10650SOL    HW232850   0.742   0.289   3.819
10651SOL     OW32851   6.043   6.408   0.043
10651SOL    HW132852   5.944   6.416   0.034
10651SOL    HW232853   6.081   6.369   6.983
10652SOL     OW32854   3.351   6.367   5.971
10652SOL    HW132855   3.393   6.304   6.037
10652SOL    HW232856   3.406   6.450   5.966
10653SOL     OW32857   4.599   5.668   4.579
10653SOL    HW132858   4.664   5.593   4.577
10653SOL    HW232859   4.636   5.743   4.634
10654SOL     OW32860   5.042   0.498   6.970
10654SOL    HW132861   5.035   0.569   6.900
10654SOL    HW232862   5.022   0.409   6.930
10655SOL     OW32863   2.222   5.424   0.338
10655SOL    HW132864   2.269   5.503   0.378
10655SOL    HW232865   2.149   5.394   0.399
10656SOL     OW32866   0.312   1.880   2.320
10656SOL    HW132867   0.225   1.839   2.294
10656SOL    HW232868   0.363   1.906   2.238
10657SOL     OW32869   5.832   0.233   5.195
10657SOL    HW132870   5.780   0.155   5.159
10657SOL    HW232871   5.769   0.300   5.233
10658SOL     OW32872   6.871   4.946   4.444
10658SOL    HW132873   6.917   4.890   4.513
10658SOL    HW232874   6.837   5.030   4.486
10659SOL     OW32875   0.729   5.716   1.074
10659SOL    HW132876   0.694   5.810   1.071
10659SOL    HW232877   0.765   5.697   1.166
10660SOL     OW32878   5.273   4.057   6.161
10660SOL    HW132879   5.195   4.069   6.223
10660SOL    HW232880   5.277   4.134   6.098
10661SOL     OW32881   1.129   6.970   1.256
10661SOL    HW132882   1.140   6.948   1.353
10661SOL    HW232883   1.046   6.927   1.221
10662SOL     OW32884   5.124   0.892   2.175
10662SOL    HW132885   5.124   0.804   2.129
10662SOL    HW232886   5.141   0.965   2.108
10663SOL     OW32887   0.836   1.887   2.527
10663SOL    HW132888   0.846   1.815   2.458
10663SOL    HW232889   0.771   1.857   2.597
10664SOL     OW32890   5.785   3.930   5.071
10664SOL    HW132891   5.728   3.964   4.996
10664SOL    HW232892   5.741   3.949   5.159
10665SOL     OW32893   0.773   1.850   0.214
10665SOL    HW132894   0.739   1.760   0.240
10665SOL    HW232895   0.747   1.917   0.284
10666SOL     OW32896   3.576   3.623   1.535
10666SOL    HW132897   3.631   3.664   1.608
10666SOL    HW232898   3.562   3.526   1.555
10667SOL     OW32899   4.785   2.794   4.025
10667SOL    HW132900   4.765   2.811   3.929
10667SOL    HW232901   4.860   2.728   4.032
10668SOL     OW32902   2.658   0.686   5.371
10668SOL    HW132903   2.749   0.723   5.386
10668SOL    HW232904   2.651   0.650   5.278
10669SOL     OW32905   5.428   0.413   1.687
10669SOL    HW132906   5.438   0.505   1.650
10669SOL    HW232907   5.391   0.418   1.781
10670SOL     OW32908   5.693   4.756   5.258
10670SOL    HW132909   5.691   4.854   5.277
10670SOL    HW232910   5.601   4.725   5.233
10671SOL     OW32911   2.173   2.001   3.425
10671SOL    HW132912   2.220   2.089   3.432
10671SOL    HW232913   2.079   2.011   3.460
10672SOL     OW32914   6.688   3.840   1.219
10672SOL    HW132915   6.634   3.903   1.162
10672SOL    HW232916   6.756   3.892   1.270
10673SOL     OW32917   0.819   0.643   6.745
10673SOL    HW132918   0.784   0.728   6.705
10673SOL    HW232919   0.756   0.611   6.816
10674SOL     OW32920   3.794   4.048   2.453
10674SOL    HW132921   3.716   4.075   2.398
10674SOL    HW232922   3.872   4.029   2.394
10675SOL     OW32923   1.894   6.489   6.877
10675SOL    HW132924   1.813   6.436   6.901
10675SOL    HW232925   1.965   6.475   6.946
10676SOL     OW32926   6.227   5.793   5.815
10676SOL    HW132927   6.298   5.858   5.842
10676SOL    HW232928   6.164   5.780   5.891
10677SOL     OW32929   1.609   0.960   1.284
10677SOL    HW132930   1.705   0.984   1.269
10677SOL    HW232931   1.552   1.005   1.215
10678SOL     OW32932   4.467   5.377   4.296
10678SOL    HW132933   4.426   5.333   4.376
10678SOL    HW232934   4.463   5.315   4.218
10679SOL     OW32935   4.687   5.624   6.574
10679SOL    HW132936   4.700   5.657   6.667
10679SOL    HW232937   4.662   5.527   6.575
10680SOL     OW32938   3.740   1.605   4.550
10680SOL    HW132939   3.837   1.628   4.543
10680SOL    HW232940   3.685   1.684   4.521
10681SOL     OW32941   0.864   3.896   1.009
10681SOL    HW132942   0.782   3.847   1.038
10681SOL    HW232943   0.936   3.831   0.987
10682SOL     OW32944   0.766   1.317   5.529
10682SOL    HW132945   0.842   1.275   5.579
10682SOL    HW232946   0.711   1.372   5.592
10683SOL     OW32947   3.765   2.083   4.077
10683SOL    HW132948   3.720   2.015   4.020
10683SOL    HW232949   3.846   2.119   4.030
10684SOL     OW32950   5.177   4.896   3.107
10684SOL    HW132951   5.138   4.848   3.185
10684SOL    HW232952   5.141   4.989   3.103
10685SOL     OW32953   0.784   5.699   1.948
10685SOL    HW132954   0.698   5.715   1.898
10685SOL    HW232955   0.765   5.693   2.046
10686SOL     OW32956   0.422   4.692   5.928
10686SOL    HW132957   0.512   4.730   5.948
10686SOL    HW232958   0.428   4.630   5.850
10687SOL     OW32959   5.390   5.998   3.506
10687SOL    HW132960   5.396   5.898   3.515
10687SOL    HW232961   5.393   6.023   3.409
10688SOL     OW32962   6.170   3.771   2.220
10688SOL    HW132963   6.122   3.843   2.269
10688SOL    HW232964   6.249   3.741   2.274
10689SOL     OW32965   6.917   6.038   3.462
10689SOL    HW132966   6.911   6.137   3.476
10689SOL    HW232967   6.846   5.993   3.516
10690SOL     OW32968   6.676   5.842   4.291
10690SOL    HW132969   6.762   5.863   4.337
10690SOL    HW232970   6.636   5.926   4.254
10691SOL     OW32971   0.747   2.528   1.996
10691SOL    HW132972   0.651   2.526   2.024
10691SOL    HW232973   0.802   2.475   2.061
10692SOL     OW32974   3.141   5.843   3.491
10692SOL    HW132975   3.129   5.749   3.459
10692SOL    HW232976   3.175   5.900   3.416
10693SOL     OW32977   2.177   5.852   0.212
10693SOL    HW132978   2.260   5.837   0.266
10693SOL    HW232979   2.146   5.766   0.174
10694SOL     OW32980   5.362   6.975   1.595
10694SOL    HW132981   5.389   6.879   1.585
10694SOL    HW232982   5.263   6.983   1.588
10695SOL     OW32983   0.375   2.438   2.281
10695SOL    HW132984   0.299   2.411   2.222
10695SOL    HW232985   0.342   2.497   2.354
10696SOL     OW32986   0.457   4.023   3.707
10696SOL    HW132987   0.451   4.027   3.807
10696SOL    HW232988   0.366   4.034   3.668
10697SOL     OW32989   6.518   5.802   5.184
10697SOL    HW132990   6.470   5.720   5.216
10697SOL    HW232991   6.582   5.776   5.112
10698SOL     OW32992   5.179   4.612   6.539
10698SOL    HW132993   5.267   4.566   6.523
10698SOL    HW232994   5.157   4.608   6.636
10699SOL     OW32995   4.161   3.802   1.779
10699SOL    HW132996   4.152   3.848   1.691
10699SOL    HW232997   4.225   3.726   1.770
10700SOL     OW32998   6.831   6.523   1.032
10700SOL    HW132999   6.772   6.547   1.110
10700SOL    HW233000   6.908   6.586   1.028
10701SOL     OW33001   3.572   6.068   0.112
10701SOL    HW133002   3.638   6.143   0.106
10701SOL    HW233003   3.492   6.099   0.164
10702SOL     OW33004   5.831   2.490   1.367
10702SOL    HW133005   5.819   2.565   1.302
10702SOL    HW233006   5.744   2.442   1.379
10703SOL     OW33007   3.168   3.112   4.918
10703SOL    HW133008   3.227   3.039   4.953
10703SOL    HW233009   3.129   3.163   4.995
10704SOL     OW33010   5.913   5.957   1.857
10704SOL    HW133011   5.893   6.034   1.795
10704SOL    HW233012   5.964   5.990   1.936
10705SOL     OW33013   5.916   4.449   2.256
10705SOL    HW133014   5.884   4.501   2.177
10705SOL    HW233015   5.951   4.512   2.325
10706SOL     OW33016   5.162   6.895   1.864
10706SOL    HW133017   5.216   6.818   1.830
10706SOL    HW233018   5.086   6.913   1.801
10707SOL     OW33019   0.182   6.617   4.482
10707SOL    HW133020   0.196   6.568   4.396
10707SOL    HW233021   0.097   6.586   4.525
10708SOL     OW33022   3.976   0.736   2.149
10708SOL    HW133023   3.901   0.798   2.126
10708SOL    HW233024   3.964   0.702   2.242
10709SOL     OW33025   5.895   6.154   5.538
10709SOL    HW133026   5.982   6.148   5.588
10709SOL    HW233027   5.886   6.245   5.498
10710SOL     OW33028   0.022   6.983   4.419
10710SOL    HW133029   0.037   6.913   4.349
10710SOL    HW233030   6.957   6.967   4.461
10711SOL     OW33031   1.601   6.072   4.241
10711SOL    HW133032   1.650   6.017   4.173
10711SOL    HW233033   1.503   6.069   4.221
10712SOL     OW33034   3.003   0.854   1.692
10712SOL    HW133035   2.930   0.785   1.701
10712SOL    HW233036   3.079   0.829   1.751
10713SOL     OW33037   0.345   3.494   1.688
10713SOL    HW133038   0.443   3.513   1.692
10713SOL    HW233039   0.310   3.482   1.781
10714SOL     OW33040   6.210   4.300   4.954
10714SOL    HW133041   6.278   4.309   4.881
10714SOL    HW233042   6.123   4.340   4.925
10715SOL     OW33043   5.336   0.846   2.557
10715SOL    HW133044   5.330   0.867   2.654
10715SOL    HW233045   5.323   0.748   2.544
10716SOL     OW33046   5.802   2.481   4.072
10716SOL    HW133047   5.901   2.478   4.090
10716SOL    HW233048   5.786   2.491   3.974
10717SOL     OW33049   0.991   1.963   1.025
10717SOL    HW133050   1.027   2.032   1.087
10717SOL    HW233051   0.942   1.893   1.077
10718SOL     OW33052   1.128   2.860   6.395
10718SOL    HW133053   1.216   2.848   6.348
10718SOL    HW233054   1.067   2.785   6.372
10719SOL     OW33055   6.134   6.085   2.066
10719SOL    HW133056   6.186   6.130   1.993
10719SOL    HW233057   6.059   6.143   2.095
10720SOL     OW33058   0.324   4.200   4.607
10720SOL    HW133059   0.291   4.130   4.543
10720SOL    HW233060   0.393   4.159   4.668
10721SOL     OW33061   5.513   4.248   4.625
10721SOL    HW133062   5.594   4.192   4.610
10721SOL    HW233063   5.451   4.239   4.547
10722SOL     OW33064   1.235   4.807   0.791
10722SOL    HW133065   1.292   4.884   0.762
10722SOL    HW233066   1.220   4.745   0.714
10723SOL     OW33067   0.682   4.004   6.460
10723SOL    HW133068   0.781   4.004   6.451
10723SOL    HW233069   0.656   4.016   6.556
10724SOL     OW33070   5.712   1.174   6.928
10724SOL    HW133071   5.762   1.099   6.885
10724SOL    HW233072   5.756   1.261   6.908
10725SOL     OW33073   1.049   4.732   4.939
10725SOL    HW133074   0.951   4.731   4.921
10725SOL    HW233075   1.069   4.794   5.015
10726SOL     OW33076   5.020   0.527   5.343
10726SOL    HW133077   5.076   0.597   5.387
10726SOL    HW233078   4.967   0.568   5.269
10727SOL     OW33079   0.257   4.864   4.753
10727SOL    HW133080   0.354   4.885   4.764
10727SOL    HW233081   0.231   4.791   4.817
10728SOL     OW33082   6.853   6.529   0.501
10728SOL    HW133083   6.822   6.605   0.559
10728SOL    HW233084   6.790   6.519   0.424
10729SOL     OW33085   5.419   1.429   2.082
10729SOL    HW133086   5.467   1.408   1.997
10729SOL    HW233087   5.428   1.526   2.102
10730SOL     OW33088   2.002   0.034   1.854
10730SOL    HW133089   1.910   0.001   1.876
10730SOL    HW233090   1.999   0.132   1.838
10731SOL     OW33091   3.194   6.385   0.560
10731SOL    HW133092   3.245   6.446   0.621
10731SOL    HW233093   3.114   6.349   0.609
10732SOL     OW33094   5.180   4.540   3.446
10732SOL    HW133095   5.204   4.615   3.507
10732SOL    HW233096   5.124   4.574   3.371
10733SOL     OW33097   5.711   2.550   6.857
10733SOL    HW133098   5.744   2.521   6.947
10733SOL    HW233099   5.741   2.643   6.839
10734SOL     OW33100   1.248   0.438   6.473
10734SOL    HW133101   1.205   0.514   6.424
10734SOL    HW233102   1.266   0.363   6.410
10735SOL     OW33103   1.372   3.840   2.800
10735SOL    HW133104   1.325   3.893   2.729
10735SOL    HW233105   1.362   3.743   2.782
10736SOL     OW33106   0.906   0.082   3.411
10736SOL    HW133107   0.931   0.105   3.505
10736SOL    HW233108   0.984   0.098   3.351
10737SOL     OW33109   1.738   2.128   6.820
10737SOL    HW133110   1.672   2.150   6.748
10737SOL    HW233111   1.691   2.085   6.897
10738SOL     OW33112   2.515   0.181   3.740
10738SOL    HW133113   2.454   0.109   3.774
10738SOL    HW233114   2.607   0.144   3.726
10739SOL     OW33115   0.491   1.384   0.886
10739SOL    HW133116   0.432   1.379   0.966
10739SOL    HW233117   0.447   1.339   0.809
10740SOL     OW33118   0.414   4.893   5.422
10740SOL    HW133119   0.481   4.967   5.421
10740SOL    HW233120   0.377   4.879   5.330
10741SOL     OW33121   0.393   0.210   2.421
10741SOL    HW133122   0.416   0.307   2.410
10741SOL    HW233123   0.417   0.181   2.514
10742SOL     OW33124   6.132   0.708   1.976
10742SOL    HW133125   6.046   0.742   1.938
10742SOL    HW233126   6.159   0.624   1.928
10743SOL     OW33127   3.300   2.232   5.353
10743SOL    HW133128   3.371   2.282   5.402
10743SOL    HW233129   3.242   2.296   5.302
10744SOL     OW33130   3.371   0.620   1.986
10744SOL    HW133131   3.378   0.528   1.945
10744SOL    HW233132   3.450   0.636   2.044
10745SOL     OW33133   0.828   5.232   0.629
10745SOL    HW133134   0.771   5.314   0.619
10745SOL    HW233135   0.884   5.220   0.547
10746SOL     OW33136   1.797   3.959   1.366
10746SOL    HW133137   1.705   3.941   1.331
10746SOL    HW233138   1.796   4.038   1.427
10747SOL     OW33139   4.541   0.923   3.240
10747SOL    HW133140   4.640   0.933   3.232
10747SOL    HW233141   4.496   1.008   3.211
10748SOL     OW33142   3.660   0.694   1.809
10748SOL    HW133143   3.589   0.753   1.771
10748SOL    HW233144   3.745   0.708   1.760
10749SOL     OW33145   6.827   4.995   3.232
10749SOL    HW133146   6.783   4.939   3.162
10749SOL    HW233147   6.837   5.089   3.198
10750SOL     OW33148   4.584   6.036   4.503
10750SOL    HW133149   4.504   5.986   4.469
10750SOL    HW233150   4.618   5.992   4.586
10751SOL     OW33151   1.458   4.357   4.206
10751SOL    HW133152   1.542   4.335   4.156
10751SOL    HW233153   1.381   4.356   4.143
10752SOL     OW33154   5.922   4.297   6.475
10752SOL    HW133155   6.015   4.333   6.482
10752SOL    HW233156   5.903   4.274   6.379
10753SOL     OW33157   3.985   6.683   4.394
10753SOL    HW133158   3.967   6.768   4.345
10753SOL    HW233159   4.001   6.703   4.491
10754SOL     OW33160   1.384   1.646   3.385
10754SOL    HW133161   1.430   1.722   3.340
10754SOL    HW233162   1.345   1.585   3.316
10755SOL     OW33163   0.322   1.440   6.657
10755SOL    HW133164   0.322   1.486   6.746
10755SOL    HW233165   0.305   1.506   6.585
10756SOL     OW33166   6.685   3.740   0.527
10756SOL    HW133167   6.720   3.762   0.618
10756SOL    HW233168   6.753   3.689   0.476
10757SOL     OW33169   0.904   2.978   0.293
10757SOL    HW133170   0.926   3.033   0.374
10757SOL    HW233171   0.989   2.957   0.244
10758SOL     OW33172   0.799   6.697   4.677
10758SOL    HW133173   0.761   6.790   4.672
10758SOL    HW233174   0.728   6.634   4.709
10759SOL     OW33175   1.392   3.298   7.009
10759SOL    HW133176   1.335   3.306   0.067
10759SOL    HW233177   1.464   3.231   0.001
10760SOL     OW33178   6.027   1.826   1.037
10760SOL    HW133179   5.980   1.768   1.103
10760SOL    HW233180   6.015   1.790   0.945
10761SOL     OW33181   0.939   1.679   6.339
10761SOL    HW133182   0.955   1.758   6.398
10761SOL    HW233183   0.994   1.688   6.256
10762SOL     OW33184   4.091   2.126   4.869
10762SOL    HW133185   4.135   2.215   4.883
10762SOL    HW233186   3.993   2.134   4.891
10763SOL     OW33187   4.623   6.299   1.480
10763SOL    HW133188   4.555   6.338   1.543
10763SOL    HW233189   4.671   6.373   1.432
10764SOL     OW33190   5.501   1.904   5.861
10764SOL    HW133191   5.586   1.853   5.850
10764SOL    HW233192   5.511   1.969   5.936
10765SOL     OW33193   5.710   2.518   0.827
10765SOL    HW133194   5.718   2.485   0.733
10765SOL    HW233195   5.763   2.460   0.888
10766SOL     OW33196   4.601   3.172   1.056
10766SOL    HW133197   4.649   3.101   1.005
10766SOL    HW233198   4.604   3.258   1.004
10767SOL     OW33199   0.786   0.437   0.233
10767SOL    HW133200   0.801   0.519   0.177
10767SOL    HW233201   0.749   0.463   0.321
10768SOL     OW33202   4.497   4.309   0.856
10768SOL    HW133203   4.408   4.289   0.814
10768SOL    HW233204   4.491   4.290   0.954
10769SOL     OW33205   2.487   4.877   4.508
10769SOL    HW133206   2.583   4.876   4.536
10769SOL    HW233207   2.464   4.791   4.462
10770SOL     OW33208   5.602   0.104   5.100
10770SOL    HW133209   5.506   0.110   5.127
10770SOL    HW233210   5.608   0.081   5.002
10771SOL     OW33211   5.044   1.315   3.253
10771SOL    HW133212   4.960   1.316   3.308
10771SOL    HW233213   5.097   1.398   3.272
10772SOL     OW33214   0.133   0.132   4.626
10772SOL    HW133215   0.177   0.217   4.598
10772SOL    HW233216   0.145   0.063   4.554
10773SOL     OW33217   6.954   5.630   7.004
10773SOL    HW133218   6.916   5.635   6.912
10773SOL    HW233219   6.894   5.574   0.037
10774SOL     OW33220   1.657   1.210   6.731
10774SOL    HW133221   1.563   1.185   6.752
10774SOL    HW233222   1.666   1.226   6.633
10775SOL     OW33223   0.762   3.578   1.159
10775SOL    HW133224   0.700   3.609   1.086
10775SOL    HW233225   0.747   3.635   1.241
10776SOL     OW33226   1.437   6.395   6.651
10776SOL    HW133227   1.504   6.469   6.662
10776SOL    HW233228   1.386   6.408   6.566
10777SOL     OW33229   4.010   5.867   2.979
10777SOL    HW133230   3.926   5.830   3.019
10777SOL    HW233231   4.011   5.966   2.989
10778SOL     OW33232   5.504   6.607   4.716
10778SOL    HW133233   5.515   6.688   4.772
10778SOL    HW233234   5.590   6.587   4.668
10779SOL     OW33235   6.561   4.867   3.454
10779SOL    HW133236   6.661   4.871   3.445
10779SOL    HW233237   6.527   4.784   3.410
10780SOL     OW33238   1.504   0.385   3.676
10780SOL    HW133239   1.472   0.308   3.621
10780SOL    HW233240   1.604   0.389   3.672
10781SOL     OW33241   4.305   0.598   3.703
10781SOL    HW133242   4.221   0.645   3.676
10781SOL    HW233243   4.289   0.500   3.705
10782SOL     OW33244   6.240   2.179   2.607
10782SOL    HW133245   6.314   2.112   2.619
10782SOL    HW233246   6.176   2.172   2.684
10783SOL     OW33247   0.649   3.294   3.119
10783SOL    HW133248   0.611   3.372   3.069
10783SOL    HW233249   0.748   3.293   3.110
10784SOL     OW33250   3.467   0.874   4.100
10784SOL    HW133251   3.437   0.802   4.162
10784SOL    HW233252   3.424   0.861   4.010
10785SOL     OW33253   6.949   5.574   1.936
10785SOL    HW133254   6.990   5.496   1.982
10785SOL    HW233255   7.020   5.627   1.890
10786SOL     OW33256   5.248   4.777   2.578
10786SOL    HW133257   5.289   4.824   2.656
10786SOL    HW233258   5.279   4.819   2.493
10787SOL     OW33259   2.450   1.606   4.609
10787SOL    HW133260   2.441   1.508   4.626
10787SOL    HW233261   2.469   1.621   4.512
10788SOL     OW33262   2.401   5.537   6.255
10788SOL    HW133263   2.461   5.458   6.267
10788SOL    HW233264   2.308   5.512   6.281
10789SOL     OW33265   6.277   2.934   6.629
10789SOL    HW133266   6.371   2.944   6.662
10789SOL    HW233267   6.214   2.943   6.706
10790SOL     OW33268   1.587   1.170   2.281
10790SOL    HW133269   1.668   1.199   2.231
10790SOL    HW233270   1.600   1.077   2.315
10791SOL     OW33271   0.646   6.812   7.003
10791SOL    HW133272   0.571   6.851   0.032
10791SOL    HW233273   0.608   6.756   6.929
10792SOL     OW33274   3.387   3.451   3.603
10792SOL    HW133275   3.369   3.549   3.612
10792SOL    HW233276   3.434   3.418   3.685
10793SOL     OW33277   5.721   3.175   4.382
10793SOL    HW133278   5.681   3.251   4.331
10793SOL    HW233279   5.649   3.111   4.408
10794SOL     OW33280   3.001   3.832   3.908
10794SOL    HW133281   2.933   3.821   3.981
10794SOL    HW233282   3.061   3.751   3.907
10795SOL     OW33283   6.794   4.162   2.686
10795SOL    HW133284   6.748   4.141   2.600
10795SOL    HW233285   6.873   4.221   2.669
10796SOL     OW33286   5.532   6.757   0.633
10796SOL    HW133287   5.521   6.780   0.536
10796SOL    HW233288   5.540   6.842   0.685
10797SOL     OW33289   4.182   1.883   1.532
10797SOL    HW133290   4.086   1.863   1.553
10797SOL    HW233291   4.199   1.981   1.542
10798SOL     OW33292   2.922   6.560   0.288
10798SOL    HW133293   2.894   6.499   0.363
10798SOL    HW233294   3.005   6.609   0.313
10799SOL     OW33295   4.056   0.673   2.413
10799SOL    HW133296   3.976   0.647   2.467
10799SOL    HW233297   4.081   0.768   2.434
10800SOL     OW33298   0.628   6.423   6.477
10800SOL    HW133299   0.661   6.515   6.459
10800SOL    HW233300   0.615   6.411   6.575
10801SOL     OW33301   0.549   6.075   6.316
10801SOL    HW133302   0.550   5.982   6.280
10801SOL    HW233303   0.641   6.114   6.310
10802SOL     OW33304   0.710   2.298   2.981
10802SOL    HW133305   0.805   2.324   2.971
10802SOL    HW233306   0.702   2.229   3.053
10803SOL     OW33307   3.357   4.111   5.769
10803SOL    HW133308   3.286   4.163   5.818
10803SOL    HW233309   3.314   4.043   5.710
10804SOL     OW33310   5.851   3.824   2.065
10804SOL    HW133311   5.763   3.783   2.038
10804SOL    HW233312   5.905   3.844   1.984
10805SOL     OW33313   3.888   0.186   6.954
10805SOL    HW133314   3.944   0.213   0.008
10805SOL    HW233315   3.910   0.093   6.927
10806SOL     OW33316   4.771   3.761   6.323
10806SOL    HW133317   4.867   3.742   6.343
10806SOL    HW233318   4.724   3.784   6.408
10807SOL     OW33319   1.414   6.879   1.896
10807SOL    HW133320   1.376   6.843   1.811
10807SOL    HW233321   1.469   6.808   1.941
10808SOL     OW33322   6.728   3.162   6.134
10808SOL    HW133323   6.778   3.113   6.063
10808SOL    HW233324   6.632   3.135   6.133
10809SOL     OW33325   2.972   5.854   3.694
10809SOL    HW133326   3.058   5.849   3.643
10809SOL    HW233327   2.991   5.847   3.792
10810SOL     OW33328   1.840   0.301   4.915
10810SOL    HW133329   1.891   0.281   4.998
10810SOL    HW233330   1.829   0.218   4.861
10811SOL     OW33331   4.084   4.363   5.579
10811SOL    HW133332   4.153   4.405   5.520
10811SOL    HW233333   4.127   4.293   5.636
10812SOL     OW33334   1.018   3.347   1.573
10812SOL    HW133335   0.976   3.279   1.514
10812SOL    HW233336   1.081   3.303   1.636
10813SOL     OW33337   2.137   5.082   6.524
10813SOL    HW133338   2.101   5.099   6.432
10813SOL    HW233339   2.194   5.159   6.552
10814SOL     OW33340   1.636   6.616   6.377
10814SOL    HW133341   1.729   6.582   6.387
10814SOL    HW233342   1.636   6.716   6.375
10815SOL     OW33343   4.132   4.810   3.834
10815SOL    HW133344   4.141   4.732   3.896
10815SOL    HW233345   4.207   4.808   3.768
10816SOL     OW33346   2.651   3.149   1.089
10816SOL    HW133347   2.703   3.064   1.078
10816SOL    HW233348   2.601   3.146   1.176
10817SOL     OW33349   4.664   6.777   2.928
10817SOL    HW133350   4.733   6.795   2.998
10817SOL    HW233351   4.708   6.757   2.841
10818SOL     OW33352   4.084   4.786   5.406
10818SOL    HW133353   3.985   4.775   5.401
10818SOL    HW233354   4.106   4.862   5.468
10819SOL     OW33355   6.796   4.595   0.078
10819SOL    HW133356   6.876   4.655   0.082
10819SOL    HW233357   6.819   4.512   0.027
10820SOL     OW33358   6.093   5.819   4.249
10820SOL    HW133359   6.042   5.753   4.305
10820SOL    HW233360   6.041   5.904   4.240
10821SOL     OW33361   5.636   0.334   1.918
10821SOL    HW133362   5.626   0.280   1.834
10821SOL    HW233363   5.554   0.324   1.974
10822SOL     OW33364   0.083   2.938   3.029
10822SOL    HW133365   0.092   3.030   3.067
10822SOL    HW233366   0.063   2.944   2.931
10823SOL     OW33367   1.581   5.946   1.519
10823SOL    HW133368   1.602   5.964   1.615
10823SOL    HW233369   1.490   5.904   1.512
10824SOL     OW33370   6.964   0.428   3.476
10824SOL    HW133371   6.968   0.332   3.503
10824SOL    HW233372   6.873   0.449   3.440
10825SOL     OW33373   2.548   0.872   6.746
10825SOL    HW133374   2.453   0.852   6.724
10825SOL    HW233375   2.553   0.949   6.808
10826SOL     OW33376   1.721   2.416   3.618
10826SOL    HW133377   1.656   2.483   3.582
10826SOL    HW233378   1.678   2.326   3.618
10827SOL     OW33379   6.024   3.663   4.538
10827SOL    HW133380   5.955   3.600   4.573
10827SOL    HW233381   6.018   3.666   4.438
10828SOL     OW33382   0.864   5.699   1.316
10828SOL    HW133383   0.817   5.757   1.382
10828SOL    HW233384   0.956   5.733   1.301
10829SOL     OW33385   3.849   2.140   1.043
10829SOL    HW133386   3.800   2.227   1.053
10829SOL    HW233387   3.815   2.076   1.112
10830SOL     OW33388   5.526   2.106   2.954
10830SOL    HW133389   5.540   2.199   2.990
10830SOL    HW233390   5.575   2.041   3.011
10831SOL     OW33391   3.722   5.449   2.388
10831SOL    HW133392   3.637   5.407   2.420
10831SOL    HW233393   3.744   5.527   2.446
10832SOL     OW33394   1.150   2.927   0.176
10832SOL    HW133395   1.178   2.864   0.249
10832SOL    HW233396   1.187   2.894   0.089
10833SOL     OW33397   1.897   0.991   1.910
10833SOL    HW133398   1.963   1.028   1.844
10833SOL    HW233399   1.865   0.902   1.879
10834SOL     OW33400   0.729   2.307   6.689
10834SOL    HW133401   0.649   2.256   6.723
10834SOL    HW233402   0.810   2.248   6.692
10835SOL     OW33403   6.383   1.834   6.712
10835SOL    HW133404   6.454   1.851   6.780
10835SOL    HW233405   6.302   1.888   6.734
10836SOL     OW33406   6.755   1.802   4.869
10836SOL    HW133407   6.724   1.760   4.954
10836SOL    HW233408   6.717   1.753   4.791
10837SOL     OW33409   6.760   4.781   0.889
10837SOL    HW133410   6.695   4.851   0.917
10837SOL    HW233411   6.728   4.736   0.806
10838SOL     OW33412   5.146   6.202   4.826
10838SOL    HW133413   5.091   6.123   4.851
10838SOL    HW233414   5.228   6.205   4.883
10839SOL     OW33415   4.457   3.110   1.634
10839SOL    HW133416   4.519   3.188   1.641
10839SOL    HW233417   4.501   3.029   1.675
10840SOL     OW33418   3.160   5.507   2.418
10840SOL    HW133419   3.248   5.553   2.406
10840SOL    HW233420   3.154   5.429   2.355
10841SOL     OW33421   5.748   5.425   6.984
10841SOL    HW133422   5.754   5.487   0.038
10841SOL    HW233423   5.663   5.442   6.935
10842SOL     OW33424   4.730   2.425   1.613
10842SOL    HW133425   4.807   2.365   1.592
10842SOL    HW233426   4.649   2.395   1.563
10843SOL     OW33427   1.383   2.930   1.554
10843SOL    HW133428   1.457   2.983   1.594
10843SOL    HW233429   1.420   2.856   1.498
10844SOL     OW33430   0.295   6.797   3.647
10844SOL    HW133431   0.278   6.755   3.558
10844SOL    HW233432   0.363   6.870   3.637
10845SOL     OW33433   3.470   0.170   5.239
10845SOL    HW133434   3.380   0.154   5.199
10845SOL    HW233435   3.485   0.269   5.248
10846SOL     OW33436   4.631   1.633   0.662
10846SOL    HW133437   4.610   1.535   0.663
10846SOL    HW233438   4.702   1.651   0.593
10847SOL     OW33439   3.455   3.155   6.453
10847SOL    HW133440   3.477   3.191   6.363
10847SOL    HW233441   3.424   3.229   6.513
10848SOL     OW33442   3.148   3.527   6.890
10848SOL    HW133443   3.156   3.623   6.864
10848SOL    HW233444   3.140   3.471   6.807
10849SOL     OW33445   2.320   6.278   2.758
10849SOL    HW133446   2.226   6.252   2.737
10849SOL    HW233447   2.368   6.301   2.673
10850SOL     OW33448   3.237   4.657   6.422
10850SOL    HW133449   3.145   4.629   6.450
10850SOL    HW233450   3.294   4.576   6.408
10851SOL     OW33451   1.978   2.979   6.593
10851SOL    HW133452   1.948   2.966   6.688
10851SOL    HW233453   2.078   2.979   6.589
10852SOL     OW33454   1.310   0.160   6.914
10852SOL    HW133455   1.249   0.175   6.992
10852SOL    HW233456   1.290   0.227   6.842
10853SOL     OW33457   2.392   1.745   5.833
10853SOL    HW133458   2.462   1.745   5.904
10853SOL    HW233459   2.395   1.832   5.784
10854SOL     OW33460   4.353   5.548   5.305
10854SOL    HW133461   4.314   5.505   5.387
10854SOL    HW233462   4.343   5.647   5.312
10855SOL     OW33463   3.022   6.736   0.662
10855SOL    HW133464   2.990   6.822   0.701
10855SOL    HW233465   3.105   6.707   0.709
10856SOL     OW33466   5.798   1.864   0.715
10856SOL    HW133467   5.711   1.832   0.678
10856SOL    HW233468   5.793   1.962   0.733
10857SOL     OW33469   6.776   2.622   2.105
10857SOL    HW133470   6.791   2.625   2.204
10857SOL    HW233471   6.714   2.697   2.079
10858SOL     OW33472   0.375   2.132   5.961
10858SOL    HW133473   0.470   2.138   5.930
10858SOL    HW233474   0.363   2.187   6.043
10859SOL     OW33475   2.162   3.362   3.955
10859SOL    HW133476   2.171   3.435   4.023
10859SOL    HW233477   2.155   3.274   4.001
10860SOL     OW33478   6.781   1.709   5.715
10860SOL    HW133479   6.734   1.797   5.724
10860SOL    HW233480   6.858   1.706   5.779
10861SOL     OW33481   3.779   3.378   2.704
10861SOL    HW133482   3.746   3.434   2.628
10861SOL    HW233483   3.847   3.313   2.670
10862SOL     OW33484   2.174   1.777   6.507
10862SOL    HW133485   2.248   1.838   6.477
10862SOL    HW233486   2.203   1.728   6.589
10863SOL     OW33487   3.753   0.523   3.687
10863SOL    HW133488   3.732   0.446   3.626
10863SOL    HW233489   3.743   0.493   3.782
10864SOL     OW33490   3.048   4.860   0.620
10864SOL    HW133491   3.029   4.765   0.644
10864SOL    HW233492   3.141   4.884   0.648
10865SOL     OW33493   6.853   1.642   2.541
10865SOL    HW133494   6.859   1.543   2.532
10865SOL    HW233495   6.944   1.682   2.533
10866SOL     OW33496   5.369   4.679   6.875
10866SOL    HW133497   5.458   4.674   6.921
10866SOL    HW233498   5.383   4.686   6.777
10867SOL     OW33499   3.418   3.832   0.688
10867SOL    HW133500   3.370   3.765   0.632
10867SOL    HW233501   3.361   3.914   0.698
10868SOL     OW33502   3.463   2.055   3.725
10868SOL    HW133503   3.384   1.995   3.718
10868SOL    HW233504   3.515   2.032   3.808
10869NA      NA33505   0.208   2.200   5.557
10870NA      NA33506   4.247   4.667   5.253
10871NA      NA33507   1.754   3.964   2.635
10872NA      NA33508   4.995   4.128   3.954
10873NA      NA33509   4.418   2.402   5.101
10874NA      NA33510   3.162   4.835   1.732
10875NA      NA33511   0.161   4.526   0.533
10876NA      NA33512   3.316   3.314   3.418
10877NA      NA33513   4.918   5.407   1.179
10878NA      NA33514   3.739   6.414   5.418
10879NA      NA33515   6.054   5.504   1.806
10880NA      NA33516   2.165   0.979   4.563
10881NA      NA33517   3.858   5.082   1.814
10882NA      NA33518   3.941   3.407   1.494
   7.02425   7.02425   7.02425
