Generated by trjconv : CNT in water t= 326.00000
33518
    1C        C    1   2.847   2.769   4.751
    1C        C    2   2.903   2.722   4.872
    1C        C    3   2.848   2.772   4.990
    1C        C    4   2.851   2.776   4.262
    1C        C    5   2.905   2.730   4.384
    1C        C    6   2.853   2.774   4.508
    1C        C    7   3.016   2.641   4.630
    1C        C    8   2.898   2.719   4.630
    1C        C    9   3.080   2.603   4.750
    1C        C   10   3.013   2.632   4.871
    1C        C   11   3.186   2.493   4.979
    1C        C   12   3.065   2.564   4.982
    1C        C   13   2.850   2.770   3.776
    1C        C   14   2.901   2.723   3.899
    1C        C   15   2.848   2.771   4.021
    1C        C   16   3.020   2.643   4.143
    1C        C   17   2.905   2.726   4.142
    1C        C   18   3.082   2.612   4.266
    1C        C   19   3.019   2.647   4.388
    1C        C   20   3.210   2.550   4.507
    1C        C   21   3.080   2.605   4.509
    1C        C   22   3.280   2.529   4.628
    1C        C   23   3.209   2.544   4.749
    1C        C   24   3.416   2.475   4.868
    1C        C   25   3.275   2.501   4.868
    1C        C   26   3.491   2.489   4.985
    1C        C   27   2.852   2.768   3.284
    1C        C   28   2.905   2.725   3.407
    1C        C   29   2.854   2.771   3.531
    1C        C   30   3.018   2.639   3.654
    1C        C   31   2.903   2.722   3.654
    1C        C   32   3.078   2.604   3.777
    1C        C   33   3.016   2.641   3.898
    1C        C   34   3.207   2.549   4.020
    1C        C   35   3.077   2.604   4.020
    1C        C   36   3.275   2.526   4.141
    1C        C   37   3.209   2.551   4.263
    1C        C   38   3.415   2.500   4.383
    1C        C   39   3.277   2.528   4.385
    1C        C   40   3.487   2.497   4.505
    1C        C   41   3.417   2.497   4.628
    1C        C   42   3.632   2.482   4.745
    1C        C   43   3.490   2.474   4.746
    1C        C   44   3.706   2.487   4.865
    1C        C   45   3.630   2.486   4.982
    1C        C   46   2.837   2.753   2.795
    1C        C   47   2.893   2.707   2.917
    1C        C   48   2.847   2.762   3.039
    1C        C   49   3.017   2.636   3.165
    1C        C   50   2.903   2.720   3.161
    1C        C   51   3.075   2.600   3.289
    1C        C   52   3.016   2.637   3.412
    1C        C   53   3.209   2.543   3.531
    1C        C   54   3.079   2.600   3.533
    1C        C   55   3.276   2.521   3.653
    1C        C   56   3.206   2.544   3.773
    1C        C   57   3.411   2.499   3.897
    1C        C   58   3.272   2.524   3.897
    1C        C   59   3.484   2.491   4.017
    1C        C   60   3.414   2.501   4.139
    1C        C   61   3.627   2.495   4.257
    1C        C   62   3.486   2.492   4.261
    1C        C   63   3.697   2.507   4.379
    1C        C   64   3.628   2.500   4.502
    1C        C   65   3.834   2.548   4.621
    1C        C   66   3.701   2.500   4.623
    1C        C   67   3.904   2.563   4.743
    1C        C   68   3.841   2.529   4.865
    1C        C   69   4.054   2.584   4.974
    1C        C   70   3.923   2.533   4.978
    1C        C   71   2.827   2.734   2.310
    1C        C   72   2.880   2.687   2.432
    1C        C   73   2.829   2.740   2.552
    1C        C   74   3.010   2.630   2.674
    1C        C   75   2.887   2.700   2.674
    1C        C   76   3.072   2.598   2.796
    1C        C   77   3.013   2.632   2.920
    1C        C   78   3.207   2.547   3.041
    1C        C   79   3.079   2.605   3.042
    1C        C   80   3.274   2.523   3.163
    1C        C   81   3.206   2.547   3.285
    1C        C   82   3.414   2.501   3.404
    1C        C   83   3.275   2.526   3.407
    1C        C   84   3.484   2.497   3.526
    1C        C   85   3.416   2.504   3.649
    1C        C   86   3.624   2.499   3.773
    1C        C   87   3.482   2.500   3.774
    1C        C   88   3.696   2.508   3.894
    1C        C   89   3.625   2.499   4.016
    1C        C   90   3.834   2.553   4.135
    1C        C   91   3.699   2.511   4.136
    1C        C   92   3.899   2.573   4.258
    1C        C   93   3.834   2.543   4.379
    1C        C   94   4.029   2.634   4.500
    1C        C   95   3.902   2.571   4.500
    1C        C   96   4.091   2.669   4.622
    1C        C   97   4.030   2.628   4.742
    1C        C   98   4.190   2.771   4.861
    1C        C   99   4.102   2.658   4.862
    1C        C  100   4.217   2.841   4.979
    1C        C  101   2.821   2.731   2.072
    1C        C  102   2.991   2.591   2.192
    1C        C  103   2.878   2.679   2.189
    1C        C  104   3.062   2.570   2.313
    1C        C  105   3.000   2.613   2.432
    1C        C  106   3.200   2.535   2.551
    1C        C  107   3.070   2.589   2.553
    1C        C  108   3.270   2.521   2.673
    1C        C  109   3.201   2.540   2.795
    1C        C  110   3.409   2.498   2.918
    1C        C  111   3.269   2.520   2.917
    1C        C  112   3.483   2.489   3.038
    1C        C  113   3.413   2.498   3.160
    1C        C  114   3.626   2.497   3.282
    1C        C  115   3.485   2.497   3.282
    1C        C  116   3.695   2.506   3.406
    1C        C  117   3.626   2.504   3.529
    1C        C  118   3.832   2.543   3.647
    1C        C  119   3.695   2.510   3.652
    1C        C  120   3.898   2.571   3.769
    1C        C  121   3.830   2.553   3.891
    1C        C  122   4.025   2.643   4.013
    1C        C  123   3.898   2.581   4.012
    1C        C  124   4.086   2.679   4.134
    1C        C  125   4.024   2.640   4.255
    1C        C  126   4.189   2.772   4.377
    1C        C  127   4.081   2.681   4.377
    1C        C  128   4.239   2.821   4.499
    1C        C  129   4.194   2.766   4.621
    1C        C  130   4.325   2.940   4.739
    1C        C  131   4.242   2.824   4.740
    1C        C  132   4.353   3.006   4.860
    1C        C  133   4.291   2.958   4.977
    1C        C  134   3.172   2.470   2.081
    1C        C  135   3.038   2.513   2.081
    1C        C  136   3.260   2.480   2.189
    1C        C  137   3.196   2.522   2.308
    1C        C  138   3.406   2.484   2.430
    1C        C  139   3.266   2.507   2.429
    1C        C  140   3.480   2.485   2.550
    1C        C  141   3.410   2.500   2.672
    1C        C  142   3.620   2.500   2.793
    1C        C  143   3.479   2.495   2.795
    1C        C  144   3.691   2.508   2.915
    1C        C  145   3.624   2.494   3.039
    1C        C  146   3.832   2.543   3.156
    1C        C  147   3.697   2.501   3.160
    1C        C  148   3.895   2.569   3.279
    1C        C  149   3.831   2.545   3.403
    1C        C  150   4.026   2.629   3.525
    1C        C  151   3.897   2.571   3.525
    1C        C  152   4.085   2.670   3.646
    1C        C  153   4.025   2.634   3.769
    1C        C  154   4.194   2.766   3.889
    1C        C  155   4.085   2.677   3.889
    1C        C  156   4.249   2.815   4.010
    1C        C  157   4.196   2.768   4.132
    1C        C  158   4.338   2.924   4.255
    1C        C  159   4.244   2.819   4.255
    1C        C  160   4.372   2.988   4.376
    1C        C  161   4.326   2.933   4.498
    1C        C  162   4.437   3.120   4.617
    1C        C  163   4.366   2.998   4.617
    1C        C  164   4.467   3.185   4.738
    1C        C  165   4.428   3.126   4.860
    1C        C  166   4.517   3.319   4.973
    1C        C  167   4.484   3.184   4.975
    1C        C  168   3.475   2.434   2.075
    1C        C  169   3.399   2.457   2.191
    1C        C  170   3.618   2.469   2.308
    1C        C  171   3.476   2.467   2.309
    1C        C  172   3.691   2.494   2.426
    1C        C  173   3.621   2.492   2.549
    1C        C  174   3.826   2.546   2.669
    1C        C  175   3.690   2.508   2.671
    1C        C  176   3.892   2.572   2.791
    1C        C  177   3.827   2.546   2.914
    1C        C  178   4.027   2.629   3.034
    1C        C  179   3.898   2.570   3.034
    1C        C  180   4.084   2.669   3.156
    1C        C  181   4.019   2.638   3.278
    1C        C  182   4.193   2.754   3.398
    1C        C  183   4.081   2.668   3.401
    1C        C  184   4.245   2.805   3.520
    1C        C  185   4.196   2.759   3.643
    1C        C  186   4.331   2.924   3.765
    1C        C  187   4.243   2.813   3.765
    1C        C  188   4.378   2.978   3.887
    1C        C  189   4.340   2.923   4.011
    1C        C  190   4.445   3.107   4.131
    1C        C  191   4.381   2.981   4.134
    1C        C  192   4.469   3.179   4.250
    1C        C  193   4.434   3.115   4.371
    1C        C  194   4.506   3.315   4.492
    1C        C  195   4.466   3.180   4.492
    1C        C  196   4.526   3.388   4.612
    1C        C  197   4.507   3.322   4.736
    1C        C  198   4.560   3.535   4.852
    1C        C  199   4.528   3.395   4.855
    1C        C  200   4.583   3.619   4.966
    1C        C  201   3.614   2.418   2.072
    1C        C  202   3.821   2.519   2.183
    1C        C  203   3.690   2.460   2.186
    1C        C  204   3.896   2.545   2.300
    1C        C  205   3.829   2.525   2.423
    1C        C  206   4.016   2.627   2.542
    1C        C  207   3.892   2.559   2.545
    1C        C  208   4.079   2.662   2.664
    1C        C  209   4.023   2.625   2.788
    1C        C  210   4.196   2.749   2.905
    1C        C  211   4.084   2.663   2.909
    1C        C  212   4.247   2.797   3.028
    1C        C  213   4.196   2.755   3.153
    1C        C  214   4.335   2.911   3.273
    1C        C  215   4.248   2.799   3.276
    1C        C  216   4.369   2.973   3.395
    1C        C  217   4.333   2.916   3.520
    1C        C  218   4.439   3.100   3.641
    1C        C  219   4.375   2.974   3.641
    1C        C  220   4.467   3.166   3.762
    1C        C  221   4.446   3.102   3.886
    1C        C  222   4.500   3.308   4.002
    1C        C  223   4.473   3.170   4.007
    1C        C  224   4.513   3.381   4.122
    1C        C  225   4.509   3.314   4.247
    1C        C  226   4.522   3.525   4.369
    1C        C  227   4.521   3.383   4.369
    1C        C  228   4.519   3.600   4.488
    1C        C  229   4.530   3.529   4.609
    1C        C  230   4.505   3.740   4.729
    1C        C  231   4.541   3.603   4.729
    1C        C  232   4.496   3.817   4.847
    1C        C  233   4.543   3.754   4.962
    1C        C  234   4.015   2.609   2.062
    1C        C  235   3.893   2.542   2.065
    1C        C  236   4.085   2.649   2.176
    1C        C  237   4.023   2.611   2.297
    1C        C  238   4.197   2.735   2.422
    1C        C  239   4.080   2.653   2.419
    1C        C  240   4.249   2.789   2.541
    1C        C  241   4.193   2.746   2.664
    1C        C  242   4.340   2.904   2.785
    1C        C  243   4.251   2.795   2.783
    1C        C  244   4.379   2.963   2.907
    1C        C  245   4.338   2.905   3.029
    1C        C  246   4.440   3.093   3.149
    1C        C  247   4.378   2.966   3.150
    1C        C  248   4.464   3.160   3.271
    1C        C  249   4.435   3.097   3.395
    1C        C  250   4.497   3.301   3.514
    1C        C  251   4.462   3.164   3.517
    1C        C  252   4.509   3.372   3.635
    1C        C  253   4.501   3.304   3.759
    1C        C  254   4.525   3.518   3.880
    1C        C  255   4.515   3.377   3.879
    1C        C  256   4.516   3.592   4.000
    1C        C  257   4.516   3.522   4.123
    1C        C  258   4.497   3.733   4.244
    1C        C  259   4.517   3.593   4.245
    1C        C  260   4.474   3.805   4.363
    1C        C  261   4.494   3.740   4.487
    1C        C  262   4.426   3.941   4.605
    1C        C  263   4.478   3.809   4.608
    1C        C  264   4.400   4.009   4.726
    1C        C  265   4.432   3.943   4.847
    1C        C  266   4.321   4.130   4.962
    1C        C  267   4.393   4.012   4.963
    1C        C  268   4.263   2.775   2.064
    1C        C  269   4.196   2.736   2.181
    1C        C  270   4.350   2.886   2.299
    1C        C  271   4.253   2.782   2.301
    1C        C  272   4.390   2.948   2.419
    1C        C  273   4.343   2.894   2.541
    1C        C  274   4.456   3.078   2.660
    1C        C  275   4.383   2.957   2.661
    1C        C  276   4.476   3.149   2.781
    1C        C  277   4.447   3.087   2.904
    1C        C  278   4.505   3.292   3.026
    1C        C  279   4.469   3.155   3.026
    1C        C  280   4.509   3.364   3.148
    1C        C  281   4.496   3.297   3.272
    1C        C  282   4.519   3.512   3.390
    1C        C  283   4.513   3.370   3.392
    1C        C  284   4.518   3.583   3.511
    1C        C  285   4.515   3.513   3.634
    1C        C  286   4.488   3.723   3.754
    1C        C  287   4.515   3.585   3.755
    1C        C  288   4.474   3.795   3.875
    1C        C  289   4.493   3.731   3.999
    1C        C  290   4.428   3.933   4.118
    1C        C  291   4.481   3.802   4.121
    1C        C  292   4.398   3.999   4.238
    1C        C  293   4.425   3.938   4.363
    1C        C  294   4.326   4.128   4.483
    1C        C  295   4.394   4.004   4.483
    1C        C  296   4.286   4.192   4.603
    1C        C  297   4.327   4.132   4.724
    1C        C  298   4.202   4.313   4.840
    1C        C  299   4.280   4.193   4.843
    1C        C  300   4.171   4.403   4.947
    1C        C  301   4.355   2.880   2.061
    1C        C  302   4.469   3.067   2.177
    1C        C  303   4.402   2.941   2.178
    1C        C  304   4.486   3.142   2.296
    1C        C  305   4.451   3.076   2.416
    1C        C  306   4.509   3.281   2.536
    1C        C  307   4.480   3.143   2.537
    1C        C  308   4.518   3.354   2.656
    1C        C  309   4.503   3.288   2.780
    1C        C  310   4.523   3.500   2.898
    1C        C  311   4.514   3.359   2.902
    1C        C  312   4.515   3.572   3.020
    1C        C  313   4.514   3.505   3.144
    1C        C  314   4.487   3.717   3.264
    1C        C  315   4.511   3.578   3.265
    1C        C  316   4.471   3.788   3.385
    1C        C  317   4.495   3.723   3.508
    1C        C  318   4.427   3.923   3.628
    1C        C  319   4.475   3.791   3.631
    1C        C  320   4.395   3.989   3.750
    1C        C  321   4.422   3.926   3.874
    1C        C  322   4.317   4.112   3.994
    1C        C  323   4.392   3.992   3.995
    1C        C  324   4.280   4.175   4.115
    1C        C  325   4.326   4.121   4.238
    1C        C  326   4.189   4.285   4.355
    1C        C  327   4.285   4.181   4.359
    1C        C  328   4.139   4.341   4.475
    1C        C  329   4.194   4.299   4.598
    1C        C  330   4.026   4.436   4.715
    1C        C  331   4.143   4.355   4.718
    1C        C  332   3.971   4.494   4.832
    1C        C  333   4.052   4.476   4.945
    1C        C  334   4.557   3.265   2.061
    1C        C  335   4.531   3.127   2.063
    1C        C  336   4.541   3.350   2.172
    1C        C  337   4.516   3.281   2.293
    1C        C  338   4.517   3.494   2.410
    1C        C  339   4.517   3.353   2.414
    1C        C  340   4.515   3.567   2.531
    1C        C  341   4.522   3.495   2.652
    1C        C  342   4.488   3.705   2.776
    1C        C  343   4.517   3.567   2.774
    1C        C  344   4.469   3.778   2.895
    1C        C  345   4.489   3.710   3.017
    1C        C  346   4.424   3.914   3.138
    1C        C  347   4.467   3.779   3.139
    1C        C  348   4.394   3.982   3.258
    1C        C  349   4.422   3.921   3.382
    1C        C  350   4.320   4.105   3.503
    1C        C  351   4.396   3.985   3.505
    1C        C  352   4.275   4.164   3.623
    1C        C  353   4.321   4.109   3.745
    1C        C  354   4.183   4.267   3.867
    1C        C  355   4.283   4.167   3.869
    1C        C  356   4.123   4.314   3.986
    1C        C  357   4.179   4.273   4.109
    1C        C  358   4.011   4.398   4.230
    1C        C  359   4.128   4.319   4.232
    1C        C  360   3.955   4.444   4.351
    1C        C  361   4.017   4.412   4.474
    1C        C  362   3.829   4.514   4.588
    1C        C  363   3.959   4.461   4.593
    1C        C  364   3.763   4.545   4.709
    1C        C  365   3.836   4.534   4.829
    1C        C  366   3.627   4.587   4.947
    1C        C  367   3.765   4.571   4.944
    1C        C  368   4.516   3.565   2.052
    1C        C  369   4.526   3.490   2.170
    1C        C  370   4.499   3.705   2.287
    1C        C  371   4.508   3.564   2.288
    1C        C  372   4.485   3.776   2.409
    1C        C  373   4.503   3.707   2.531
    1C        C  374   4.423   3.905   2.648
    1C        C  375   4.476   3.774   2.653
    1C        C  376   4.392   3.971   2.769
    1C        C  377   4.425   3.912   2.894
    1C        C  378   4.322   4.099   3.014
    1C        C  379   4.394   3.977   3.015
    1C        C  380   4.273   4.152   3.136
    1C        C  381   4.317   4.100   3.260
    1C        C  382   4.182   4.266   3.377
    1C        C  383   4.275   4.160   3.381
    1C        C  384   4.125   4.309   3.499
    1C        C  385   4.175   4.263   3.623
    1C        C  386   4.012   4.394   3.744
    1C        C  387   4.129   4.315   3.746
    1C        C  388   3.947   4.431   3.863
    1C        C  389   4.008   4.396   3.985
    1C        C  390   3.819   4.490   4.106
    1C        C  391   3.948   4.432   4.108
    1C        C  392   3.753   4.515   4.229
    1C        C  393   3.828   4.506   4.348
    1C        C  394   3.618   4.555   4.473
    1C        C  395   3.758   4.534   4.467
    1C        C  396   3.546   4.565   4.594
    1C        C  397   3.623   4.564   4.713
    1C        C  398   3.409   4.547   4.834
    1C        C  399   3.548   4.571   4.833
    1C        C  400   3.340   4.514   4.952
    1C        C  401   4.508   3.704   2.052
    1C        C  402   4.460   3.918   2.169
    1C        C  403   4.494   3.781   2.168
    1C        C  404   4.415   3.977   2.289
    1C        C  405   4.441   3.910   2.410
    1C        C  406   4.321   4.093   2.527
    1C        C  407   4.399   3.975   2.528
    1C        C  408   4.280   4.152   2.649
    1C        C  409   4.321   4.093   2.770
    1C        C  410   4.174   4.248   2.888
    1C        C  411   4.276   4.150   2.891
    1C        C  412   4.121   4.296   3.010
    1C        C  413   4.171   4.250   3.133
    1C        C  414   4.007   4.385   3.253
    1C        C  415   4.122   4.303   3.254
    1C        C  416   3.946   4.419   3.377
    1C        C  417   4.005   4.384   3.500
    1C        C  418   3.813   4.471   3.618
    1C        C  419   3.945   4.422   3.622
    1C        C  420   3.747   4.501   3.740
    1C        C  421   3.817   4.487   3.862
    1C        C  422   3.611   4.533   3.987
    1C        C  423   3.750   4.510   3.985
    1C        C  424   3.543   4.541   4.111
    1C        C  425   3.613   4.535   4.233
    1C        C  426   3.401   4.548   4.355
    1C        C  427   3.542   4.548   4.354
    1C        C  428   3.329   4.549   4.477
    1C        C  429   3.405   4.558   4.595
    1C        C  430   3.194   4.512   4.722
    1C        C  431   3.333   4.543   4.716
    1C        C  432   3.124   4.493   4.844
    1C        C  433   3.203   4.492   4.959
    1C        C  434   4.383   4.124   2.053
    1C        C  435   4.446   3.998   2.055
    1C        C  436   4.301   4.159   2.165
    1C        C  437   4.334   4.094   2.287
    1C        C  438   4.183   4.252   2.401
    1C        C  439   4.281   4.151   2.405
    1C        C  440   4.131   4.300   2.523
    1C        C  441   4.184   4.256   2.646
    1C        C  442   4.006   4.379   2.765
    1C        C  443   4.119   4.294   2.766
    1C        C  444   3.949   4.420   2.887
    1C        C  445   4.008   4.381   3.010
    1C        C  446   3.813   4.470   3.129
    1C        C  447   3.943   4.416   3.131
    1C        C  448   3.747   4.492   3.252
    1C        C  449   3.816   4.473   3.374
    1C        C  450   3.609   4.523   3.498
    1C        C  451   3.747   4.495   3.496
    1C        C  452   3.541   4.537   3.621
    1C        C  453   3.610   4.534   3.744
    1C        C  454   3.399   4.547   3.864
    1C        C  455   3.540   4.547   3.866
    1C        C  456   3.331   4.537   3.988
    1C        C  457   3.401   4.542   4.111
    1C        C  458   3.193   4.505   4.236
    1C        C  459   3.331   4.532   4.233
    1C        C  460   3.123   4.487   4.358
    1C        C  461   3.192   4.514   4.478
    1C        C  462   2.993   4.440   4.603
    1C        C  463   3.125   4.491   4.600
    1C        C  464   2.928   4.401   4.722
    1C        C  465   2.990   4.442   4.844
    1C        C  466   2.801   4.338   4.960
    1C        C  467   2.909   4.427   4.961
    1C        C  468   4.128   4.294   2.041
    1C        C  469   4.193   4.253   2.158
    1C        C  470   4.010   4.373   2.278
    1C        C  471   4.130   4.297   2.278
    1C        C  472   3.941   4.397   2.399
    1C        C  473   4.006   4.365   2.521
    1C        C  474   3.817   4.468   2.644
    1C        C  475   3.944   4.407   2.641
    1C        C  476   3.748   4.496   2.764
    1C        C  477   3.819   4.474   2.884
    1C        C  478   3.609   4.517   3.009
    1C        C  479   3.748   4.490   3.005
    1C        C  480   3.539   4.526   3.131
    1C        C  481   3.609   4.523   3.253
    1C        C  482   3.397   4.532   3.377
    1C        C  483   3.539   4.532   3.375
    1C        C  484   3.328   4.528   3.500
    1C        C  485   3.399   4.537   3.622
    1C        C  486   3.191   4.500   3.745
    1C        C  487   3.327   4.538   3.743
    1C        C  488   3.128   4.473   3.869
    1C        C  489   3.195   4.500   3.990
    1C        C  490   3.000   4.422   4.114
    1C        C  491   3.126   4.485   4.113
    1C        C  492   2.939   4.385   4.236
    1C        C  493   2.994   4.429   4.359
    1C        C  494   2.829   4.304   4.481
    1C        C  495   2.933   4.398   4.482
    1C        C  496   2.771   4.259   4.602
    1C        C  497   2.815   4.316   4.724
    1C        C  498   2.666   4.165   4.845
    1C        C  499   2.750   4.278   4.844
    1C        C  500   2.601   4.116   4.960
    1C        C  501   4.004   4.358   2.042
    1C        C  502   3.815   4.465   2.157
    1C        C  503   3.945   4.409   2.159
    1C        C  504   3.746   4.481   2.279
    1C        C  505   3.812   4.455   2.401
    1C        C  506   3.608   4.508   2.522
    1C        C  507   3.748   4.488   2.523
    1C        C  508   3.536   4.515   2.643
    1C        C  509   3.609   4.520   2.764
    1C        C  510   3.397   4.522   2.887
    1C        C  511   3.539   4.523   2.886
    1C        C  512   3.327   4.519   3.009
    1C        C  513   3.398   4.521   3.131
    1C        C  514   3.191   4.486   3.256
    1C        C  515   3.328   4.520   3.254
    1C        C  516   3.127   4.461   3.379
    1C        C  517   3.193   4.488   3.501
    1C        C  518   2.996   4.412   3.626
    1C        C  519   3.125   4.469   3.624
    1C        C  520   2.937   4.377   3.749
    1C        C  521   3.002   4.408   3.871
    1C        C  522   2.833   4.287   3.996
    1C        C  523   2.940   4.378   3.994
    1C        C  524   2.785   4.236   4.119
    1C        C  525   2.834   4.291   4.240
    1C        C  526   2.695   4.133   4.364
    1C        C  527   2.777   4.248   4.362
    1C        C  528   2.654   4.077   4.487
    1C        C  529   2.686   4.147   4.606
    1C        C  530   2.579   3.963   4.731
    1C        C  531   2.640   4.092   4.728
    1C        C  532   2.540   3.903   4.853
    1C        C  533   2.530   3.995   4.962
    1C        C  534   3.618   4.561   2.042
    1C        C  535   3.749   4.512   2.043
    1C        C  536   3.537   4.542   2.159
    1C        C  537   3.607   4.513   2.279
    1C        C  538   3.396   4.521   2.402
    1C        C  539   3.537   4.522   2.401
    1C        C  540   3.321   4.512   2.522
    1C        C  541   3.394   4.522   2.642
    1C        C  542   3.188   4.481   2.768
    1C        C  543   3.325   4.514   2.765
    1C        C  544   3.122   4.456   2.890
    1C        C  545   3.190   4.485   3.011
    1C        C  546   2.997   4.401   3.134
    1C        C  547   3.123   4.466   3.134
    1C        C  548   2.936   4.369   3.257
    1C        C  549   2.997   4.404   3.379
    1C        C  550   2.825   4.287   3.505
    1C        C  551   2.937   4.375   3.504
    1C        C  552   2.775   4.238   3.627
    1C        C  553   2.828   4.287   3.749
    1C        C  554   2.701   4.121   3.874
    1C        C  555   2.786   4.235   3.874
    1C        C  556   2.661   4.063   3.996
    1C        C  557   2.698   4.125   4.118
    1C        C  558   2.601   3.942   4.245
    1C        C  559   2.661   4.070   4.242
    1C        C  560   2.572   3.879   4.368
    1C        C  561   2.591   3.951   4.488
    1C        C  562   2.538   3.750   4.617
    1C        C  563   2.560   3.889   4.612
    1C        C  564   2.518   3.683   4.740
    1C        C  565   2.518   3.761   4.858
    1C        C  566   2.533   3.554   4.978
    1C        C  567   2.523   3.693   4.980
    1C        C  568   3.330   4.482   2.041
    1C        C  569   3.398   4.512   2.160
    1C        C  570   3.186   4.475   2.279
    1C        C  571   3.324   4.511   2.281
    1C        C  572   3.117   4.457   2.401
    1C        C  573   3.185   4.474   2.523
    1C        C  574   2.989   4.403   2.648
    1C        C  575   3.118   4.461   2.647
    1C        C  576   2.929   4.362   2.769
    1C        C  577   2.996   4.394   2.889
    1C        C  578   2.825   4.273   3.017
    1C        C  579   2.936   4.361   3.013
    1C        C  580   2.774   4.224   3.140
    1C        C  581   2.826   4.279   3.259
    1C        C  582   2.697   4.118   3.385
    1C        C  583   2.780   4.232   3.383
    1C        C  584   2.662   4.058   3.508
    1C        C  585   2.698   4.120   3.630
    1C        C  586   2.595   3.935   3.754
    1C        C  587   2.661   4.061   3.753
    1C        C  588   2.571   3.871   3.878
    1C        C  589   2.599   3.936   4.000
    1C        C  590   2.539   3.737   4.128
    1C        C  591   2.579   3.872   4.124
    1C        C  592   2.524   3.673   4.253
    1C        C  593   2.535   3.743   4.376
    1C        C  594   2.519   3.533   4.501
    1C        C  595   2.523   3.674   4.498
    1C        C  596   2.526   3.465   4.625
    1C        C  597   2.523   3.541   4.744
    1C        C  598   2.538   3.329   4.864
    1C        C  599   2.529   3.470   4.866
    1C        C  600   2.533   3.246   4.977
    1C        C  601   3.198   4.443   2.044
    1C        C  602   2.984   4.391   2.159
    1C        C  603   3.118   4.444   2.158
    1C        C  604   2.926   4.358   2.284
    1C        C  605   2.991   4.394   2.405
    1C        C  606   2.821   4.271   2.530
    1C        C  607   2.928   4.364   2.527
    1C        C  608   2.767   4.225   2.652
    1C        C  609   2.815   4.278   2.774
    1C        C  610   2.680   4.116   2.896
    1C        C  611   2.768   4.226   2.897
    1C        C  612   2.648   4.056   3.020
    1C        C  613   2.689   4.111   3.144
    1C        C  614   2.589   3.926   3.267
    1C        C  615   2.651   4.053   3.267
    1C        C  616   2.571   3.863   3.392
    1C        C  617   2.601   3.931   3.512
    1C        C  618   2.524   3.733   3.638
    1C        C  619   2.565   3.868   3.634
    1C        C  620   2.518   3.666   3.762
    1C        C  621   2.533   3.735   3.885
    1C        C  622   2.514   3.524   4.012
    1C        C  623   2.522   3.665   4.007
    1C        C  624   2.518   3.456   4.136
    1C        C  625   2.520   3.532   4.255
    1C        C  626   2.549   3.324   4.381
    1C        C  627   2.525   3.463   4.378
    1C        C  628   2.561   3.254   4.503
    1C        C  629   2.544   3.325   4.624
    1C        C  630   2.599   3.119   4.745
    1C        C  631   2.556   3.254   4.746
    1C        C  632   2.616   3.044   4.865
    1C        C  633   2.567   3.110   4.981
    1C        C  634   2.782   4.308   2.055
    1C        C  635   2.895   4.391   2.048
    1C        C  636   2.752   4.231   2.168
    1C        C  637   2.812   4.273   2.289
    1C        C  638   2.674   4.111   2.411
    1C        C  639   2.763   4.221   2.411
    1C        C  640   2.640   4.050   2.533
    1C        C  641   2.684   4.111   2.653
    1C        C  642   2.586   3.924   2.778
    1C        C  643   2.643   4.053   2.775
    1C        C  644   2.563   3.859   2.900
    1C        C  645   2.587   3.929   3.021
    1C        C  646   2.526   3.727   3.151
    1C        C  647   2.560   3.864   3.143
    1C        C  648   2.519   3.655   3.273
    1C        C  649   2.534   3.727   3.394
    1C        C  650   2.504   3.520   3.524
    1C        C  651   2.512   3.661   3.517
    1C        C  652   2.515   3.450   3.647
    1C        C  653   2.518   3.524   3.767
    1C        C  654   2.527   3.313   3.892
    1C        C  655   2.514   3.454   3.889
    1C        C  656   2.549   3.246   4.014
    1C        C  657   2.544   3.318   4.136
    1C        C  658   2.609   3.118   4.259
    1C        C  659   2.561   3.252   4.260
    1C        C  660   2.641   3.057   4.382
    1C        C  661   2.608   3.121   4.504
    1C        C  662   2.714   2.937   4.629
    1C        C  663   2.636   3.054   4.625
    1C        C  664   2.748   2.871   4.750
    1C        C  665   2.701   2.928   4.872
    1C        C  666   2.745   2.865   4.989
    1C        C  667   2.679   4.027   2.054
    1C        C  668   2.689   4.105   2.170
    1C        C  669   2.583   3.918   2.291
    1C        C  670   2.639   4.048   2.289
    1C        C  671   2.553   3.854   2.414
    1C        C  672   2.578   3.923   2.534
    1C        C  673   2.517   3.720   2.660
    1C        C  674   2.556   3.856   2.657
    1C        C  675   2.505   3.654   2.784
    1C        C  676   2.519   3.724   2.906
    1C        C  677   2.510   3.515   3.033
    1C        C  678   2.512   3.656   3.029
    1C        C  679   2.517   3.445   3.156
    1C        C  680   2.511   3.514   3.279
    1C        C  681   2.532   3.308   3.405
    1C        C  682   2.506   3.447   3.403
    1C        C  683   2.549   3.241   3.528
    1C        C  684   2.525   3.309   3.649
    1C        C  685   2.597   3.109   3.773
    1C        C  686   2.542   3.240   3.771
    1C        C  687   2.625   3.045   3.895
    1C        C  688   2.590   3.111   4.015
    1C        C  689   2.714   2.936   4.140
    1C        C  690   2.633   3.052   4.137
    1C        C  691   2.757   2.881   4.263
    1C        C  692   2.715   2.937   4.386
    1C        C  693   2.760   2.881   4.508
    1C        C  694   2.628   3.897   2.058
    1C        C  695   2.535   3.704   2.176
    1C        C  696   2.579   3.838   2.175
    1C        C  697   2.510   3.641   2.300
    1C        C  698   2.518   3.717   2.419
    1C        C  699   2.489   3.506   2.545
    1C        C  700   2.503   3.646   2.540
    1C        C  701   2.499   3.439   2.669
    1C        C  702   2.500   3.512   2.790
    1C        C  703   2.526   3.302   2.912
    1C        C  704   2.509   3.442   2.912
    1C        C  705   2.553   3.239   3.035
    1C        C  706   2.544   3.306   3.159
    1C        C  707   2.602   3.106   3.283
    1C        C  708   2.562   3.242   3.284
    1C        C  709   2.634   3.045   3.406
    1C        C  710   2.607   3.112   3.527
    1C        C  711   2.718   2.934   3.651
    1C        C  712   2.638   3.051   3.651
    1C        C  713   2.760   2.879   3.774
    1C        C  714   2.713   2.934   3.896
    1C        C  715   2.756   2.878   4.018
    1C        C  716   2.443   3.501   2.068
    1C        C  717   2.488   3.633   2.064
    1C        C  718   2.464   3.422   2.186
    1C        C  719   2.484   3.501   2.302
    1C        C  720   2.515   3.293   2.428
    1C        C  721   2.487   3.432   2.425
    1C        C  722   2.537   3.227   2.550
    1C        C  723   2.528   3.301   2.670
    1C        C  724   2.597   3.098   2.795
    1C        C  725   2.545   3.230   2.792
    1C        C  726   2.629   3.037   2.918
    1C        C  727   2.601   3.106   3.038
    1C        C  728   2.702   2.921   3.161
    1C        C  729   2.628   3.041   3.160
    1C        C  730   2.756   2.872   3.283
    1C        C  731   2.712   2.927   3.406
    1C        C  732   2.760   2.876   3.529
    1C        C  733   2.489   3.202   2.072
    1C        C  734   2.492   3.282   2.187
    1C        C  735   2.587   3.088   2.311
    1C        C  736   2.529   3.218   2.309
    1C        C  737   2.619   3.025   2.433
    1C        C  738   2.593   3.097   2.551
    1C        C  739   2.697   2.911   2.673
    1C        C  740   2.626   3.033   2.673
    1C        C  741   2.741   2.857   2.796
    1C        C  742   2.703   2.916   2.918
    1C        C  743   2.748   2.862   3.041
    1C        C  744   2.541   3.073   2.081
    1C        C  745   2.684   2.898   2.193
    1C        C  746   2.609   3.018   2.190
    1C        C  747   2.735   2.843   2.313
    1C        C  748   2.689   2.902   2.432
    1C        C  749   2.734   2.846   2.554
    1C        C  750   2.738   2.843   2.076
    1C        C  751   3.657   2.299   1.995
    1C        O  752   3.651   2.188   2.054
    1C        O  753   3.700   2.300   1.861
    1C        C  754   4.628   3.041   1.991
    1C        O  755   4.623   3.029   1.866
    1C        O  756   4.733   2.967   2.048
    1C        C  757   4.466   4.240   2.013
    1C        O  758   4.561   4.292   2.077
    1C        O  759   4.477   4.275   1.878
    1C        C  760   3.593   4.671   1.947
    1C        O  761   3.629   4.787   1.979
    1C        O  762   3.539   4.652   1.819
    1C        C  763   2.893   4.509   1.959
    1C        O  764   2.927   4.490   1.839
    1C        O  765   2.819   4.623   1.991
    1C        C  766   2.310   3.487   2.006
    1C        O  767   2.304   3.456   1.884
    1C        O  768   2.197   3.559   2.047
    1C        C  769   4.678   3.589   5.075
    1C        O  770   4.634   3.533   5.179
    1C        O  771   4.817   3.602   5.069
    1C        C  772   4.288   4.471   5.006
    1C        O  773   4.293   4.517   5.123
    1C        O  774   4.365   4.552   4.922
    1C        C  775   4.152   2.503   5.050
    1C        O  776   4.214   2.410   4.992
    1C        O  777   4.214   2.556   5.164
    1C        C  778   2.894   4.533   5.063
    1C        O  779   2.890   4.657   5.041
    1C        O  780   2.861   4.515   5.197
    1C        C  781   2.471   3.040   5.070
    1C        O  782   2.356   3.002   5.036
    1C        O  783   2.493   3.027   5.207
    1C        C  784   2.391   4.013   5.010
    1C        O  785   2.303   4.080   4.950
    1C        O  786   2.349   3.990   5.141
    1C        C  787   2.958   2.442   1.980
    1C        O  788   2.930   2.506   1.875
    1C        O  789   2.869   2.343   2.021
    1C        C  790   3.163   2.357   5.031
    1C        O  791   3.118   2.270   4.952
    1C        O  792   3.106   2.342   5.159
    1C        H  793   4.296   3.012   5.069
    1C        H  794   4.150   2.829   5.062
    1C        H  795   4.552   3.120   5.027
    1C        H  796   4.493   3.379   5.058
    1C        H  797   4.592   3.814   5.036
    1C        H  798   4.423   3.971   5.057
    1C        H  799   4.320   4.183   5.055
    1C        H  800   4.043   4.550   5.022
    1C        H  801   3.811   4.550   5.039
    1C        H  802   3.581   4.631   5.033
    1C        H  803   3.400   4.470   5.028
    1C        H  804   3.156   4.534   5.046
    1C        H  805   3.882   2.541   5.077
    1C        H  806   3.683   2.459   5.070
    1C        H  807   3.008   2.567   5.072
    1C        H  808   3.447   2.494   5.083
    1C        H  809   2.901   2.771   5.083
    1C        H  810   2.686   2.867   5.078
    1C        H  811   2.495   3.287   5.069
    1C        H  812   2.588   3.516   5.062
    1C        H  813   2.481   3.739   5.067
    1C        H  814   2.622   4.154   5.057
    1C        H  815   2.721   4.368   5.026
    1C        H  816   2.698   2.864   1.979
    1C        H  817   2.886   2.725   1.987
    1C        H  818   3.191   2.382   2.023
    1C        H  819   3.420   2.440   1.983
    1C        H  820   3.868   2.477   1.984
    1C        H  821   4.067   2.608   1.968
    1C        H  822   4.290   2.693   2.000
    1C        H  823   4.370   2.931   1.969
    1C        H  824   4.591   3.307   1.969
    1C        H  825   4.550   3.520   1.960
    1C        H  826   4.554   3.752   1.968
    1C        H  827   3.806   4.535   1.955
    1C        H  828   3.947   4.355   1.952
    1C        H  829   4.177   4.270   1.949
    1C        H  830   4.480   3.962   1.961
    1C        H  831   2.643   3.835   1.972
    1C        H  832   2.636   4.082   1.973
    1C        H  833   2.718   4.290   1.971
    1C        H  834   3.371   4.517   1.948
    1C        H  835   3.175   4.366   1.972
    1C        H  836   2.488   3.000   2.024
    1C        H  837   2.456   3.242   1.979
    1C        H  838   2.470   3.689   1.975
    2V3OU   H29  839   2.811   3.545   3.460
    2V3OU   C27  840   2.796   3.502   3.563
    2V3OU   H27  841   2.739   3.572   3.628
    2V3OU   H28  842   2.741   3.405   3.549
    2V3OU   O11  843   2.924   3.469   3.619
    2V3OU   C15  844   2.931   3.396   3.735
    2V3OU   C13  845   3.057   3.377   3.797
    2V3OU   C14  846   3.082   3.275   3.890
    2V3OU   C16  847   2.983   3.188   3.934
    2V3OU    H6  848   2.994   3.101   3.999
    2V3OU   C12  849   3.216   3.230   3.934
    2V3OU    O2  850   3.239   3.125   3.999
    2V3OU   C10  851   3.328   3.306   3.877
    2V3OU    C8  852   3.460   3.269   3.898
    2V3OU   O10  853   3.492   3.152   3.960
    2V3OU   H26  854   3.404   3.120   3.985
    2V3OU    C6  855   3.567   3.352   3.852
    2V3OU    C5  856   3.542   3.470   3.782
    2V3OU    C4  857   3.704   3.294   3.851
    2V3OU    H4  858   3.732   3.226   3.937
    2V3OU    H5  859   3.711   3.228   3.759
    2V3OU    C2  860   3.815   3.399   3.845
    2V3OU    O6  861   3.804   3.473   3.967
    2V3OU   H21  862   3.764   3.554   3.932
    2V3OU    C3  863   3.782   3.494   3.730
    2V3OU    H2  864   3.864   3.571   3.728
    2V3OU    H3  865   3.776   3.436   3.635
    2V3OU   C25  866   3.948   3.328   3.823
    2V3OU    O7  867   3.994   3.303   3.711
    2V3OU   C26  868   4.033   3.293   3.944
    2V3OU   H22  869   4.076   3.386   3.989
    2V3OU   H23  870   4.115   3.222   3.913
    2V3OU    O8  871   3.968   3.211   4.039
    2V3OU   H24  872   3.926   3.267   4.106
    2V3OU    C1  873   3.650   3.567   3.748
    2V3OU    H1  874   3.626   3.619   3.651
    2V3OU    O3  875   3.658   3.660   3.858
    2V3OU   C19  876   3.616   3.796   3.849
    2V3OU    H9  877   3.523   3.806   3.787
    2V3OU    O4  878   3.716   3.856   3.770
    2V3OU   C20  879   3.850   3.879   3.817
    2V3OU   H10  880   3.896   3.777   3.829
    2V3OU   C24  881   3.610   3.860   3.988
    2V3OU   H16  882   3.546   3.787   4.045
    2V3OU   H17  883   3.559   3.959   3.979
    2V3OU   C23  884   3.751   3.873   4.046
    2V3OU   H15  885   3.791   3.767   4.064
    2V3OU    N1  886   3.736   3.949   4.168
    2V3OU   H19  887   3.805   3.924   4.235
    2V3OU   H20  888   3.645   3.933   4.208
    2V3OU   C21  889   3.849   3.949   3.953
    2V3OU   H11  890   3.951   3.929   3.997
    2V3OU    O5  891   3.826   4.089   3.957
    2V3OU   H18  892   3.787   4.109   4.043
    2V3OU   C22  893   3.914   3.957   3.703
    2V3OU   H12  894   3.862   4.055   3.687
    2V3OU   H13  895   3.910   3.894   3.610
    2V3OU   H14  896   4.025   3.953   3.716
    2V3OU   C11  897   3.165   3.473   3.773
    2V3OU    O1  898   3.142   3.590   3.737
    2V3OU    C9  899   3.301   3.426   3.806
    2V3OU    C7  900   3.405   3.507   3.760
    2V3OU    O9  901   3.381   3.626   3.695
    2V3OU   H25  902   3.285   3.632   3.699
    2V3OU   C17  903   2.833   3.313   3.792
    2V3OU    H7  904   2.734   3.356   3.776
    2V3OU   C18  905   2.854   3.215   3.889
    2V3OU    H8  906   2.791   3.178   3.972
    3SOL     OW  907   3.082   4.512   5.935
    3SOL    HW1  908   3.026   4.541   5.857
    3SOL    HW2  909   3.175   4.496   5.904
    4SOL     OW  910   6.471   0.037   6.628
    4SOL    HW1  911   6.571   0.026   6.628
    4SOL    HW2  912   6.436   0.028   6.535
    5SOL     OW  913   4.827   2.112   2.762
    5SOL    HW1  914   4.774   2.035   2.727
    5SOL    HW2  915   4.921   2.105   2.729
    6SOL     OW  916   4.951   1.824   2.384
    6SOL    HW1  917   4.994   1.855   2.300
    6SOL    HW2  918   4.853   1.809   2.368
    7SOL     OW  919   0.880   3.950   4.287
    7SOL    HW1  920   0.915   3.880   4.225
    7SOL    HW2  921   0.884   3.916   4.381
    8SOL     OW  922   2.913   2.042   5.291
    8SOL    HW1  923   2.918   1.951   5.333
    8SOL    HW2  924   2.969   2.106   5.343
    9SOL     OW  925   5.973   2.254   6.043
    9SOL    HW1  926   5.902   2.273   5.974
    9SOL    HW2  927   6.008   2.340   6.079
   10SOL     OW  928   2.759   4.752   4.507
   10SOL    HW1  929   2.676   4.727   4.457
   10SOL    HW2  930   2.752   4.721   4.602
   11SOL     OW  931   2.179   1.234   6.256
   11SOL    HW1  932   2.080   1.233   6.270
   11SOL    HW2  933   2.223   1.186   6.332
   12SOL     OW  934   2.763   4.738   3.794
   12SOL    HW1  935   2.691   4.793   3.838
   12SOL    HW2  936   2.848   4.748   3.845
   13SOL     OW  937   4.071   6.417   3.428
   13SOL    HW1  938   4.127   6.495   3.397
   13SOL    HW2  939   4.021   6.443   3.510
   14SOL     OW  940   3.921   4.237   6.331
   14SOL    HW1  941   3.876   4.248   6.419
   14SOL    HW2  942   4.002   4.295   6.327
   15SOL     OW  943   0.767   7.023   6.930
   15SOL    HW1  944   0.683   6.980   6.895
   15SOL    HW2  945   0.790   6.985   7.019
   16SOL     OW  946   5.640   2.754   6.786
   16SOL    HW1  947   5.698   2.732   6.707
   16SOL    HW2  948   5.563   2.690   6.790
   17SOL     OW  949   4.833   0.207   6.310
   17SOL    HW1  950   4.773   0.192   6.388
   17SOL    HW2  951   4.814   0.138   6.240
   18SOL     OW  952   3.546   0.862   4.620
   18SOL    HW1  953   3.551   0.831   4.715
   18SOL    HW2  954   3.493   0.946   4.614
   19SOL     OW  955   0.468   2.674   2.163
   19SOL    HW1  956   0.426   2.654   2.074
   19SOL    HW2  957   0.550   2.619   2.175
   20SOL     OW  958   4.968   2.351   5.420
   20SOL    HW1  959   5.021   2.350   5.335
   20SOL    HW2  960   4.892   2.416   5.411
   21SOL     OW  961   2.812   0.543   3.123
   21SOL    HW1  962   2.882   0.511   3.059
   21SOL    HW2  963   2.790   0.638   3.104
   22SOL     OW  964   1.062   6.536   0.585
   22SOL    HW1  965   1.021   6.445   0.589
   22SOL    HW2  966   1.143   6.534   0.526
   23SOL     OW  967   4.050   5.226   2.438
   23SOL    HW1  968   4.036   5.239   2.536
   23SOL    HW2  969   3.968   5.186   2.398
   24SOL     OW  970   3.701   0.755   2.441
   24SOL    HW1  971   3.799   0.736   2.453
   24SOL    HW2  972   3.654   0.745   2.528
   25SOL     OW  973   1.933   0.259   3.727
   25SOL    HW1  974   2.024   0.299   3.742
   25SOL    HW2  975   1.897   0.289   3.639
   26SOL     OW  976   6.672   2.009   6.927
   26SOL    HW1  977   6.739   2.069   6.885
   26SOL    HW2  978   6.680   2.015   0.001
   27SOL     OW  979   1.871   1.307   2.203
   27SOL    HW1  980   1.857   1.240   2.130
   27SOL    HW2  981   1.795   1.372   2.203
   28SOL     OW  982   0.284   0.795   4.887
   28SOL    HW1  983   0.337   0.879   4.901
   28SOL    HW2  984   0.284   0.772   4.789
   29SOL     OW  985   6.769   0.944   1.055
   29SOL    HW1  986   6.725   0.901   0.976
   29SOL    HW2  987   6.849   0.891   1.082
   30SOL     OW  988   4.606   0.278   5.224
   30SOL    HW1  989   4.697   0.276   5.265
   30SOL    HW2  990   4.610   0.237   5.132
   31SOL     OW  991   0.741   2.176   5.580
   31SOL    HW1  992   0.710   2.181   5.485
   31SOL    HW2  993   0.819   2.114   5.587
   32SOL     OW  994   1.457   1.660   2.237
   32SOL    HW1  995   1.513   1.681   2.318
   32SOL    HW2  996   1.502   1.697   2.156
   33SOL     OW  997   1.107   4.629   5.259
   33SOL    HW1  998   1.030   4.668   5.209
   33SOL    HW2  999   1.154   4.701   5.310
   34SOL     OW 1000   2.748   5.462   4.970
   34SOL    HW1 1001   2.803   5.384   4.938
   34SOL    HW2 1002   2.809   5.539   4.989
   35SOL     OW 1003   4.294   2.275   5.538
   35SOL    HW1 1004   4.241   2.202   5.581
   35SOL    HW2 1005   4.349   2.322   5.607
   36SOL     OW 1006   4.711   1.480   3.947
   36SOL    HW1 1007   4.737   1.463   4.043
   36SOL    HW2 1008   4.655   1.562   3.942
   37SOL     OW 1009   1.678   1.977   5.142
   37SOL    HW1 1010   1.714   1.998   5.233
   37SOL    HW2 1011   1.579   1.991   5.141
   38SOL     OW 1012   1.659   4.010   1.767
   38SOL    HW1 1013   1.690   4.074   1.836
   38SOL    HW2 1014   1.709   3.924   1.776
   39SOL     OW 1015   5.511   4.916   6.168
   39SOL    HW1 1016   5.580   4.856   6.210
   39SOL    HW2 1017   5.558   4.988   6.116
   40SOL     OW 1018   3.693   2.130   0.005
   40SOL    HW1 1019   3.616   2.177   0.050
   40SOL    HW2 1020   3.671   2.033   7.020
   41SOL     OW 1021   6.202   3.615   2.861
   41SOL    HW1 1022   6.105   3.601   2.877
   41SOL    HW2 1023   6.255   3.550   2.916
   42SOL     OW 1024   3.239   6.004   4.716
   42SOL    HW1 1025   3.310   5.941   4.749
   42SOL    HW2 1026   3.211   6.065   4.790
   43SOL     OW 1027   4.306   0.605   5.639
   43SOL    HW1 1028   4.396   0.608   5.597
   43SOL    HW2 1029   4.272   0.511   5.638
   44SOL     OW 1030   5.893   2.294   5.176
   44SOL    HW1 1031   5.914   2.388   5.150
   44SOL    HW2 1032   5.890   2.286   5.276
   45SOL     OW 1033   4.214   5.435   1.656
   45SOL    HW1 1034   4.252   5.342   1.663
   45SOL    HW2 1035   4.263   5.495   1.719
   46SOL     OW 1036   1.210   2.335   3.984
   46SOL    HW1 1037   1.182   2.239   3.991
   46SOL    HW2 1038   1.296   2.341   3.933
   47SOL     OW 1039   4.070   4.259   1.692
   47SOL    HW1 1040   4.065   4.264   1.593
   47SOL    HW2 1041   4.127   4.181   1.719
   48SOL     OW 1042   6.777   2.391   7.012
   48SOL    HW1 1043   6.742   2.333   0.060
   48SOL    HW2 1044   6.772   2.487   0.014
   49SOL     OW 1045   5.588   2.289   1.635
   49SOL    HW1 1046   5.511   2.275   1.573
   49SOL    HW2 1047   5.560   2.349   1.710
   50SOL     OW 1048   6.206   1.644   5.515
   50SOL    HW1 1049   6.193   1.738   5.484
   50SOL    HW2 1050   6.127   1.589   5.488
   51SOL     OW 1051   1.948   6.506   2.697
   51SOL    HW1 1052   1.975   6.539   2.788
   51SOL    HW2 1053   2.021   6.450   2.659
   52SOL     OW 1054   5.672   2.831   1.875
   52SOL    HW1 1055   5.742   2.831   1.803
   52SOL    HW2 1056   5.626   2.919   1.878
   53SOL     OW 1057   5.467   0.390   3.400
   53SOL    HW1 1058   5.426   0.299   3.412
   53SOL    HW2 1059   5.505   0.420   3.487
   54SOL     OW 1060   5.445   6.818   0.640
   54SOL    HW1 1061   5.500   6.851   0.717
   54SOL    HW2 1062   5.395   6.736   0.669
   55SOL     OW 1063   2.147   2.390   5.033
   55SOL    HW1 1064   2.185   2.406   4.941
   55SOL    HW2 1065   2.138   2.477   5.081
   56SOL     OW 1066   1.194   1.511   1.008
   56SOL    HW1 1067   1.285   1.472   1.019
   56SOL    HW2 1068   1.145   1.463   0.935
   57SOL     OW 1069   3.598   1.343   0.694
   57SOL    HW1 1070   3.511   1.293   0.699
   57SOL    HW2 1071   3.645   1.319   0.610
   58SOL     OW 1072   0.659   6.367   5.812
   58SOL    HW1 1073   0.693   6.347   5.720
   58SOL    HW2 1074   0.595   6.295   5.840
   59SOL     OW 1075   6.997   3.699   5.978
   59SOL    HW1 1076   7.005   3.775   6.043
   59SOL    HW2 1077   6.900   3.682   5.959
   60SOL     OW 1078   4.895   2.573   3.789
   60SOL    HW1 1079   4.897   2.666   3.753
   60SOL    HW2 1080   4.813   2.560   3.845
   61SOL     OW 1081   6.741   1.099   4.847
   61SOL    HW1 1082   6.701   1.122   4.758
   61SOL    HW2 1083   6.744   1.000   4.858
   62SOL     OW 1084   2.076   1.100   1.972
   62SOL    HW1 1085   2.143   1.037   1.932
   62SOL    HW2 1086   2.121   1.186   1.995
   63SOL     OW 1087   4.385   0.544   3.528
   63SOL    HW1 1088   4.421   0.563   3.620
   63SOL    HW2 1089   4.295   0.500   3.536
   64SOL     OW 1090   0.591   3.182   6.561
   64SOL    HW1 1091   0.585   3.136   6.473
   64SOL    HW2 1092   0.620   3.116   6.631
   65SOL     OW 1093   1.244   6.167   5.847
   65SOL    HW1 1094   1.182   6.140   5.774
   65SOL    HW2 1095   1.225   6.262   5.875
   66SOL     OW 1096   3.293   0.397   3.520
   66SOL    HW1 1097   3.283   0.465   3.447
   66SOL    HW2 1098   3.299   0.306   3.480
   67SOL     OW 1099   0.432   3.418   6.162
   67SOL    HW1 1100   0.365   3.358   6.206
   67SOL    HW2 1101   0.395   3.511   6.156
   68SOL     OW 1102   0.021   1.920   6.166
   68SOL    HW1 1103   7.010   2.013   6.165
   68SOL    HW2 1104   7.005   1.868   6.091
   69SOL     OW 1105   1.795   3.213   4.864
   69SOL    HW1 1106   1.811   3.173   4.954
   69SOL    HW2 1107   1.777   3.310   4.874
   70SOL     OW 1108   5.367   5.120   4.744
   70SOL    HW1 1109   5.403   5.041   4.794
   70SOL    HW2 1110   5.271   5.133   4.768
   71SOL     OW 1111   4.708   1.376   3.438
   71SOL    HW1 1112   4.761   1.403   3.358
   71SOL    HW2 1113   4.726   1.280   3.460
   72SOL     OW 1114   0.557   1.432   3.159
   72SOL    HW1 1115   0.458   1.434   3.167
   72SOL    HW2 1116   0.593   1.525   3.164
   73SOL     OW 1117   3.044   0.506   1.005
   73SOL    HW1 1118   3.036   0.605   0.997
   73SOL    HW2 1119   2.982   0.462   0.940
   74SOL     OW 1120   2.950   1.450   6.300
   74SOL    HW1 1121   3.010   1.441   6.220
   74SOL    HW2 1122   2.858   1.473   6.270
   75SOL     OW 1123   4.034   1.388   1.718
   75SOL    HW1 1124   4.012   1.472   1.668
   75SOL    HW2 1125   3.999   1.395   1.811
   76SOL     OW 1126   2.419   3.564   6.384
   76SOL    HW1 1127   2.472   3.644   6.357
   76SOL    HW2 1128   2.453   3.484   6.335
   77SOL     OW 1129   1.617   5.934   3.305
   77SOL    HW1 1130   1.593   5.857   3.365
   77SOL    HW2 1131   1.687   5.990   3.349
   78SOL     OW 1132   4.117   1.556   1.280
   78SOL    HW1 1133   4.184   1.610   1.230
   78SOL    HW2 1134   4.161   1.476   1.320
   79SOL     OW 1135   2.829   5.928   1.581
   79SOL    HW1 1136   2.769   5.981   1.521
   79SOL    HW2 1137   2.778   5.852   1.621
   80SOL     OW 1138   4.527   1.312   4.535
   80SOL    HW1 1139   4.473   1.236   4.571
   80SOL    HW2 1140   4.480   1.398   4.553
   81SOL     OW 1141   1.757   6.698   1.537
   81SOL    HW1 1142   1.660   6.719   1.521
   81SOL    HW2 1143   1.794   6.761   1.605
   82SOL     OW 1144   6.798   5.774   1.063
   82SOL    HW1 1145   6.823   5.706   0.993
   82SOL    HW2 1146   6.878   5.827   1.089
   83SOL     OW 1147   1.049   1.034   6.523
   83SOL    HW1 1148   1.077   1.057   6.430
   83SOL    HW2 1149   1.075   0.940   6.544
   84SOL     OW 1150   6.061   4.353   3.451
   84SOL    HW1 1151   6.040   4.320   3.359
   84SOL    HW2 1152   6.100   4.445   3.444
   85SOL     OW 1153   1.350   0.905   3.455
   85SOL    HW1 1154   1.302   0.877   3.372
   85SOL    HW2 1155   1.293   0.971   3.505
   86SOL     OW 1156   6.972   1.229   6.625
   86SOL    HW1 1157   7.005   1.221   6.719
   86SOL    HW2 1158   0.025   1.239   6.563
   87SOL     OW 1159   3.772   3.979   0.501
   87SOL    HW1 1160   3.828   3.934   0.571
   87SOL    HW2 1161   3.827   4.048   0.454
   88SOL     OW 1162   3.192   2.181   6.512
   88SOL    HW1 1163   3.227   2.161   6.421
   88SOL    HW2 1164   3.225   2.271   6.541
   89SOL     OW 1165   3.599   3.651   0.426
   89SOL    HW1 1166   3.547   3.597   0.492
   89SOL    HW2 1167   3.614   3.743   0.461
   90SOL     OW 1168   4.154   4.681   2.361
   90SOL    HW1 1169   4.243   4.651   2.396
   90SOL    HW2 1170   4.083   4.660   2.429
   91SOL     OW 1171   5.708   4.749   6.288
   91SOL    HW1 1172   5.786   4.787   6.337
   91SOL    HW2 1173   5.725   4.653   6.267
   92SOL     OW 1174   5.007   4.142   0.682
   92SOL    HW1 1175   5.048   4.137   0.591
   92SOL    HW2 1176   4.909   4.163   0.673
   93SOL     OW 1177   3.107   3.565   0.082
   93SOL    HW1 1178   3.053   3.594   0.003
   93SOL    HW2 1179   3.063   3.488   0.127
   94SOL     OW 1180   1.974   5.780   0.481
   94SOL    HW1 1181   1.914   5.701   0.492
   94SOL    HW2 1182   1.920   5.863   0.468
   95SOL     OW 1183   1.484   0.807   3.067
   95SOL    HW1 1184   1.458   0.897   3.032
   95SOL    HW2 1185   1.583   0.796   3.059
   96SOL     OW 1186   4.800   5.547   6.220
   96SOL    HW1 1187   4.731   5.601   6.268
   96SOL    HW2 1188   4.755   5.479   6.163
   97SOL     OW 1189   2.174   3.792   5.210
   97SOL    HW1 1190   2.248   3.852   5.180
   97SOL    HW2 1191   2.089   3.821   5.168
   98SOL     OW 1192   1.317   1.272   0.942
   98SOL    HW1 1193   1.354   1.339   0.878
   98SOL    HW2 1194   1.393   1.227   0.989
   99SOL     OW 1195   3.896   3.926   2.593
   99SOL    HW1 1196   3.888   3.896   2.498
   99SOL    HW2 1197   3.820   3.987   2.615
  100SOL     OW 1198   6.821   6.827   4.311
  100SOL    HW1 1199   6.806   6.920   4.278
  100SOL    HW2 1200   6.902   6.788   4.266
  101SOL     OW 1201   0.549   5.606   2.398
  101SOL    HW1 1202   0.520   5.612   2.493
  101SOL    HW2 1203   0.585   5.515   2.380
  102SOL     OW 1204   3.610   6.003   2.345
  102SOL    HW1 1205   3.546   6.076   2.373
  102SOL    HW2 1206   3.559   5.921   2.322
  103SOL     OW 1207   1.480   2.137   2.773
  103SOL    HW1 1208   1.512   2.169   2.684
  103SOL    HW2 1209   1.380   2.135   2.773
  104SOL     OW 1210   1.729   4.974   1.675
  104SOL    HW1 1211   1.783   4.995   1.593
  104SOL    HW2 1212   1.638   4.943   1.647
  105SOL     OW 1213   5.359   1.588   5.856
  105SOL    HW1 1214   5.445   1.546   5.825
  105SOL    HW2 1215   5.380   1.667   5.913
  106SOL     OW 1216   4.362   6.097   2.956
  106SOL    HW1 1217   4.434   6.032   2.982
  106SOL    HW2 1218   4.275   6.066   2.994
  107SOL     OW 1219   0.116   0.916   6.863
  107SOL    HW1 1220   0.103   0.888   6.768
  107SOL    HW2 1221   0.084   1.010   6.874
  108SOL     OW 1222   3.695   0.136   5.610
  108SOL    HW1 1223   3.607   0.134   5.659
  108SOL    HW2 1224   3.678   0.142   5.512
  109SOL     OW 1225   2.554   0.507   2.261
  109SOL    HW1 1226   2.557   0.407   2.253
  109SOL    HW2 1227   2.613   0.536   2.336
  110SOL     OW 1228   2.604   5.365   4.394
  110SOL    HW1 1229   2.658   5.351   4.312
  110SOL    HW2 1230   2.514   5.400   4.369
  111SOL     OW 1231   1.868   1.473   3.225
  111SOL    HW1 1232   1.860   1.523   3.312
  111SOL    HW2 1233   1.952   1.500   3.179
  112SOL     OW 1234   5.277   6.651   0.320
  112SOL    HW1 1235   5.186   6.654   0.362
  112SOL    HW2 1236   5.309   6.745   0.304
  113SOL     OW 1237   0.530   6.070   2.776
  113SOL    HW1 1238   0.516   6.075   2.678
  113SOL    HW2 1239   0.578   5.985   2.799
  114SOL     OW 1240   1.514   6.031   2.101
  114SOL    HW1 1241   1.553   5.964   2.165
  114SOL    HW2 1242   1.551   6.014   2.010
  115SOL     OW 1243   5.717   0.667   3.099
  115SOL    HW1 1244   5.724   0.670   3.199
  115SOL    HW2 1245   5.657   0.740   3.068
  116SOL     OW 1246   0.109   5.654   1.306
  116SOL    HW1 1247   0.184   5.608   1.260
  116SOL    HW2 1248   0.133   5.750   1.323
  117SOL     OW 1249   1.714   0.726   0.582
  117SOL    HW1 1250   1.759   0.649   0.627
  117SOL    HW2 1251   1.643   0.763   0.641
  118SOL     OW 1252   1.843   2.380   2.913
  118SOL    HW1 1253   1.881   2.308   2.970
  118SOL    HW2 1254   1.743   2.379   2.920
  119SOL     OW 1255   0.188   0.512   6.791
  119SOL    HW1 1256   0.130   0.564   6.853
  119SOL    HW2 1257   0.267   0.476   6.841
  120SOL     OW 1258   4.972   7.025   4.390
  120SOL    HW1 1259   5.005   0.024   4.299
  120SOL    HW2 1260   4.902   0.064   4.418
  121SOL     OW 1261   1.272   4.086   0.478
  121SOL    HW1 1262   1.208   4.162   0.471
  121SOL    HW2 1263   1.229   4.003   0.443
  122SOL     OW 1264   1.514   3.355   0.164
  122SOL    HW1 1265   1.599   3.309   0.190
  122SOL    HW2 1266   1.532   3.452   0.150
  123SOL     OW 1267   0.939   1.117   2.289
  123SOL    HW1 1268   1.037   1.100   2.305
  123SOL    HW2 1269   0.926   1.152   2.196
  124SOL     OW 1270   3.282   2.149   0.686
  124SOL    HW1 1271   3.243   2.077   0.629
  124SOL    HW2 1272   3.278   2.236   0.636
  125SOL     OW 1273   3.228   2.391   0.582
  125SOL    HW1 1274   3.215   2.425   0.488
  125SOL    HW2 1275   3.308   2.436   0.622
  126SOL     OW 1276   3.881   2.981   3.096
  126SOL    HW1 1277   3.914   2.953   3.006
  126SOL    HW2 1278   3.930   3.063   3.126
  127SOL     OW 1279   6.729   6.272   5.988
  127SOL    HW1 1280   6.817   6.307   6.021
  127SOL    HW2 1281   6.744   6.194   5.928
  128SOL     OW 1282   5.500   3.041   1.824
  128SOL    HW1 1283   5.492   3.085   1.914
  128SOL    HW2 1284   5.413   2.997   1.801
  129SOL     OW 1285   3.153   4.198   0.659
  129SOL    HW1 1286   3.183   4.193   0.754
  129SOL    HW2 1287   3.102   4.115   0.635
  130SOL     OW 1288   6.341   0.461   5.028
  130SOL    HW1 1289   6.262   0.511   5.064
  130SOL    HW2 1290   6.422   0.520   5.033
  131SOL     OW 1291   5.934   0.778   4.230
  131SOL    HW1 1292   5.987   0.852   4.271
  131SOL    HW2 1293   5.838   0.789   4.252
  132SOL     OW 1294   3.527   3.203   1.411
  132SOL    HW1 1295   3.431   3.180   1.431
  132SOL    HW2 1296   3.541   3.205   1.312
  133SOL     OW 1297   5.381   1.555   3.872
  133SOL    HW1 1298   5.449   1.508   3.816
  133SOL    HW2 1299   5.395   1.532   3.968
  134SOL     OW 1300   0.700   0.164   2.595
  134SOL    HW1 1301   0.641   0.085   2.609
  134SOL    HW2 1302   0.714   0.211   2.683
  135SOL     OW 1303   5.187   3.260   3.977
  135SOL    HW1 1304   5.204   3.170   4.018
  135SOL    HW2 1305   5.110   3.253   3.913
  136SOL     OW 1306   2.064   6.284   4.678
  136SOL    HW1 1307   2.021   6.374   4.669
  136SOL    HW2 1308   2.141   6.290   4.742
  137SOL     OW 1309   4.744   0.971   4.532
  137SOL    HW1 1310   4.735   1.060   4.486
  137SOL    HW2 1311   4.737   0.898   4.464
  138SOL     OW 1312   0.719   4.480   3.202
  138SOL    HW1 1313   0.669   4.563   3.230
  138SOL    HW2 1314   0.783   4.455   3.274
  139SOL     OW 1315   2.494   5.767   5.969
  139SOL    HW1 1316   2.517   5.824   6.048
  139SOL    HW2 1317   2.503   5.671   5.994
  140SOL     OW 1318   1.474   6.603   2.936
  140SOL    HW1 1319   1.479   6.586   3.034
  140SOL    HW2 1320   1.545   6.668   2.909
  141SOL     OW 1321   6.977   2.495   6.517
  141SOL    HW1 1322   6.968   2.589   6.551
  141SOL    HW2 1323   0.035   2.454   6.554
  142SOL     OW 1324   2.170   3.818   1.982
  142SOL    HW1 1325   2.178   3.720   2.003
  142SOL    HW2 1326   2.240   3.843   1.915
  143SOL     OW 1327   5.911   5.761   1.095
  143SOL    HW1 1328   5.926   5.797   1.187
  143SOL    HW2 1329   5.843   5.688   1.098
  144SOL     OW 1330   2.497   4.890   4.627
  144SOL    HW1 1331   2.556   4.834   4.684
  144SOL    HW2 1332   2.471   4.838   4.545
  145SOL     OW 1333   1.467   5.550   1.661
  145SOL    HW1 1334   1.413   5.466   1.670
  145SOL    HW2 1335   1.477   5.592   1.751
  146SOL     OW 1336   4.970   1.260   6.000
  146SOL    HW1 1337   4.979   1.192   5.927
  146SOL    HW2 1338   5.039   1.332   5.988
  147SOL     OW 1339   4.983   1.609   5.403
  147SOL    HW1 1340   5.015   1.567   5.488
  147SOL    HW2 1341   5.054   1.669   5.367
  148SOL     OW 1342   0.776   5.647   1.658
  148SOL    HW1 1343   0.699   5.625   1.719
  148SOL    HW2 1344   0.745   5.709   1.587
  149SOL     OW 1345   3.435   1.799   4.798
  149SOL    HW1 1346   3.449   1.841   4.887
  149SOL    HW2 1347   3.356   1.840   4.754
  150SOL     OW 1348   4.567   0.320   6.057
  150SOL    HW1 1349   4.578   0.416   6.030
  150SOL    HW2 1350   4.538   0.316   6.152
  151SOL     OW 1351   3.908   0.868   1.720
  151SOL    HW1 1352   3.906   0.798   1.790
  151SOL    HW2 1353   3.883   0.956   1.760
  152SOL     OW 1354   6.536   1.387   0.256
  152SOL    HW1 1355   6.602   1.460   0.238
  152SOL    HW2 1356   6.579   1.299   0.235
  153SOL     OW 1357   2.900   0.405   3.354
  153SOL    HW1 1358   2.870   0.447   3.268
  153SOL    HW2 1359   2.877   0.465   3.430
  154SOL     OW 1360   6.681   3.064   0.761
  154SOL    HW1 1361   6.767   3.097   0.723
  154SOL    HW2 1362   6.700   3.001   0.836
  155SOL     OW 1363   1.101   6.808   2.404
  155SOL    HW1 1364   1.042   6.877   2.446
  155SOL    HW2 1365   1.048   6.753   2.340
  156SOL     OW 1366   6.090   1.064   0.069
  156SOL    HW1 1367   6.093   1.127   7.016
  156SOL    HW2 1368   6.118   1.113   0.151
  157SOL     OW 1369   5.339   3.220   0.444
  157SOL    HW1 1370   5.434   3.250   0.444
  157SOL    HW2 1371   5.311   3.197   0.537
  158SOL     OW 1372   1.815   2.003   1.140
  158SOL    HW1 1373   1.803   1.903   1.133
  158SOL    HW2 1374   1.729   2.048   1.116
  159SOL     OW 1375   4.374   5.173   0.943
  159SOL    HW1 1376   4.459   5.208   0.982
  159SOL    HW2 1377   4.301   5.240   0.959
  160SOL     OW 1378   6.435   0.163   1.275
  160SOL    HW1 1379   6.411   0.077   1.230
  160SOL    HW2 1380   6.351   0.207   1.309
  161SOL     OW 1381   1.864   0.165   2.219
  161SOL    HW1 1382   1.818   0.197   2.136
  161SOL    HW2 1383   1.827   0.215   2.298
  162SOL     OW 1384   3.084   0.204   0.016
  162SOL    HW1 1385   3.101   0.226   0.112
  162SOL    HW2 1386   3.159   0.149   7.006
  163SOL     OW 1387   0.224   5.202   2.870
  163SOL    HW1 1388   0.172   5.274   2.914
  163SOL    HW2 1389   0.301   5.174   2.928
  164SOL     OW 1390   0.765   2.880   2.920
  164SOL    HW1 1391   0.684   2.939   2.926
  164SOL    HW2 1392   0.825   2.899   2.997
  165SOL     OW 1393   6.035   5.150   0.408
  165SOL    HW1 1394   5.980   5.186   0.483
  165SOL    HW2 1395   5.994   5.176   0.321
  166SOL     OW 1396   6.522   3.430   2.008
  166SOL    HW1 1397   6.512   3.351   1.948
  166SOL    HW2 1398   6.467   3.416   2.091
  167SOL     OW 1399   6.222   1.575   6.071
  167SOL    HW1 1400   6.212   1.484   6.030
  167SOL    HW2 1401   6.146   1.633   6.041
  168SOL     OW 1402   4.010   1.891   1.541
  168SOL    HW1 1403   3.957   1.857   1.464
  168SOL    HW2 1404   3.983   1.985   1.562
  169SOL     OW 1405   5.842   2.983   0.133
  169SOL    HW1 1406   5.827   2.901   0.189
  169SOL    HW2 1407   5.861   2.955   0.039
  170SOL     OW 1408   6.640   6.031   2.612
  170SOL    HW1 1409   6.676   6.063   2.525
  170SOL    HW2 1410   6.715   5.996   2.669
  171SOL     OW 1411   1.936   3.497   6.966
  171SOL    HW1 1412   1.870   3.563   6.928
  171SOL    HW2 1413   1.920   3.487   0.038
  172SOL     OW 1414   6.333   2.593   2.448
  172SOL    HW1 1415   6.376   2.595   2.539
  172SOL    HW2 1416   6.316   2.499   2.420
  173SOL     OW 1417   5.828   0.857   4.768
  173SOL    HW1 1418   5.756   0.901   4.715
  173SOL    HW2 1419   5.855   0.916   4.844
  174SOL     OW 1420   4.796   4.938   4.537
  174SOL    HW1 1421   4.791   4.989   4.450
  174SOL    HW2 1422   4.798   5.003   4.613
  175SOL     OW 1423   3.511   1.023   1.562
  175SOL    HW1 1424   3.569   0.942   1.567
  175SOL    HW2 1425   3.421   1.002   1.600
  176SOL     OW 1426   4.999   4.274   2.870
  176SOL    HW1 1427   4.960   4.197   2.821
  176SOL    HW2 1428   4.928   4.343   2.887
  177SOL     OW 1429   5.231   2.491   5.012
  177SOL    HW1 1430   5.177   2.504   4.929
  177SOL    HW2 1431   5.174   2.451   5.083
  178SOL     OW 1432   3.444   4.912   4.879
  178SOL    HW1 1433   3.458   4.870   4.968
  178SOL    HW2 1434   3.346   4.917   4.859
  179SOL     OW 1435   4.049   7.020   6.661
  179SOL    HW1 1436   4.135   0.013   6.613
  179SOL    HW2 1437   4.068   6.973   6.747
  180SOL     OW 1438   2.811   7.020   0.576
  180SOL    HW1 1439   2.770   0.046   0.651
  180SOL    HW2 1440   2.910   0.003   0.579
  181SOL     OW 1441   3.341   2.931   6.096
  181SOL    HW1 1442   3.374   2.877   6.019
  181SOL    HW2 1443   3.310   3.020   6.063
  182SOL     OW 1444   4.647   2.637   6.852
  182SOL    HW1 1445   4.613   2.607   6.941
  182SOL    HW2 1446   4.574   2.631   6.784
  183SOL     OW 1447   4.117   2.208   3.595
  183SOL    HW1 1448   4.031   2.201   3.645
  183SOL    HW2 1449   4.186   2.249   3.654
  184SOL     OW 1450   0.398   6.648   4.056
  184SOL    HW1 1451   0.350   6.703   4.123
  184SOL    HW2 1452   0.457   6.707   4.000
  185SOL     OW 1453   1.114   1.098   3.924
  185SOL    HW1 1454   1.086   1.038   3.999
  185SOL    HW2 1455   1.188   1.055   3.873
  186SOL     OW 1456   5.586   0.101   4.253
  186SOL    HW1 1457   5.602   0.020   4.309
  186SOL    HW2 1458   5.503   0.147   4.284
  187SOL     OW 1459   5.245   6.466   2.427
  187SOL    HW1 1460   5.284   6.550   2.390
  187SOL    HW2 1461   5.292   6.387   2.387
  188SOL     OW 1462   0.776   2.692   3.524
  188SOL    HW1 1463   0.684   2.732   3.525
  188SOL    HW2 1464   0.781   2.618   3.590
  189SOL     OW 1465   1.090   4.880   6.866
  189SOL    HW1 1466   1.150   4.817   6.915
  189SOL    HW2 1467   1.088   4.856   6.769
  190SOL     OW 1468   5.954   4.484   6.746
  190SOL    HW1 1469   5.985   4.579   6.752
  190SOL    HW2 1470   5.855   4.482   6.732
  191SOL     OW 1471   6.334   1.382   5.613
  191SOL    HW1 1472   6.320   1.406   5.709
  191SOL    HW2 1473   6.265   1.429   5.557
  192SOL     OW 1474   0.049   5.111   1.676
  192SOL    HW1 1475   0.017   5.017   1.692
  192SOL    HW2 1476   0.101   5.114   1.590
  193SOL     OW 1477   5.327   3.870   5.055
  193SOL    HW1 1478   5.249   3.931   5.063
  193SOL    HW2 1479   5.368   3.857   5.145
  194SOL     OW 1480   4.071   6.572   3.040
  194SOL    HW1 1481   3.986   6.608   3.078
  194SOL    HW2 1482   4.118   6.517   3.108
  195SOL     OW 1483   1.760   0.989   3.360
  195SOL    HW1 1484   1.757   0.892   3.385
  195SOL    HW2 1485   1.782   0.999   3.263
  196SOL     OW 1486   3.348   6.998   0.026
  196SOL    HW1 1487   3.370   0.053   0.081
  196SOL    HW2 1488   3.433   6.960   7.013
  197SOL     OW 1489   2.871   6.379   0.174
  197SOL    HW1 1490   2.819   6.423   0.248
  197SOL    HW2 1491   2.918   6.450   0.121
  198SOL     OW 1492   4.797   6.957   1.321
  198SOL    HW1 1493   4.811   0.025   1.354
  198SOL    HW2 1494   4.818   6.893   1.395
  199SOL     OW 1495   6.593   1.340   2.649
  199SOL    HW1 1496   6.677   1.392   2.665
  199SOL    HW2 1497   6.516   1.403   2.641
  200SOL     OW 1498   1.093   4.176   2.672
  200SOL    HW1 1499   1.018   4.226   2.629
  200SOL    HW2 1500   1.066   4.147   2.764
  201SOL     OW 1501   3.612   6.780   5.762
  201SOL    HW1 1502   3.571   6.805   5.674
  201SOL    HW2 1503   3.607   6.681   5.773
  202SOL     OW 1504   4.985   0.728   5.089
  202SOL    HW1 1505   4.915   0.676   5.040
  202SOL    HW2 1506   4.977   0.825   5.064
  203SOL     OW 1507   4.780   2.476   4.867
  203SOL    HW1 1508   4.769   2.406   4.936
  203SOL    HW2 1509   4.778   2.566   4.910
  204SOL     OW 1510   1.030   0.501   6.608
  204SOL    HW1 1511   0.965   0.498   6.683
  204SOL    HW2 1512   0.981   0.499   6.521
  205SOL     OW 1513   0.720   1.387   1.900
  205SOL    HW1 1514   0.628   1.417   1.875
  205SOL    HW2 1515   0.787   1.426   1.835
  206SOL     OW 1516   0.488   4.772   2.813
  206SOL    HW1 1517   0.464   4.677   2.793
  206SOL    HW2 1518   0.468   4.829   2.733
  207SOL     OW 1519   3.869   0.290   5.181
  207SOL    HW1 1520   3.873   0.194   5.211
  207SOL    HW2 1521   3.775   0.313   5.158
  208SOL     OW 1522   5.040   3.695   6.066
  208SOL    HW1 1523   4.990   3.621   6.021
  208SOL    HW2 1524   5.103   3.656   6.134
  209SOL     OW 1525   1.185   5.624   6.074
  209SOL    HW1 1526   1.107   5.608   6.014
  209SOL    HW2 1527   1.267   5.585   6.032
  210SOL     OW 1528   4.100   1.948   2.276
  210SOL    HW1 1529   4.061   1.989   2.193
  210SOL    HW2 1530   4.032   1.952   2.350
  211SOL     OW 1531   0.968   6.409   3.985
  211SOL    HW1 1532   0.919   6.488   4.023
  211SOL    HW2 1533   0.905   6.354   3.931
  212SOL     OW 1534   2.299   4.222   2.255
  212SOL    HW1 1535   2.378   4.161   2.262
  212SOL    HW2 1536   2.330   4.317   2.263
  213SOL     OW 1537   4.165   0.736   6.536
  213SOL    HW1 1538   4.228   0.804   6.574
  213SOL    HW2 1539   4.072   0.754   6.569
  214SOL     OW 1540   3.212   6.046   2.267
  214SOL    HW1 1541   3.246   6.061   2.174
  214SOL    HW2 1542   3.197   5.948   2.281
  215SOL     OW 1543   3.061   4.091   1.759
  215SOL    HW1 1544   2.996   4.125   1.691
  215SOL    HW2 1545   3.057   3.992   1.762
  216SOL     OW 1546   1.445   6.849   5.111
  216SOL    HW1 1547   1.495   6.886   5.033
  216SOL    HW2 1548   1.422   6.924   5.174
  217SOL     OW 1549   2.125   2.691   4.794
  217SOL    HW1 1550   2.074   2.762   4.843
  217SOL    HW2 1551   2.218   2.686   4.830
  218SOL     OW 1552   1.068   3.130   5.153
  218SOL    HW1 1553   1.077   3.065   5.078
  218SOL    HW2 1554   1.158   3.151   5.191
  219SOL     OW 1555   3.529   5.901   6.240
  219SOL    HW1 1556   3.617   5.886   6.284
  219SOL    HW2 1557   3.506   5.999   6.241
  220SOL     OW 1558   3.051   5.815   6.709
  220SOL    HW1 1559   2.954   5.827   6.687
  220SOL    HW2 1560   3.060   5.779   6.802
  221SOL     OW 1561   6.147   3.802   2.675
  221SOL    HW1 1562   6.180   3.721   2.724
  221SOL    HW2 1563   6.143   3.783   2.577
  222SOL     OW 1564   2.211   4.813   5.710
  222SOL    HW1 1565   2.276   4.809   5.787
  222SOL    HW2 1566   2.223   4.900   5.661
  223SOL     OW 1567   6.982   4.125   0.772
  223SOL    HW1 1568   6.965   4.031   0.741
  223SOL    HW2 1569   6.977   4.129   0.872
  224SOL     OW 1570   2.675   2.207   3.468
  224SOL    HW1 1571   2.733   2.244   3.540
  224SOL    HW2 1572   2.586   2.180   3.506
  225SOL     OW 1573   5.002   1.545   6.160
  225SOL    HW1 1574   5.086   1.593   6.183
  225SOL    HW2 1575   4.939   1.548   6.238
  226SOL     OW 1576   0.313   6.365   0.236
  226SOL    HW1 1577   0.353   6.446   0.194
  226SOL    HW2 1578   0.310   6.291   0.168
  227SOL     OW 1579   1.132   4.563   2.469
  227SOL    HW1 1580   1.168   4.471   2.458
  227SOL    HW2 1581   1.177   4.625   2.405
  228SOL     OW 1582   3.050   6.240   3.681
  228SOL    HW1 1583   3.006   6.330   3.683
  228SOL    HW2 1584   3.019   6.189   3.601
  229SOL     OW 1585   6.291   5.885   0.326
  229SOL    HW1 1586   6.219   5.815   0.337
  229SOL    HW2 1587   6.248   5.973   0.308
  230SOL     OW 1588   3.299   4.882   3.626
  230SOL    HW1 1589   3.398   4.879   3.637
  230SOL    HW2 1590   3.258   4.802   3.670
  231SOL     OW 1591   5.991   2.170   5.760
  231SOL    HW1 1592   5.925   2.244   5.748
  231SOL    HW2 1593   5.963   2.091   5.706
  232SOL     OW 1594   0.910   4.503   6.316
  232SOL    HW1 1595   0.842   4.568   6.280
  232SOL    HW2 1596   0.997   4.550   6.327
  233SOL     OW 1597   1.950   1.230   4.676
  233SOL    HW1 1598   1.906   1.221   4.587
  233SOL    HW2 1599   1.988   1.322   4.685
  234SOL     OW 1600   2.527   6.073   5.316
  234SOL    HW1 1601   2.523   5.981   5.353
  234SOL    HW2 1602   2.623   6.098   5.298
  235SOL     OW 1603   3.036   3.667   2.914
  235SOL    HW1 1604   3.038   3.762   2.883
  235SOL    HW2 1605   2.943   3.632   2.910
  236SOL     OW 1606   6.233   2.523   6.409
  236SOL    HW1 1607   6.242   2.602   6.470
  236SOL    HW2 1608   6.138   2.515   6.378
  237SOL     OW 1609   0.143   0.060   0.959
  237SOL    HW1 1610   0.104   0.088   0.871
  237SOL    HW2 1611   0.188   0.139   1.002
  238SOL     OW 1612   6.438   2.718   0.298
  238SOL    HW1 1613   6.509   2.650   0.282
  238SOL    HW2 1614   6.359   2.674   0.341
  239SOL     OW 1615   6.862   4.812   6.849
  239SOL    HW1 1616   6.841   4.908   6.829
  239SOL    HW2 1617   6.836   4.755   6.772
  240SOL     OW 1618   0.537   3.068   5.240
  240SOL    HW1 1619   0.498   3.142   5.185
  240SOL    HW2 1620   0.502   2.980   5.208
  241SOL     OW 1621   0.603   0.541   3.805
  241SOL    HW1 1622   0.625   0.480   3.729
  241SOL    HW2 1623   0.532   0.499   3.862
  242SOL     OW 1624   2.070   2.895   5.729
  242SOL    HW1 1625   2.042   2.809   5.687
  242SOL    HW2 1626   1.992   2.957   5.731
  243SOL     OW 1627   4.954   0.091   5.638
  243SOL    HW1 1628   4.887   0.164   5.659
  243SOL    HW2 1629   4.905   0.010   5.607
  244SOL     OW 1630   4.830   3.186   4.556
  244SOL    HW1 1631   4.885   3.200   4.639
  244SOL    HW2 1632   4.757   3.121   4.575
  245SOL     OW 1633   6.797   2.517   4.464
  245SOL    HW1 1634   6.774   2.612   4.442
  245SOL    HW2 1635   6.720   2.476   4.514
  246SOL     OW 1636   5.624   3.543   3.264
  246SOL    HW1 1637   5.579   3.482   3.200
  246SOL    HW2 1638   5.601   3.516   3.358
  247SOL     OW 1639   1.970   2.027   2.805
  247SOL    HW1 1640   1.874   2.039   2.830
  247SOL    HW2 1641   1.985   1.932   2.776
  248SOL     OW 1642   4.731   2.902   4.560
  248SOL    HW1 1643   4.750   2.933   4.652
  248SOL    HW2 1644   4.702   2.806   4.562
  249SOL     OW 1645   4.350   0.467   5.194
  249SOL    HW1 1646   4.398   0.555   5.194
  249SOL    HW2 1647   4.418   0.393   5.200
  250SOL     OW 1648   4.649   2.263   5.408
  250SOL    HW1 1649   4.705   2.286   5.488
  250SOL    HW2 1650   4.582   2.336   5.393
  251SOL     OW 1651   4.160   4.760   6.104
  251SOL    HW1 1652   4.088   4.706   6.149
  251SOL    HW2 1653   4.134   4.775   6.008
  252SOL     OW 1654   6.545   1.351   5.967
  252SOL    HW1 1655   6.466   1.412   5.976
  252SOL    HW2 1656   6.513   1.256   5.962
  253SOL     OW 1657   2.765   4.481   0.237
  253SOL    HW1 1658   2.711   4.472   0.320
  253SOL    HW2 1659   2.707   4.517   0.163
  254SOL     OW 1660   6.824   2.761   3.809
  254SOL    HW1 1661   6.917   2.724   3.818
  254SOL    HW2 1662   6.828   2.861   3.810
  255SOL     OW 1663   2.284   2.337   3.593
  255SOL    HW1 1664   2.336   2.253   3.579
  255SOL    HW2 1665   2.203   2.318   3.649
  256SOL     OW 1666   6.453   4.502   6.882
  256SOL    HW1 1667   6.510   4.448   6.819
  256SOL    HW2 1668   6.426   4.446   6.960
  257SOL     OW 1669   3.459   5.293   5.404
  257SOL    HW1 1670   3.446   5.390   5.423
  257SOL    HW2 1671   3.373   5.252   5.375
  258SOL     OW 1672   5.183   3.405   4.866
  258SOL    HW1 1673   5.256   3.425   4.931
  258SOL    HW2 1674   5.115   3.478   4.869
  259SOL     OW 1675   2.125   2.981   2.409
  259SOL    HW1 1676   2.029   2.959   2.425
  259SOL    HW2 1677   2.136   3.017   2.316
  260SOL     OW 1678   4.363   0.697   0.877
  260SOL    HW1 1679   4.457   0.705   0.912
  260SOL    HW2 1680   4.299   0.729   0.947
  261SOL     OW 1681   0.036   3.943   0.987
  261SOL    HW1 1682   0.118   3.989   0.953
  261SOL    HW2 1683   0.035   3.848   0.955
  262SOL     OW 1684   0.444   3.689   2.154
  262SOL    HW1 1685   0.452   3.674   2.253
  262SOL    HW2 1686   0.505   3.764   2.128
  263SOL     OW 1687   0.208   1.679   4.069
  263SOL    HW1 1688   0.141   1.633   4.128
  263SOL    HW2 1689   0.294   1.627   4.070
  264SOL     OW 1690   6.512   4.087   5.896
  264SOL    HW1 1691   6.524   4.156   5.825
  264SOL    HW2 1692   6.541   4.124   5.984
  265SOL     OW 1693   4.873   3.872   3.122
  265SOL    HW1 1694   4.833   3.879   3.214
  265SOL    HW2 1695   4.956   3.927   3.118
  266SOL     OW 1696   3.344   2.772   6.299
  266SOL    HW1 1697   3.337   2.838   6.225
  266SOL    HW2 1698   3.359   2.680   6.261
  267SOL     OW 1699   0.055   3.002   6.844
  267SOL    HW1 1700   0.149   3.000   6.878
  267SOL    HW2 1701   7.017   3.011   6.920
  268SOL     OW 1702   5.080   5.461   5.031
  268SOL    HW1 1703   5.104   5.540   5.088
  268SOL    HW2 1704   5.162   5.427   4.985
  269SOL     OW 1705   1.515   1.772   0.393
  269SOL    HW1 1706   1.446   1.811   0.453
  269SOL    HW2 1707   1.479   1.689   0.350
  270SOL     OW 1708   6.494   1.104   1.898
  270SOL    HW1 1709   6.471   1.080   1.803
  270SOL    HW2 1710   6.555   1.034   1.936
  271SOL     OW 1711   2.861   1.347   0.512
  271SOL    HW1 1712   2.773   1.366   0.555
  271SOL    HW2 1713   2.848   1.286   0.434
  272SOL     OW 1714   3.553   5.048   3.955
  272SOL    HW1 1715   3.495   5.057   4.036
  272SOL    HW2 1716   3.598   5.135   3.935
  273SOL     OW 1717   1.638   5.621   5.666
  273SOL    HW1 1718   1.571   5.680   5.711
  273SOL    HW2 1719   1.619   5.525   5.690
  274SOL     OW 1720   4.799   2.319   4.124
  274SOL    HW1 1721   4.758   2.388   4.182
  274SOL    HW2 1722   4.729   2.277   4.066
  275SOL     OW 1723   0.856   5.873   6.263
  275SOL    HW1 1724   0.942   5.825   6.245
  275SOL    HW2 1725   0.805   5.825   6.334
  276SOL     OW 1726   6.817   5.330   4.337
  276SOL    HW1 1727   6.763   5.346   4.419
  276SOL    HW2 1728   6.832   5.232   4.325
  277SOL     OW 1729   3.580   1.105   6.233
  277SOL    HW1 1730   3.525   1.048   6.171
  277SOL    HW2 1731   3.527   1.124   6.316
  278SOL     OW 1732   6.050   3.499   2.021
  278SOL    HW1 1733   6.011   3.410   1.998
  278SOL    HW2 1734   6.133   3.514   1.967
  279SOL     OW 1735   6.371   3.043   4.290
  279SOL    HW1 1736   6.428   3.097   4.228
  279SOL    HW2 1737   6.421   2.962   4.319
  280SOL     OW 1738   4.646   0.040   3.283
  280SOL    HW1 1739   4.659   7.001   3.358
  280SOL    HW2 1740   4.650   0.133   3.318
  281SOL     OW 1741   3.153   5.273   3.442
  281SOL    HW1 1742   3.073   5.265   3.382
  281SOL    HW2 1743   3.137   5.220   3.525
  282SOL     OW 1744   3.674   2.544   5.462
  282SOL    HW1 1745   3.621   2.471   5.420
  282SOL    HW2 1746   3.771   2.518   5.464
  283SOL     OW 1747   5.497   0.426   5.330
  283SOL    HW1 1748   5.408   0.436   5.374
  283SOL    HW2 1749   5.500   0.340   5.279
  284SOL     OW 1750   1.323   4.500   4.621
  284SOL    HW1 1751   1.257   4.445   4.672
  284SOL    HW2 1752   1.407   4.509   4.674
  285SOL     OW 1753   5.331   5.953   0.279
  285SOL    HW1 1754   5.290   6.026   0.334
  285SOL    HW2 1755   5.430   5.954   0.290
  286SOL     OW 1756   4.285   5.147   5.159
  286SOL    HW1 1757   4.375   5.146   5.116
  286SOL    HW2 1758   4.230   5.071   5.124
  287SOL     OW 1759   1.627   5.467   6.812
  287SOL    HW1 1760   1.675   5.446   6.727
  287SOL    HW2 1761   1.606   5.565   6.815
  288SOL     OW 1762   4.007   1.133   0.559
  288SOL    HW1 1763   4.017   1.128   0.658
  288SOL    HW2 1764   4.012   1.040   0.520
  289SOL     OW 1765   1.463   5.063   5.684
  289SOL    HW1 1766   1.493   4.969   5.671
  289SOL    HW2 1767   1.452   5.082   5.782
  290SOL     OW 1768   4.709   0.733   3.605
  290SOL    HW1 1769   4.620   0.770   3.633
  290SOL    HW2 1770   4.754   0.799   3.545
  291SOL     OW 1771   4.347   1.019   3.946
  291SOL    HW1 1772   4.354   1.000   4.044
  291SOL    HW2 1773   4.252   1.009   3.917
  292SOL     OW 1774   4.783   1.314   3.756
  292SOL    HW1 1775   4.756   1.383   3.823
  292SOL    HW2 1776   4.734   1.329   3.670
  293SOL     OW 1777   4.270   6.257   1.016
  293SOL    HW1 1778   4.306   6.171   0.978
  293SOL    HW2 1779   4.208   6.236   1.092
  294SOL     OW 1780   6.654   5.812   6.343
  294SOL    HW1 1781   6.707   5.860   6.273
  294SOL    HW2 1782   6.574   5.866   6.367
  295SOL     OW 1783   2.032   2.405   5.577
  295SOL    HW1 1784   2.117   2.440   5.537
  295SOL    HW2 1785   1.961   2.399   5.507
  296SOL     OW 1786   6.838   2.630   1.355
  296SOL    HW1 1787   6.773   2.567   1.313
  296SOL    HW2 1788   6.818   2.639   1.453
  297SOL     OW 1789   3.588   5.298   3.629
  297SOL    HW1 1790   3.610   5.346   3.544
  297SOL    HW2 1791   3.629   5.206   3.627
  298SOL     OW 1792   4.377   7.000   0.122
  298SOL    HW1 1793   4.353   0.071   0.112
  298SOL    HW2 1794   4.472   6.986   0.095
  299SOL     OW 1795   4.135   1.792   0.165
  299SOL    HW1 1796   4.078   1.858   0.115
  299SOL    HW2 1797   4.224   1.784   0.119
  300SOL     OW 1798   3.790   0.369   2.344
  300SOL    HW1 1799   3.753   0.423   2.420
  300SOL    HW2 1800   3.885   0.344   2.364
  301SOL     OW 1801   5.157   0.797   1.228
  301SOL    HW1 1802   5.103   0.722   1.268
  301SOL    HW2 1803   5.245   0.802   1.275
  302SOL     OW 1804   0.453   0.880   2.305
  302SOL    HW1 1805   0.416   0.790   2.284
  302SOL    HW2 1806   0.535   0.896   2.249
  303SOL     OW 1807   6.522   5.985   1.759
  303SOL    HW1 1808   6.536   6.083   1.746
  303SOL    HW2 1809   6.443   5.955   1.705
  304SOL     OW 1810   2.174   6.107   6.024
  304SOL    HW1 1811   2.108   6.182   6.027
  304SOL    HW2 1812   2.217   6.097   6.114
  305SOL     OW 1813   1.614   2.560   0.698
  305SOL    HW1 1814   1.574   2.649   0.717
  305SOL    HW2 1815   1.714   2.565   0.705
  306SOL     OW 1816   0.081   1.241   2.768
  306SOL    HW1 1817   0.115   1.332   2.793
  306SOL    HW2 1818   0.153   1.173   2.785
  307SOL     OW 1819   3.814   4.275   7.022
  307SOL    HW1 1820   3.780   4.200   0.054
  307SOL    HW2 1821   3.914   4.278   0.002
  308SOL     OW 1822   5.698   2.756   3.890
  308SOL    HW1 1823   5.603   2.770   3.918
  308SOL    HW2 1824   5.710   2.789   3.796
  309SOL     OW 1825   1.635   6.150   0.834
  309SOL    HW1 1826   1.631   6.105   0.923
  309SOL    HW2 1827   1.650   6.248   0.846
  310SOL     OW 1828   5.025   6.633   4.260
  310SOL    HW1 1829   5.067   6.571   4.327
  310SOL    HW2 1830   5.084   6.712   4.247
  311SOL     OW 1831   2.718   5.032   2.924
  311SOL    HW1 1832   2.735   4.936   2.947
  311SOL    HW2 1833   2.800   5.086   2.943
  312SOL     OW 1834   3.564   2.119   3.969
  312SOL    HW1 1835   3.548   2.140   4.065
  312SOL    HW2 1836   3.476   2.102   3.923
  313SOL     OW 1837   3.280   4.105   2.735
  313SOL    HW1 1838   3.224   4.068   2.809
  313SOL    HW2 1839   3.361   4.149   2.774
  314SOL     OW 1840   1.978   4.837   4.860
  314SOL    HW1 1841   1.953   4.818   4.765
  314SOL    HW2 1842   2.049   4.908   4.862
  315SOL     OW 1843   0.729   2.000   3.983
  315SOL    HW1 1844   0.633   1.973   3.990
  315SOL    HW2 1845   0.779   1.933   3.927
  316SOL     OW 1846   3.896   0.846   4.394
  316SOL    HW1 1847   3.930   0.937   4.419
  316SOL    HW2 1848   3.809   0.829   4.440
  317SOL     OW 1849   0.480   1.569   1.881
  317SOL    HW1 1850   0.464   1.566   1.980
  317SOL    HW2 1851   0.459   1.660   1.846
  318SOL     OW 1852   6.339   0.404   6.585
  318SOL    HW1 1853   6.361   0.481   6.644
  318SOL    HW2 1854   6.244   0.375   6.602
  319SOL     OW 1855   6.745   2.007   3.649
  319SOL    HW1 1856   6.785   1.966   3.568
  319SOL    HW2 1857   6.647   2.024   3.634
  320SOL     OW 1858   5.956   3.225   0.170
  320SOL    HW1 1859   5.932   3.128   0.160
  320SOL    HW2 1860   6.019   3.235   0.246
  321SOL     OW 1861   4.353   2.101   0.399
  321SOL    HW1 1862   4.426   2.122   0.334
  321SOL    HW2 1863   4.316   2.186   0.437
  322SOL     OW 1864   3.525   2.967   4.578
  322SOL    HW1 1865   3.439   2.964   4.527
  322SOL    HW2 1866   3.542   3.062   4.607
  323SOL     OW 1867   1.214   2.684   5.263
  323SOL    HW1 1868   1.253   2.664   5.173
  323SOL    HW2 1869   1.277   2.655   5.334
  324SOL     OW 1870   2.550   0.503   3.201
  324SOL    HW1 1871   2.647   0.491   3.181
  324SOL    HW2 1872   2.536   0.499   3.300
  325SOL     OW 1873   0.725   3.510   2.897
  325SOL    HW1 1874   0.760   3.419   2.876
  325SOL    HW2 1875   0.776   3.578   2.843
  326SOL     OW 1876   0.721   4.313   6.029
  326SOL    HW1 1877   0.709   4.329   6.127
  326SOL    HW2 1878   0.760   4.395   5.987
  327SOL     OW 1879   2.619   4.583   3.016
  327SOL    HW1 1880   2.546   4.515   3.013
  327SOL    HW2 1881   2.596   4.655   3.082
  328SOL     OW 1882   2.395   5.086   1.745
  328SOL    HW1 1883   2.386   5.135   1.832
  328SOL    HW2 1884   2.309   5.040   1.723
  329SOL     OW 1885   2.465   3.639   6.008
  329SOL    HW1 1886   2.401   3.702   6.051
  329SOL    HW2 1887   2.438   3.545   6.028
  330SOL     OW 1888   3.145   6.295   0.539
  330SOL    HW1 1889   3.184   6.346   0.616
  330SOL    HW2 1890   3.219   6.265   0.479
  331SOL     OW 1891   5.394   5.613   0.684
  331SOL    HW1 1892   5.390   5.661   0.772
  331SOL    HW2 1893   5.320   5.644   0.626
  332SOL     OW 1894   6.046   2.529   4.529
  332SOL    HW1 1895   6.132   2.486   4.556
  332SOL    HW2 1896   6.066   2.608   4.470
  333SOL     OW 1897   3.954   0.443   4.991
  333SOL    HW1 1898   3.927   0.539   4.998
  333SOL    HW2 1899   3.907   0.390   5.062
  334SOL     OW 1900   3.130   2.335   6.983
  334SOL    HW1 1901   3.212   2.390   6.966
  334SOL    HW2 1902   3.062   2.391   0.005
  335SOL     OW 1903   3.529   0.334   6.696
  335SOL    HW1 1904   3.579   0.420   6.685
  335SOL    HW2 1905   3.453   0.347   6.759
  336SOL     OW 1906   3.086   0.711   3.449
  336SOL    HW1 1907   3.056   0.754   3.534
  336SOL    HW2 1908   3.122   0.780   3.387
  337SOL     OW 1909   0.049   3.323   5.902
  337SOL    HW1 1910   0.111   3.251   5.870
  337SOL    HW2 1911   0.103   3.404   5.926
  338SOL     OW 1912   3.239   2.519   1.408
  338SOL    HW1 1913   3.326   2.477   1.380
  338SOL    HW2 1914   3.227   2.505   1.507
  339SOL     OW 1915   4.821   5.335   4.927
  339SOL    HW1 1916   4.750   5.398   4.958
  339SOL    HW2 1917   4.911   5.368   4.957
  340SOL     OW 1918   5.136   3.360   4.595
  340SOL    HW1 1919   5.132   3.452   4.555
  340SOL    HW2 1920   5.127   3.367   4.695
  341SOL     OW 1921   5.885   6.728   4.629
  341SOL    HW1 1922   5.818   6.762   4.695
  341SOL    HW2 1923   5.852   6.643   4.588
  342SOL     OW 1924   5.059   3.347   0.346
  342SOL    HW1 1925   5.048   3.368   0.443
  342SOL    HW2 1926   5.156   3.331   0.326
  343SOL     OW 1927   0.369   6.211   2.358
  343SOL    HW1 1928   0.297   6.276   2.335
  343SOL    HW2 1929   0.415   6.240   2.443
  344SOL     OW 1930   0.848   3.410   1.724
  344SOL    HW1 1931   0.785   3.369   1.790
  344SOL    HW2 1932   0.907   3.476   1.771
  345SOL     OW 1933   5.659   2.366   3.695
  345SOL    HW1 1934   5.645   2.361   3.794
  345SOL    HW2 1935   5.593   2.307   3.648
  346SOL     OW 1936   1.818   0.893   2.663
  346SOL    HW1 1937   1.778   0.826   2.601
  346SOL    HW2 1938   1.770   0.980   2.654
  347SOL     OW 1939   3.128   5.998   0.374
  347SOL    HW1 1940   3.160   6.054   0.298
  347SOL    HW2 1941   3.049   6.041   0.418
  348SOL     OW 1942   5.078   3.872   2.677
  348SOL    HW1 1943   5.052   3.867   2.580
  348SOL    HW2 1944   5.172   3.906   2.684
  349SOL     OW 1945   6.863   4.784   2.034
  349SOL    HW1 1946   6.767   4.781   2.060
  349SOL    HW2 1947   6.911   4.706   2.073
  350SOL     OW 1948   2.561   2.410   0.977
  350SOL    HW1 1949   2.566   2.508   0.997
  350SOL    HW2 1950   2.654   2.374   0.966
  351SOL     OW 1951   2.113   3.224   0.674
  351SOL    HW1 1952   2.210   3.221   0.649
  351SOL    HW2 1953   2.104   3.213   0.772
  352SOL     OW 1954   3.411   0.276   3.854
  352SOL    HW1 1955   3.488   0.230   3.898
  352SOL    HW2 1956   3.331   0.271   3.914
  353SOL     OW 1957   2.588   0.043   6.968
  353SOL    HW1 1958   2.676   0.053   7.014
  353SOL    HW2 1959   2.536   6.994   7.011
  354SOL     OW 1960   4.482   2.245   1.730
  354SOL    HW1 1961   4.549   2.312   1.763
  354SOL    HW2 1962   4.415   2.227   1.803
  355SOL     OW 1963   1.687   4.364   3.136
  355SOL    HW1 1964   1.773   4.330   3.175
  355SOL    HW2 1965   1.624   4.288   3.122
  356SOL     OW 1966   2.316   0.888   5.558
  356SOL    HW1 1967   2.335   0.812   5.621
  356SOL    HW2 1968   2.344   0.861   5.465
  357SOL     OW 1969   0.094   6.263   5.182
  357SOL    HW1 1970   0.174   6.271   5.122
  357SOL    HW2 1971   0.070   6.354   5.217
  358SOL     OW 1972   5.065   6.353   0.954
  358SOL    HW1 1973   5.051   6.285   1.026
  358SOL    HW2 1974   5.139   6.324   0.894
  359SOL     OW 1975   3.103   1.512   2.592
  359SOL    HW1 1976   3.155   1.497   2.508
  359SOL    HW2 1977   3.027   1.447   2.596
  360SOL     OW 1978   1.531   4.573   5.344
  360SOL    HW1 1979   1.515   4.584   5.246
  360SOL    HW2 1980   1.486   4.491   5.377
  361SOL     OW 1981   6.681   6.472   3.432
  361SOL    HW1 1982   6.770   6.460   3.389
  361SOL    HW2 1983   6.666   6.400   3.499
  362SOL     OW 1984   3.319   2.853   1.642
  362SOL    HW1 1985   3.296   2.824   1.735
  362SOL    HW2 1986   3.389   2.793   1.604
  363SOL     OW 1987   5.733   4.377   3.067
  363SOL    HW1 1988   5.757   4.319   3.144
  363SOL    HW2 1989   5.815   4.400   3.015
  364SOL     OW 1990   0.018   5.242   6.564
  364SOL    HW1 1991   0.032   5.178   6.488
  364SOL    HW2 1992   0.015   5.191   6.650
  365SOL     OW 1993   5.220   0.317   1.675
  365SOL    HW1 1994   5.231   0.218   1.684
  365SOL    HW2 1995   5.237   0.360   1.764
  366SOL     OW 1996   6.102   1.926   6.902
  366SOL    HW1 1997   6.037   1.965   6.836
  366SOL    HW2 1998   6.137   1.999   6.961
  367SOL     OW 1999   5.931   2.377   0.705
  367SOL    HW1 2000   5.907   2.307   0.773
  367SOL    HW2 2001   5.981   2.334   0.630
  368SOL     OW 2002   0.762   2.484   5.091
  368SOL    HW1 2003   0.826   2.438   5.153
  368SOL    HW2 2004   0.757   2.433   5.005
  369SOL     OW 2005   5.827   5.429   2.217
  369SOL    HW1 2006   5.774   5.358   2.171
  369SOL    HW2 2007   5.843   5.402   2.312
  370SOL     OW 2008   1.390   1.755   4.711
  370SOL    HW1 2009   1.369   1.694   4.788
  370SOL    HW2 2010   1.331   1.836   4.715
  371SOL     OW 2011   1.742   4.704   6.685
  371SOL    HW1 2012   1.697   4.709   6.774
  371SOL    HW2 2013   1.741   4.794   6.642
  372SOL     OW 2014   1.906   6.825   5.825
  372SOL    HW1 2015   1.966   6.852   5.901
  372SOL    HW2 2016   1.958   6.769   5.761
  373SOL     OW 2017   5.953   6.083   5.176
  373SOL    HW1 2018   5.887   6.020   5.133
  373SOL    HW2 2019   6.043   6.068   5.137
  374SOL     OW 2020   2.842   2.246   3.256
  374SOL    HW1 2021   2.793   2.234   3.342
  374SOL    HW2 2022   2.935   2.211   3.266
  375SOL     OW 2023   0.828   4.104   3.941
  375SOL    HW1 2024   0.767   4.153   3.879
  375SOL    HW2 2025   0.799   4.120   4.035
  376SOL     OW 2026   1.099   1.248   4.981
  376SOL    HW1 2027   1.057   1.332   4.945
  376SOL    HW2 2028   1.061   1.169   4.933
  377SOL     OW 2029   1.349   1.935   0.535
  377SOL    HW1 2030   1.422   1.979   0.587
  377SOL    HW2 2031   1.268   1.993   0.536
  378SOL     OW 2032   4.455   1.847   0.418
  378SOL    HW1 2033   4.405   1.934   0.413
  378SOL    HW2 2034   4.484   1.820   0.327
  379SOL     OW 2035   5.529   2.181   0.822
  379SOL    HW1 2036   5.455   2.125   0.860
  379SOL    HW2 2037   5.528   2.175   0.723
  380SOL     OW 2038   3.282   1.558   1.053
  380SOL    HW1 2039   3.370   1.599   1.077
  380SOL    HW2 2040   3.291   1.509   0.966
  381SOL     OW 2041   1.545   3.971   3.616
  381SOL    HW1 2042   1.603   3.913   3.673
  381SOL    HW2 2043   1.596   4.052   3.589
  382SOL     OW 2044   5.828   0.750   0.380
  382SOL    HW1 2045   5.857   0.729   0.473
  382SOL    HW2 2046   5.785   0.840   0.378
  383SOL     OW 2047   3.505   3.361   6.528
  383SOL    HW1 2048   3.465   3.270   6.540
  383SOL    HW2 2049   3.603   3.352   6.510
  384SOL     OW 2050   6.696   5.378   4.573
  384SOL    HW1 2051   6.745   5.340   4.651
  384SOL    HW2 2052   6.627   5.443   4.606
  385SOL     OW 2053   3.036   4.863   5.078
  385SOL    HW1 2054   2.954   4.808   5.069
  385SOL    HW2 2055   3.092   4.854   4.996
  386SOL     OW 2056   3.099   5.920   4.195
  386SOL    HW1 2057   3.175   5.935   4.132
  386SOL    HW2 2058   3.079   5.823   4.202
  387SOL     OW 2059   0.848   5.975   3.208
  387SOL    HW1 2060   0.942   5.946   3.186
  387SOL    HW2 2061   0.791   5.894   3.222
  388SOL     OW 2062   1.003   2.045   5.838
  388SOL    HW1 2063   0.911   2.021   5.869
  388SOL    HW2 2064   1.012   2.021   5.741
  389SOL     OW 2065   3.756   3.852   1.991
  389SOL    HW1 2066   3.705   3.924   1.944
  389SOL    HW2 2067   3.725   3.846   2.086
  390SOL     OW 2068   2.587   1.431   2.470
  390SOL    HW1 2069   2.603   1.495   2.395
  390SOL    HW2 2070   2.643   1.349   2.456
  391SOL     OW 2071   2.344   2.017   6.453
  391SOL    HW1 2072   2.403   2.097   6.463
  391SOL    HW2 2073   2.379   1.942   6.510
  392SOL     OW 2074   1.950   4.831   0.886
  392SOL    HW1 2075   2.011   4.910   0.879
  392SOL    HW2 2076   2.003   4.747   0.882
  393SOL     OW 2077   1.214   4.225   6.328
  393SOL    HW1 2078   1.138   4.217   6.393
  393SOL    HW2 2079   1.183   4.276   6.247
  394SOL     OW 2080   6.885   1.442   0.138
  394SOL    HW1 2081   6.903   1.491   0.223
  394SOL    HW2 2082   6.816   1.372   0.154
  395SOL     OW 2083   5.071   3.675   2.980
  395SOL    HW1 2084   5.032   3.641   2.894
  395SOL    HW2 2085   5.036   3.621   3.056
  396SOL     OW 2086   3.610   4.109   1.586
  396SOL    HW1 2087   3.512   4.093   1.573
  396SOL    HW2 2088   3.635   4.197   1.546
  397SOL     OW 2089   4.935   2.092   6.071
  397SOL    HW1 2090   4.873   2.169   6.062
  397SOL    HW2 2091   4.912   2.022   6.003
  398SOL     OW 2092   0.340   6.517   2.541
  398SOL    HW1 2093   0.340   6.523   2.442
  398SOL    HW2 2094   0.273   6.449   2.571
  399SOL     OW 2095   5.996   6.034   2.472
  399SOL    HW1 2096   6.074   5.981   2.440
  399SOL    HW2 2097   6.027   6.126   2.498
  400SOL     OW 2098   6.231   6.922   6.034
  400SOL    HW1 2099   6.174   7.002   6.052
  400SOL    HW2 2100   6.223   6.896   5.938
  401SOL     OW 2101   4.808   0.540   5.373
  401SOL    HW1 2102   4.888   0.536   5.313
  401SOL    HW2 2103   4.755   0.623   5.353
  402SOL     OW 2104   5.661   0.270   3.183
  402SOL    HW1 2105   5.747   0.226   3.211
  402SOL    HW2 2106   5.620   0.314   3.263
  403SOL     OW 2107   3.769   2.109   4.308
  403SOL    HW1 2108   3.801   2.159   4.390
  403SOL    HW2 2109   3.670   2.103   4.310
  404SOL     OW 2110   1.249   5.276   4.987
  404SOL    HW1 2111   1.345   5.251   4.975
  404SOL    HW2 2112   1.242   5.376   4.996
  405SOL     OW 2113   1.618   3.413   1.802
  405SOL    HW1 2114   1.575   3.370   1.882
  405SOL    HW2 2115   1.718   3.406   1.809
  406SOL     OW 2116   0.954   4.482   4.852
  406SOL    HW1 2117   0.889   4.496   4.928
  406SOL    HW2 2118   0.996   4.570   4.828
  407SOL     OW 2119   1.299   0.911   3.855
  407SOL    HW1 2120   1.389   0.868   3.851
  407SOL    HW2 2121   1.228   0.842   3.838
  408SOL     OW 2122   1.105   2.547   2.888
  408SOL    HW1 2123   1.129   2.579   2.980
  408SOL    HW2 2124   1.141   2.611   2.820
  409SOL     OW 2125   6.983   2.973   1.284
  409SOL    HW1 2126   6.927   3.020   1.352
  409SOL    HW2 2127   6.937   2.978   1.195
  410SOL     OW 2128   1.625   1.608   1.774
  410SOL    HW1 2129   1.581   1.632   1.687
  410SOL    HW2 2130   1.723   1.597   1.761
  411SOL     OW 2131   5.356   0.120   1.448
  411SOL    HW1 2132   5.268   0.087   1.412
  411SOL    HW2 2133   5.375   0.211   1.411
  412SOL     OW 2134   4.446   6.187   3.708
  412SOL    HW1 2135   4.506   6.116   3.746
  412SOL    HW2 2136   4.453   6.187   3.608
  413SOL     OW 2137   5.174   4.228   1.838
  413SOL    HW1 2138   5.079   4.197   1.840
  413SOL    HW2 2139   5.223   4.183   1.763
  414SOL     OW 2140   3.618   5.616   3.703
  414SOL    HW1 2141   3.672   5.545   3.747
  414SOL    HW2 2142   3.529   5.624   3.748
  415SOL     OW 2143   0.805   5.662   6.745
  415SOL    HW1 2144   0.745   5.615   6.810
  415SOL    HW2 2145   0.817   5.757   6.774
  416SOL     OW 2146   5.208   6.209   4.012
  416SOL    HW1 2147   5.229   6.265   3.931
  416SOL    HW2 2148   5.137   6.254   4.066
  417SOL     OW 2149   2.994   5.253   0.146
  417SOL    HW1 2150   3.039   5.333   0.185
  417SOL    HW2 2151   2.927   5.282   0.078
  418SOL     OW 2152   4.186   6.545   0.502
  418SOL    HW1 2153   4.212   6.554   0.598
  418SOL    HW2 2154   4.230   6.463   0.464
  419SOL     OW 2155   1.951   0.635   1.775
  419SOL    HW1 2156   1.855   0.611   1.760
  419SOL    HW2 2157   1.982   0.697   1.702
  420SOL     OW 2158   5.308   1.301   6.752
  420SOL    HW1 2159   5.302   1.210   6.710
  420SOL    HW2 2160   5.251   1.304   6.834
  421SOL     OW 2161   6.883   4.171   5.788
  421SOL    HW1 2162   6.876   4.093   5.849
  421SOL    HW2 2163   6.951   4.235   5.823
  422SOL     OW 2164   5.982   3.497   1.110
  422SOL    HW1 2165   6.024   3.454   1.031
  422SOL    HW2 2166   6.018   3.590   1.122
  423SOL     OW 2167   1.057   2.109   6.557
  423SOL    HW1 2168   1.062   2.116   6.457
  423SOL    HW2 2169   0.963   2.120   6.587
  424SOL     OW 2170   2.012   4.624   1.214
  424SOL    HW1 2171   2.016   4.529   1.244
  424SOL    HW2 2172   1.917   4.652   1.203
  425SOL     OW 2173   5.648   1.608   3.311
  425SOL    HW1 2174   5.684   1.660   3.233
  425SOL    HW2 2175   5.718   1.546   3.345
  426SOL     OW 2176   4.117   1.841   4.727
  426SOL    HW1 2177   4.028   1.877   4.755
  426SOL    HW2 2178   4.169   1.913   4.682
  427SOL     OW 2179   4.493   5.980   3.258
  427SOL    HW1 2180   4.425   5.953   3.325
  427SOL    HW2 2181   4.480   5.928   3.173
  428SOL     OW 2182   4.079   0.226   4.669
  428SOL    HW1 2183   3.984   0.233   4.639
  428SOL    HW2 2184   4.132   0.302   4.630
  429SOL     OW 2185   1.186   2.990   1.161
  429SOL    HW1 2186   1.245   3.012   1.239
  429SOL    HW2 2187   1.168   3.074   1.109
  430SOL     OW 2188   0.090   0.436   5.602
  430SOL    HW1 2189   7.022   0.460   5.628
  430SOL    HW2 2190   0.154   0.472   5.670
  431SOL     OW 2191   3.399   6.836   0.597
  431SOL    HW1 2192   3.497   6.851   0.611
  431SOL    HW2 2193   3.385   6.777   0.517
  432SOL     OW 2194   6.580   1.654   0.628
  432SOL    HW1 2195   6.614   1.711   0.553
  432SOL    HW2 2196   6.519   1.708   0.686
  433SOL     OW 2197   2.717   6.490   4.916
  433SOL    HW1 2198   2.660   6.561   4.875
  433SOL    HW2 2199   2.684   6.469   5.008
  434SOL     OW 2200   3.476   5.953   3.033
  434SOL    HW1 2201   3.506   5.867   3.074
  434SOL    HW2 2202   3.457   6.020   3.105
  435SOL     OW 2203   5.237   2.576   6.438
  435SOL    HW1 2204   5.278   2.569   6.347
  435SOL    HW2 2205   5.298   2.534   6.505
  436SOL     OW 2206   2.653   6.255   1.116
  436SOL    HW1 2207   2.606   6.311   1.184
  436SOL    HW2 2208   2.586   6.219   1.051
  437SOL     OW 2209   1.484   0.864   0.372
  437SOL    HW1 2210   1.417   0.899   0.306
  437SOL    HW2 2211   1.539   0.940   0.406
  438SOL     OW 2212   1.795   3.955   3.314
  438SOL    HW1 2213   1.781   3.879   3.377
  438SOL    HW2 2214   1.825   3.920   3.225
  439SOL     OW 2215   5.723   5.101   2.643
  439SOL    HW1 2216   5.689   5.029   2.702
  439SOL    HW2 2217   5.687   5.189   2.673
  440SOL     OW 2218   1.759   1.472   5.262
  440SOL    HW1 2219   1.756   1.408   5.184
  440SOL    HW2 2220   1.845   1.522   5.259
  441SOL     OW 2221   1.285   2.600   4.389
  441SOL    HW1 2222   1.349   2.662   4.343
  441SOL    HW2 2223   1.205   2.586   4.331
  442SOL     OW 2224   3.536   5.469   5.713
  442SOL    HW1 2225   3.627   5.431   5.730
  442SOL    HW2 2226   3.466   5.403   5.741
  443SOL     OW 2227   6.058   4.255   4.307
  443SOL    HW1 2228   5.992   4.234   4.379
  443SOL    HW2 2229   6.138   4.300   4.347
  444SOL     OW 2230   5.116   1.565   5.678
  444SOL    HW1 2231   5.210   1.597   5.675
  444SOL    HW2 2232   5.075   1.588   5.766
  445SOL     OW 2233   0.481   5.871   3.066
  445SOL    HW1 2234   0.473   5.965   3.098
  445SOL    HW2 2235   0.550   5.866   2.994
  446SOL     OW 2236   3.420   5.556   3.895
  446SOL    HW1 2237   3.386   5.649   3.903
  446SOL    HW2 2238   3.345   5.491   3.911
  447SOL     OW 2239   0.440   2.717   6.168
  447SOL    HW1 2240   0.510   2.648   6.153
  447SOL    HW2 2241   0.471   2.782   6.237
  448SOL     OW 2242   1.999   0.567   3.212
  448SOL    HW1 2243   1.927   0.623   3.171
  448SOL    HW2 2244   2.084   0.579   3.160
  449SOL     OW 2245   4.093   1.627   4.086
  449SOL    HW1 2246   4.134   1.555   4.141
  449SOL    HW2 2247   4.161   1.663   4.022
  450SOL     OW 2248   1.501   5.441   3.311
  450SOL    HW1 2249   1.587   5.391   3.318
  450SOL    HW2 2250   1.442   5.416   3.388
  451SOL     OW 2251   1.090   2.351   3.638
  451SOL    HW1 2252   1.185   2.321   3.627
  451SOL    HW2 2253   1.081   2.402   3.724
  452SOL     OW 2254   5.838   6.330   0.966
  452SOL    HW1 2255   5.919   6.372   0.924
  452SOL    HW2 2256   5.807   6.388   1.042
  453SOL     OW 2257   3.435   1.329   5.726
  453SOL    HW1 2258   3.475   1.352   5.637
  453SOL    HW2 2259   3.382   1.245   5.719
  454SOL     OW 2260   6.839   4.611   5.983
  454SOL    HW1 2261   6.760   4.572   6.030
  454SOL    HW2 2262   6.884   4.541   5.928
  455SOL     OW 2263   6.119   2.405   3.623
  455SOL    HW1 2264   6.122   2.489   3.570
  455SOL    HW2 2265   6.026   2.386   3.652
  456SOL     OW 2266   6.175   6.422   4.025
  456SOL    HW1 2267   6.109   6.365   3.977
  456SOL    HW2 2268   6.217   6.486   3.960
  457SOL     OW 2269   1.656   2.113   3.828
  457SOL    HW1 2270   1.737   2.065   3.863
  457SOL    HW2 2271   1.636   2.081   3.735
  458SOL     OW 2272   4.142   5.815   3.265
  458SOL    HW1 2273   4.093   5.897   3.235
  458SOL    HW2 2274   4.077   5.740   3.279
  459SOL     OW 2275   2.084   6.248   5.055
  459SOL    HW1 2276   2.102   6.346   5.059
  459SOL    HW2 2277   2.162   6.198   5.093
  460SOL     OW 2278   1.729   6.733   3.728
  460SOL    HW1 2279   1.632   6.739   3.749
  460SOL    HW2 2280   1.761   6.819   3.689
  461SOL     OW 2281   6.527   6.839   6.167
  461SOL    HW1 2282   6.545   6.887   6.253
  461SOL    HW2 2283   6.430   6.818   6.161
  462SOL     OW 2284   3.799   3.306   6.582
  462SOL    HW1 2285   3.897   3.288   6.589
  462SOL    HW2 2286   3.749   3.240   6.637
  463SOL     OW 2287   5.614   5.919   3.520
  463SOL    HW1 2288   5.635   5.832   3.566
  463SOL    HW2 2289   5.678   5.989   3.552
  464SOL     OW 2290   3.021   1.417   4.970
  464SOL    HW1 2291   2.957   1.385   4.899
  464SOL    HW2 2292   3.103   1.453   4.926
  465SOL     OW 2293   0.957   3.452   6.559
  465SOL    HW1 2294   0.972   3.444   6.461
  465SOL    HW2 2295   1.011   3.383   6.607
  466SOL     OW 2296   0.797   6.557   3.146
  466SOL    HW1 2297   0.780   6.466   3.184
  466SOL    HW2 2298   0.743   6.624   3.197
  467SOL     OW 2299   2.131   1.171   1.076
  467SOL    HW1 2300   2.120   1.212   0.985
  467SOL    HW2 2301   2.069   1.215   1.141
  468SOL     OW 2302   3.611   0.339   6.234
  468SOL    HW1 2303   3.599   0.438   6.245
  468SOL    HW2 2304   3.594   0.314   6.139
  469SOL     OW 2305   2.964   3.076   6.628
  469SOL    HW1 2306   3.057   3.058   6.596
  469SOL    HW2 2307   2.903   3.088   6.550
  470SOL     OW 2308   4.595   6.864   1.664
  470SOL    HW1 2309   4.601   6.954   1.621
  470SOL    HW2 2310   4.571   6.874   1.760
  471SOL     OW 2311   2.495   2.424   3.782
  471SOL    HW1 2312   2.567   2.359   3.760
  471SOL    HW2 2313   2.419   2.413   3.717
  472SOL     OW 2314   4.453   3.397   6.479
  472SOL    HW1 2315   4.488   3.305   6.495
  472SOL    HW2 2316   4.463   3.420   6.382
  473SOL     OW 2317   1.157   3.000   2.772
  473SOL    HW1 2318   1.238   3.049   2.741
  473SOL    HW2 2319   1.183   2.907   2.799
  474SOL     OW 2320   5.310   5.217   4.285
  474SOL    HW1 2321   5.232   5.258   4.333
  474SOL    HW2 2322   5.376   5.183   4.351
  475SOL     OW 2323   5.468   0.920   6.082
  475SOL    HW1 2324   5.373   0.950   6.070
  475SOL    HW2 2325   5.530   0.997   6.065
  476SOL     OW 2326   0.486   3.406   3.645
  476SOL    HW1 2327   0.567   3.400   3.588
  476SOL    HW2 2328   0.411   3.353   3.604
  477SOL     OW 2329   1.963   5.976   3.643
  477SOL    HW1 2330   1.927   6.046   3.704
  477SOL    HW2 2331   1.948   5.886   3.683
  478SOL     OW 2332   3.572   5.870   1.918
  478SOL    HW1 2333   3.561   5.960   1.875
  478SOL    HW2 2334   3.484   5.840   1.955
  479SOL     OW 2335   4.217   1.792   5.783
  479SOL    HW1 2336   4.197   1.700   5.817
  479SOL    HW2 2337   4.236   1.788   5.685
  480SOL     OW 2338   2.909   0.821   6.880
  480SOL    HW1 2339   2.842   0.818   6.954
  480SOL    HW2 2340   2.861   0.838   6.793
  481SOL     OW 2341   2.425   6.687   0.879
  481SOL    HW1 2342   2.488   6.765   0.879
  481SOL    HW2 2343   2.338   6.715   0.837
  482SOL     OW 2344   4.034   5.009   2.061
  482SOL    HW1 2345   3.966   4.949   2.104
  482SOL    HW2 2346   4.048   5.089   2.120
  483SOL     OW 2347   6.734   1.790   2.540
  483SOL    HW1 2348   6.668   1.747   2.478
  483SOL    HW2 2349   6.803   1.839   2.486
  484SOL     OW 2350   2.088   3.282   4.489
  484SOL    HW1 2351   2.124   3.347   4.556
  484SOL    HW2 2352   2.016   3.227   4.531
  485SOL     OW 2353   3.774   5.348   3.005
  485SOL    HW1 2354   3.858   5.374   3.052
  485SOL    HW2 2355   3.729   5.431   2.970
  486SOL     OW 2356   0.022   1.180   6.896
  486SOL    HW1 2357   7.006   1.127   6.970
  486SOL    HW2 2358   7.023   1.277   6.907
  487SOL     OW 2359   0.733   0.564   2.402
  487SOL    HW1 2360   0.669   0.489   2.389
  487SOL    HW2 2361   0.753   0.575   2.499
  488SOL     OW 2362   1.139   1.489   2.001
  488SOL    HW1 2363   1.042   1.512   2.003
  488SOL    HW2 2364   1.191   1.570   1.973
  489SOL     OW 2365   3.734   6.109   6.001
  489SOL    HW1 2366   3.693   6.187   6.048
  489SOL    HW2 2367   3.800   6.142   5.934
  490SOL     OW 2368   6.891   6.010   2.745
  490SOL    HW1 2369   6.946   5.972   2.819
  490SOL    HW2 2370   6.951   6.037   2.669
  491SOL     OW 2371   1.127   3.449   2.727
  491SOL    HW1 2372   1.215   3.456   2.681
  491SOL    HW2 2373   1.066   3.390   2.674
  492SOL     OW 2374   1.485   0.594   5.007
  492SOL    HW1 2375   1.549   0.592   5.085
  492SOL    HW2 2376   1.507   0.520   4.944
  493SOL     OW 2377   4.664   6.246   5.553
  493SOL    HW1 2378   4.599   6.183   5.595
  493SOL    HW2 2379   4.723   6.285   5.624
  494SOL     OW 2380   0.312   6.636   6.973
  494SOL    HW1 2381   0.339   6.619   6.878
  494SOL    HW2 2382   0.213   6.625   6.982
  495SOL     OW 2383   4.715   5.942   4.069
  495SOL    HW1 2384   4.670   5.914   4.154
  495SOL    HW2 2385   4.782   5.873   4.042
  496SOL     OW 2386   4.975   2.942   1.971
  496SOL    HW1 2387   4.992   2.856   1.922
  496SOL    HW2 2388   4.877   2.948   1.993
  497SOL     OW 2389   2.713   1.442   4.247
  497SOL    HW1 2390   2.711   1.516   4.180
  497SOL    HW2 2391   2.750   1.360   4.205
  498SOL     OW 2392   1.081   4.318   1.773
  498SOL    HW1 2393   1.005   4.379   1.795
  498SOL    HW2 2394   1.071   4.233   1.824
  499SOL     OW 2395   1.907   6.181   4.451
  499SOL    HW1 2396   1.975   6.233   4.503
  499SOL    HW2 2397   1.831   6.156   4.511
  500SOL     OW 2398   0.329   2.741   5.432
  500SOL    HW1 2399   0.241   2.695   5.421
  500SOL    HW2 2400   0.369   2.758   5.342
  501SOL     OW 2401   3.162   6.228   0.921
  501SOL    HW1 2402   3.063   6.227   0.905
  501SOL    HW2 2403   3.194   6.135   0.938
  502SOL     OW 2404   0.906   4.165   6.798
  502SOL    HW1 2405   0.962   4.083   6.807
  502SOL    HW2 2406   0.816   4.149   6.839
  503SOL     OW 2407   0.461   5.726   6.655
  503SOL    HW1 2408   0.494   5.682   6.739
  503SOL    HW2 2409   0.464   5.826   6.667
  504SOL     OW 2410   1.246   5.016   2.467
  504SOL    HW1 2411   1.216   4.995   2.374
  504SOL    HW2 2412   1.171   5.057   2.518
  505SOL     OW 2413   2.806   6.043   5.279
  505SOL    HW1 2414   2.794   5.959   5.225
  505SOL    HW2 2415   2.809   6.019   5.376
  506SOL     OW 2416   2.828   5.074   4.095
  506SOL    HW1 2417   2.779   5.049   4.179
  506SOL    HW2 2418   2.843   4.992   4.040
  507SOL     OW 2419   3.490   6.951   3.279
  507SOL    HW1 2420   3.580   6.956   3.236
  507SOL    HW2 2421   3.495   6.896   3.362
  508SOL     OW 2422   6.821   3.383   2.457
  508SOL    HW1 2423   6.726   3.411   2.447
  508SOL    HW2 2424   6.827   3.306   2.521
  509SOL     OW 2425   3.355   1.241   0.970
  509SOL    HW1 2426   3.426   1.173   0.986
  509SOL    HW2 2427   3.280   1.226   1.034
  510SOL     OW 2428   6.377   4.573   6.593
  510SOL    HW1 2429   6.384   4.609   6.686
  510SOL    HW2 2430   6.438   4.494   6.583
  511SOL     OW 2431   0.977   1.701   6.133
  511SOL    HW1 2432   0.941   1.779   6.184
  511SOL    HW2 2433   1.018   1.733   6.047
  512SOL     OW 2434   6.389   3.211   0.086
  512SOL    HW1 2435   6.418   3.223   7.017
  512SOL    HW2 2436   6.373   3.114   0.104
  513SOL     OW 2437   5.711   6.988   2.854
  513SOL    HW1 2438   5.631   6.943   2.815
  513SOL    HW2 2439   5.759   6.925   2.915
  514SOL     OW 2440   6.347   1.983   4.307
  514SOL    HW1 2441   6.319   1.901   4.258
  514SOL    HW2 2442   6.428   1.963   4.363
  515SOL     OW 2443   0.857   0.518   6.351
  515SOL    HW1 2444   0.757   0.516   6.353
  515SOL    HW2 2445   0.892   0.424   6.355
  516SOL     OW 2446   2.572   4.655   2.117
  516SOL    HW1 2447   2.591   4.702   2.203
  516SOL    HW2 2448   2.657   4.627   2.075
  517SOL     OW 2449   4.644   5.805   1.382
  517SOL    HW1 2450   4.652   5.902   1.405
  517SOL    HW2 2451   4.728   5.774   1.338
  518SOL     OW 2452   3.086   2.105   3.299
  518SOL    HW1 2453   3.182   2.102   3.327
  518SOL    HW2 2454   3.033   2.043   3.357
  519SOL     OW 2455   0.273   6.716   4.565
  519SOL    HW1 2456   0.343   6.703   4.634
  519SOL    HW2 2457   0.225   6.802   4.583
  520SOL     OW 2458   5.970   4.161   0.297
  520SOL    HW1 2459   5.877   4.133   0.323
  520SOL    HW2 2460   6.020   4.081   0.262
  521SOL     OW 2461   6.604   5.656   5.193
  521SOL    HW1 2462   6.663   5.716   5.140
  521SOL    HW2 2463   6.531   5.619   5.134
  522SOL     OW 2464   3.458   3.483   4.611
  522SOL    HW1 2465   3.380   3.535   4.576
  522SOL    HW2 2466   3.462   3.394   4.566
  523SOL     OW 2467   0.638   6.004   1.870
  523SOL    HW1 2468   0.613   5.992   1.774
  523SOL    HW2 2469   0.557   6.031   1.923
  524SOL     OW 2470   0.462   2.045   2.274
  524SOL    HW1 2471   0.445   2.086   2.185
  524SOL    HW2 2472   0.408   2.092   2.344
  525SOL     OW 2473   2.212   3.479   5.769
  525SOL    HW1 2474   2.182   3.572   5.752
  525SOL    HW2 2475   2.134   3.423   5.797
  526SOL     OW 2476   4.210   6.461   3.746
  526SOL    HW1 2477   4.281   6.484   3.679
  526SOL    HW2 2478   4.253   6.428   3.830
  527SOL     OW 2479   6.102   2.692   0.174
  527SOL    HW1 2480   6.158   2.632   0.230
  527SOL    HW2 2481   6.127   2.681   0.078
  528SOL     OW 2482   0.959   2.474   3.840
  528SOL    HW1 2483   0.859   2.474   3.841
  528SOL    HW2 2484   0.994   2.422   3.918
  529SOL     OW 2485   1.242   6.770   4.949
  529SOL    HW1 2486   1.284   6.697   4.895
  529SOL    HW2 2487   1.312   6.814   5.006
  530SOL     OW 2488   3.626   3.227   4.339
  530SOL    HW1 2489   3.660   3.137   4.365
  530SOL    HW2 2490   3.551   3.252   4.399
  531SOL     OW 2491   0.527   1.855   3.440
  531SOL    HW1 2492   0.613   1.810   3.466
  531SOL    HW2 2493   0.544   1.915   3.361
  532SOL     OW 2494   0.948   3.008   6.749
  532SOL    HW1 2495   1.019   2.997   6.818
  532SOL    HW2 2496   0.980   2.973   6.662
  533SOL     OW 2497   4.030   6.495   4.346
  533SOL    HW1 2498   3.930   6.494   4.336
  533SOL    HW2 2499   4.072   6.506   4.256
  534SOL     OW 2500   4.928   6.418   2.127
  534SOL    HW1 2501   4.946   6.394   2.223
  534SOL    HW2 2502   4.907   6.516   2.121
  535SOL     OW 2503   0.447   3.417   5.304
  535SOL    HW1 2504   0.483   3.459   5.221
  535SOL    HW2 2505   0.510   3.435   5.380
  536SOL     OW 2506   6.329   5.205   1.986
  536SOL    HW1 2507   6.239   5.238   2.013
  536SOL    HW2 2508   6.382   5.183   2.068
  537SOL     OW 2509   2.728   6.663   4.537
  537SOL    HW1 2510   2.636   6.685   4.568
  537SOL    HW2 2511   2.745   6.705   4.448
  538SOL     OW 2512   0.742   4.817   3.064
  538SOL    HW1 2513   0.779   4.751   2.999
  538SOL    HW2 2514   0.729   4.774   3.153
  539SOL     OW 2515   1.296   5.858   1.452
  539SOL    HW1 2516   1.347   5.931   1.406
  539SOL    HW2 2517   1.288   5.779   1.392
  540SOL     OW 2518   1.197   0.719   3.020
  540SOL    HW1 2519   1.195   0.737   2.921
  540SOL    HW2 2520   1.292   0.723   3.052
  541SOL     OW 2521   5.036   5.824   4.237
  541SOL    HW1 2522   5.077   5.864   4.155
  541SOL    HW2 2523   5.108   5.783   4.293
  542SOL     OW 2524   5.843   6.514   6.661
  542SOL    HW1 2525   5.792   6.470   6.734
  542SOL    HW2 2526   5.789   6.512   6.577
  543SOL     OW 2527   1.279   3.702   5.102
  543SOL    HW1 2528   1.373   3.670   5.090
  543SOL    HW2 2529   1.240   3.727   5.013
  544SOL     OW 2530   2.208   3.881   0.331
  544SOL    HW1 2531   2.151   3.800   0.321
  544SOL    HW2 2532   2.288   3.859   0.387
  545SOL     OW 2533   2.713   1.261   1.827
  545SOL    HW1 2534   2.810   1.252   1.806
  545SOL    HW2 2535   2.664   1.179   1.796
  546SOL     OW 2536   2.134   2.732   0.659
  546SOL    HW1 2537   2.075   2.651   0.659
  546SOL    HW2 2538   2.193   2.730   0.578
  547SOL     OW 2539   3.260   0.941   0.199
  547SOL    HW1 2540   3.212   1.025   0.177
  547SOL    HW2 2541   3.355   0.947   0.168
  548SOL     OW 2542   3.552   3.895   2.728
  548SOL    HW1 2543   3.541   3.983   2.774
  548SOL    HW2 2544   3.463   3.862   2.697
  549SOL     OW 2545   5.145   2.769   1.328
  549SOL    HW1 2546   5.150   2.670   1.344
  549SOL    HW2 2547   5.205   2.816   1.393
  550SOL     OW 2548   0.270   5.767   3.840
  550SOL    HW1 2549   0.234   5.738   3.929
  550SOL    HW2 2550   0.353   5.822   3.854
  551SOL     OW 2551   0.597   0.301   2.387
  551SOL    HW1 2552   0.656   0.247   2.447
  551SOL    HW2 2553   0.504   0.300   2.423
  552SOL     OW 2554   5.426   4.521   0.185
  552SOL    HW1 2555   5.393   4.596   0.243
  552SOL    HW2 2556   5.355   4.497   0.119
  553SOL     OW 2557   2.549   6.436   2.479
  553SOL    HW1 2558   2.645   6.406   2.474
  553SOL    HW2 2559   2.538   6.518   2.423
  554SOL     OW 2560   5.304   0.047   6.477
  554SOL    HW1 2561   5.367   6.996   6.472
  554SOL    HW2 2562   5.259   0.059   6.388
  555SOL     OW 2563   1.975   5.418   3.854
  555SOL    HW1 2564   1.883   5.456   3.867
  555SOL    HW2 2565   1.997   5.416   3.757
  556SOL     OW 2566   4.476   2.492   3.593
  556SOL    HW1 2567   4.473   2.394   3.574
  556SOL    HW2 2568   4.497   2.542   3.510
  557SOL     OW 2569   0.281   5.255   0.679
  557SOL    HW1 2570   0.218   5.332   0.688
  557SOL    HW2 2571   0.294   5.233   0.583
  558SOL     OW 2572   2.893   3.386   4.754
  558SOL    HW1 2573   2.977   3.332   4.761
  558SOL    HW2 2574   2.816   3.334   4.792
  559SOL     OW 2575   6.803   5.868   6.967
  559SOL    HW1 2576   6.888   5.905   7.004
  559SOL    HW2 2577   6.730   5.878   0.008
  560SOL     OW 2578   4.871   4.862   0.044
  560SOL    HW1 2579   4.933   4.815   7.007
  560SOL    HW2 2580   4.874   4.960   0.027
  561SOL     OW 2581   0.294   1.259   0.958
  561SOL    HW1 2582   0.314   1.295   1.050
  561SOL    HW2 2583   0.365   1.193   0.932
  562SOL     OW 2584   4.836   0.736   5.816
  562SOL    HW1 2585   4.910   0.697   5.761
  562SOL    HW2 2586   4.793   0.811   5.765
  563SOL     OW 2587   2.152   0.662   3.776
  563SOL    HW1 2588   2.122   0.596   3.707
  563SOL    HW2 2589   2.159   0.753   3.734
  564SOL     OW 2590   1.517   2.003   6.768
  564SOL    HW1 2591   1.572   2.037   6.845
  564SOL    HW2 2592   1.423   1.989   6.799
  565SOL     OW 2593   3.832   2.870   5.247
  565SOL    HW1 2594   3.827   2.940   5.176
  565SOL    HW2 2595   3.746   2.819   5.249
  566SOL     OW 2596   6.671   5.128   4.010
  566SOL    HW1 2597   6.664   5.048   3.949
  566SOL    HW2 2598   6.654   5.211   3.958
  567SOL     OW 2599   3.085   3.280   1.489
  567SOL    HW1 2600   3.116   3.375   1.494
  567SOL    HW2 2601   3.164   3.219   1.495
  568SOL     OW 2602   4.752   1.550   0.006
  568SOL    HW1 2603   4.668   1.501   0.029
  568SOL    HW2 2604   4.797   1.505   6.956
  569SOL     OW 2605   1.525   2.741   6.718
  569SOL    HW1 2606   1.563   2.832   6.706
  569SOL    HW2 2607   1.545   2.708   6.810
  570SOL     OW 2608   3.095   6.395   6.921
  570SOL    HW1 2609   3.126   6.438   6.836
  570SOL    HW2 2610   3.092   6.464   6.993
  571SOL     OW 2611   3.138   0.439   2.147
  571SOL    HW1 2612   3.181   0.421   2.236
  571SOL    HW2 2613   3.062   0.375   2.134
  572SOL     OW 2614   3.134   4.854   5.605
  572SOL    HW1 2615   3.137   4.874   5.703
  572SOL    HW2 2616   3.160   4.758   5.590
  573SOL     OW 2617   5.596   2.258   5.720
  573SOL    HW1 2618   5.636   2.192   5.785
  573SOL    HW2 2619   5.642   2.346   5.729
  574SOL     OW 2620   3.092   1.767   4.025
  574SOL    HW1 2621   3.172   1.810   4.067
  574SOL    HW2 2622   3.121   1.685   3.975
  575SOL     OW 2623   5.250   3.812   0.802
  575SOL    HW1 2624   5.286   3.719   0.811
  575SOL    HW2 2625   5.153   3.808   0.779
  576SOL     OW 2626   1.024   2.287   2.959
  576SOL    HW1 2627   1.085   2.209   2.947
  576SOL    HW2 2628   1.074   2.371   2.941
  577SOL     OW 2629   1.112   1.428   2.487
  577SOL    HW1 2630   1.159   1.448   2.401
  577SOL    HW2 2631   1.028   1.378   2.467
  578SOL     OW 2632   6.002   5.500   2.942
  578SOL    HW1 2633   6.032   5.571   3.006
  578SOL    HW2 2634   6.082   5.462   2.895
  579SOL     OW 2635   1.879   2.871   2.338
  579SOL    HW1 2636   1.933   2.793   2.306
  579SOL    HW2 2637   1.852   2.927   2.260
  580SOL     OW 2638   6.616   5.254   6.922
  580SOL    HW1 2639   6.658   5.223   6.836
  580SOL    HW2 2640   6.687   5.263   6.992
  581SOL     OW 2641   2.837   3.487   2.195
  581SOL    HW1 2642   2.910   3.487   2.127
  581SOL    HW2 2643   2.755   3.445   2.157
  582SOL     OW 2644   4.742   6.960   1.958
  582SOL    HW1 2645   4.773   6.997   2.046
  582SOL    HW2 2646   4.647   6.928   1.968
  583SOL     OW 2647   2.938   5.281   5.588
  583SOL    HW1 2648   3.016   5.235   5.630
  583SOL    HW2 2649   2.858   5.221   5.594
  584SOL     OW 2650   2.820   4.071   6.399
  584SOL    HW1 2651   2.720   4.074   6.405
  584SOL    HW2 2652   2.847   4.038   6.309
  585SOL     OW 2653   5.405   3.034   6.100
  585SOL    HW1 2654   5.321   2.980   6.091
  585SOL    HW2 2655   5.430   3.041   6.196
  586SOL     OW 2656   3.403   1.757   5.829
  586SOL    HW1 2657   3.362   1.792   5.745
  586SOL    HW2 2658   3.484   1.703   5.808
  587SOL     OW 2659   3.707   1.074   5.819
  587SOL    HW1 2660   3.744   1.120   5.900
  587SOL    HW2 2661   3.779   1.066   5.749
  588SOL     OW 2662   2.303   4.603   1.277
  588SOL    HW1 2663   2.247   4.548   1.340
  588SOL    HW2 2664   2.250   4.682   1.246
  589SOL     OW 2665   2.942   5.086   1.552
  589SOL    HW1 2666   2.864   5.146   1.571
  589SOL    HW2 2667   2.908   4.995   1.528
  590SOL     OW 2668   4.949   3.268   2.680
  590SOL    HW1 2669   4.911   3.189   2.730
  590SOL    HW2 2670   4.916   3.266   2.585
  591SOL     OW 2671   3.649   5.631   4.033
  591SOL    HW1 2672   3.638   5.627   4.133
  591SOL    HW2 2673   3.572   5.584   3.989
  592SOL     OW 2674   3.168   0.787   1.474
  592SOL    HW1 2675   3.253   0.812   1.520
  592SOL    HW2 2676   3.184   0.783   1.376
  593SOL     OW 2677   4.585   2.465   3.279
  593SOL    HW1 2678   4.514   2.395   3.271
  593SOL    HW2 2679   4.618   2.489   3.187
  594SOL     OW 2680   5.580   2.253   6.790
  594SOL    HW1 2681   5.652   2.241   6.722
  594SOL    HW2 2682   5.547   2.163   6.820
  595SOL     OW 2683   5.642   6.774   3.784
  595SOL    HW1 2684   5.554   6.751   3.742
  595SOL    HW2 2685   5.632   6.776   3.884
  596SOL     OW 2686   2.097   4.427   3.412
  596SOL    HW1 2687   2.017   4.373   3.388
  596SOL    HW2 2688   2.078   4.482   3.494
  597SOL     OW 2689   3.555   6.914   6.608
  597SOL    HW1 2690   3.605   6.997   6.632
  597SOL    HW2 2691   3.619   6.840   6.590
  598SOL     OW 2692   3.341   4.142   5.903
  598SOL    HW1 2693   3.427   4.130   5.953
  598SOL    HW2 2694   3.359   4.138   5.805
  599SOL     OW 2695   2.003   6.380   2.325
  599SOL    HW1 2696   2.012   6.351   2.229
  599SOL    HW2 2697   2.089   6.420   2.356
  600SOL     OW 2698   1.071   1.098   0.389
  600SOL    HW1 2699   1.117   1.187   0.391
  600SOL    HW2 2700   0.986   1.105   0.336
  601SOL     OW 2701   2.986   6.882   4.215
  601SOL    HW1 2702   3.033   6.918   4.135
  601SOL    HW2 2703   3.053   6.861   4.286
  602SOL     OW 2704   2.166   2.800   6.403
  602SOL    HW1 2705   2.071   2.815   6.428
  602SOL    HW2 2706   2.190   2.860   6.326
  603SOL     OW 2707   3.367   1.629   3.753
  603SOL    HW1 2708   3.442   1.594   3.696
  603SOL    HW2 2709   3.399   1.636   3.848
  604SOL     OW 2710   0.619   3.548   1.733
  604SOL    HW1 2711   0.589   3.534   1.828
  604SOL    HW2 2712   0.718   3.539   1.727
  605SOL     OW 2713   6.861   6.333   2.289
  605SOL    HW1 2714   6.873   6.399   2.363
  605SOL    HW2 2715   6.819   6.250   2.325
  606SOL     OW 2716   5.006   0.546   6.318
  606SOL    HW1 2717   4.930   0.532   6.254
  606SOL    HW2 2718   5.042   0.457   6.347
  607SOL     OW 2719   5.791   0.405   5.652
  607SOL    HW1 2720   5.819   0.321   5.605
  607SOL    HW2 2721   5.847   0.416   5.734
  608SOL     OW 2722   3.069   6.231   6.517
  608SOL    HW1 2723   3.147   6.243   6.455
  608SOL    HW2 2724   3.001   6.302   6.499
  609SOL     OW 2725   4.042   3.113   3.525
  609SOL    HW1 2726   3.955   3.071   3.499
  609SOL    HW2 2727   4.028   3.168   3.608
  610SOL     OW 2728   4.986   3.219   1.953
  610SOL    HW1 2729   4.913   3.191   1.891
  610SOL    HW2 2730   5.037   3.138   1.983
  611SOL     OW 2731   3.401   0.220   0.147
  611SOL    HW1 2732   3.462   0.299   0.142
  611SOL    HW2 2733   3.350   0.222   0.233
  612SOL     OW 2734   3.478   6.411   5.804
  612SOL    HW1 2735   3.518   6.324   5.776
  612SOL    HW2 2736   3.534   6.452   5.876
  613SOL     OW 2737   4.063   6.798   5.729
  613SOL    HW1 2738   4.052   6.710   5.775
  613SOL    HW2 2739   3.984   6.855   5.747
  614SOL     OW 2740   4.674   4.580   1.250
  614SOL    HW1 2741   4.688   4.522   1.331
  614SOL    HW2 2742   4.577   4.603   1.243
  615SOL     OW 2743   0.394   2.570   1.534
  615SOL    HW1 2744   0.319   2.512   1.503
  615SOL    HW2 2745   0.473   2.514   1.557
  616SOL     OW 2746   0.341   2.213   3.774
  616SOL    HW1 2747   0.364   2.227   3.871
  616SOL    HW2 2748   0.384   2.129   3.742
  617SOL     OW 2749   6.260   3.371   6.270
  617SOL    HW1 2750   6.279   3.311   6.348
  617SOL    HW2 2751   6.162   3.372   6.252
  618SOL     OW 2752   6.576   2.654   6.631
  618SOL    HW1 2753   6.659   2.667   6.684
  618SOL    HW2 2754   6.582   2.706   6.546
  619SOL     OW 2755   4.862   0.317   6.704
  619SOL    HW1 2756   4.829   0.402   6.663
  619SOL    HW2 2757   4.960   0.322   6.720
  620SOL     OW 2758   5.097   2.324   1.638
  620SOL    HW1 2759   5.117   2.349   1.733
  620SOL    HW2 2760   5.005   2.356   1.614
  621SOL     OW 2761   2.039   6.698   5.650
  621SOL    HW1 2762   2.046   6.602   5.678
  621SOL    HW2 2763   1.974   6.705   5.574
  622SOL     OW 2764   0.843   1.187   4.404
  622SOL    HW1 2765   0.818   1.200   4.308
  622SOL    HW2 2766   0.810   1.098   4.435
  623SOL     OW 2767   1.696   6.245   5.898
  623SOL    HW1 2768   1.774   6.207   5.848
  623SOL    HW2 2769   1.725   6.327   5.947
  624SOL     OW 2770   0.231   1.860   1.257
  624SOL    HW1 2771   0.209   1.879   1.353
  624SOL    HW2 2772   0.329   1.843   1.248
  625SOL     OW 2773   1.815   1.957   1.645
  625SOL    HW1 2774   1.831   1.987   1.551
  625SOL    HW2 2775   1.886   1.995   1.705
  626SOL     OW 2776   1.102   5.892   3.175
  626SOL    HW1 2777   1.195   5.908   3.209
  626SOL    HW2 2778   1.070   5.803   3.207
  627SOL     OW 2779   6.815   6.359   0.909
  627SOL    HW1 2780   6.791   6.268   0.944
  627SOL    HW2 2781   6.732   6.410   0.890
  628SOL     OW 2782   5.773   5.635   5.599
  628SOL    HW1 2783   5.837   5.599   5.532
  628SOL    HW2 2784   5.803   5.725   5.631
  629SOL     OW 2785   0.703   0.621   6.611
  629SOL    HW1 2786   0.653   0.639   6.696
  629SOL    HW2 2787   0.696   0.524   6.588
  630SOL     OW 2788   0.334   1.642   0.677
  630SOL    HW1 2789   0.249   1.687   0.649
  630SOL    HW2 2790   0.403   1.655   0.606
  631SOL     OW 2791   3.792   1.320   5.426
  631SOL    HW1 2792   3.724   1.379   5.470
  631SOL    HW2 2793   3.787   1.229   5.467
  632SOL     OW 2794   4.329   1.963   1.350
  632SOL    HW1 2795   4.409   1.984   1.407
  632SOL    HW2 2796   4.284   1.881   1.385
  633SOL     OW 2797   3.148   3.913   6.601
  633SOL    HW1 2798   3.085   3.950   6.668
  633SOL    HW2 2799   3.111   3.828   6.563
  634SOL     OW 2800   3.973   3.592   2.906
  634SOL    HW1 2801   3.904   3.664   2.916
  634SOL    HW2 2802   3.962   3.548   2.816
  635SOL     OW 2803   4.538   5.864   1.018
  635SOL    HW1 2804   4.619   5.837   0.967
  635SOL    HW2 2805   4.562   5.936   1.084
  636SOL     OW 2806   3.506   6.741   0.119
  636SOL    HW1 2807   3.537   6.821   0.170
  636SOL    HW2 2808   3.571   6.721   0.046
  637SOL     OW 2809   0.058   3.057   3.319
  637SOL    HW1 2810   7.007   3.105   3.276
  637SOL    HW2 2811   0.118   3.124   3.362
  638SOL     OW 2812   5.622   3.291   3.148
  638SOL    HW1 2813   5.698   3.269   3.087
  638SOL    HW2 2814   5.584   3.207   3.187
  639SOL     OW 2815   4.938   3.550   2.771
  639SOL    HW1 2816   4.953   3.454   2.793
  639SOL    HW2 2817   4.917   3.560   2.673
  640SOL     OW 2818   0.545   5.091   3.800
  640SOL    HW1 2819   0.476   5.027   3.768
  640SOL    HW2 2820   0.624   5.041   3.835
  641SOL     OW 2821   0.782   4.677   5.390
  641SOL    HW1 2822   0.859   4.625   5.353
  641SOL    HW2 2823   0.745   4.737   5.319
  642SOL     OW 2824   6.936   3.522   4.440
  642SOL    HW1 2825   6.968   3.507   4.534
  642SOL    HW2 2826   6.969   3.611   4.408
  643SOL     OW 2827   6.359   0.118   6.221
  643SOL    HW1 2828   6.451   0.150   6.243
  643SOL    HW2 2829   6.318   0.178   6.153
  644SOL     OW 2830   1.598   6.757   4.130
  644SOL    HW1 2831   1.545   6.711   4.058
  644SOL    HW2 2832   1.629   6.846   4.097
  645SOL     OW 2833   3.934   0.119   4.941
  645SOL    HW1 2834   3.898   0.111   4.848
  645SOL    HW2 2835   3.914   0.210   4.977
  646SOL     OW 2836   3.090   0.650   4.324
  646SOL    HW1 2837   3.170   0.674   4.379
  646SOL    HW2 2838   3.019   0.720   4.337
  647SOL     OW 2839   5.043   2.178   4.832
  647SOL    HW1 2840   5.087   2.267   4.818
  647SOL    HW2 2841   4.984   2.157   4.755
  648SOL     OW 2842   0.473   3.745   3.986
  648SOL    HW1 2843   0.511   3.732   4.078
  648SOL    HW2 2844   0.543   3.727   3.918
  649SOL     OW 2845   1.939   3.886   1.338
  649SOL    HW1 2846   1.874   3.828   1.388
  649SOL    HW2 2847   1.903   3.979   1.333
  650SOL     OW 2848   6.082   4.777   0.564
  650SOL    HW1 2849   6.119   4.705   0.505
  650SOL    HW2 2850   6.017   4.737   0.628
  651SOL     OW 2851   1.298   6.544   6.342
  651SOL    HW1 2852   1.208   6.552   6.300
  651SOL    HW2 2853   1.290   6.500   6.431
  652SOL     OW 2854   5.060   0.022   4.145
  652SOL    HW1 2855   4.997   0.005   4.069
  652SOL    HW2 2856   5.111   0.106   4.128
  653SOL     OW 2857   1.235   5.879   7.001
  653SOL    HW1 2858   1.232   5.977   6.980
  653SOL    HW2 2859   1.272   5.830   6.922
  654SOL     OW 2860   0.704   6.037   0.427
  654SOL    HW1 2861   0.783   5.987   0.463
  654SOL    HW2 2862   0.705   6.131   0.461
  655SOL     OW 2863   0.158   5.754   0.962
  655SOL    HW1 2864   0.091   5.738   0.890
  655SOL    HW2 2865   0.201   5.667   0.988
  656SOL     OW 2866   2.107   5.917   0.920
  656SOL    HW1 2867   2.126   5.855   0.844
  656SOL    HW2 2868   2.126   5.870   1.006
  657SOL     OW 2869   2.539   3.556   1.284
  657SOL    HW1 2870   2.454   3.594   1.249
  657SOL    HW2 2871   2.519   3.496   1.362
  658SOL     OW 2872   1.363   3.408   6.722
  658SOL    HW1 2873   1.288   3.472   6.741
  658SOL    HW2 2874   1.326   3.320   6.693
  659SOL     OW 2875   1.793   6.011   4.869
  659SOL    HW1 2876   1.729   5.947   4.912
  659SOL    HW2 2877   1.805   6.091   4.929
  660SOL     OW 2878   5.888   3.875   2.685
  660SOL    HW1 2879   5.976   3.827   2.688
  660SOL    HW2 2880   5.833   3.849   2.765
  661SOL     OW 2881   4.843   3.808   3.416
  661SOL    HW1 2882   4.935   3.841   3.398
  661SOL    HW2 2883   4.840   3.763   3.505
  662SOL     OW 2884   4.230   0.312   4.903
  662SOL    HW1 2885   4.156   0.362   4.948
  662SOL    HW2 2886   4.192   0.243   4.842
  663SOL     OW 2887   1.251   3.551   0.056
  663SOL    HW1 2888   1.245   3.523   6.986
  663SOL    HW2 2889   1.276   3.472   0.112
  664SOL     OW 2890   0.362   5.395   6.717
  664SOL    HW1 2891   0.281   5.454   6.721
  664SOL    HW2 2892   0.423   5.426   6.644
  665SOL     OW 2893   4.588   4.957   0.887
  665SOL    HW1 2894   4.518   5.022   0.918
  665SOL    HW2 2895   4.543   4.881   0.840
  666SOL     OW 2896   4.821   1.788   2.917
  666SOL    HW1 2897   4.818   1.839   3.004
  666SOL    HW2 2898   4.894   1.825   2.860
  667SOL     OW 2899   6.265   4.087   3.233
  667SOL    HW1 2900   6.321   4.014   3.193
  667SOL    HW2 2901   6.323   4.165   3.256
  668SOL     OW 2902   5.118   6.352   6.751
  668SOL    HW1 2903   5.176   6.300   6.814
  668SOL    HW2 2904   5.022   6.332   6.770
  669SOL     OW 2905   3.955   6.049   3.682
  669SOL    HW1 2906   3.892   6.043   3.604
  669SOL    HW2 2907   4.030   6.111   3.660
  670SOL     OW 2908   2.807   3.243   1.327
  670SOL    HW1 2909   2.884   3.290   1.284
  670SOL    HW2 2910   2.807   3.147   1.300
  671SOL     OW 2911   2.678   5.625   6.944
  671SOL    HW1 2912   2.681   5.584   0.010
  671SOL    HW2 2913   2.625   5.567   6.882
  672SOL     OW 2914   0.815   4.917   2.062
  672SOL    HW1 2915   0.835   4.909   1.964
  672SOL    HW2 2916   0.716   4.915   2.076
  673SOL     OW 2917   6.662   0.569   1.577
  673SOL    HW1 2918   6.609   0.591   1.495
  673SOL    HW2 2919   6.627   0.485   1.618
  674SOL     OW 2920   0.143   3.687   4.949
  674SOL    HW1 2921   0.092   3.603   4.969
  674SOL    HW2 2922   0.196   3.713   5.030
  675SOL     OW 2923   0.530   1.004   4.943
  675SOL    HW1 2924   0.616   0.972   4.982
  675SOL    HW2 2925   0.517   1.101   4.965
  676SOL     OW 2926   3.988   5.591   2.944
  676SOL    HW1 2927   3.932   5.659   2.991
  676SOL    HW2 2928   4.012   5.625   2.853
  677SOL     OW 2929   5.905   1.457   6.803
  677SOL    HW1 2930   5.828   1.488   6.858
  677SOL    HW2 2931   5.895   1.490   6.709
  678SOL     OW 2932   0.999   1.477   4.835
  678SOL    HW1 2933   0.977   1.408   4.766
  678SOL    HW2 2934   0.920   1.536   4.850
  679SOL     OW 2935   4.903   1.568   4.351
  679SOL    HW1 2936   4.902   1.625   4.269
  679SOL    HW2 2937   4.970   1.603   4.416
  680SOL     OW 2938   5.667   5.309   6.190
  680SOL    HW1 2939   5.608   5.356   6.124
  680SOL    HW2 2940   5.675   5.213   6.165
  681SOL     OW 2941   5.585   6.346   1.500
  681SOL    HW1 2942   5.679   6.351   1.533
  681SOL    HW2 2943   5.529   6.412   1.551
  682SOL     OW 2944   1.879   6.677   0.536
  682SOL    HW1 2945   1.965   6.704   0.492
  682SOL    HW2 2946   1.836   6.604   0.484
  683SOL     OW 2947   3.642   2.734   6.665
  683SOL    HW1 2948   3.718   2.770   6.610
  683SOL    HW2 2949   3.643   2.634   6.662
  684SOL     OW 2950   6.092   0.790   0.031
  684SOL    HW1 2951   6.094   0.874   0.085
  684SOL    HW2 2952   6.078   0.814   6.960
  685SOL     OW 2953   4.145   0.995   4.220
  685SOL    HW1 2954   4.170   0.909   4.265
  685SOL    HW2 2955   4.228   1.042   4.190
  686SOL     OW 2956   5.809   3.098   3.364
  686SOL    HW1 2957   5.776   3.007   3.338
  686SOL    HW2 2958   5.828   3.100   3.462
  687SOL     OW 2959   0.276   3.110   5.029
  687SOL    HW1 2960   0.318   3.027   4.993
  687SOL    HW2 2961   0.215   3.150   4.960
  688SOL     OW 2962   1.442   2.661   6.468
  688SOL    HW1 2963   1.440   2.565   6.439
  688SOL    HW2 2964   1.460   2.666   6.566
  689SOL     OW 2965   0.212   4.368   6.315
  689SOL    HW1 2966   0.203   4.325   6.405
  689SOL    HW2 2967   0.251   4.460   6.327
  690SOL     OW 2968   0.701   3.772   3.841
  690SOL    HW1 2969   0.733   3.858   3.881
  690SOL    HW2 2970   0.774   3.731   3.786
  691SOL     OW 2971   2.589   0.246   6.248
  691SOL    HW1 2972   2.489   0.250   6.240
  691SOL    HW2 2973   2.629   0.227   6.159
  692SOL     OW 2974   3.783   6.580   3.442
  692SOL    HW1 2975   3.726   6.506   3.480
  692SOL    HW2 2976   3.860   6.598   3.503
  693SOL     OW 2977   6.282   0.632   3.459
  693SOL    HW1 2978   6.314   0.725   3.439
  693SOL    HW2 2979   6.238   0.594   3.377
  694SOL     OW 2980   3.797   6.458   2.723
  694SOL    HW1 2981   3.817   6.405   2.641
  694SOL    HW2 2982   3.852   6.423   2.799
  695SOL     OW 2983   4.270   5.482   5.384
  695SOL    HW1 2984   4.305   5.391   5.403
  695SOL    HW2 2985   4.186   5.498   5.437
  696SOL     OW 2986   3.151   5.783   2.292
  696SOL    HW1 2987   3.214   5.716   2.254
  696SOL    HW2 2988   3.062   5.740   2.309
  697SOL     OW 2989   2.231   2.795   4.472
  697SOL    HW1 2990   2.237   2.841   4.384
  697SOL    HW2 2991   2.271   2.703   4.465
  698SOL     OW 2992   5.486   0.054   6.782
  698SOL    HW1 2993   5.518   0.011   6.697
  698SOL    HW2 2994   5.548   0.030   6.856
  699SOL     OW 2995   1.268   4.202   6.810
  699SOL    HW1 2996   1.190   4.163   6.763
  699SOL    HW2 2997   1.240   4.237   6.899
  700SOL     OW 2998   2.578   1.880   3.545
  700SOL    HW1 2999   2.673   1.899   3.566
  700SOL    HW2 3000   2.572   1.828   3.460
  701SOL     OW 3001   6.087   3.574   5.238
  701SOL    HW1 3002   6.079   3.538   5.331
  701SOL    HW2 3003   5.999   3.609   5.208
  702SOL     OW 3004   7.001   6.637   6.207
  702SOL    HW1 3005   0.009   6.708   6.145
  702SOL    HW2 3006   6.904   6.621   6.190
  703SOL     OW 3007   3.532   4.089   6.109
  703SOL    HW1 3008   3.631   4.073   6.107
  703SOL    HW2 3009   3.487   4.009   6.148
  704SOL     OW 3010   1.719   1.444   6.423
  704SOL    HW1 3011   1.771   1.529   6.431
  704SOL    HW2 3012   1.629   1.463   6.383
  705SOL     OW 3013   6.346   6.786   3.113
  705SOL    HW1 3014   6.333   6.725   3.035
  705SOL    HW2 3015   6.346   6.732   3.197
  706SOL     OW 3016   4.380   2.231   4.194
  706SOL    HW1 3017   4.399   2.201   4.287
  706SOL    HW2 3018   4.282   2.229   4.177
  707SOL     OW 3019   4.502   6.666   2.365
  707SOL    HW1 3020   4.592   6.622   2.373
  707SOL    HW2 3021   4.431   6.596   2.357
  708SOL     OW 3022   3.984   0.733   1.338
  708SOL    HW1 3023   3.970   0.720   1.239
  708SOL    HW2 3024   4.039   0.816   1.353
  709SOL     OW 3025   1.013   4.907   0.881
  709SOL    HW1 3026   0.990   4.970   0.954
  709SOL    HW2 3027   0.991   4.813   0.909
  710SOL     OW 3028   3.549   2.874   2.678
  710SOL    HW1 3029   3.594   2.834   2.598
  710SOL    HW2 3030   3.451   2.881   2.660
  711SOL     OW 3031   0.060   2.352   5.989
  711SOL    HW1 3032   0.115   2.412   5.931
  711SOL    HW2 3033   0.051   2.263   5.946
  712SOL     OW 3034   3.713   3.717   1.180
  712SOL    HW1 3035   3.803   3.747   1.146
  712SOL    HW2 3036   3.667   3.793   1.224
  713SOL     OW 3037   3.635   2.617   6.305
  713SOL    HW1 3038   3.555   2.580   6.258
  713SOL    HW2 3039   3.630   2.595   6.402
  714SOL     OW 3040   6.438   4.560   3.796
  714SOL    HW1 3041   6.535   4.540   3.809
  714SOL    HW2 3042   6.388   4.474   3.782
  715SOL     OW 3043   5.988   5.899   0.006
  715SOL    HW1 3044   6.023   5.877   0.097
  715SOL    HW2 3045   6.025   5.836   6.965
  716SOL     OW 3046   1.243   0.207   0.635
  716SOL    HW1 3047   1.230   0.239   0.730
  716SOL    HW2 3048   1.219   0.281   0.573
  717SOL     OW 3049   5.748   4.527   6.549
  717SOL    HW1 3050   5.836   4.554   6.510
  717SOL    HW2 3051   5.686   4.500   6.476
  718SOL     OW 3052   4.617   2.262   6.212
  718SOL    HW1 3053   4.524   2.233   6.236
  718SOL    HW2 3054   4.664   2.293   6.295
  719SOL     OW 3055   6.857   1.666   1.771
  719SOL    HW1 3056   6.878   1.592   1.707
  719SOL    HW2 3057   6.794   1.631   1.842
  720SOL     OW 3058   3.842   0.563   6.525
  720SOL    HW1 3059   3.879   0.626   6.457
  720SOL    HW2 3060   3.873   0.470   6.504
  721SOL     OW 3061   2.309   0.909   4.238
  721SOL    HW1 3062   2.213   0.920   4.213
  721SOL    HW2 3063   2.319   0.833   4.302
  722SOL     OW 3064   3.034   0.181   4.231
  722SOL    HW1 3065   3.088   0.185   4.315
  722SOL    HW2 3066   2.946   0.138   4.250
  723SOL     OW 3067   2.143   3.490   3.014
  723SOL    HW1 3068   2.170   3.538   2.931
  723SOL    HW2 3069   2.050   3.515   3.039
  724SOL     OW 3070   1.558   2.737   4.948
  724SOL    HW1 3071   1.498   2.772   4.877
  724SOL    HW2 3072   1.636   2.691   4.906
  725SOL     OW 3073   3.980   6.039   0.734
  725SOL    HW1 3074   4.000   5.941   0.745
  725SOL    HW2 3075   3.900   6.050   0.676
  726SOL     OW 3076   4.335   4.921   0.564
  726SOL    HW1 3077   4.378   4.850   0.620
  726SOL    HW2 3078   4.266   4.880   0.505
  727SOL     OW 3079   5.740   5.588   6.167
  727SOL    HW1 3080   5.699   5.502   6.195
  727SOL    HW2 3081   5.786   5.576   6.079
  728SOL     OW 3082   6.525   3.724   4.865
  728SOL    HW1 3083   6.447   3.762   4.914
  728SOL    HW2 3084   6.494   3.679   4.782
  729SOL     OW 3085   0.988   1.895   0.493
  729SOL    HW1 3086   0.994   1.861   0.400
  729SOL    HW2 3087   1.017   1.824   0.557
  730SOL     OW 3088   5.414   1.715   2.727
  730SOL    HW1 3089   5.339   1.760   2.678
  730SOL    HW2 3090   5.501   1.738   2.685
  731SOL     OW 3091   5.527   4.016   5.741
  731SOL    HW1 3092   5.430   3.994   5.748
  731SOL    HW2 3093   5.580   3.960   5.805
  732SOL     OW 3094   0.368   2.657   0.904
  732SOL    HW1 3095   0.365   2.565   0.944
  732SOL    HW2 3096   0.278   2.699   0.911
  733SOL     OW 3097   6.195   5.856   5.769
  733SOL    HW1 3098   6.213   5.854   5.867
  733SOL    HW2 3099   6.103   5.893   5.754
  734SOL     OW 3100   6.818   4.586   2.515
  734SOL    HW1 3101   6.907   4.557   2.550
  734SOL    HW2 3102   6.752   4.588   2.590
  735SOL     OW 3103   3.740   2.557   0.706
  735SOL    HW1 3104   3.662   2.495   0.703
  735SOL    HW2 3105   3.785   2.557   0.616
  736SOL     OW 3106   0.575   0.333   2.833
  736SOL    HW1 3107   0.586   0.306   2.929
  736SOL    HW2 3108   0.560   0.432   2.829
  737SOL     OW 3109   5.063   2.469   6.015
  737SOL    HW1 3110   5.019   2.437   6.099
  737SOL    HW2 3111   4.996   2.517   5.958
  738SOL     OW 3112   2.069   4.244   2.452
  738SOL    HW1 3113   2.161   4.258   2.488
  738SOL    HW2 3114   2.040   4.326   2.402
  739SOL     OW 3115   4.145   0.469   3.919
  739SOL    HW1 3116   4.153   0.542   3.852
  739SOL    HW2 3117   4.048   0.451   3.938
  740SOL     OW 3118   5.378   0.483   0.948
  740SOL    HW1 3119   5.339   0.458   0.860
  740SOL    HW2 3120   5.309   0.470   1.020
  741SOL     OW 3121   2.062   6.595   3.584
  741SOL    HW1 3122   2.118   6.650   3.522
  741SOL    HW2 3123   2.085   6.499   3.574
  742SOL     OW 3124   2.276   6.487   1.913
  742SOL    HW1 3125   2.282   6.485   2.013
  742SOL    HW2 3126   2.205   6.552   1.885
  743SOL     OW 3127   0.160   3.997   4.163
  743SOL    HW1 3128   0.143   4.073   4.224
  743SOL    HW2 3129   0.211   3.925   4.211
  744SOL     OW 3130   5.160   0.210   6.946
  744SOL    HW1 3131   5.199   0.286   6.894
  744SOL    HW2 3132   5.168   0.125   6.893
  745SOL     OW 3133   0.784   5.347   4.611
  745SOL    HW1 3134   0.777   5.402   4.528
  745SOL    HW2 3135   0.877   5.310   4.618
  746SOL     OW 3136   0.052   5.051   6.361
  746SOL    HW1 3137   0.090   5.044   6.269
  746SOL    HW2 3138   6.981   5.025   6.359
  747SOL     OW 3139   4.295   6.594   4.718
  747SOL    HW1 3140   4.215   6.538   4.701
  747SOL    HW2 3141   4.268   6.679   4.763
  748SOL     OW 3142   3.274   5.156   2.428
  748SOL    HW1 3143   3.250   5.123   2.520
  748SOL    HW2 3144   3.190   5.168   2.374
  749SOL     OW 3145   6.272   4.526   5.061
  749SOL    HW1 3146   6.335   4.478   5.122
  749SOL    HW2 3147   6.185   4.542   5.108
  750SOL     OW 3148   2.277   2.106   1.011
  750SOL    HW1 3149   2.331   2.102   0.926
  750SOL    HW2 3150   2.323   2.053   1.082
  751SOL     OW 3151   3.912   2.589   6.388
  751SOL    HW1 3152   3.986   2.587   6.320
  751SOL    HW2 3153   3.825   2.607   6.342
  752SOL     OW 3154   3.595   1.361   2.290
  752SOL    HW1 3155   3.559   1.450   2.261
  752SOL    HW2 3156   3.525   1.291   2.276
  753SOL     OW 3157   1.867   3.492   4.615
  753SOL    HW1 3158   1.798   3.564   4.616
  753SOL    HW2 3159   1.933   3.509   4.688
  754SOL     OW 3160   5.429   2.889   5.684
  754SOL    HW1 3161   5.446   2.987   5.671
  754SOL    HW2 3162   5.434   2.843   5.595
  755SOL     OW 3163   1.814   4.556   5.774
  755SOL    HW1 3164   1.785   4.617   5.700
  755SOL    HW2 3165   1.906   4.581   5.804
  756SOL     OW 3166   3.596   0.233   0.664
  756SOL    HW1 3167   3.663   0.228   0.738
  756SOL    HW2 3168   3.536   0.311   0.678
  757SOL     OW 3169   0.934   7.017   4.037
  757SOL    HW1 3170   1.029   6.990   4.025
  757SOL    HW2 3171   0.881   6.939   4.071
  758SOL     OW 3172   3.874   6.848   1.827
  758SOL    HW1 3173   3.811   6.790   1.775
  758SOL    HW2 3174   3.822   6.914   1.881
  759SOL     OW 3175   0.976   1.315   1.127
  759SOL    HW1 3176   1.010   1.408   1.114
  759SOL    HW2 3177   0.985   1.289   1.223
  760SOL     OW 3178   5.251   0.466   5.438
  760SOL    HW1 3179   5.163   0.418   5.434
  760SOL    HW2 3180   5.243   0.555   5.393
  761SOL     OW 3181   5.844   3.179   5.550
  761SOL    HW1 3182   5.906   3.101   5.541
  761SOL    HW2 3183   5.823   3.194   5.646
  762SOL     OW 3184   2.917   0.556   4.893
  762SOL    HW1 3185   3.016   0.543   4.893
  762SOL    HW2 3186   2.893   0.631   4.831
  763SOL     OW 3187   4.144   4.910   6.329
  763SOL    HW1 3188   4.186   5.001   6.325
  763SOL    HW2 3189   4.160   4.862   6.243
  764SOL     OW 3190   5.091   1.494   4.787
  764SOL    HW1 3191   4.992   1.506   4.795
  764SOL    HW2 3192   5.138   1.557   4.848
  765SOL     OW 3193   1.080   6.207   1.261
  765SOL    HW1 3194   1.087   6.159   1.174
  765SOL    HW2 3195   0.995   6.261   1.262
  766SOL     OW 3196   2.400   3.819   6.942
  766SOL    HW1 3197   2.322   3.872   6.911
  766SOL    HW2 3198   2.436   3.765   6.866
  767SOL     OW 3199   6.458   5.910   2.015
  767SOL    HW1 3200   6.466   5.810   2.020
  767SOL    HW2 3201   6.477   5.941   1.922
  768SOL     OW 3202   1.911   6.434   1.620
  768SOL    HW1 3203   2.005   6.449   1.650
  768SOL    HW2 3204   1.868   6.522   1.600
  769SOL     OW 3205   3.333   0.733   4.841
  769SOL    HW1 3206   3.356   0.803   4.909
  769SOL    HW2 3207   3.258   0.766   4.784
  770SOL     OW 3208   2.015   4.072   3.075
  770SOL    HW1 3209   2.013   3.979   3.038
  770SOL    HW2 3210   2.108   4.108   3.072
  771SOL     OW 3211   2.733   5.323   2.669
  771SOL    HW1 3212   2.733   5.348   2.766
  771SOL    HW2 3213   2.720   5.224   2.661
  772SOL     OW 3214   5.325   4.990   0.620
  772SOL    HW1 3215   5.311   4.891   0.632
  772SOL    HW2 3216   5.239   5.033   0.592
  773SOL     OW 3217   0.389   3.643   4.855
  773SOL    HW1 3218   0.423   3.601   4.771
  773SOL    HW2 3219   0.291   3.629   4.863
  774SOL     OW 3220   1.498   1.748   1.411
  774SOL    HW1 3221   1.582   1.714   1.370
  774SOL    HW2 3222   1.419   1.703   1.368
  775SOL     OW 3223   0.429   2.462   2.652
  775SOL    HW1 3224   0.464   2.512   2.573
  775SOL    HW2 3225   0.430   2.521   2.733
  776SOL     OW 3226   0.648   6.662   6.226
  776SOL    HW1 3227   0.645   6.760   6.245
  776SOL    HW2 3228   0.705   6.617   6.295
  777SOL     OW 3229   2.505   4.807   1.237
  777SOL    HW1 3230   2.431   4.740   1.229
  777SOL    HW2 3231   2.544   4.803   1.330
  778SOL     OW 3232   2.937   1.329   2.635
  778SOL    HW1 3233   2.873   1.359   2.705
  778SOL    HW2 3234   2.890   1.271   2.569
  779SOL     OW 3235   0.272   2.801   2.540
  779SOL    HW1 3236   0.267   2.882   2.598
  779SOL    HW2 3237   0.289   2.828   2.446
  780SOL     OW 3238   6.443   4.103   3.516
  780SOL    HW1 3239   6.457   4.177   3.450
  780SOL    HW2 3240   6.437   4.016   3.468
  781SOL     OW 3241   5.765   0.845   6.974
  781SOL    HW1 3242   5.669   0.823   6.956
  781SOL    HW2 3243   5.813   0.764   7.007
  782SOL     OW 3244   1.479   4.070   6.798
  782SOL    HW1 3245   1.527   4.076   6.711
  782SOL    HW2 3246   1.400   4.130   6.797
  783SOL     OW 3247   3.789   5.235   1.036
  783SOL    HW1 3248   3.690   5.247   1.027
  783SOL    HW2 3249   3.826   5.309   1.092
  784SOL     OW 3250   5.442   6.416   0.297
  784SOL    HW1 3251   5.411   6.511   0.306
  784SOL    HW2 3252   5.429   6.385   0.203
  785SOL     OW 3253   0.426   2.604   2.865
  785SOL    HW1 3254   0.367   2.685   2.859
  785SOL    HW2 3255   0.495   2.619   2.936
  786SOL     OW 3256   1.379   0.811   1.349
  786SOL    HW1 3257   1.301   0.750   1.350
  786SOL    HW2 3258   1.370   0.877   1.274
  787SOL     OW 3259   3.338   6.993   6.759
  787SOL    HW1 3260   3.380   0.029   6.825
  787SOL    HW2 3261   3.409   6.949   6.705
  788SOL     OW 3262   3.966   2.876   5.491
  788SOL    HW1 3263   3.915   2.865   5.406
  788SOL    HW2 3264   3.906   2.856   5.569
  789SOL     OW 3265   5.367   3.890   0.585
  789SOL    HW1 3266   5.383   3.808   0.531
  789SOL    HW2 3267   5.330   3.863   0.674
  790SOL     OW 3268   1.659   1.420   4.237
  790SOL    HW1 3269   1.660   1.397   4.335
  790SOL    HW2 3270   1.618   1.510   4.224
  791SOL     OW 3271   3.701   5.166   4.227
  791SOL    HW1 3272   3.744   5.212   4.305
  791SOL    HW2 3273   3.623   5.112   4.259
  792SOL     OW 3274   0.819   0.069   1.531
  792SOL    HW1 3275   0.835   7.009   1.481
  792SOL    HW2 3276   0.721   0.088   1.535
  793SOL     OW 3277   4.870   5.202   3.763
  793SOL    HW1 3278   4.869   5.235   3.669
  793SOL    HW2 3279   4.820   5.265   3.822
  794SOL     OW 3280   3.376   3.604   5.591
  794SOL    HW1 3281   3.290   3.603   5.643
  794SOL    HW2 3282   3.406   3.510   5.575
  795SOL     OW 3283   3.822   6.707   4.463
  795SOL    HW1 3284   3.846   6.688   4.368
  795SOL    HW2 3285   3.741   6.765   4.466
  796SOL     OW 3286   0.947   1.775   6.543
  796SOL    HW1 3287   1.025   1.792   6.603
  796SOL    HW2 3288   0.928   1.677   6.541
  797SOL     OW 3289   5.309   2.889   1.498
  797SOL    HW1 3290   5.325   2.955   1.424
  797SOL    HW2 3291   5.248   2.930   1.566
  798SOL     OW 3292   4.654   0.237   2.147
  798SOL    HW1 3293   4.653   0.196   2.238
  798SOL    HW2 3294   4.672   0.335   2.155
  799SOL     OW 3295   6.232   0.569   5.700
  799SOL    HW1 3296   6.272   0.656   5.673
  799SOL    HW2 3297   6.304   0.508   5.733
  800SOL     OW 3298   5.323   2.250   2.610
  800SOL    HW1 3299   5.359   2.198   2.687
  800SOL    HW2 3300   5.226   2.269   2.624
  801SOL     OW 3301   1.288   3.413   4.167
  801SOL    HW1 3302   1.298   3.395   4.069
  801SOL    HW2 3303   1.292   3.512   4.183
  802SOL     OW 3304   4.393   1.291   0.705
  802SOL    HW1 3305   4.394   1.363   0.636
  802SOL    HW2 3306   4.415   1.203   0.663
  803SOL     OW 3307   0.242   6.978   5.273
  803SOL    HW1 3308   0.289   6.920   5.207
  803SOL    HW2 3309   0.144   6.961   5.268
  804SOL     OW 3310   5.431   5.605   6.519
  804SOL    HW1 3311   5.515   5.564   6.556
  804SOL    HW2 3312   5.398   5.551   6.442
  805SOL     OW 3313   3.452   0.894   5.524
  805SOL    HW1 3314   3.391   0.820   5.552
  805SOL    HW2 3315   3.440   0.972   5.586
  806SOL     OW 3316   5.089   1.402   4.133
  806SOL    HW1 3317   5.113   1.354   4.049
  806SOL    HW2 3318   5.039   1.486   4.111
  807SOL     OW 3319   1.102   2.084   4.050
  807SOL    HW1 3320   1.046   2.051   4.126
  807SOL    HW2 3321   1.109   2.012   3.981
  808SOL     OW 3322   4.244   3.459   6.630
  808SOL    HW1 3323   4.228   3.556   6.647
  808SOL    HW2 3324   4.323   3.448   6.569
  809SOL     OW 3325   6.934   5.379   2.080
  809SOL    HW1 3326   7.012   5.349   2.026
  809SOL    HW2 3327   6.936   5.478   2.091
  810SOL     OW 3328   3.337   3.102   1.110
  810SOL    HW1 3329   3.421   3.152   1.133
  810SOL    HW2 3330   3.306   3.130   1.019
  811SOL     OW 3331   3.521   5.853   5.230
  811SOL    HW1 3332   3.598   5.895   5.279
  811SOL    HW2 3333   3.555   5.775   5.176
  812SOL     OW 3334   0.335   1.330   1.800
  812SOL    HW1 3335   0.291   1.278   1.727
  812SOL    HW2 3336   0.392   1.401   1.760
  813SOL     OW 3337   3.454   6.198   5.409
  813SOL    HW1 3338   3.408   6.257   5.475
  813SOL    HW2 3339   3.394   6.181   5.332
  814SOL     OW 3340   6.404   6.382   2.562
  814SOL    HW1 3341   6.384   6.434   2.645
  814SOL    HW2 3342   6.503   6.377   2.549
  815SOL     OW 3343   0.447   3.940   3.273
  815SOL    HW1 3344   0.369   3.956   3.212
  815SOL    HW2 3345   0.490   3.853   3.249
  816SOL     OW 3346   6.364   6.429   0.166
  816SOL    HW1 3347   6.284   6.488   0.165
  816SOL    HW2 3348   6.442   6.477   0.206
  817SOL     OW 3349   2.021   3.475   1.219
  817SOL    HW1 3350   1.942   3.414   1.215
  817SOL    HW2 3351   2.085   3.451   1.146
  818SOL     OW 3352   6.418   2.895   1.926
  818SOL    HW1 3353   6.335   2.888   1.870
  818SOL    HW2 3354   6.406   2.843   2.011
  819SOL     OW 3355   5.664   2.963   2.933
  819SOL    HW1 3356   5.693   2.868   2.940
  819SOL    HW2 3357   5.743   3.023   2.939
  820SOL     OW 3358   2.781   2.960   5.771
  820SOL    HW1 3359   2.732   2.911   5.842
  820SOL    HW2 3360   2.716   3.000   5.706
  821SOL     OW 3361   1.120   4.107   0.978
  821SOL    HW1 3362   1.110   4.093   1.076
  821SOL    HW2 3363   1.155   4.024   0.936
  822SOL     OW 3364   1.780   4.671   5.023
  822SOL    HW1 3365   1.876   4.649   5.039
  822SOL    HW2 3366   1.773   4.756   4.971
  823SOL     OW 3367   5.217   3.819   6.747
  823SOL    HW1 3368   5.312   3.812   6.778
  823SOL    HW2 3369   5.214   3.813   6.647
  824SOL     OW 3370   5.302   1.530   5.348
  824SOL    HW1 3371   5.271   1.606   5.291
  824SOL    HW2 3372   5.402   1.530   5.351
  825SOL     OW 3373   0.846   4.215   1.319
  825SOL    HW1 3374   0.778   4.186   1.387
  825SOL    HW2 3375   0.836   4.160   1.236
  826SOL     OW 3376   5.422   3.030   5.395
  826SOL    HW1 3377   5.502   3.090   5.394
  826SOL    HW2 3378   5.339   3.084   5.410
  827SOL     OW 3379   3.768   4.656   5.631
  827SOL    HW1 3380   3.717   4.736   5.662
  827SOL    HW2 3381   3.706   4.588   5.594
  828SOL     OW 3382   4.820   6.852   6.655
  828SOL    HW1 3383   4.863   6.771   6.693
  828SOL    HW2 3384   4.862   6.875   6.567
  829SOL     OW 3385   2.968   3.890   3.144
  829SOL    HW1 3386   2.957   3.902   3.243
  829SOL    HW2 3387   2.886   3.846   3.107
  830SOL     OW 3388   4.346   4.567   6.417
  830SOL    HW1 3389   4.358   4.657   6.374
  830SOL    HW2 3390   4.353   4.577   6.516
  831SOL     OW 3391   5.503   0.918   6.494
  831SOL    HW1 3392   5.512   0.843   6.429
  831SOL    HW2 3393   5.593   0.943   6.529
  832SOL     OW 3394   3.245   0.773   2.177
  832SOL    HW1 3395   3.311   0.745   2.246
  832SOL    HW2 3396   3.266   0.729   2.090
  833SOL     OW 3397   0.327   4.057   5.382
  833SOL    HW1 3398   0.335   4.007   5.468
  833SOL    HW2 3399   0.374   4.145   5.391
  834SOL     OW 3400   3.435   3.809   0.927
  834SOL    HW1 3401   3.489   3.768   0.854
  834SOL    HW2 3402   3.390   3.891   0.894
  835SOL     OW 3403   3.599   0.296   5.098
  835SOL    HW1 3404   3.551   0.364   5.042
  835SOL    HW2 3405   3.584   0.205   5.060
  836SOL     OW 3406   3.780   6.267   6.873
  836SOL    HW1 3407   3.823   6.231   6.791
  836SOL    HW2 3408   3.846   6.321   6.925
  837SOL     OW 3409   5.692   6.546   0.358
  837SOL    HW1 3410   5.614   6.486   0.343
  837SOL    HW2 3411   5.683   6.629   0.302
  838SOL     OW 3412   1.807   0.620   4.631
  838SOL    HW1 3413   1.819   0.565   4.549
  838SOL    HW2 3414   1.846   0.572   4.710
  839SOL     OW 3415   2.648   2.362   1.881
  839SOL    HW1 3416   2.611   2.454   1.868
  839SOL    HW2 3417   2.739   2.368   1.923
  840SOL     OW 3418   5.774   6.702   0.117
  840SOL    HW1 3419   5.784   6.794   0.155
  840SOL    HW2 3420   5.757   6.708   0.019
  841SOL     OW 3421   4.325   4.854   0.092
  841SOL    HW1 3422   4.231   4.819   0.083
  841SOL    HW2 3423   4.369   4.856   0.002
  842SOL     OW 3424   3.938   6.576   4.897
  842SOL    HW1 3425   3.994   6.593   4.978
  842SOL    HW2 3426   3.988   6.516   4.835
  843SOL     OW 3427   1.903   1.437   0.939
  843SOL    HW1 3428   1.812   1.454   0.901
  843SOL    HW2 3429   1.894   1.387   1.025
  844SOL     OW 3430   6.120   0.581   0.791
  844SOL    HW1 3431   6.195   0.641   0.821
  844SOL    HW2 3432   6.135   0.554   0.696
  845SOL     OW 3433   5.772   4.060   5.195
  845SOL    HW1 3434   5.754   3.984   5.258
  845SOL    HW2 3435   5.735   4.039   5.105
  846SOL     OW 3436   2.258   1.793   6.824
  846SOL    HW1 3437   2.179   1.732   6.809
  846SOL    HW2 3438   2.318   1.754   6.893
  847SOL     OW 3439   1.402   3.183   1.040
  847SOL    HW1 3440   1.368   3.093   1.013
  847SOL    HW2 3441   1.502   3.182   1.040
  848SOL     OW 3442   5.591   0.526   6.158
  848SOL    HW1 3443   5.595   0.427   6.140
  848SOL    HW2 3444   5.622   0.575   6.076
  849SOL     OW 3445   0.643   4.341   6.284
  849SOL    HW1 3446   0.654   4.247   6.318
  849SOL    HW2 3447   0.676   4.406   6.352
  850SOL     OW 3448   5.117   1.005   3.380
  850SOL    HW1 3449   5.153   0.925   3.331
  850SOL    HW2 3450   5.061   1.060   3.318
  851SOL     OW 3451   0.716   1.993   2.326
  851SOL    HW1 3452   0.618   2.012   2.324
  851SOL    HW2 3453   0.766   2.074   2.294
  852SOL     OW 3454   1.651   2.390   0.254
  852SOL    HW1 3455   1.622   2.383   0.350
  852SOL    HW2 3456   1.605   2.468   0.211
  853SOL     OW 3457   1.845   4.351   2.720
  853SOL    HW1 3458   1.909   4.375   2.793
  853SOL    HW2 3459   1.756   4.392   2.739
  854SOL     OW 3460   4.240   5.814   1.780
  854SOL    HW1 3461   4.292   5.846   1.700
  854SOL    HW2 3462   4.187   5.890   1.817
  855SOL     OW 3463   0.378   0.401   1.626
  855SOL    HW1 3464   0.433   0.361   1.700
  855SOL    HW2 3465   0.431   0.471   1.579
  856SOL     OW 3466   1.312   1.465   5.488
  856SOL    HW1 3467   1.350   1.489   5.577
  856SOL    HW2 3468   1.386   1.440   5.425
  857SOL     OW 3469   5.979   4.972   1.914
  857SOL    HW1 3470   5.947   4.956   1.821
  857SOL    HW2 3471   6.078   4.963   1.918
  858SOL     OW 3472   2.870   3.831   1.263
  858SOL    HW1 3473   2.779   3.870   1.273
  858SOL    HW2 3474   2.898   3.790   1.350
  859SOL     OW 3475   4.706   5.601   5.568
  859SOL    HW1 3476   4.667   5.510   5.551
  859SOL    HW2 3477   4.779   5.594   5.636
  860SOL     OW 3478   4.466   3.725   0.923
  860SOL    HW1 3479   4.390   3.771   0.877
  860SOL    HW2 3480   4.434   3.688   1.010
  861SOL     OW 3481   2.584   0.364   3.614
  861SOL    HW1 3482   2.556   0.285   3.668
  861SOL    HW2 3483   2.503   0.418   3.590
  862SOL     OW 3484   0.184   3.786   5.550
  862SOL    HW1 3485   0.248   3.844   5.601
  862SOL    HW2 3486   0.201   3.690   5.572
  863SOL     OW 3487   0.149   0.241   0.501
  863SOL    HW1 3488   0.074   0.267   0.562
  863SOL    HW2 3489   0.225   0.206   0.556
  864SOL     OW 3490   4.157   4.857   3.430
  864SOL    HW1 3491   4.120   4.888   3.517
  864SOL    HW2 3492   4.223   4.783   3.446
  865SOL     OW 3493   1.356   5.878   6.248
  865SOL    HW1 3494   1.288   5.918   6.186
  865SOL    HW2 3495   1.326   5.893   6.343
  866SOL     OW 3496   1.523   2.317   2.140
  866SOL    HW1 3497   1.426   2.295   2.152
  866SOL    HW2 3498   1.555   2.279   2.054
  867SOL     OW 3499   3.879   3.777   0.650
  867SOL    HW1 3500   3.806   3.720   0.685
  867SOL    HW2 3501   3.920   3.734   0.569
  868SOL     OW 3502   5.550   0.067   1.259
  868SOL    HW1 3503   5.569   0.161   1.230
  868SOL    HW2 3504   5.485   0.069   1.335
  869SOL     OW 3505   6.254   5.376   2.900
  869SOL    HW1 3506   6.339   5.430   2.899
  869SOL    HW2 3507   6.277   5.279   2.911
  870SOL     OW 3508   4.501   3.131   1.131
  870SOL    HW1 3509   4.439   3.056   1.156
  870SOL    HW2 3510   4.481   3.211   1.187
  871SOL     OW 3511   4.845   3.108   2.933
  871SOL    HW1 3512   4.871   3.194   2.978
  871SOL    HW2 3513   4.807   3.046   3.001
  872SOL     OW 3514   5.337   4.069   3.897
  872SOL    HW1 3515   5.394   3.987   3.894
  872SOL    HW2 3516   5.390   4.148   3.866
  873SOL     OW 3517   5.754   6.581   4.358
  873SOL    HW1 3518   5.698   6.639   4.299
  873SOL    HW2 3519   5.847   6.576   4.321
  874SOL     OW 3520   0.972   4.744   5.709
  874SOL    HW1 3521   0.882   4.716   5.743
  874SOL    HW2 3522   1.016   4.802   5.777
  875SOL     OW 3523   3.793   2.820   0.737
  875SOL    HW1 3524   3.772   2.884   0.663
  875SOL    HW2 3525   3.767   2.728   0.710
  876SOL     OW 3526   0.709   5.468   3.153
  876SOL    HW1 3527   0.732   5.398   3.085
  876SOL    HW2 3528   0.764   5.453   3.235
  877SOL     OW 3529   4.135   3.386   6.875
  877SOL    HW1 3530   4.061   3.354   6.815
  877SOL    HW2 3531   4.190   3.454   6.826
  878SOL     OW 3532   4.576   5.901   5.328
  878SOL    HW1 3533   4.604   5.809   5.300
  878SOL    HW2 3534   4.556   5.902   5.426
  879SOL     OW 3535   2.845   2.097   1.971
  879SOL    HW1 3536   2.766   2.060   2.021
  879SOL    HW2 3537   2.855   2.194   1.992
  880SOL     OW 3538   3.232   3.766   5.940
  880SOL    HW1 3539   3.331   3.775   5.953
  880SOL    HW2 3540   3.195   3.852   5.905
  881SOL     OW 3541   4.539   4.209   5.346
  881SOL    HW1 3542   4.629   4.236   5.380
  881SOL    HW2 3543   4.479   4.289   5.345
  882SOL     OW 3544   1.532   1.758   4.033
  882SOL    HW1 3545   1.490   1.697   4.100
  882SOL    HW2 3546   1.483   1.845   4.031
  883SOL     OW 3547   4.704   5.423   5.982
  883SOL    HW1 3548   4.726   5.464   5.894
  883SOL    HW2 3549   4.607   5.437   6.002
  884SOL     OW 3550   0.078   3.892   0.350
  884SOL    HW1 3551   0.013   3.825   0.384
  884SOL    HW2 3552   0.100   3.872   0.254
  885SOL     OW 3553   5.042   5.643   6.253
  885SOL    HW1 3554   5.036   5.733   6.296
  885SOL    HW2 3555   4.950   5.613   6.226
  886SOL     OW 3556   3.680   0.480   0.499
  886SOL    HW1 3557   3.724   0.391   0.494
  886SOL    HW2 3558   3.637   0.501   0.411
  887SOL     OW 3559   4.100   6.897   4.177
  887SOL    HW1 3560   4.068   6.980   4.222
  887SOL    HW2 3561   4.188   6.869   4.216
  888SOL     OW 3562   5.719   5.910   2.760
  888SOL    HW1 3563   5.622   5.888   2.771
  888SOL    HW2 3564   5.748   5.886   2.668
  889SOL     OW 3565   1.820   6.497   5.439
  889SOL    HW1 3566   1.736   6.457   5.478
  889SOL    HW2 3567   1.893   6.429   5.442
  890SOL     OW 3568   2.339   4.872   2.193
  890SOL    HW1 3569   2.336   4.925   2.278
  890SOL    HW2 3570   2.250   4.878   2.147
  891SOL     OW 3571   6.482   4.085   1.150
  891SOL    HW1 3572   6.419   4.072   1.073
  891SOL    HW2 3573   6.569   4.120   1.116
  892SOL     OW 3574   3.907   3.992   5.928
  892SOL    HW1 3575   3.912   4.057   5.853
  892SOL    HW2 3576   3.996   3.950   5.943
  893SOL     OW 3577   2.073   0.896   2.600
  893SOL    HW1 3578   1.974   0.899   2.609
  893SOL    HW2 3579   2.107   0.984   2.566
  894SOL     OW 3580   1.497   2.362   3.889
  894SOL    HW1 3581   1.478   2.438   3.827
  894SOL    HW2 3582   1.555   2.295   3.843
  895SOL     OW 3583   1.380   5.954   5.016
  895SOL    HW1 3584   1.376   6.052   4.993
  895SOL    HW2 3585   1.325   5.902   4.951
  896SOL     OW 3586   5.634   0.134   1.955
  896SOL    HW1 3587   5.681   0.200   1.896
  896SOL    HW2 3588   5.671   0.139   2.048
  897SOL     OW 3589   4.997   1.013   0.137
  897SOL    HW1 3590   4.900   1.010   0.160
  897SOL    HW2 3591   5.027   0.922   0.108
  898SOL     OW 3592   4.116   5.703   2.742
  898SOL    HW1 3593   4.043   5.700   2.675
  898SOL    HW2 3594   4.154   5.795   2.747
  899SOL     OW 3595   0.092   5.160   0.308
  899SOL    HW1 3596   0.027   5.235   0.322
  899SOL    HW2 3597   0.075   5.118   0.219
  900SOL     OW 3598   4.873   6.003   1.628
  900SOL    HW1 3599   4.864   5.904   1.624
  900SOL    HW2 3600   4.804   6.045   1.569
  901SOL     OW 3601   1.117   1.019   5.835
  901SOL    HW1 3602   1.100   1.108   5.792
  901SOL    HW2 3603   1.086   1.021   5.930
  902SOL     OW 3604   6.983   2.161   0.063
  902SOL    HW1 3605   6.914   2.213   0.013
  902SOL    HW2 3606   0.048   2.197   0.042
  903SOL     OW 3607   6.853   3.820   6.352
  903SOL    HW1 3608   6.797   3.750   6.308
  903SOL    HW2 3609   6.902   3.780   6.430
  904SOL     OW 3610   1.747   2.631   3.802
  904SOL    HW1 3611   1.785   2.545   3.768
  904SOL    HW2 3612   1.821   2.687   3.841
  905SOL     OW 3613   4.538   3.650   6.519
  905SOL    HW1 3614   4.523   3.552   6.504
  905SOL    HW2 3615   4.487   3.702   6.450
  906SOL     OW 3616   0.567   3.696   5.887
  906SOL    HW1 3617   0.657   3.710   5.845
  906SOL    HW2 3618   0.572   3.716   5.985
  907SOL     OW 3619   5.843   3.208   2.963
  907SOL    HW1 3620   5.904   3.147   3.014
  907SOL    HW2 3621   5.885   3.232   2.875
  908SOL     OW 3622   1.776   6.344   3.142
  908SOL    HW1 3623   1.741   6.341   3.236
  908SOL    HW2 3624   1.809   6.254   3.115
  909SOL     OW 3625   2.653   6.393   2.083
  909SOL    HW1 3626   2.713   6.334   2.029
  909SOL    HW2 3627   2.602   6.453   2.022
  910SOL     OW 3628   2.562   0.347   1.116
  910SOL    HW1 3629   2.606   0.278   1.173
  910SOL    HW2 3630   2.510   0.302   1.043
  911SOL     OW 3631   6.980   5.292   0.971
  911SOL    HW1 3632   6.961   5.297   1.069
  911SOL    HW2 3633   0.041   5.243   0.957
  912SOL     OW 3634   6.463   1.041   4.859
  912SOL    HW1 3635   6.501   0.950   4.870
  912SOL    HW2 3636   6.425   1.072   4.946
  913SOL     OW 3637   1.945   0.553   3.484
  913SOL    HW1 3638   1.906   0.464   3.510
  913SOL    HW2 3639   1.953   0.557   3.385
  914SOL     OW 3640   3.063   5.878   4.981
  914SOL    HW1 3641   3.024   5.970   4.983
  914SOL    HW2 3642   3.117   5.866   4.898
  915SOL     OW 3643   1.396   3.103   0.095
  915SOL    HW1 3644   1.381   3.091   7.022
  915SOL    HW2 3645   1.450   3.186   0.111
  916SOL     OW 3646   1.666   2.561   1.875
  916SOL    HW1 3647   1.720   2.477   1.874
  916SOL    HW2 3648   1.686   2.614   1.793
  917SOL     OW 3649   5.255   0.489   1.918
  917SOL    HW1 3650   5.165   0.503   1.960
  917SOL    HW2 3651   5.326   0.513   1.983
  918SOL     OW 3652   2.683   6.502   6.630
  918SOL    HW1 3653   2.592   6.480   6.595
  918SOL    HW2 3654   2.694   6.463   6.721
  919SOL     OW 3655   6.757   5.536   2.254
  919SOL    HW1 3656   6.794   5.459   2.202
  919SOL    HW2 3657   6.746   5.615   2.193
  920SOL     OW 3658   1.877   6.066   3.389
  920SOL    HW1 3659   1.865   6.165   3.399
  920SOL    HW2 3660   1.915   6.029   3.474
  921SOL     OW 3661   4.685   4.300   4.063
  921SOL    HW1 3662   4.683   4.255   3.974
  921SOL    HW2 3663   4.704   4.233   4.134
  922SOL     OW 3664   3.119   2.686   5.879
  922SOL    HW1 3665   3.049   2.696   5.809
  922SOL    HW2 3666   3.082   2.718   5.967
  923SOL     OW 3667   2.999   4.618   6.417
  923SOL    HW1 3668   2.961   4.530   6.446
  923SOL    HW2 3669   3.075   4.601   6.354
  924SOL     OW 3670   6.382   2.530   2.697
  924SOL    HW1 3671   6.289   2.539   2.732
  924SOL    HW2 3672   6.446   2.575   2.759
  925SOL     OW 3673   7.024   1.835   5.760
  925SOL    HW1 3674   6.953   1.861   5.826
  925SOL    HW2 3675   0.061   1.770   5.803
  926SOL     OW 3676   6.488   0.980   0.101
  926SOL    HW1 3677   6.451   0.889   0.079
  926SOL    HW2 3678   6.488   0.992   0.200
  927SOL     OW 3679   5.508   4.442   3.236
  927SOL    HW1 3680   5.489   4.351   3.273
  927SOL    HW2 3681   5.574   4.435   3.161
  928SOL     OW 3682   1.732   6.751   0.758
  928SOL    HW1 3683   1.785   6.741   0.674
  928SOL    HW2 3684   1.638   6.778   0.734
  929SOL     OW 3685   0.730   1.188   0.995
  929SOL    HW1 3686   0.673   1.253   1.045
  929SOL    HW2 3687   0.779   1.235   0.922
  930SOL     OW 3688   5.830   5.884   4.999
  930SOL    HW1 3689   5.837   5.840   4.909
  930SOL    HW2 3690   5.786   5.821   5.063
  931SOL     OW 3691   5.751   3.584   2.330
  931SOL    HW1 3692   5.704   3.575   2.242
  931SOL    HW2 3693   5.761   3.681   2.354
  932SOL     OW 3694   2.850   6.609   2.576
  932SOL    HW1 3695   2.888   6.679   2.516
  932SOL    HW2 3696   2.804   6.539   2.521
  933SOL     OW 3697   0.682   5.738   3.222
  933SOL    HW1 3698   0.724   5.654   3.189
  933SOL    HW2 3699   0.592   5.749   3.180
  934SOL     OW 3700   1.443   0.957   5.119
  934SOL    HW1 3701   1.373   0.891   5.145
  934SOL    HW2 3702   1.476   0.937   5.027
  935SOL     OW 3703   5.184   3.717   5.396
  935SOL    HW1 3704   5.127   3.702   5.478
  935SOL    HW2 3705   5.150   3.659   5.322
  936SOL     OW 3706   1.911   1.259   6.311
  936SOL    HW1 3707   1.841   1.309   6.361
  936SOL    HW2 3708   1.885   1.162   6.304
  937SOL     OW 3709   4.771   1.409   4.580
  937SOL    HW1 3710   4.788   1.490   4.524
  937SOL    HW2 3711   4.681   1.372   4.557
  938SOL     OW 3712   0.414   5.405   6.389
  938SOL    HW1 3713   0.318   5.433   6.396
  938SOL    HW2 3714   0.458   5.453   6.313
  939SOL     OW 3715   4.534   1.006   5.426
  939SOL    HW1 3716   4.453   1.023   5.483
  939SOL    HW2 3717   4.526   1.059   5.341
  940SOL     OW 3718   0.666   3.377   2.549
  940SOL    HW1 3719   0.673   3.287   2.593
  940SOL    HW2 3720   0.582   3.423   2.579
  941SOL     OW 3721   6.447   0.636   4.766
  941SOL    HW1 3722   6.518   0.571   4.739
  941SOL    HW2 3723   6.400   0.602   4.847
  942SOL     OW 3724   4.760   0.060   3.713
  942SOL    HW1 3725   4.703   0.124   3.764
  942SOL    HW2 3726   4.703   0.004   3.654
  943SOL     OW 3727   1.268   3.625   3.789
  943SOL    HW1 3728   1.273   3.672   3.701
  943SOL    HW2 3729   1.213   3.679   3.853
  944SOL     OW 3730   6.345   4.077   5.519
  944SOL    HW1 3731   6.357   4.093   5.422
  944SOL    HW2 3732   6.410   4.133   5.571
  945SOL     OW 3733   6.497   4.256   5.691
  945SOL    HW1 3734   6.530   4.345   5.720
  945SOL    HW2 3735   6.573   4.204   5.651
  946SOL     OW 3736   4.599   3.499   5.897
  946SOL    HW1 3737   4.589   3.553   5.813
  946SOL    HW2 3738   4.526   3.523   5.960
  947SOL     OW 3739   3.352   3.281   4.396
  947SOL    HW1 3740   3.331   3.204   4.336
  947SOL    HW2 3741   3.267   3.328   4.421
  948SOL     OW 3742   3.995   0.487   0.759
  948SOL    HW1 3743   4.008   0.515   0.664
  948SOL    HW2 3744   3.952   0.396   0.761
  949SOL     OW 3745   0.375   6.455   6.607
  949SOL    HW1 3746   0.473   6.443   6.591
  949SOL    HW2 3747   0.342   6.533   6.554
  950SOL     OW 3748   4.109   5.081   1.459
  950SOL    HW1 3749   4.162   5.053   1.379
  950SOL    HW2 3750   4.065   5.169   1.442
  951SOL     OW 3751   1.493   0.858   2.633
  951SOL    HW1 3752   1.483   0.912   2.550
  951SOL    HW2 3753   1.405   0.816   2.656
  952SOL     OW 3754   5.941   1.906   2.405
  952SOL    HW1 3755   5.890   1.842   2.347
  952SOL    HW2 3756   6.020   1.941   2.354
  953SOL     OW 3757   5.274   5.783   4.990
  953SOL    HW1 3758   5.230   5.716   5.050
  953SOL    HW2 3759   5.205   5.844   4.952
  954SOL     OW 3760   5.223   5.675   0.467
  954SOL    HW1 3761   5.162   5.746   0.432
  954SOL    HW2 3762   5.213   5.592   0.413
  955SOL     OW 3763   0.105   5.166   3.433
  955SOL    HW1 3764   0.042   5.148   3.509
  955SOL    HW2 3765   0.186   5.108   3.442
  956SOL     OW 3766   0.386   2.055   2.555
  956SOL    HW1 3767   0.473   2.097   2.582
  956SOL    HW2 3768   0.344   2.013   2.635
  957SOL     OW 3769   0.822   5.072   4.479
  957SOL    HW1 3770   0.734   5.119   4.484
  957SOL    HW2 3771   0.833   5.013   4.559
  958SOL     OW 3772   4.528   2.515   2.090
  958SOL    HW1 3773   4.455   2.498   2.023
  958SOL    HW2 3774   4.579   2.597   2.063
  959SOL     OW 3775   3.286   4.980   3.384
  959SOL    HW1 3776   3.272   4.933   3.471
  959SOL    HW2 3777   3.221   5.055   3.376
  960SOL     OW 3778   6.995   5.782   3.397
  960SOL    HW1 3779   0.064   5.786   3.364
  960SOL    HW2 3780   6.938   5.737   3.328
  961SOL     OW 3781   4.890   0.067   3.474
  961SOL    HW1 3782   4.869   0.033   3.566
  961SOL    HW2 3783   4.851   0.158   3.462
  962SOL     OW 3784   1.415   1.012   4.083
  962SOL    HW1 3785   1.465   1.097   4.095
  962SOL    HW2 3786   1.352   1.020   4.006
  963SOL     OW 3787   6.368   2.051   6.198
  963SOL    HW1 3788   6.468   2.042   6.199
  963SOL    HW2 3789   6.341   2.112   6.123
  964SOL     OW 3790   6.254   4.480   0.508
  964SOL    HW1 3791   6.314   4.499   0.586
  964SOL    HW2 3792   6.281   4.536   0.430
  965SOL     OW 3793   5.215   1.080   1.004
  965SOL    HW1 3794   5.191   1.165   0.957
  965SOL    HW2 3795   5.186   1.002   0.949
  966SOL     OW 3796   5.412   2.388   2.140
  966SOL    HW1 3797   5.482   2.453   2.111
  966SOL    HW2 3798   5.456   2.306   2.178
  967SOL     OW 3799   2.644   5.068   1.600
  967SOL    HW1 3800   2.651   5.152   1.546
  967SOL    HW2 3801   2.572   5.078   1.668
  968SOL     OW 3802   3.992   2.174   2.593
  968SOL    HW1 3803   4.050   2.196   2.514
  968SOL    HW2 3804   3.896   2.184   2.567
  969SOL     OW 3805   3.643   5.720   7.016
  969SOL    HW1 3806   3.731   5.725   6.969
  969SOL    HW2 3807   3.615   5.625   7.025
  970SOL     OW 3808   4.971   1.365   5.239
  970SOL    HW1 3809   4.989   1.447   5.293
  970SOL    HW2 3810   4.882   1.373   5.194
  971SOL     OW 3811   0.214   1.850   3.022
  971SOL    HW1 3812   0.160   1.797   2.956
  971SOL    HW2 3813   0.269   1.789   3.078
  972SOL     OW 3814   5.535   4.191   1.211
  972SOL    HW1 3815   5.631   4.208   1.234
  972SOL    HW2 3816   5.529   4.111   1.152
  973SOL     OW 3817   6.702   4.446   6.747
  973SOL    HW1 3818   6.751   4.437   6.834
  973SOL    HW2 3819   6.750   4.394   6.677
  974SOL     OW 3820   5.145   0.270   2.168
  974SOL    HW1 3821   5.088   0.329   2.111
  974SOL    HW2 3822   5.221   0.234   2.114
  975SOL     OW 3823   1.581   5.932   6.606
  975SOL    HW1 3824   1.504   5.936   6.543
  975SOL    HW2 3825   1.657   5.883   6.562
  976SOL     OW 3826   6.468   3.192   3.000
  976SOL    HW1 3827   6.549   3.247   2.980
  976SOL    HW2 3828   6.495   3.105   3.041
  977SOL     OW 3829   1.521   0.709   3.572
  977SOL    HW1 3830   1.476   0.620   3.574
  977SOL    HW2 3831   1.459   0.778   3.535
  978SOL     OW 3832   4.674   4.160   5.624
  978SOL    HW1 3833   4.629   4.128   5.708
  978SOL    HW2 3834   4.703   4.082   5.570
  979SOL     OW 3835   0.160   2.254   1.331
  979SOL    HW1 3836   0.251   2.239   1.369
  979SOL    HW2 3837   0.110   2.318   1.389
  980SOL     OW 3838   3.842   2.118   4.037
  980SOL    HW1 3839   3.759   2.091   3.989
  980SOL    HW2 3840   3.821   2.136   4.133
  981SOL     OW 3841   1.339   1.830   5.372
  981SOL    HW1 3842   1.383   1.741   5.359
  981SOL    HW2 3843   1.241   1.817   5.389
  982SOL     OW 3844   2.674   2.016   3.210
  982SOL    HW1 3845   2.659   2.084   3.282
  982SOL    HW2 3846   2.730   2.056   3.137
  983SOL     OW 3847   5.729   2.064   4.515
  983SOL    HW1 3848   5.811   2.121   4.517
  983SOL    HW2 3849   5.651   2.118   4.484
  984SOL     OW 3850   2.885   1.641   3.789
  984SOL    HW1 3851   2.896   1.555   3.738
  984SOL    HW2 3852   2.966   1.656   3.845
  985SOL     OW 3853   5.060   5.077   6.783
  985SOL    HW1 3854   5.082   5.119   6.695
  985SOL    HW2 3855   5.101   5.131   6.856
  986SOL     OW 3856   5.673   4.076   0.347
  986SOL    HW1 3857   5.619   4.155   0.378
  986SOL    HW2 3858   5.630   4.035   0.267
  987SOL     OW 3859   4.194   6.663   1.654
  987SOL    HW1 3860   4.292   6.656   1.633
  987SOL    HW2 3861   4.151   6.728   1.591
  988SOL     OW 3862   3.465   3.076   3.161
  988SOL    HW1 3863   3.435   3.162   3.202
  988SOL    HW2 3864   3.501   3.016   3.233
  989SOL     OW 3865   6.315   1.113   5.579
  989SOL    HW1 3866   6.339   1.209   5.572
  989SOL    HW2 3867   6.386   1.057   5.537
  990SOL     OW 3868   4.175   0.759   2.098
  990SOL    HW1 3869   4.181   0.661   2.084
  990SOL    HW2 3870   4.240   0.806   2.037
  991SOL     OW 3871   1.592   2.677   5.222
  991SOL    HW1 3872   1.590   2.713   5.129
  991SOL    HW2 3873   1.686   2.661   5.250
  992SOL     OW 3874   0.178   2.837   1.925
  992SOL    HW1 3875   0.132   2.923   1.900
  992SOL    HW2 3876   0.115   2.760   1.909
  993SOL     OW 3877   1.316   4.620   1.967
  993SOL    HW1 3878   1.375   4.571   2.031
  993SOL    HW2 3879   1.234   4.565   1.949
  994SOL     OW 3880   3.330   4.118   2.281
  994SOL    HW1 3881   3.269   4.079   2.213
  994SOL    HW2 3882   3.421   4.130   2.242
  995SOL     OW 3883   3.331   2.805   5.667
  995SOL    HW1 3884   3.364   2.794   5.760
  995SOL    HW2 3885   3.355   2.724   5.613
  996SOL     OW 3886   1.652   4.652   4.459
  996SOL    HW1 3887   1.619   4.599   4.381
  996SOL    HW2 3888   1.752   4.644   4.465
  997SOL     OW 3889   0.884   0.661   2.916
  997SOL    HW1 3890   0.830   0.710   2.985
  997SOL    HW2 3891   0.980   0.663   2.942
  998SOL     OW 3892   3.795   6.484   4.637
  998SOL    HW1 3893   3.849   6.400   4.636
  998SOL    HW2 3894   3.826   6.545   4.565
  999SOL     OW 3895   5.318   4.505   2.246
  999SOL    HW1 3896   5.291   4.408   2.249
  999SOL    HW2 3897   5.247   4.560   2.291
 1000SOL     OW 3898   1.104   0.911   1.513
 1000SOL    HW1 3899   1.157   0.865   1.584
 1000SOL    HW2 3900   1.075   0.844   1.445
 1001SOL     OW 3901   6.180   6.958   0.913
 1001SOL    HW1 3902   6.271   6.975   0.952
 1001SOL    HW2 3903   6.188   6.890   0.841
 1002SOL     OW 3904   6.138   1.495   0.313
 1002SOL    HW1 3905   6.160   1.419   0.252
 1002SOL    HW2 3906   6.221   1.547   0.334
 1003SOL     OW 3907   2.135   5.967   1.897
 1003SOL    HW1 3908   2.092   5.881   1.924
 1003SOL    HW2 3909   2.179   6.009   1.976
 1004SOL     OW 3910   0.321   0.010   1.498
 1004SOL    HW1 3911   0.248   0.044   1.439
 1004SOL    HW2 3912   0.343   6.942   1.472
 1005SOL     OW 3913   1.009   2.403   3.200
 1005SOL    HW1 3914   0.952   2.373   3.277
 1005SOL    HW2 3915   0.974   2.364   3.115
 1006SOL     OW 3916   1.364   4.694   1.138
 1006SOL    HW1 3917   1.385   4.777   1.189
 1006SOL    HW2 3918   1.419   4.691   1.054
 1007SOL     OW 3919   5.414   6.838   4.474
 1007SOL    HW1 3920   5.420   6.763   4.540
 1007SOL    HW2 3921   5.506   6.874   4.457
 1008SOL     OW 3922   2.219   3.052   4.591
 1008SOL    HW1 3923   2.231   2.966   4.541
 1008SOL    HW2 3924   2.205   3.127   4.525
 1009SOL     OW 3925   0.515   5.309   4.571
 1009SOL    HW1 3926   0.606   5.337   4.602
 1009SOL    HW2 3927   0.523   5.223   4.521
 1010SOL     OW 3928   3.786   2.593   5.917
 1010SOL    HW1 3929   3.773   2.579   6.016
 1010SOL    HW2 3930   3.791   2.691   5.899
 1011SOL     OW 3931   2.623   5.449   2.303
 1011SOL    HW1 3932   2.616   5.529   2.363
 1011SOL    HW2 3933   2.646   5.369   2.358
 1012SOL     OW 3934   7.000   0.298   0.696
 1012SOL    HW1 3935   6.915   0.340   0.664
 1012SOL    HW2 3936   6.992   0.198   0.691
 1013SOL     OW 3937   1.208   1.077   6.279
 1013SOL    HW1 3938   1.257   1.162   6.258
 1013SOL    HW2 3939   1.147   1.054   6.203
 1014SOL     OW 3940   4.952   6.064   6.585
 1014SOL    HW1 3941   4.989   6.012   6.662
 1014SOL    HW2 3942   4.860   6.095   6.608
 1015SOL     OW 3943   2.135   6.762   5.289
 1015SOL    HW1 3944   2.054   6.794   5.338
 1015SOL    HW2 3945   2.186   6.698   5.346
 1016SOL     OW 3946   3.677   3.394   0.077
 1016SOL    HW1 3947   3.590   3.424   0.036
 1016SOL    HW2 3948   3.751   3.451   0.042
 1017SOL     OW 3949   4.150   2.889   1.219
 1017SOL    HW1 3950   4.112   2.797   1.214
 1017SOL    HW2 3951   4.211   2.905   1.141
 1018SOL     OW 3952   0.944   3.398   4.070
 1018SOL    HW1 3953   0.948   3.303   4.038
 1018SOL    HW2 3954   0.985   3.404   4.161
 1019SOL     OW 3955   0.372   0.461   0.591
 1019SOL    HW1 3956   0.409   0.526   0.657
 1019SOL    HW2 3957   0.356   0.373   0.636
 1020SOL     OW 3958   0.785   6.793   1.518
 1020SOL    HW1 3959   0.875   6.756   1.541
 1020SOL    HW2 3960   0.714   6.731   1.550
 1021SOL     OW 3961   5.520   0.576   1.507
 1021SOL    HW1 3962   5.581   0.498   1.524
 1021SOL    HW2 3963   5.535   0.646   1.577
 1022SOL     OW 3964   3.563   4.788   6.170
 1022SOL    HW1 3965   3.500   4.741   6.231
 1022SOL    HW2 3966   3.517   4.867   6.129
 1023SOL     OW 3967   0.672   6.792   2.112
 1023SOL    HW1 3968   0.719   6.739   2.041
 1023SOL    HW2 3969   0.739   6.848   2.160
 1024SOL     OW 3970   6.764   3.314   4.378
 1024SOL    HW1 3971   6.777   3.288   4.282
 1024SOL    HW2 3972   6.830   3.385   4.403
 1025SOL     OW 3973   2.879   3.280   0.711
 1025SOL    HW1 3974   2.835   3.202   0.667
 1025SOL    HW2 3975   2.813   3.354   0.723
 1026SOL     OW 3976   2.390   2.602   1.137
 1026SOL    HW1 3977   2.464   2.668   1.146
 1026SOL    HW2 3978   2.379   2.553   1.224
 1027SOL     OW 3979   3.251   6.772   0.972
 1027SOL    HW1 3980   3.298   6.684   0.962
 1027SOL    HW2 3981   3.193   6.788   0.891
 1028SOL     OW 3982   3.098   6.130   6.931
 1028SOL    HW1 3983   3.096   6.228   6.914
 1028SOL    HW2 3984   3.136   6.083   6.852
 1029SOL     OW 3985   2.229   0.256   0.215
 1029SOL    HW1 3986   2.275   0.329   0.265
 1029SOL    HW2 3987   2.238   0.273   0.117
 1030SOL     OW 3988   3.738   3.688   1.745
 1030SOL    HW1 3989   3.756   3.721   1.837
 1030SOL    HW2 3990   3.747   3.589   1.742
 1031SOL     OW 3991   4.824   5.109   0.927
 1031SOL    HW1 3992   4.752   5.042   0.909
 1031SOL    HW2 3993   4.863   5.140   0.840
 1032SOL     OW 3994   2.151   1.647   4.921
 1032SOL    HW1 3995   2.156   1.572   4.987
 1032SOL    HW2 3996   2.227   1.639   4.856
 1033SOL     OW 3997   1.595   5.948   1.040
 1033SOL    HW1 3998   1.689   5.962   1.070
 1033SOL    HW2 3999   1.534   5.957   1.119
 1034SOL     OW 4000   0.462   5.193   5.142
 1034SOL    HW1 4001   0.526   5.243   5.201
 1034SOL    HW2 4002   0.392   5.256   5.108
 1035SOL     OW 4003   1.420   1.568   4.219
 1035SOL    HW1 4004   1.352   1.496   4.227
 1035SOL    HW2 4005   1.418   1.624   4.302
 1036SOL     OW 4006   2.596   1.168   2.100
 1036SOL    HW1 4007   2.608   1.070   2.087
 1036SOL    HW2 4008   2.685   1.213   2.100
 1037SOL     OW 4009   1.815   0.898   1.475
 1037SOL    HW1 4010   1.865   0.883   1.560
 1037SOL    HW2 4011   1.719   0.913   1.495
 1038SOL     OW 4012   1.339   0.144   5.928
 1038SOL    HW1 4013   1.253   0.099   5.952
 1038SOL    HW2 4014   1.416   0.086   5.957
 1039SOL     OW 4015   2.938   2.729   5.676
 1039SOL    HW1 4016   2.853   2.678   5.693
 1039SOL    HW2 4017   2.921   2.826   5.690
 1040SOL     OW 4018   4.669   2.692   2.347
 1040SOL    HW1 4019   4.740   2.761   2.360
 1040SOL    HW2 4020   4.586   2.735   2.310
 1041SOL     OW 4021   6.157   0.107   4.246
 1041SOL    HW1 4022   6.059   0.088   4.239
 1041SOL    HW2 4023   6.206   0.054   4.178
 1042SOL     OW 4024   3.574   5.264   2.583
 1042SOL    HW1 4025   3.579   5.217   2.495
 1042SOL    HW2 4026   3.544   5.199   2.654
 1043SOL     OW 4027   3.916   1.399   4.706
 1043SOL    HW1 4028   3.835   1.344   4.727
 1043SOL    HW2 4029   3.887   1.489   4.672
 1044SOL     OW 4030   4.973   4.296   2.028
 1044SOL    HW1 4031   4.976   4.388   2.068
 1044SOL    HW2 4032   4.915   4.237   2.083
 1045SOL     OW 4033   3.746   6.185   2.137
 1045SOL    HW1 4034   3.697   6.272   2.137
 1045SOL    HW2 4035   3.714   6.128   2.211
 1046SOL     OW 4036   1.123   0.082   0.373
 1046SOL    HW1 4037   1.046   0.128   0.419
 1046SOL    HW2 4038   1.149   0.001   0.424
 1047SOL     OW 4039   1.373   6.940   2.676
 1047SOL    HW1 4040   1.373   7.010   2.747
 1047SOL    HW2 4041   1.460   6.891   2.678
 1048SOL     OW 4042   5.274   6.101   4.896
 1048SOL    HW1 4043   5.280   6.188   4.946
 1048SOL    HW2 4044   5.191   6.052   4.924
 1049SOL     OW 4045   6.222   5.291   3.725
 1049SOL    HW1 4046   6.171   5.206   3.726
 1049SOL    HW2 4047   6.177   5.357   3.664
 1050SOL     OW 4048   4.176   5.394   0.965
 1050SOL    HW1 4049   4.119   5.447   1.028
 1050SOL    HW2 4050   4.234   5.456   0.912
 1051SOL     OW 4051   2.392   5.348   0.682
 1051SOL    HW1 4052   2.334   5.349   0.601
 1051SOL    HW2 4053   2.483   5.314   0.659
 1052SOL     OW 4054   3.679   0.511   4.437
 1052SOL    HW1 4055   3.614   0.559   4.495
 1052SOL    HW2 4056   3.740   0.455   4.493
 1053SOL     OW 4057   5.144   5.192   3.240
 1053SOL    HW1 4058   5.051   5.160   3.258
 1053SOL    HW2 4059   5.194   5.122   3.189
 1054SOL     OW 4060   2.215   3.766   5.470
 1054SOL    HW1 4061   2.283   3.700   5.501
 1054SOL    HW2 4062   2.182   3.741   5.379
 1055SOL     OW 4063   5.257   6.631   3.773
 1055SOL    HW1 4064   5.293   6.670   3.688
 1055SOL    HW2 4065   5.275   6.693   3.849
 1056SOL     OW 4066   1.779   4.941   5.998
 1056SOL    HW1 4067   1.782   4.848   6.035
 1056SOL    HW2 4068   1.774   4.937   5.898
 1057SOL     OW 4069   3.561   3.171   2.699
 1057SOL    HW1 4070   3.484   3.204   2.645
 1057SOL    HW2 4071   3.555   3.071   2.708
 1058SOL     OW 4072   5.079   1.861   2.793
 1058SOL    HW1 4073   5.135   1.894   2.717
 1058SOL    HW2 4074   5.101   1.765   2.811
 1059SOL     OW 4075   2.337   0.257   1.700
 1059SOL    HW1 4076   2.250   0.306   1.707
 1059SOL    HW2 4077   2.320   0.161   1.680
 1060SOL     OW 4078   6.858   4.083   4.417
 1060SOL    HW1 4079   6.954   4.096   4.443
 1060SOL    HW2 4080   6.824   4.166   4.372
 1061SOL     OW 4081   5.544   3.592   1.489
 1061SOL    HW1 4082   5.455   3.552   1.466
 1061SOL    HW2 4083   5.579   3.550   1.573
 1062SOL     OW 4084   5.978   4.387   5.424
 1062SOL    HW1 4085   5.882   4.357   5.428
 1062SOL    HW2 4086   5.990   4.449   5.346
 1063SOL     OW 4087   1.464   4.953   1.612
 1063SOL    HW1 4088   1.417   5.014   1.675
 1063SOL    HW2 4089   1.407   4.873   1.593
 1064SOL     OW 4090   1.677   4.442   2.062
 1064SOL    HW1 4091   1.686   4.344   2.041
 1064SOL    HW2 4092   1.671   4.494   1.978
 1065SOL     OW 4093   4.583   6.870   4.021
 1065SOL    HW1 4094   4.507   6.829   3.971
 1065SOL    HW2 4095   4.635   6.797   4.067
 1066SOL     OW 4096   4.743   0.358   3.685
 1066SOL    HW1 4097   4.797   0.434   3.722
 1066SOL    HW2 4098   4.802   0.278   3.673
 1067SOL     OW 4099   1.107   3.285   0.240
 1067SOL    HW1 4100   1.037   3.297   0.310
 1067SOL    HW2 4101   1.180   3.226   0.275
 1068SOL     OW 4102   4.585   5.068   2.488
 1068SOL    HW1 4103   4.575   4.996   2.420
 1068SOL    HW2 4104   4.515   5.059   2.558
 1069SOL     OW 4105   5.002   5.142   0.669
 1069SOL    HW1 4106   5.007   5.046   0.694
 1069SOL    HW2 4107   4.929   5.156   0.602
 1070SOL     OW 4108   0.671   0.933   2.134
 1070SOL    HW1 4109   0.720   1.015   2.104
 1070SOL    HW2 4110   0.632   0.886   2.055
 1071SOL     OW 4111   2.261   0.324   3.815
 1071SOL    HW1 4112   2.304   0.330   3.725
 1071SOL    HW2 4113   2.328   0.348   3.885
 1072SOL     OW 4114   1.969   6.348   1.338
 1072SOL    HW1 4115   1.965   6.374   1.435
 1072SOL    HW2 4116   2.021   6.263   1.329
 1073SOL     OW 4117   4.240   6.393   2.119
 1073SOL    HW1 4118   4.174   6.346   2.178
 1073SOL    HW2 4119   4.196   6.415   2.032
 1074SOL     OW 4120   2.669   5.297   0.629
 1074SOL    HW1 4121   2.734   5.242   0.577
 1074SOL    HW2 4122   2.658   5.387   0.586
 1075SOL     OW 4123   4.045   6.732   3.960
 1075SOL    HW1 4124   4.061   6.807   4.024
 1075SOL    HW2 4125   4.069   6.761   3.867
 1076SOL     OW 4126   6.771   4.354   5.356
 1076SOL    HW1 4127   6.720   4.297   5.421
 1076SOL    HW2 4128   6.841   4.405   5.405
 1077SOL     OW 4129   5.824   0.089   0.831
 1077SOL    HW1 4130   5.819   0.145   0.914
 1077SOL    HW2 4131   5.854   7.022   0.856
 1078SOL     OW 4132   0.678   1.407   2.804
 1078SOL    HW1 4133   0.667   1.317   2.761
 1078SOL    HW2 4134   0.723   1.469   2.740
 1079SOL     OW 4135   1.963   6.153   2.502
 1079SOL    HW1 4136   2.016   6.214   2.444
 1079SOL    HW2 4137   1.970   6.183   2.597
 1080SOL     OW 4138   2.041   4.599   3.624
 1080SOL    HW1 4139   2.088   4.679   3.661
 1080SOL    HW2 4140   1.959   4.581   3.677
 1081SOL     OW 4141   6.955   6.381   6.150
 1081SOL    HW1 4142   7.003   6.468   6.157
 1081SOL    HW2 4143   6.974   6.340   6.060
 1082SOL     OW 4144   3.620   2.126   6.369
 1082SOL    HW1 4145   3.711   2.136   6.331
 1082SOL    HW2 4146   3.587   2.032   6.354
 1083SOL     OW 4147   4.355   4.049   1.040
 1083SOL    HW1 4148   4.305   4.030   1.125
 1083SOL    HW2 4149   4.437   4.102   1.060
 1084SOL     OW 4150   6.342   5.692   1.011
 1084SOL    HW1 4151   6.263   5.646   0.972
 1084SOL    HW2 4152   6.423   5.635   1.001
 1085SOL     OW 4153   1.131   4.338   3.897
 1085SOL    HW1 4154   1.147   4.411   3.963
 1085SOL    HW2 4155   1.175   4.361   3.811
 1086SOL     OW 4156   6.579   5.991   2.251
 1086SOL    HW1 4157   6.549   5.910   2.302
 1086SOL    HW2 4158   6.546   5.986   2.157
 1087SOL     OW 4159   6.225   3.221   5.437
 1087SOL    HW1 4160   6.298   3.273   5.481
 1087SOL    HW2 4161   6.230   3.233   5.338
 1088SOL     OW 4162   5.803   4.620   3.353
 1088SOL    HW1 4163   5.843   4.675   3.426
 1088SOL    HW2 4164   5.705   4.610   3.369
 1089SOL     OW 4165   1.474   6.716   4.381
 1089SOL    HW1 4166   1.518   6.736   4.293
 1089SOL    HW2 4167   1.442   6.621   4.381
 1090SOL     OW 4168   2.304   1.237   3.914
 1090SOL    HW1 4169   2.348   1.254   4.002
 1090SOL    HW2 4170   2.297   1.138   3.899
 1091SOL     OW 4171   2.566   2.869   5.424
 1091SOL    HW1 4172   2.650   2.821   5.395
 1091SOL    HW2 4173   2.540   2.935   5.354
 1092SOL     OW 4174   1.675   3.490   0.454
 1092SOL    HW1 4175   1.593   3.541   0.429
 1092SOL    HW2 4176   1.718   3.534   0.533
 1093SOL     OW 4177   1.947   1.682   1.943
 1093SOL    HW1 4178   1.950   1.586   1.913
 1093SOL    HW2 4179   1.902   1.687   2.032
 1094SOL     OW 4180   0.747   6.308   3.863
 1094SOL    HW1 4181   0.669   6.354   3.906
 1094SOL    HW2 4182   0.729   6.295   3.766
 1095SOL     OW 4183   0.497   2.387   5.674
 1095SOL    HW1 4184   0.412   2.354   5.633
 1095SOL    HW2 4185   0.533   2.462   5.619
 1096SOL     OW 4186   3.293   4.613   1.701
 1096SOL    HW1 4187   3.373   4.616   1.761
 1096SOL    HW2 4188   3.256   4.520   1.701
 1097SOL     OW 4189   1.859   4.159   4.303
 1097SOL    HW1 4190   1.899   4.233   4.249
 1097SOL    HW2 4191   1.922   4.132   4.375
 1098SOL     OW 4192   4.941   3.206   1.178
 1098SOL    HW1 4193   4.936   3.264   1.097
 1098SOL    HW2 4194   4.903   3.116   1.158
 1099SOL     OW 4195   4.190   1.692   5.169
 1099SOL    HW1 4196   4.157   1.782   5.196
 1099SOL    HW2 4197   4.162   1.673   5.075
 1100SOL     OW 4198   3.586   1.835   6.339
 1100SOL    HW1 4199   3.520   1.808   6.410
 1100SOL    HW2 4200   3.546   1.817   6.249
 1101SOL     OW 4201   6.503   2.063   0.303
 1101SOL    HW1 4202   6.484   2.040   0.398
 1101SOL    HW2 4203   6.509   1.980   0.248
 1102SOL     OW 4204   0.689   5.854   4.106
 1102SOL    HW1 4205   0.672   5.895   4.196
 1102SOL    HW2 4206   0.770   5.896   4.065
 1103SOL     OW 4207   3.498   1.615   0.778
 1103SOL    HW1 4208   3.455   1.650   0.695
 1103SOL    HW2 4209   3.534   1.524   0.761
 1104SOL     OW 4210   2.200   3.416   5.494
 1104SOL    HW1 4211   2.246   3.334   5.461
 1104SOL    HW2 4212   2.210   3.422   5.593
 1105SOL     OW 4213   6.027   3.611   4.753
 1105SOL    HW1 4214   6.014   3.624   4.655
 1105SOL    HW2 4215   5.942   3.634   4.802
 1106SOL     OW 4216   0.750   1.850   1.003
 1106SOL    HW1 4217   0.659   1.891   0.995
 1106SOL    HW2 4218   0.805   1.874   0.923
 1107SOL     OW 4219   2.098   0.275   6.354
 1107SOL    HW1 4220   2.020   0.328   6.388
 1107SOL    HW2 4221   2.163   0.261   6.428
 1108SOL     OW 4222   3.098   1.149   5.888
 1108SOL    HW1 4223   3.078   1.080   5.956
 1108SOL    HW2 4224   3.018   1.165   5.830
 1109SOL     OW 4225   4.491   6.692   4.580
 1109SOL    HW1 4226   4.418   6.661   4.640
 1109SOL    HW2 4227   4.552   6.753   4.631
 1110SOL     OW 4228   2.887   2.167   2.864
 1110SOL    HW1 4229   2.815   2.232   2.886
 1110SOL    HW2 4230   2.878   2.137   2.769
 1111SOL     OW 4231   4.790   5.141   6.963
 1111SOL    HW1 4232   4.759   5.220   7.017
 1111SOL    HW2 4233   4.867   5.169   6.906
 1112SOL     OW 4234   6.254   1.529   2.329
 1112SOL    HW1 4235   6.216   1.442   2.297
 1112SOL    HW2 4236   6.354   1.525   2.324
 1113SOL     OW 4237   0.127   3.709   3.335
 1113SOL    HW1 4238   0.168   3.674   3.419
 1113SOL    HW2 4239   0.117   3.808   3.342
 1114SOL     OW 4240   4.464   1.358   6.628
 1114SOL    HW1 4241   4.412   1.335   6.546
 1114SOL    HW2 4242   4.408   1.340   6.709
 1115SOL     OW 4243   4.312   2.926   0.328
 1115SOL    HW1 4244   4.303   3.025   0.340
 1115SOL    HW2 4245   4.398   2.905   0.283
 1116SOL     OW 4246   5.261   5.846   5.381
 1116SOL    HW1 4247   5.299   5.936   5.403
 1116SOL    HW2 4248   5.327   5.775   5.406
 1117SOL     OW 4249   1.812   2.296   1.548
 1117SOL    HW1 4250   1.800   2.393   1.526
 1117SOL    HW2 4251   1.859   2.251   1.472
 1118SOL     OW 4252   2.108   4.169   1.505
 1118SOL    HW1 4253   2.164   4.097   1.546
 1118SOL    HW2 4254   2.012   4.141   1.506
 1119SOL     OW 4255   4.688   4.482   0.693
 1119SOL    HW1 4256   4.724   4.526   0.611
 1119SOL    HW2 4257   4.725   4.527   0.774
 1120SOL     OW 4258   5.790   0.023   4.651
 1120SOL    HW1 4259   5.888   0.037   4.667
 1120SOL    HW2 4260   5.739   0.099   4.690
 1121SOL     OW 4261   5.611   4.711   2.616
 1121SOL    HW1 4262   5.551   4.641   2.578
 1121SOL    HW2 4263   5.592   4.723   2.713
 1122SOL     OW 4264   4.447   3.132   6.924
 1122SOL    HW1 4265   4.432   3.036   6.947
 1122SOL    HW2 4266   4.418   3.149   6.830
 1123SOL     OW 4267   5.174   1.795   3.230
 1123SOL    HW1 4268   5.206   1.859   3.161
 1123SOL    HW2 4269   5.252   1.744   3.267
 1124SOL     OW 4270   6.025   4.129   5.165
 1124SOL    HW1 4271   6.050   4.194   5.238
 1124SOL    HW2 4272   5.930   4.101   5.177
 1125SOL     OW 4273   3.234   1.574   4.762
 1125SOL    HW1 4274   3.230   1.609   4.856
 1125SOL    HW2 4275   3.318   1.607   4.718
 1126SOL     OW 4276   5.567   6.190   0.046
 1126SOL    HW1 4277   5.578   6.103   7.024
 1126SOL    HW2 4278   5.596   6.181   0.141
 1127SOL     OW 4279   5.176   5.016   5.009
 1127SOL    HW1 4280   5.268   4.977   5.018
 1127SOL    HW2 4281   5.113   4.966   5.068
 1128SOL     OW 4282   5.412   2.299   5.549
 1128SOL    HW1 4283   5.470   2.276   5.627
 1128SOL    HW2 4284   5.352   2.221   5.529
 1129SOL     OW 4285   3.602   0.611   6.623
 1129SOL    HW1 4286   3.584   0.690   6.564
 1129SOL    HW2 4287   3.693   0.575   6.604
 1130SOL     OW 4288   1.740   4.660   1.164
 1130SOL    HW1 4289   1.771   4.727   1.232
 1130SOL    HW2 4290   1.708   4.709   1.082
 1131SOL     OW 4291   0.286   6.246   6.013
 1131SOL    HW1 4292   0.230   6.179   6.062
 1131SOL    HW2 4293   0.378   6.210   6.002
 1132SOL     OW 4294   5.141   0.020   1.307
 1132SOL    HW1 4295   5.116   0.093   1.244
 1132SOL    HW2 4296   5.155   6.961   1.255
 1133SOL     OW 4297   1.024   1.166   0.673
 1133SOL    HW1 4298   1.102   1.143   0.614
 1133SOL    HW2 4299   1.040   1.132   0.765
 1134SOL     OW 4300   4.862   1.258   1.841
 1134SOL    HW1 4301   4.952   1.294   1.817
 1134SOL    HW2 4302   4.792   1.303   1.786
 1135SOL     OW 4303   1.875   1.185   2.711
 1135SOL    HW1 4304   1.825   1.217   2.630
 1135SOL    HW2 4305   1.973   1.185   2.691
 1136SOL     OW 4306   3.442   5.219   4.843
 1136SOL    HW1 4307   3.374   5.257   4.781
 1136SOL    HW2 4308   3.396   5.165   4.914
 1137SOL     OW 4309   1.359   1.758   5.779
 1137SOL    HW1 4310   1.338   1.856   5.784
 1137SOL    HW2 4311   1.448   1.745   5.737
 1138SOL     OW 4312   0.513   1.401   6.447
 1138SOL    HW1 4313   0.481   1.455   6.369
 1138SOL    HW2 4314   0.613   1.400   6.447
 1139SOL     OW 4315   3.137   5.669   1.419
 1139SOL    HW1 4316   3.094   5.725   1.348
 1139SOL    HW2 4317   3.151   5.724   1.501
 1140SOL     OW 4318   3.293   1.155   2.055
 1140SOL    HW1 4319   3.276   1.253   2.054
 1140SOL    HW2 4320   3.208   1.107   2.076
 1141SOL     OW 4321   6.976   6.463   6.592
 1141SOL    HW1 4322   0.026   6.520   6.624
 1141SOL    HW2 4323   6.889   6.511   6.607
 1142SOL     OW 4324   3.285   0.515   4.121
 1142SOL    HW1 4325   3.323   0.541   4.032
 1142SOL    HW2 4326   3.241   0.594   4.163
 1143SOL     OW 4327   1.943   3.551   1.980
 1143SOL    HW1 4328   2.038   3.563   2.008
 1143SOL    HW2 4329   1.939   3.484   1.905
 1144SOL     OW 4330   6.250   4.730   5.498
 1144SOL    HW1 4331   6.320   4.674   5.454
 1144SOL    HW2 4332   6.189   4.672   5.551
 1145SOL     OW 4333   0.577   4.451   2.472
 1145SOL    HW1 4334   0.635   4.487   2.399
 1145SOL    HW2 4335   0.482   4.446   2.440
 1146SOL     OW 4336   6.361   0.704   1.572
 1146SOL    HW1 4337   6.344   0.630   1.507
 1146SOL    HW2 4338   6.459   0.721   1.578
 1147SOL     OW 4339   1.417   4.441   1.203
 1147SOL    HW1 4340   1.354   4.401   1.136
 1147SOL    HW2 4341   1.412   4.541   1.198
 1148SOL     OW 4342   4.626   6.650   6.543
 1148SOL    HW1 4343   4.675   6.730   6.578
 1148SOL    HW2 4344   4.532   6.653   6.575
 1149SOL     OW 4345   6.512   4.358   2.581
 1149SOL    HW1 4346   6.512   4.295   2.658
 1149SOL    HW2 4347   6.555   4.314   2.502
 1150SOL     OW 4348   2.582   3.873   0.699
 1150SOL    HW1 4349   2.610   3.969   0.702
 1150SOL    HW2 4350   2.558   3.841   0.790
 1151SOL     OW 4351   5.195   5.221   6.311
 1151SOL    HW1 4352   5.188   5.170   6.225
 1151SOL    HW2 4353   5.122   5.289   6.314
 1152SOL     OW 4354   0.080   5.811   5.631
 1152SOL    HW1 4355   0.099   5.797   5.728
 1152SOL    HW2 4356   0.025   5.735   5.596
 1153SOL     OW 4357   2.238   0.299   2.291
 1153SOL    HW1 4358   2.335   0.325   2.295
 1153SOL    HW2 4359   2.187   0.350   2.361
 1154SOL     OW 4360   0.480   4.004   1.933
 1154SOL    HW1 4361   0.403   3.961   1.887
 1154SOL    HW2 4362   0.559   4.006   1.871
 1155SOL     OW 4363   2.422   5.206   6.932
 1155SOL    HW1 4364   2.428   5.293   6.883
 1155SOL    HW2 4365   2.325   5.181   6.942
 1156SOL     OW 4366   2.798   1.018   5.013
 1156SOL    HW1 4367   2.785   1.017   5.112
 1156SOL    HW2 4368   2.724   1.072   4.971
 1157SOL     OW 4369   6.217   0.698   5.326
 1157SOL    HW1 4370   6.131   0.714   5.375
 1157SOL    HW2 4371   6.197   0.659   5.236
 1158SOL     OW 4372   6.882   5.669   5.537
 1158SOL    HW1 4373   6.868   5.572   5.553
 1158SOL    HW2 4374   6.796   5.718   5.550
 1159SOL     OW 4375   5.191   6.938   3.476
 1159SOL    HW1 4376   5.118   6.924   3.542
 1159SOL    HW2 4377   5.220   0.008   3.477
 1160SOL     OW 4378   3.773   3.064   1.493
 1160SOL    HW1 4379   3.758   2.968   1.517
 1160SOL    HW2 4380   3.687   3.104   1.461
 1161SOL     OW 4381   5.067   0.392   6.064
 1161SOL    HW1 4382   5.091   0.400   5.968
 1161SOL    HW2 4383   4.973   0.421   6.078
 1162SOL     OW 4384   2.997   2.157   6.827
 1162SOL    HW1 4385   2.990   2.197   6.735
 1162SOL    HW2 4386   3.070   2.203   6.878
 1163SOL     OW 4387   6.944   3.168   2.272
 1163SOL    HW1 4388   6.912   3.254   2.309
 1163SOL    HW2 4389   6.886   3.141   2.195
 1164SOL     OW 4390   5.413   2.351   4.264
 1164SOL    HW1 4391   5.426   2.403   4.180
 1164SOL    HW2 4392   5.317   2.325   4.273
 1165SOL     OW 4393   1.910   4.613   4.502
 1165SOL    HW1 4394   1.986   4.621   4.437
 1165SOL    HW2 4395   1.909   4.521   4.541
 1166SOL     OW 4396   3.852   0.245   0.742
 1166SOL    HW1 4397   3.891   0.172   0.798
 1166SOL    HW2 4398   3.862   0.222   0.645
 1167SOL     OW 4399   3.424   6.543   6.384
 1167SOL    HW1 4400   3.399   6.638   6.402
 1167SOL    HW2 4401   3.497   6.516   6.446
 1168SOL     OW 4402   6.093   1.665   3.514
 1168SOL    HW1 4403   6.121   1.716   3.595
 1168SOL    HW2 4404   6.156   1.589   3.499
 1169SOL     OW 4405   5.786   2.672   6.562
 1169SOL    HW1 4406   5.697   2.690   6.521
 1169SOL    HW2 4407   5.841   2.617   6.500
 1170SOL     OW 4408   5.489   1.074   2.049
 1170SOL    HW1 4409   5.427   1.150   2.031
 1170SOL    HW2 4410   5.577   1.090   2.003
 1171SOL     OW 4411   2.841   6.686   6.941
 1171SOL    HW1 4412   2.855   6.608   6.881
 1171SOL    HW2 4413   2.929   6.725   6.967
 1172SOL     OW 4414   3.415   3.686   2.078
 1172SOL    HW1 4415   3.386   3.710   2.171
 1172SOL    HW2 4416   3.483   3.613   2.083
 1173SOL     OW 4417   3.280   6.860   5.757
 1173SOL    HW1 4418   3.190   6.897   5.781
 1173SOL    HW2 4419   3.269   6.779   5.700
 1174SOL     OW 4420   3.210   4.378   0.434
 1174SOL    HW1 4421   3.195   4.306   0.501
 1174SOL    HW2 4422   3.298   4.422   0.451
 1175SOL     OW 4423   4.041   2.934   6.764
 1175SOL    HW1 4424   3.994   2.961   6.848
 1175SOL    HW2 4425   3.979   2.945   6.687
 1176SOL     OW 4426   5.886   4.629   0.683
 1176SOL    HW1 4427   5.825   4.600   0.609
 1176SOL    HW2 4428   5.888   4.558   0.754
 1177SOL     OW 4429   7.021   1.636   6.022
 1177SOL    HW1 4430   0.008   1.564   5.954
 1177SOL    HW2 4431   6.944   1.614   6.081
 1178SOL     OW 4432   3.946   3.688   1.001
 1178SOL    HW1 4433   3.919   3.606   0.950
 1178SOL    HW2 4434   3.964   3.762   0.937
 1179SOL     OW 4435   3.001   5.545   0.641
 1179SOL    HW1 4436   2.905   5.558   0.664
 1179SOL    HW2 4437   3.059   5.583   0.712
 1180SOL     OW 4438   2.399   6.747   3.923
 1180SOL    HW1 4439   2.327   6.709   3.865
 1180SOL    HW2 4440   2.360   6.773   4.011
 1181SOL     OW 4441   6.716   2.840   4.951
 1181SOL    HW1 4442   6.706   2.859   5.049
 1181SOL    HW2 4443   6.650   2.894   4.900
 1182SOL     OW 4444   2.801   5.336   3.634
 1182SOL    HW1 4445   2.886   5.389   3.638
 1182SOL    HW2 4446   2.820   5.244   3.602
 1183SOL     OW 4447   3.768   6.525   1.456
 1183SOL    HW1 4448   3.760   6.618   1.421
 1183SOL    HW2 4449   3.863   6.506   1.481
 1184SOL     OW 4450   4.188   0.235   5.965
 1184SOL    HW1 4451   4.245   0.312   5.940
 1184SOL    HW2 4452   4.243   0.152   5.970
 1185SOL     OW 4453   1.465   6.851   0.969
 1185SOL    HW1 4454   1.528   6.774   0.976
 1185SOL    HW2 4455   1.409   6.856   1.052
 1186SOL     OW 4456   5.860   5.781   6.282
 1186SOL    HW1 4457   5.792   5.719   6.243
 1186SOL    HW2 4458   5.872   5.860   6.223
 1187SOL     OW 4459   5.489   7.021   5.373
 1187SOL    HW1 4460   5.442   0.015   5.458
 1187SOL    HW2 4461   5.496   6.922   5.360
 1188SOL     OW 4462   3.234   6.055   6.694
 1188SOL    HW1 4463   3.236   5.955   6.689
 1188SOL    HW2 4464   3.205   6.092   6.606
 1189SOL     OW 4465   5.973   1.064   2.063
 1189SOL    HW1 4466   6.049   1.095   2.121
 1189SOL    HW2 4467   6.010   1.018   1.983
 1190SOL     OW 4468   3.861   4.930   4.224
 1190SOL    HW1 4469   3.864   4.940   4.323
 1190SOL    HW2 4470   3.796   4.995   4.185
 1191SOL     OW 4471   3.269   6.720   4.530
 1191SOL    HW1 4472   3.308   6.650   4.470
 1191SOL    HW2 4473   3.170   6.720   4.520
 1192SOL     OW 4474   5.186   5.855   2.837
 1192SOL    HW1 4475   5.178   5.955   2.835
 1192SOL    HW2 4476   5.096   5.814   2.823
 1193SOL     OW 4477   0.048   0.599   5.972
 1193SOL    HW1 4478   7.012   0.521   5.966
 1193SOL    HW2 4479   0.135   0.576   5.928
 1194SOL     OW 4480   6.803   1.910   0.947
 1194SOL    HW1 4481   6.821   1.821   0.906
 1194SOL    HW2 4482   6.832   1.982   0.883
 1195SOL     OW 4483   6.791   3.320   1.508
 1195SOL    HW1 4484   6.840   3.232   1.513
 1195SOL    HW2 4485   6.705   3.312   1.557
 1196SOL     OW 4486   6.239   5.206   1.730
 1196SOL    HW1 4487   6.286   5.217   1.818
 1196SOL    HW2 4488   6.304   5.172   1.662
 1197SOL     OW 4489   4.429   6.395   4.277
 1197SOL    HW1 4490   4.511   6.338   4.265
 1197SOL    HW2 4491   4.402   6.394   4.373
 1198SOL     OW 4492   1.561   3.700   2.558
 1198SOL    HW1 4493   1.635   3.678   2.621
 1198SOL    HW2 4494   1.568   3.643   2.477
 1199SOL     OW 4495   3.719   3.213   3.250
 1199SOL    HW1 4496   3.784   3.154   3.299
 1199SOL    HW2 4497   3.700   3.173   3.160
 1200SOL     OW 4498   3.861   3.822   4.670
 1200SOL    HW1 4499   3.782   3.761   4.683
 1200SOL    HW2 4500   3.928   3.777   4.612
 1201SOL     OW 4501   6.628   1.155   4.572
 1201SOL    HW1 4502   6.683   1.146   4.490
 1201SOL    HW2 4503   6.532   1.163   4.548
 1202SOL     OW 4504   6.101   1.107   5.773
 1202SOL    HW1 4505   6.182   1.122   5.717
 1202SOL    HW2 4506   6.111   1.022   5.825
 1203SOL     OW 4507   0.135   6.679   1.136
 1203SOL    HW1 4508   0.097   6.616   1.203
 1203SOL    HW2 4509   0.097   6.658   1.045
 1204SOL     OW 4510   4.456   1.675   1.613
 1204SOL    HW1 4511   4.530   1.734   1.645
 1204SOL    HW2 4512   4.371   1.699   1.661
 1205SOL     OW 4513   4.188   3.105   0.084
 1205SOL    HW1 4514   4.132   3.022   0.073
 1205SOL    HW2 4515   4.269   3.099   0.026
 1206SOL     OW 4516   1.502   2.166   4.738
 1206SOL    HW1 4517   1.498   2.172   4.638
 1206SOL    HW2 4518   1.512   2.257   4.777
 1207SOL     OW 4519   0.223   0.578   0.143
 1207SOL    HW1 4520   0.241   0.576   0.241
 1207SOL    HW2 4521   0.265   0.498   0.100
 1208SOL     OW 4522   3.506   3.792   1.628
 1208SOL    HW1 4523   3.440   3.773   1.700
 1208SOL    HW2 4524   3.595   3.753   1.652
 1209SOL     OW 4525   5.658   0.830   4.299
 1209SOL    HW1 4526   5.581   0.890   4.282
 1209SOL    HW2 4527   5.639   0.740   4.260
 1210SOL     OW 4528   4.409   0.086   3.621
 1210SOL    HW1 4529   4.425   0.114   3.526
 1210SOL    HW2 4530   4.367   0.162   3.671
 1211SOL     OW 4531   1.093   3.377   3.697
 1211SOL    HW1 4532   1.130   3.305   3.639
 1211SOL    HW2 4533   1.163   3.408   3.761
 1212SOL     OW 4534   6.562   0.980   5.841
 1212SOL    HW1 4535   6.639   1.028   5.799
 1212SOL    HW2 4536   6.557   1.004   5.938
 1213SOL     OW 4537   5.644   2.833   3.182
 1213SOL    HW1 4538   5.640   2.879   3.094
 1213SOL    HW2 4539   5.628   2.735   3.169
 1214SOL     OW 4540   0.586   2.239   6.037
 1214SOL    HW1 4541   0.642   2.187   6.101
 1214SOL    HW2 4542   0.491   2.209   6.043
 1215SOL     OW 4543   2.302   5.274   2.879
 1215SOL    HW1 4544   2.267   5.228   2.960
 1215SOL    HW2 4545   2.386   5.323   2.902
 1216SOL     OW 4546   0.303   0.989   0.045
 1216SOL    HW1 4547   0.244   0.958   6.996
 1216SOL    HW2 4548   0.381   1.038   0.008
 1217SOL     OW 4549   2.816   4.934   1.110
 1217SOL    HW1 4550   2.818   4.867   1.037
 1217SOL    HW2 4551   2.741   4.998   1.095
 1218SOL     OW 4552   0.999   3.891   5.941
 1218SOL    HW1 4553   0.907   3.925   5.957
 1218SOL    HW2 4554   1.055   3.908   6.023
 1219SOL     OW 4555   5.041   5.623   1.762
 1219SOL    HW1 4556   4.952   5.666   1.750
 1219SOL    HW2 4557   5.051   5.546   1.699
 1220SOL     OW 4558   6.451   4.190   2.862
 1220SOL    HW1 4559   6.460   4.091   2.863
 1220SOL    HW2 4560   6.524   4.231   2.917
 1221SOL     OW 4561   5.426   3.613   6.239
 1221SOL    HW1 4562   5.476   3.617   6.152
 1221SOL    HW2 4563   5.486   3.641   6.314
 1222SOL     OW 4564   0.774   0.561   0.436
 1222SOL    HW1 4565   0.737   0.471   0.459
 1222SOL    HW2 4566   0.709   0.611   0.380
 1223SOL     OW 4567   3.818   1.642   0.084
 1223SOL    HW1 4568   3.917   1.651   0.075
 1223SOL    HW2 4569   3.785   1.576   0.016
 1224SOL     OW 4570   2.587   5.693   0.314
 1224SOL    HW1 4571   2.669   5.750   0.314
 1224SOL    HW2 4572   2.593   5.627   0.239
 1225SOL     OW 4573   4.086   2.499   0.599
 1225SOL    HW1 4574   4.045   2.590   0.606
 1225SOL    HW2 4575   4.045   2.439   0.669
 1226SOL     OW 4576   4.691   6.281   0.698
 1226SOL    HW1 4577   4.788   6.290   0.674
 1226SOL    HW2 4578   4.644   6.367   0.680
 1227SOL     OW 4579   5.106   5.314   6.624
 1227SOL    HW1 4580   5.170   5.343   6.695
 1227SOL    HW2 4581   5.058   5.393   6.587
 1228SOL     OW 4582   3.448   3.009   0.331
 1228SOL    HW1 4583   3.350   2.991   0.332
 1228SOL    HW2 4584   3.471   3.062   0.249
 1229SOL     OW 4585   2.041   5.569   0.823
 1229SOL    HW1 4586   2.093   5.625   0.759
 1229SOL    HW2 4587   2.031   5.476   0.787
 1230SOL     OW 4588   5.501   5.728   2.503
 1230SOL    HW1 4589   5.434   5.785   2.550
 1230SOL    HW2 4590   5.579   5.784   2.476
 1231SOL     OW 4591   1.583   1.703   5.393
 1231SOL    HW1 4592   1.623   1.781   5.441
 1231SOL    HW2 4593   1.639   1.621   5.408
 1232SOL     OW 4594   5.601   1.395   5.111
 1232SOL    HW1 4595   5.634   1.304   5.138
 1232SOL    HW2 4596   5.630   1.413   5.017
 1233SOL     OW 4597   0.744   5.709   4.867
 1233SOL    HW1 4598   0.690   5.630   4.838
 1233SOL    HW2 4599   0.730   5.726   4.964
 1234SOL     OW 4600   6.447   2.432   5.330
 1234SOL    HW1 4601   6.403   2.514   5.291
 1234SOL    HW2 4602   6.410   2.415   5.421
 1235SOL     OW 4603   6.134   4.834   0.977
 1235SOL    HW1 4604   6.083   4.870   0.899
 1235SOL    HW2 4605   6.170   4.911   1.031
 1236SOL     OW 4606   3.832   0.879   2.002
 1236SOL    HW1 4607   3.886   0.832   2.072
 1236SOL    HW2 4608   3.752   0.824   1.979
 1237SOL     OW 4609   1.100   5.229   5.227
 1237SOL    HW1 4610   1.167   5.268   5.164
 1237SOL    HW2 4611   1.102   5.130   5.221
 1238SOL     OW 4612   0.601   0.340   5.107
 1238SOL    HW1 4613   0.670   0.282   5.063
 1238SOL    HW2 4614   0.517   0.289   5.121
 1239SOL     OW 4615   0.282   6.956   5.729
 1239SOL    HW1 4616   0.346   6.915   5.794
 1239SOL    HW2 4617   0.211   7.007   5.778
 1240SOL     OW 4618   6.024   5.231   1.534
 1240SOL    HW1 4619   6.123   5.233   1.551
 1240SOL    HW2 4620   5.975   5.234   1.621
 1241SOL     OW 4621   5.752   4.808   5.046
 1241SOL    HW1 4622   5.819   4.881   5.058
 1241SOL    HW2 4623   5.794   4.721   5.072
 1242SOL     OW 4624   2.117   3.980   0.646
 1242SOL    HW1 4625   2.097   3.920   0.723
 1242SOL    HW2 4626   2.121   3.926   0.562
 1243SOL     OW 4627   0.428   1.260   4.960
 1243SOL    HW1 4628   0.349   1.248   4.899
 1243SOL    HW2 4629   0.492   1.325   4.918
 1244SOL     OW 4630   5.555   6.178   5.303
 1244SOL    HW1 4631   5.642   6.183   5.352
 1244SOL    HW2 4632   5.546   6.089   5.258
 1245SOL     OW 4633   5.777   4.824   6.923
 1245SOL    HW1 4634   5.736   4.865   7.005
 1245SOL    HW2 4635   5.754   4.727   6.920
 1246SOL     OW 4636   2.954   1.736   2.582
 1246SOL    HW1 4637   2.960   1.771   2.489
 1246SOL    HW2 4638   3.006   1.650   2.589
 1247SOL     OW 4639   5.662   0.281   6.078
 1247SOL    HW1 4640   5.716   0.198   6.090
 1247SOL    HW2 4641   5.571   0.257   6.045
 1248SOL     OW 4642   1.697   6.056   4.141
 1248SOL    HW1 4643   1.613   6.073   4.192
 1248SOL    HW2 4644   1.753   5.988   4.188
 1249SOL     OW 4645   0.420   3.409   1.349
 1249SOL    HW1 4646   0.467   3.327   1.318
 1249SOL    HW2 4647   0.333   3.383   1.392
 1250SOL     OW 4648   5.917   4.204   3.242
 1250SOL    HW1 4649   5.973   4.236   3.166
 1250SOL    HW2 4650   5.879   4.113   3.221
 1251SOL     OW 4651   1.756   0.987   3.055
 1251SOL    HW1 4652   1.672   1.021   3.012
 1251SOL    HW2 4653   1.834   1.039   3.020
 1252SOL     OW 4654   3.627   4.664   6.443
 1252SOL    HW1 4655   3.679   4.738   6.400
 1252SOL    HW2 4656   3.563   4.703   6.510
 1253SOL     OW 4657   2.445   0.618   2.657
 1253SOL    HW1 4658   2.414   0.524   2.650
 1253SOL    HW2 4659   2.527   0.631   2.602
 1254SOL     OW 4660   0.337   2.672   3.916
 1254SOL    HW1 4661   0.320   2.609   3.840
 1254SOL    HW2 4662   0.249   2.705   3.953
 1255SOL     OW 4663   5.315   2.274   6.158
 1255SOL    HW1 4664   5.347   2.334   6.083
 1255SOL    HW2 4665   5.382   2.277   6.232
 1256SOL     OW 4666   0.500   6.382   3.988
 1256SOL    HW1 4667   0.493   6.336   4.076
 1256SOL    HW2 4668   0.453   6.470   3.991
 1257SOL     OW 4669   0.015   4.684   4.255
 1257SOL    HW1 4670   6.993   4.688   4.342
 1257SOL    HW2 4671   7.013   4.761   4.198
 1258SOL     OW 4672   2.382   4.966   3.485
 1258SOL    HW1 4673   2.334   5.043   3.444
 1258SOL    HW2 4674   2.464   4.999   3.532
 1259SOL     OW 4675   3.536   6.477   4.771
 1259SOL    HW1 4676   3.622   6.472   4.719
 1259SOL    HW2 4677   3.526   6.568   4.811
 1260SOL     OW 4678   2.666   1.358   0.862
 1260SOL    HW1 4679   2.618   1.342   0.776
 1260SOL    HW2 4680   2.636   1.291   0.930
 1261SOL     OW 4681   0.005   5.076   6.783
 1261SOL    HW1 4682   0.034   4.989   6.822
 1261SOL    HW2 4683   0.019   5.149   6.850
 1262SOL     OW 4684   5.270   5.176   1.576
 1262SOL    HW1 4685   5.178   5.137   1.580
 1262SOL    HW2 4686   5.337   5.103   1.560
 1263SOL     OW 4687   0.033   2.049   1.445
 1263SOL    HW1 4688   0.076   2.127   1.400
 1263SOL    HW2 4689   6.965   2.038   1.411
 1264SOL     OW 4690   0.040   3.482   1.652
 1264SOL    HW1 4691   0.101   3.475   1.732
 1264SOL    HW2 4692   7.005   3.560   1.662
 1265SOL     OW 4693   6.062   5.132   3.454
 1265SOL    HW1 4694   6.031   5.133   3.549
 1265SOL    HW2 4695   6.024   5.211   3.405
 1266SOL     OW 4696   0.835   1.173   4.125
 1266SOL    HW1 4697   0.744   1.151   4.091
 1266SOL    HW2 4698   0.898   1.099   4.102
 1267SOL     OW 4699   5.489   6.695   1.337
 1267SOL    HW1 4700   5.469   6.599   1.317
 1267SOL    HW2 4701   5.569   6.724   1.285
 1268SOL     OW 4702   4.751   2.490   0.398
 1268SOL    HW1 4703   4.698   2.568   0.431
 1268SOL    HW2 4704   4.767   2.426   0.473
 1269SOL     OW 4705   5.805   6.885   5.716
 1269SOL    HW1 4706   5.865   6.953   5.759
 1269SOL    HW2 4707   5.809   6.799   5.767
 1270SOL     OW 4708   2.156   3.626   4.352
 1270SOL    HW1 4709   2.197   3.557   4.291
 1270SOL    HW2 4710   2.089   3.582   4.411
 1271SOL     OW 4711   3.069   1.475   3.397
 1271SOL    HW1 4712   3.163   1.447   3.421
 1271SOL    HW2 4713   3.066   1.502   3.301
 1272SOL     OW 4714   6.130   5.692   0.174
 1272SOL    HW1 4715   6.214   5.736   0.143
 1272SOL    HW2 4716   6.145   5.594   0.182
 1273SOL     OW 4717   0.804   4.425   0.065
 1273SOL    HW1 4718   0.890   4.462   0.030
 1273SOL    HW2 4719   0.810   4.417   0.165
 1274SOL     OW 4720   6.512   2.764   1.634
 1274SOL    HW1 4721   6.517   2.832   1.707
 1274SOL    HW2 4722   6.563   2.798   1.554
 1275SOL     OW 4723   3.154   1.358   4.104
 1275SOL    HW1 4724   3.240   1.324   4.140
 1275SOL    HW2 4725   3.121   1.298   4.032
 1276SOL     OW 4726   6.989   0.536   4.719
 1276SOL    HW1 4727   0.027   0.563   4.646
 1276SOL    HW2 4728   7.016   0.582   4.804
 1277SOL     OW 4729   1.063   6.430   6.302
 1277SOL    HW1 4730   1.023   6.498   6.240
 1277SOL    HW2 4731   1.056   6.339   6.261
 1278SOL     OW 4732   0.742   0.499   5.280
 1278SOL    HW1 4733   0.686   0.447   5.215
 1278SOL    HW2 4734   0.710   0.594   5.282
 1279SOL     OW 4735   3.684   5.797   0.897
 1279SOL    HW1 4736   3.662   5.743   0.978
 1279SOL    HW2 4737   3.696   5.737   0.818
 1280SOL     OW 4738   3.629   6.764   4.076
 1280SOL    HW1 4739   3.601   6.836   4.139
 1280SOL    HW2 4740   3.555   6.698   4.065
 1281SOL     OW 4741   1.619   5.857   2.845
 1281SOL    HW1 4742   1.606   5.906   2.931
 1281SOL    HW2 4743   1.547   5.883   2.780
 1282SOL     OW 4744   0.711   1.071   6.344
 1282SOL    HW1 4745   0.710   0.976   6.377
 1282SOL    HW2 4746   0.782   1.123   6.391
 1283SOL     OW 4747   5.901   2.881   5.036
 1283SOL    HW1 4748   5.890   2.859   4.939
 1283SOL    HW2 4749   5.995   2.862   5.064
 1284SOL     OW 4750   4.747   1.200   2.189
 1284SOL    HW1 4751   4.841   1.165   2.194
 1284SOL    HW2 4752   4.707   1.201   2.281
 1285SOL     OW 4753   4.653   2.918   6.597
 1285SOL    HW1 4754   4.632   2.820   6.592
 1285SOL    HW2 4755   4.707   2.936   6.679
 1286SOL     OW 4756   4.972   3.726   1.794
 1286SOL    HW1 4757   5.036   3.779   1.738
 1286SOL    HW2 4758   4.902   3.686   1.735
 1287SOL     OW 4759   5.116   4.517   5.537
 1287SOL    HW1 4760   5.173   4.466   5.601
 1287SOL    HW2 4761   5.079   4.598   5.582
 1288SOL     OW 4762   4.754   3.840   0.511
 1288SOL    HW1 4763   4.824   3.811   0.447
 1288SOL    HW2 4764   4.685   3.894   0.462
 1289SOL     OW 4765   0.585   5.886   2.555
 1289SOL    HW1 4766   0.671   5.930   2.528
 1289SOL    HW2 4767   0.604   5.796   2.593
 1290SOL     OW 4768   1.425   0.413   6.783
 1290SOL    HW1 4769   1.375   0.333   6.817
 1290SOL    HW2 4770   1.522   0.402   6.804
 1291SOL     OW 4771   7.010   3.821   5.355
 1291SOL    HW1 4772   0.033   3.825   5.443
 1291SOL    HW2 4773   0.035   3.875   5.288
 1292SOL     OW 4774   0.068   6.039   2.518
 1292SOL    HW1 4775   0.156   5.994   2.506
 1292SOL    HW2 4776   0.028   6.059   2.428
 1293SOL     OW 4777   1.388   1.522   6.857
 1293SOL    HW1 4778   1.459   1.526   6.787
 1293SOL    HW2 4779   1.428   1.494   6.944
 1294SOL     OW 4780   1.422   3.843   6.985
 1294SOL    HW1 4781   1.432   3.929   6.934
 1294SOL    HW2 4782   1.325   3.828   7.006
 1295SOL     OW 4783   0.020   3.434   2.678
 1295SOL    HW1 4784   6.960   3.396   2.642
 1295SOL    HW2 4785   0.019   3.534   2.667
 1296SOL     OW 4786   3.396   0.284   5.616
 1296SOL    HW1 4787   3.408   0.279   5.517
 1296SOL    HW2 4788   3.448   0.362   5.652
 1297SOL     OW 4789   5.569   0.674   0.935
 1297SOL    HW1 4790   5.536   0.767   0.952
 1297SOL    HW2 4791   5.495   0.609   0.950
 1298SOL     OW 4792   6.458   4.930   2.660
 1298SOL    HW1 4793   6.365   4.920   2.624
 1298SOL    HW2 4794   6.524   4.902   2.589
 1299SOL     OW 4795   0.881   4.054   3.317
 1299SOL    HW1 4796   0.831   4.049   3.404
 1299SOL    HW2 4797   0.837   4.122   3.258
 1300SOL     OW 4798   3.647   3.521   2.034
 1300SOL    HW1 4799   3.651   3.429   1.996
 1300SOL    HW2 4800   3.711   3.528   2.111
 1301SOL     OW 4801   0.198   5.466   1.464
 1301SOL    HW1 4802   0.202   5.521   1.548
 1301SOL    HW2 4803   0.160   5.520   1.390
 1302SOL     OW 4804   4.134   0.222   5.258
 1302SOL    HW1 4805   4.214   0.279   5.236
 1302SOL    HW2 4806   4.051   0.267   5.224
 1303SOL     OW 4807   4.559   1.252   2.414
 1303SOL    HW1 4808   4.498   1.194   2.360
 1303SOL    HW2 4809   4.508   1.296   2.487
 1304SOL     OW 4810   1.593   1.096   6.633
 1304SOL    HW1 4811   1.541   1.052   6.706
 1304SOL    HW2 4812   1.571   1.194   6.631
 1305SOL     OW 4813   4.304   2.850   6.762
 1305SOL    HW1 4814   4.211   2.880   6.784
 1305SOL    HW2 4815   4.358   2.845   6.846
 1306SOL     OW 4816   0.592   4.325   5.029
 1306SOL    HW1 4817   0.560   4.420   5.031
 1306SOL    HW2 4818   0.692   4.324   5.036
 1307SOL     OW 4819   0.810   3.582   5.317
 1307SOL    HW1 4820   0.801   3.501   5.258
 1307SOL    HW2 4821   0.894   3.630   5.294
 1308SOL     OW 4822   5.032   6.006   4.982
 1308SOL    HW1 4823   4.967   5.973   4.914
 1308SOL    HW2 4824   4.984   6.024   5.067
 1309SOL     OW 4825   4.772   3.158   5.267
 1309SOL    HW1 4826   4.688   3.211   5.281
 1309SOL    HW2 4827   4.796   3.111   5.352
 1310SOL     OW 4828   0.194   3.939   5.186
 1310SOL    HW1 4829   0.252   3.861   5.164
 1310SOL    HW2 4830   0.236   3.992   5.260
 1311SOL     OW 4831   0.042   0.712   4.265
 1311SOL    HW1 4832   0.054   0.780   4.193
 1311SOL    HW2 4833   6.980   0.728   4.312
 1312SOL     OW 4834   1.295   0.460   6.564
 1312SOL    HW1 4835   1.200   0.489   6.573
 1312SOL    HW2 4836   1.335   0.445   6.654
 1313SOL     OW 4837   1.547   4.463   4.271
 1313SOL    HW1 4838   1.568   4.368   4.293
 1313SOL    HW2 4839   1.521   4.471   4.175
 1314SOL     OW 4840   3.786   1.070   5.518
 1314SOL    HW1 4841   3.738   0.989   5.484
 1314SOL    HW2 4842   3.856   1.041   5.584
 1315SOL     OW 4843   0.632   0.773   0.632
 1315SOL    HW1 4844   0.670   0.708   0.698
 1315SOL    HW2 4845   0.692   0.852   0.625
 1316SOL     OW 4846   1.934   6.514   4.685
 1316SOL    HW1 4847   1.885   6.503   4.772
 1316SOL    HW2 4848   1.894   6.590   4.634
 1317SOL     OW 4849   1.813   4.121   5.446
 1317SOL    HW1 4850   1.892   4.080   5.401
 1317SOL    HW2 4851   1.729   4.084   5.406
 1318SOL     OW 4852   1.229   0.924   0.567
 1318SOL    HW1 4853   1.239   0.825   0.555
 1318SOL    HW2 4854   1.194   0.965   0.483
 1319SOL     OW 4855   0.047   0.841   6.601
 1319SOL    HW1 4856   7.010   0.912   6.570
 1319SOL    HW2 4857   0.126   0.837   6.541
 1320SOL     OW 4858   5.443   3.614   0.714
 1320SOL    HW1 4859   5.520   3.668   0.749
 1320SOL    HW2 4860   5.448   3.610   0.615
 1321SOL     OW 4861   4.741   2.258   5.976
 1321SOL    HW1 4862   4.746   2.342   5.922
 1321SOL    HW2 4863   4.709   2.280   6.068
 1322SOL     OW 4864   3.871   0.868   3.878
 1322SOL    HW1 4865   3.787   0.902   3.834
 1322SOL    HW2 4866   3.876   0.904   3.971
 1323SOL     OW 4867   4.926   1.848   4.934
 1323SOL    HW1 4868   4.961   1.894   5.015
 1323SOL    HW2 4869   4.858   1.780   4.961
 1324SOL     OW 4870   1.054   2.744   6.986
 1324SOL    HW1 4871   1.025   2.828   0.006
 1324SOL    HW2 4872   1.041   2.666   0.022
 1325SOL     OW 4873   1.815   6.739   2.305
 1325SOL    HW1 4874   1.820   6.660   2.367
 1325SOL    HW2 4875   1.761   6.812   2.348
 1326SOL     OW 4876   4.959   3.215   4.797
 1326SOL    HW1 4877   5.058   3.205   4.804
 1326SOL    HW2 4878   4.923   3.253   4.882
 1327SOL     OW 4879   1.894   4.487   1.707
 1327SOL    HW1 4880   1.960   4.511   1.778
 1327SOL    HW2 4881   1.942   4.465   1.622
 1328SOL     OW 4882   1.879   2.603   0.798
 1328SOL    HW1 4883   1.956   2.545   0.825
 1328SOL    HW2 4884   1.867   2.675   0.866
 1329SOL     OW 4885   1.254   2.454   0.914
 1329SOL    HW1 4886   1.247   2.481   0.818
 1329SOL    HW2 4887   1.336   2.399   0.928
 1330SOL     OW 4888   6.884   1.040   1.605
 1330SOL    HW1 4889   6.905   0.994   1.518
 1330SOL    HW2 4890   6.941   1.122   1.614
 1331SOL     OW 4891   5.114   2.553   3.446
 1331SOL    HW1 4892   5.186   2.495   3.484
 1331SOL    HW2 4893   5.030   2.541   3.499
 1332SOL     OW 4894   2.409   6.872   0.024
 1332SOL    HW1 4895   2.467   6.790   0.020
 1332SOL    HW2 4896   2.318   6.846   0.055
 1333SOL     OW 4897   3.661   3.281   5.837
 1333SOL    HW1 4898   3.588   3.280   5.905
 1333SOL    HW2 4899   3.696   3.375   5.827
 1334SOL     OW 4900   6.282   2.384   4.465
 1334SOL    HW1 4901   6.217   2.308   4.462
 1334SOL    HW2 4902   6.359   2.360   4.524
 1335SOL     OW 4903   2.729   1.127   3.054
 1335SOL    HW1 4904   2.795   1.054   3.070
 1335SOL    HW2 4905   2.754   1.207   3.108
 1336SOL     OW 4906   2.054   1.914   5.712
 1336SOL    HW1 4907   2.125   1.845   5.697
 1336SOL    HW2 4908   2.051   1.939   5.809
 1337SOL     OW 4909   1.472   1.423   5.282
 1337SOL    HW1 4910   1.443   1.371   5.202
 1337SOL    HW2 4911   1.531   1.499   5.254
 1338SOL     OW 4912   5.563   2.088   6.405
 1338SOL    HW1 4913   5.633   2.061   6.471
 1338SOL    HW2 4914   5.481   2.032   6.418
 1339SOL     OW 4915   0.788   1.250   6.601
 1339SOL    HW1 4916   0.734   1.165   6.602
 1339SOL    HW2 4917   0.858   1.245   6.672
 1340SOL     OW 4918   0.820   2.253   2.005
 1340SOL    HW1 4919   0.853   2.242   2.099
 1340SOL    HW2 4920   0.876   2.198   1.944
 1341SOL     OW 4921   5.150   0.417   5.808
 1341SOL    HW1 4922   5.222   0.375   5.752
 1341SOL    HW2 4923   5.118   0.501   5.763
 1342SOL     OW 4924   1.685   4.727   6.181
 1342SOL    HW1 4925   1.586   4.712   6.183
 1342SOL    HW2 4926   1.732   4.639   6.166
 1343SOL     OW 4927   4.201   5.963   2.688
 1343SOL    HW1 4928   4.216   6.034   2.757
 1343SOL    HW2 4929   4.259   5.980   2.609
 1344SOL     OW 4930   6.928   4.946   3.882
 1344SOL    HW1 4931   6.887   4.869   3.930
 1344SOL    HW2 4932   6.932   4.926   3.784
 1345SOL     OW 4933   1.671   1.284   3.165
 1345SOL    HW1 4934   1.732   1.352   3.205
 1345SOL    HW2 4935   1.624   1.234   3.238
 1346SOL     OW 4936   0.852   6.700   4.456
 1346SOL    HW1 4937   0.898   6.777   4.411
 1346SOL    HW2 4938   0.754   6.703   4.435
 1347SOL     OW 4939   6.575   5.833   4.271
 1347SOL    HW1 4940   6.540   5.853   4.179
 1347SOL    HW2 4941   6.634   5.752   4.267
 1348SOL     OW 4942   5.230   4.857   2.550
 1348SOL    HW1 4943   5.276   4.777   2.589
 1348SOL    HW2 4944   5.296   4.931   2.541
 1349SOL     OW 4945   4.747   1.830   6.468
 1349SOL    HW1 4946   4.750   1.734   6.496
 1349SOL    HW2 4947   4.713   1.836   6.374
 1350SOL     OW 4948   5.178   4.393   6.998
 1350SOL    HW1 4949   5.098   4.422   0.026
 1350SOL    HW2 4950   5.187   4.450   6.917
 1351SOL     OW 4951   6.389   1.994   3.323
 1351SOL    HW1 4952   6.316   2.015   3.258
 1351SOL    HW2 4953   6.441   1.915   3.290
 1352SOL     OW 4954   6.547   0.163   3.011
 1352SOL    HW1 4955   6.638   0.142   3.047
 1352SOL    HW2 4956   6.540   0.261   2.992
 1353SOL     OW 4957   6.976   3.921   6.125
 1353SOL    HW1 4958   6.957   3.919   6.223
 1353SOL    HW2 4959   6.891   3.937   6.075
 1354SOL     OW 4960   0.618   2.146   0.293
 1354SOL    HW1 4961   0.553   2.180   0.225
 1354SOL    HW2 4962   0.671   2.223   0.330
 1355SOL     OW 4963   0.285   2.343   5.525
 1355SOL    HW1 4964   0.221   2.411   5.562
 1355SOL    HW2 4965   0.291   2.353   5.426
 1356SOL     OW 4966   2.956   3.484   3.226
 1356SOL    HW1 4967   3.000   3.460   3.140
 1356SOL    HW2 4968   3.003   3.563   3.266
 1357SOL     OW 4969   1.479   4.316   5.462
 1357SOL    HW1 4970   1.529   4.332   5.547
 1357SOL    HW2 4971   1.423   4.233   5.471
 1358SOL     OW 4972   4.147   1.215   5.951
 1358SOL    HW1 4973   4.202   1.160   5.888
 1358SOL    HW2 4974   4.194   1.224   6.039
 1359SOL     OW 4975   6.391   4.894   1.562
 1359SOL    HW1 4976   6.307   4.915   1.512
 1359SOL    HW2 4977   6.368   4.874   1.658
 1360SOL     OW 4978   4.342   3.334   1.237
 1360SOL    HW1 4979   4.273   3.299   1.174
 1360SOL    HW2 4980   4.299   3.389   1.308
 1361SOL     OW 4981   0.162   5.990   5.451
 1361SOL    HW1 4982   0.123   5.922   5.513
 1361SOL    HW2 4983   0.129   6.081   5.476
 1362SOL     OW 4984   3.042   3.905   4.454
 1362SOL    HW1 4985   3.104   3.979   4.426
 1362SOL    HW2 4986   3.004   3.925   4.544
 1363SOL     OW 4987   6.734   5.725   3.567
 1363SOL    HW1 4988   6.833   5.718   3.561
 1363SOL    HW2 4989   6.693   5.712   3.477
 1364SOL     OW 4990   6.731   2.261   0.534
 1364SOL    HW1 4991   6.647   2.266   0.481
 1364SOL    HW2 4992   6.804   2.222   0.477
 1365SOL     OW 4993   1.160   2.830   5.569
 1365SOL    HW1 4994   1.099   2.882   5.629
 1365SOL    HW2 4995   1.137   2.849   5.474
 1366SOL     OW 4996   0.227   4.191   0.629
 1366SOL    HW1 4997   0.287   4.271   0.637
 1366SOL    HW2 4998   0.221   4.163   0.533
 1367SOL     OW 4999   1.670   5.802   2.585
 1367SOL    HW1 5000   1.689   5.704   2.583
 1367SOL    HW2 5001   1.668   5.834   2.680
 1368SOL     OW 5002   6.927   0.249   3.718
 1368SOL    HW1 5003   6.905   0.246   3.621
 1368SOL    HW2 5004   7.025   0.265   3.729
 1369SOL     OW 5005   2.166   6.817   2.315
 1369SOL    HW1 5006   2.133   6.825   2.409
 1369SOL    HW2 5007   2.155   6.905   2.269
 1370SOL     OW 5008   4.474   1.862   2.801
 1370SOL    HW1 5009   4.553   1.847   2.740
 1370SOL    HW2 5010   4.420   1.938   2.766
 1371SOL     OW 5011   5.723   1.520   4.868
 1371SOL    HW1 5012   5.793   1.511   4.939
 1371SOL    HW2 5013   5.753   1.471   4.786
 1372SOL     OW 5014   1.349   2.466   0.364
 1372SOL    HW1 5015   1.406   2.419   0.431
 1372SOL    HW2 5016   1.253   2.461   0.392
 1373SOL     OW 5017   4.427   2.458   0.291
 1373SOL    HW1 5018   4.388   2.480   0.201
 1373SOL    HW2 5019   4.466   2.541   0.331
 1374SOL     OW 5020   4.312   2.045   1.105
 1374SOL    HW1 5021   4.316   2.014   1.200
 1374SOL    HW2 5022   4.231   2.104   1.093
 1375SOL     OW 5023   0.189   6.023   6.112
 1375SOL    HW1 5024   0.241   6.009   6.196
 1375SOL    HW2 5025   0.092   6.002   6.128
 1376SOL     OW 5026   4.628   4.604   5.088
 1376SOL    HW1 5027   4.692   4.546   5.036
 1376SOL    HW2 5028   4.677   4.681   5.127
 1377SOL     OW 5029   0.522   3.543   5.081
 1377SOL    HW1 5030   0.449   3.584   5.027
 1377SOL    HW2 5031   0.583   3.492   5.021
 1378SOL     OW 5032   5.530   1.705   4.504
 1378SOL    HW1 5033   5.598   1.731   4.572
 1378SOL    HW2 5034   5.527   1.605   4.496
 1379SOL     OW 5035   4.190   6.226   3.288
 1379SOL    HW1 5036   4.135   6.283   3.349
 1379SOL    HW2 5037   4.225   6.283   3.212
 1380SOL     OW 5038   0.763   6.937   3.705
 1380SOL    HW1 5039   0.765   0.008   3.679
 1380SOL    HW2 5040   0.681   6.894   3.668
 1381SOL     OW 5041   5.783   1.734   0.735
 1381SOL    HW1 5042   5.754   1.734   0.639
 1381SOL    HW2 5043   5.759   1.646   0.777
 1382SOL     OW 5044   5.281   2.948   0.904
 1382SOL    HW1 5045   5.191   2.965   0.945
 1382SOL    HW2 5046   5.323   3.035   0.879
 1383SOL     OW 5047   0.853   0.780   2.279
 1383SOL    HW1 5048   0.798   0.702   2.308
 1383SOL    HW2 5049   0.793   0.848   2.236
 1384SOL     OW 5050   4.473   0.713   1.761
 1384SOL    HW1 5051   4.453   0.745   1.668
 1384SOL    HW2 5052   4.562   0.748   1.790
 1385SOL     OW 5053   2.839   4.735   3.323
 1385SOL    HW1 5054   2.881   4.825   3.312
 1385SOL    HW2 5055   2.804   4.726   3.417
 1386SOL     OW 5056   3.016   1.238   3.875
 1386SOL    HW1 5057   3.013   1.301   3.798
 1386SOL    HW2 5058   3.015   1.144   3.842
 1387SOL     OW 5059   3.605   6.104   2.826
 1387SOL    HW1 5060   3.550   6.061   2.897
 1387SOL    HW2 5061   3.697   6.067   2.826
 1388SOL     OW 5062   0.578   0.852   2.821
 1388SOL    HW1 5063   0.673   0.873   2.846
 1388SOL    HW2 5064   0.564   0.874   2.725
 1389SOL     OW 5065   6.694   1.221   3.697
 1389SOL    HW1 5066   6.642   1.286   3.751
 1389SOL    HW2 5067   6.685   1.129   3.736
 1390SOL     OW 5068   6.372   2.676   6.166
 1390SOL    HW1 5069   6.298   2.731   6.128
 1390SOL    HW2 5070   6.356   2.579   6.144
 1391SOL     OW 5071   6.429   0.220   5.027
 1391SOL    HW1 5072   6.383   0.309   5.026
 1391SOL    HW2 5073   6.369   0.151   5.066
 1392SOL     OW 5074   5.835   6.600   5.916
 1392SOL    HW1 5075   5.905   6.547   5.870
 1392SOL    HW2 5076   5.860   6.613   6.012
 1393SOL     OW 5077   6.830   4.361   6.208
 1393SOL    HW1 5078   6.821   4.412   6.294
 1393SOL    HW2 5079   6.925   4.361   6.179
 1394SOL     OW 5080   3.791   5.718   5.571
 1394SOL    HW1 5081   3.826   5.675   5.654
 1394SOL    HW2 5082   3.775   5.648   5.502
 1395SOL     OW 5083   1.719   4.932   4.892
 1395SOL    HW1 5084   1.770   5.008   4.932
 1395SOL    HW2 5085   1.770   4.895   4.814
 1396SOL     OW 5086   6.746   1.287   5.104
 1396SOL    HW1 5087   6.742   1.290   5.004
 1396SOL    HW2 5088   6.688   1.212   5.137
 1397SOL     OW 5089   0.839   6.341   4.714
 1397SOL    HW1 5090   0.842   6.241   4.716
 1397SOL    HW2 5091   0.875   6.378   4.800
 1398SOL     OW 5092   2.764   0.880   6.619
 1398SOL    HW1 5093   2.681   0.858   6.569
 1398SOL    HW2 5094   2.843   0.870   6.558
 1399SOL     OW 5095   4.060   5.098   0.540
 1399SOL    HW1 5096   4.130   5.028   0.545
 1399SOL    HW2 5097   4.085   5.175   0.599
 1400SOL     OW 5098   0.430   1.533   4.150
 1400SOL    HW1 5099   0.495   1.608   4.164
 1400SOL    HW2 5100   0.439   1.466   4.224
 1401SOL     OW 5101   6.444   0.240   4.242
 1401SOL    HW1 5102   6.509   0.222   4.316
 1401SOL    HW2 5103   6.474   0.193   4.159
 1402SOL     OW 5104   5.216   3.728   6.486
 1402SOL    HW1 5105   5.313   3.721   6.462
 1402SOL    HW2 5106   5.171   3.642   6.465
 1403SOL     OW 5107   2.701   1.757   0.528
 1403SOL    HW1 5108   2.712   1.801   0.617
 1403SOL    HW2 5109   2.738   1.817   0.457
 1404SOL     OW 5110   6.764   0.051   6.598
 1404SOL    HW1 5111   6.851   0.002   6.604
 1404SOL    HW2 5112   6.773   0.141   6.639
 1405SOL     OW 5113   2.834   2.998   0.649
 1405SOL    HW1 5114   2.815   2.964   0.741
 1405SOL    HW2 5115   2.915   2.953   0.612
 1406SOL     OW 5116   1.012   5.711   0.685
 1406SOL    HW1 5117   1.032   5.613   0.685
 1406SOL    HW2 5118   1.036   5.750   0.774
 1407SOL     OW 5119   0.725   3.379   3.921
 1407SOL    HW1 5120   0.633   3.418   3.921
 1407SOL    HW2 5121   0.786   3.438   3.974
 1408SOL     OW 5122   5.123   1.713   5.917
 1408SOL    HW1 5123   5.157   1.680   6.005
 1408SOL    HW2 5124   5.194   1.703   5.848
 1409SOL     OW 5125   0.129   0.188   5.513
 1409SOL    HW1 5126   0.118   0.279   5.552
 1409SOL    HW2 5127   0.217   0.150   5.540
 1410SOL     OW 5128   1.481   4.258   6.389
 1410SOL    HW1 5129   1.382   4.247   6.401
 1410SOL    HW2 5130   1.529   4.206   6.459
 1411SOL     OW 5131   3.152   6.748   0.378
 1411SOL    HW1 5132   3.168   6.845   0.360
 1411SOL    HW2 5133   3.240   6.701   0.386
 1412SOL     OW 5134   1.334   2.849   0.967
 1412SOL    HW1 5135   1.261   2.899   1.013
 1412SOL    HW2 5136   1.320   2.751   0.979
 1413SOL     OW 5137   2.272   1.201   4.720
 1413SOL    HW1 5138   2.325   1.204   4.635
 1413SOL    HW2 5139   2.177   1.177   4.698
 1414SOL     OW 5140   1.826   1.707   2.186
 1414SOL    HW1 5141   1.763   1.633   2.205
 1414SOL    HW2 5142   1.891   1.716   2.261
 1415SOL     OW 5143   1.828   1.282   4.997
 1415SOL    HW1 5144   1.808   1.304   4.901
 1415SOL    HW2 5145   1.779   1.199   5.023
 1416SOL     OW 5146   4.270   5.952   4.590
 1416SOL    HW1 5147   4.251   5.863   4.630
 1416SOL    HW2 5148   4.214   5.964   4.508
 1417SOL     OW 5149   2.957   2.626   0.415
 1417SOL    HW1 5150   2.869   2.669   0.437
 1417SOL    HW2 5151   2.967   2.618   0.316
 1418SOL     OW 5152   3.050   3.889   2.264
 1418SOL    HW1 5153   3.095   3.823   2.325
 1418SOL    HW2 5154   2.992   3.950   2.318
 1419SOL     OW 5155   3.254   6.218   4.221
 1419SOL    HW1 5156   3.216   6.171   4.142
 1419SOL    HW2 5157   3.183   6.273   4.265
 1420SOL     OW 5158   2.821   6.347   2.465
 1420SOL    HW1 5159   2.853   6.280   2.532
 1420SOL    HW2 5160   2.888   6.357   2.392
 1421SOL     OW 5161   1.919   5.010   3.856
 1421SOL    HW1 5162   1.997   4.955   3.824
 1421SOL    HW2 5163   1.944   5.058   3.940
 1422SOL     OW 5164   1.635   4.094   6.559
 1422SOL    HW1 5165   1.643   3.994   6.556
 1422SOL    HW2 5166   1.720   4.132   6.595
 1423SOL     OW 5167   4.589   6.624   4.296
 1423SOL    HW1 5168   4.537   6.559   4.241
 1423SOL    HW2 5169   4.540   6.642   4.381
 1424SOL     OW 5170   6.482   3.936   6.212
 1424SOL    HW1 5171   6.474   4.034   6.233
 1424SOL    HW2 5172   6.567   3.920   6.161
 1425SOL     OW 5173   1.920   5.317   5.892
 1425SOL    HW1 5174   1.901   5.265   5.808
 1425SOL    HW2 5175   2.007   5.287   5.931
 1426SOL     OW 5176   2.491   2.771   7.013
 1426SOL    HW1 5177   2.428   2.694   6.999
 1426SOL    HW2 5178   2.486   2.833   6.935
 1427SOL     OW 5179   6.701   0.427   3.860
 1427SOL    HW1 5180   6.777   0.394   3.804
 1427SOL    HW2 5181   6.620   0.370   3.842
 1428SOL     OW 5182   0.707   1.863   7.020
 1428SOL    HW1 5183   0.611   1.889   7.015
 1428SOL    HW2 5184   0.764   1.946   7.016
 1429SOL     OW 5185   4.915   1.360   6.899
 1429SOL    HW1 5186   4.971   1.405   6.830
 1429SOL    HW2 5187   4.974   1.313   6.965
 1430SOL     OW 5188   2.179   5.414   4.074
 1430SOL    HW1 5189   2.116   5.411   4.151
 1430SOL    HW2 5190   2.128   5.431   3.990
 1431SOL     OW 5191   2.727   2.189   6.804
 1431SOL    HW1 5192   2.714   2.281   6.767
 1431SOL    HW2 5193   2.824   2.173   6.822
 1432SOL     OW 5194   2.834   1.670   1.197
 1432SOL    HW1 5195   2.785   1.583   1.198
 1432SOL    HW2 5196   2.896   1.675   1.275
 1433SOL     OW 5197   4.840   0.510   5.024
 1433SOL    HW1 5198   4.763   0.446   5.012
 1433SOL    HW2 5199   4.904   0.500   4.948
 1434SOL     OW 5200   1.080   0.145   6.045
 1434SOL    HW1 5201   1.125   0.131   6.133
 1434SOL    HW2 5202   1.027   0.229   6.048
 1435SOL     OW 5203   6.793   6.988   3.570
 1435SOL    HW1 5204   6.778   6.999   3.668
 1435SOL    HW2 5205   6.819   6.893   3.550
 1436SOL     OW 5206   4.709   3.988   6.934
 1436SOL    HW1 5207   4.680   4.067   6.880
 1436SOL    HW2 5208   4.731   3.912   6.872
 1437SOL     OW 5209   3.339   1.955   5.498
 1437SOL    HW1 5210   3.397   1.938   5.419
 1437SOL    HW2 5211   3.251   1.909   5.486
 1438SOL     OW 5212   2.965   6.817   2.102
 1438SOL    HW1 5213   2.868   6.841   2.113
 1438SOL    HW2 5214   3.014   6.894   2.061
 1439SOL     OW 5215   6.638   4.945   0.562
 1439SOL    HW1 5216   6.693   4.975   0.639
 1439SOL    HW2 5217   6.623   4.846   0.567
 1440SOL     OW 5218   3.098   2.982   6.334
 1440SOL    HW1 5219   3.116   3.049   6.262
 1440SOL    HW2 5220   3.161   2.905   6.324
 1441SOL     OW 5221   6.191   2.050   4.083
 1441SOL    HW1 5222   6.096   2.021   4.088
 1441SOL    HW2 5223   6.233   2.042   4.173
 1442SOL     OW 5224   6.796   5.413   6.561
 1442SOL    HW1 5225   6.797   5.449   6.654
 1442SOL    HW2 5226   6.883   5.367   6.542
 1443SOL     OW 5227   0.851   2.847   4.229
 1443SOL    HW1 5228   0.907   2.845   4.146
 1443SOL    HW2 5229   0.909   2.827   4.308
 1444SOL     OW 5230   4.330   5.584   0.866
 1444SOL    HW1 5231   4.357   5.561   0.773
 1444SOL    HW2 5232   4.306   5.681   0.871
 1445SOL     OW 5233   0.438   3.501   2.640
 1445SOL    HW1 5234   0.385   3.490   2.724
 1445SOL    HW2 5235   0.376   3.522   2.564
 1446SOL     OW 5236   5.021   2.461   0.392
 1446SOL    HW1 5237   4.956   2.534   0.370
 1446SOL    HW2 5238   5.020   2.445   0.491
 1447SOL     OW 5239   6.085   6.970   5.462
 1447SOL    HW1 5240   6.078   6.873   5.483
 1447SOL    HW2 5241   6.039   6.989   5.376
 1448SOL     OW 5242   6.671   2.410   6.197
 1448SOL    HW1 5243   6.650   2.322   6.241
 1448SOL    HW2 5244   6.768   2.415   6.177
 1449SOL     OW 5245   0.847   1.142   0.205
 1449SOL    HW1 5246   0.771   1.093   0.248
 1449SOL    HW2 5247   0.817   1.183   0.120
 1450SOL     OW 5248   0.974   2.448   1.215
 1450SOL    HW1 5249   0.948   2.442   1.311
 1450SOL    HW2 5250   0.925   2.378   1.163
 1451SOL     OW 5251   1.733   0.208   1.985
 1451SOL    HW1 5252   1.661   0.157   1.938
 1451SOL    HW2 5253   1.714   0.306   1.978
 1452SOL     OW 5254   4.508   0.887   4.715
 1452SOL    HW1 5255   4.423   0.864   4.668
 1452SOL    HW2 5256   4.549   0.968   4.673
 1453SOL     OW 5257   0.118   4.285   5.618
 1453SOL    HW1 5258   0.126   4.300   5.520
 1453SOL    HW2 5259   0.030   4.243   5.639
 1454SOL     OW 5260   0.343   3.317   2.087
 1454SOL    HW1 5261   0.293   3.332   2.172
 1454SOL    HW2 5262   0.342   3.219   2.065
 1455SOL     OW 5263   0.828   1.152   2.027
 1455SOL    HW1 5264   0.769   1.224   1.991
 1455SOL    HW2 5265   0.920   1.161   1.987
 1456SOL     OW 5266   6.818   6.517   5.029
 1456SOL    HW1 5267   6.807   6.434   4.975
 1456SOL    HW2 5268   6.915   6.536   5.040
 1457SOL     OW 5269   1.401   6.695   1.797
 1457SOL    HW1 5270   1.482   6.734   1.840
 1457SOL    HW2 5271   1.423   6.606   1.757
 1458SOL     OW 5272   6.127   5.730   3.403
 1458SOL    HW1 5273   6.035   5.741   3.365
 1458SOL    HW2 5274   6.188   5.695   3.332
 1459SOL     OW 5275   2.911   5.555   5.857
 1459SOL    HW1 5276   2.921   5.574   5.759
 1459SOL    HW2 5277   2.900   5.642   5.906
 1460SOL     OW 5278   0.803   5.964   5.355
 1460SOL    HW1 5279   0.763   5.882   5.313
 1460SOL    HW2 5280   0.730   6.024   5.387
 1461SOL     OW 5281   6.641   5.443   3.201
 1461SOL    HW1 5282   6.672   5.519   3.144
 1461SOL    HW2 5283   6.552   5.411   3.170
 1462SOL     OW 5284   1.258   0.015   6.606
 1462SOL    HW1 5285   1.247   6.942   6.618
 1462SOL    HW2 5286   1.354   0.036   6.588
 1463SOL     OW 5287   6.947   6.235   6.775
 1463SOL    HW1 5288   6.909   6.318   6.735
 1463SOL    HW2 5289   6.891   6.206   6.853
 1464SOL     OW 5290   6.888   0.280   1.126
 1464SOL    HW1 5291   6.897   0.360   1.066
 1464SOL    HW2 5292   6.794   0.276   1.162
 1465SOL     OW 5293   1.663   1.100   3.578
 1465SOL    HW1 5294   1.709   1.074   3.493
 1465SOL    HW2 5295   1.695   1.190   3.607
 1466SOL     OW 5296   1.534   1.811   1.991
 1466SOL    HW1 5297   1.592   1.739   1.952
 1466SOL    HW2 5298   1.570   1.901   1.966
 1467SOL     OW 5299   1.697   1.973   2.902
 1467SOL    HW1 5300   1.692   1.878   2.871
 1467SOL    HW2 5301   1.626   2.027   2.856
 1468SOL     OW 5302   4.484   5.766   2.199
 1468SOL    HW1 5303   4.459   5.681   2.153
 1468SOL    HW2 5304   4.467   5.844   2.138
 1469SOL     OW 5305   0.892   1.442   1.687
 1469SOL    HW1 5306   0.856   1.447   1.594
 1469SOL    HW2 5307   0.987   1.410   1.685
 1470SOL     OW 5308   1.439   1.747   2.653
 1470SOL    HW1 5309   1.409   1.829   2.606
 1470SOL    HW2 5310   1.361   1.685   2.667
 1471SOL     OW 5311   0.881   0.028   1.138
 1471SOL    HW1 5312   0.828   7.011   1.064
 1471SOL    HW2 5313   0.869   0.127   1.135
 1472SOL     OW 5314   3.564   6.074   5.791
 1472SOL    HW1 5315   3.632   6.104   5.725
 1472SOL    HW2 5316   3.602   6.080   5.883
 1473SOL     OW 5317   4.927   6.132   4.658
 1473SOL    HW1 5318   4.884   6.052   4.700
 1473SOL    HW2 5319   4.956   6.109   4.565
 1474SOL     OW 5320   5.391   5.337   2.317
 1474SOL    HW1 5321   5.312   5.277   2.305
 1474SOL    HW2 5322   5.474   5.282   2.324
 1475SOL     OW 5323   6.480   0.247   2.193
 1475SOL    HW1 5324   6.408   0.179   2.205
 1475SOL    HW2 5325   6.476   0.285   2.101
 1476SOL     OW 5326   2.812   1.044   1.352
 1476SOL    HW1 5327   2.809   0.952   1.390
 1476SOL    HW2 5328   2.854   1.106   1.418
 1477SOL     OW 5329   4.005   0.016   6.240
 1477SOL    HW1 5330   3.960   7.001   6.320
 1477SOL    HW2 5331   4.067   0.088   6.269
 1478SOL     OW 5332   6.538   5.622   6.912
 1478SOL    HW1 5333   6.476   5.563   6.860
 1478SOL    HW2 5334   6.624   5.631   6.863
 1479SOL     OW 5335   1.809   2.710   6.951
 1479SOL    HW1 5336   1.870   2.632   6.937
 1479SOL    HW2 5337   1.715   2.683   6.930
 1480SOL     OW 5338   3.327   0.617   5.472
 1480SOL    HW1 5339   3.406   0.561   5.448
 1480SOL    HW2 5340   3.296   0.594   5.564
 1481SOL     OW 5341   6.679   2.619   5.746
 1481SOL    HW1 5342   6.722   2.664   5.667
 1481SOL    HW2 5343   6.618   2.684   5.792
 1482SOL     OW 5344   4.695   2.262   1.431
 1482SOL    HW1 5345   4.711   2.291   1.525
 1482SOL    HW2 5346   4.783   2.240   1.388
 1483SOL     OW 5347   4.964   2.034   0.080
 1483SOL    HW1 5348   4.954   2.091   0.162
 1483SOL    HW2 5349   5.043   2.065   0.027
 1484SOL     OW 5350   6.085   4.682   4.054
 1484SOL    HW1 5351   6.053   4.677   4.149
 1484SOL    HW2 5352   6.041   4.759   4.008
 1485SOL     OW 5353   3.756   1.384   3.322
 1485SOL    HW1 5354   3.668   1.337   3.330
 1485SOL    HW2 5355   3.747   1.460   3.258
 1486SOL     OW 5356   5.278   1.899   2.595
 1486SOL    HW1 5357   5.336   1.867   2.520
 1486SOL    HW2 5358   5.217   1.971   2.562
 1487SOL     OW 5359   6.683   2.110   6.305
 1487SOL    HW1 5360   6.754   2.161   6.353
 1487SOL    HW2 5361   6.692   2.013   6.324
 1488SOL     OW 5362   4.790   1.099   3.999
 1488SOL    HW1 5363   4.784   1.156   3.916
 1488SOL    HW2 5364   4.871   1.041   3.994
 1489SOL     OW 5365   4.397   5.306   4.675
 1489SOL    HW1 5366   4.454   5.266   4.604
 1489SOL    HW2 5367   4.381   5.239   4.748
 1490SOL     OW 5368   1.063   2.906   2.271
 1490SOL    HW1 5369   0.990   2.911   2.202
 1490SOL    HW2 5370   1.130   2.838   2.242
 1491SOL     OW 5371   6.299   3.816   3.124
 1491SOL    HW1 5372   6.216   3.762   3.129
 1491SOL    HW2 5373   6.371   3.763   3.080
 1492SOL     OW 5374   5.666   0.839   2.107
 1492SOL    HW1 5375   5.620   0.925   2.084
 1492SOL    HW2 5376   5.732   0.855   2.180
 1493SOL     OW 5377   4.081   6.406   4.746
 1493SOL    HW1 5378   4.061   6.340   4.673
 1493SOL    HW2 5379   4.143   6.364   4.812
 1494SOL     OW 5380   5.246   2.016   6.109
 1494SOL    HW1 5381   5.148   2.008   6.129
 1494SOL    HW2 5382   5.275   2.110   6.123
 1495SOL     OW 5383   6.747   2.788   4.499
 1495SOL    HW1 5384   6.739   2.777   4.598
 1495SOL    HW2 5385   6.807   2.865   4.478
 1496SOL     OW 5386   0.619   1.656   1.426
 1496SOL    HW1 5387   0.527   1.618   1.424
 1496SOL    HW2 5388   0.682   1.595   1.378
 1497SOL     OW 5389   6.108   3.300   3.174
 1497SOL    HW1 5390   6.094   3.214   3.125
 1497SOL    HW2 5391   6.025   3.325   3.223
 1498SOL     OW 5392   2.000   5.367   6.676
 1498SOL    HW1 5393   2.006   5.273   6.642
 1498SOL    HW2 5394   1.958   5.368   6.766
 1499SOL     OW 5395   1.153   2.633   6.250
 1499SOL    HW1 5396   1.128   2.726   6.276
 1499SOL    HW2 5397   1.183   2.631   6.155
 1500SOL     OW 5398   6.841   6.924   6.863
 1500SOL    HW1 5399   6.760   6.866   6.852
 1500SOL    HW2 5400   6.834   7.002   6.800
 1501SOL     OW 5401   5.529   2.739   6.467
 1501SOL    HW1 5402   5.446   2.706   6.511
 1501SOL    HW2 5403   5.532   2.839   6.471
 1502SOL     OW 5404   4.381   0.337   0.479
 1502SOL    HW1 5405   4.300   0.291   0.443
 1502SOL    HW2 5406   4.361   0.372   0.570
 1503SOL     OW 5407   0.437   3.800   1.267
 1503SOL    HW1 5408   0.465   3.753   1.351
 1503SOL    HW2 5409   0.355   3.755   1.231
 1504SOL     OW 5410   0.949   0.385   5.657
 1504SOL    HW1 5411   1.040   0.377   5.697
 1504SOL    HW2 5412   0.945   0.330   5.574
 1505SOL     OW 5413   5.448   1.071   5.760
 1505SOL    HW1 5414   5.416   0.987   5.716
 1505SOL    HW2 5415   5.375   1.110   5.816
 1506SOL     OW 5416   0.836   6.377   1.131
 1506SOL    HW1 5417   0.769   6.451   1.132
 1506SOL    HW2 5418   0.789   6.290   1.112
 1507SOL     OW 5419   0.891   1.810   5.228
 1507SOL    HW1 5420   0.945   1.834   5.147
 1507SOL    HW2 5421   0.803   1.856   5.223
 1508SOL     OW 5422   6.650   0.917   2.080
 1508SOL    HW1 5423   6.691   1.005   2.103
 1508SOL    HW2 5424   6.629   0.868   2.165
 1509SOL     OW 5425   4.005   1.733   6.022
 1509SOL    HW1 5426   4.059   1.674   5.962
 1509SOL    HW2 5427   4.063   1.803   6.063
 1510SOL     OW 5428   4.497   2.129   4.871
 1510SOL    HW1 5429   4.505   2.228   4.862
 1510SOL    HW2 5430   4.410   2.106   4.915
 1511SOL     OW 5431   3.593   3.253   2.006
 1511SOL    HW1 5432   3.509   3.210   2.040
 1511SOL    HW2 5433   3.611   3.222   1.913
 1512SOL     OW 5434   0.146   5.178   1.414
 1512SOL    HW1 5435   0.234   5.131   1.415
 1512SOL    HW2 5436   0.160   5.275   1.433
 1513SOL     OW 5437   3.596   0.992   3.922
 1513SOL    HW1 5438   3.638   1.082   3.929
 1513SOL    HW2 5439   3.616   0.939   4.005
 1514SOL     OW 5440   4.378   1.995   5.869
 1514SOL    HW1 5441   4.322   1.923   5.828
 1514SOL    HW2 5442   4.322   2.076   5.884
 1515SOL     OW 5443   5.836   2.284   3.281
 1515SOL    HW1 5444   5.866   2.220   3.352
 1515SOL    HW2 5445   5.738   2.275   3.268
 1516SOL     OW 5446   6.496   6.912   0.229
 1516SOL    HW1 5447   6.463   6.911   0.135
 1516SOL    HW2 5448   6.594   6.896   0.231
 1517SOL     OW 5449   4.447   6.253   3.427
 1517SOL    HW1 5450   4.438   6.344   3.466
 1517SOL    HW2 5451   4.374   6.238   3.360
 1518SOL     OW 5452   1.337   2.866   0.219
 1518SOL    HW1 5453   1.356   2.960   0.190
 1518SOL    HW2 5454   1.354   2.857   0.317
 1519SOL     OW 5455   6.443   5.208   1.525
 1519SOL    HW1 5456   6.375   5.215   1.452
 1519SOL    HW2 5457   6.531   5.244   1.493
 1520SOL     OW 5458   0.201   3.686   2.053
 1520SOL    HW1 5459   0.291   3.666   2.091
 1520SOL    HW2 5460   0.212   3.723   1.960
 1521SOL     OW 5461   1.782   3.771   6.315
 1521SOL    HW1 5462   1.834   3.772   6.401
 1521SOL    HW2 5463   1.833   3.721   6.246
 1522SOL     OW 5464   6.369   6.746   5.556
 1522SOL    HW1 5465   6.273   6.724   5.543
 1522SOL    HW2 5466   6.426   6.677   5.512
 1523SOL     OW 5467   5.164   5.501   0.927
 1523SOL    HW1 5468   5.245   5.543   0.885
 1523SOL    HW2 5469   5.176   5.401   0.929
 1524SOL     OW 5470   2.002   1.995   1.859
 1524SOL    HW1 5471   1.998   1.920   1.925
 1524SOL    HW2 5472   2.092   2.038   1.862
 1525SOL     OW 5473   6.683   2.227   0.189
 1525SOL    HW1 5474   6.759   2.198   0.248
 1525SOL    HW2 5475   6.600   2.177   0.214
 1526SOL     OW 5476   6.238   6.948   6.374
 1526SOL    HW1 5477   6.266   7.011   6.302
 1526SOL    HW2 5478   6.241   6.855   6.339
 1527SOL     OW 5479   3.216   1.538   5.258
 1527SOL    HW1 5480   3.271   1.456   5.242
 1527SOL    HW2 5481   3.119   1.515   5.249
 1528SOL     OW 5482   4.787   6.134   2.491
 1528SOL    HW1 5483   4.798   6.080   2.408
 1528SOL    HW2 5484   4.772   6.072   2.568
 1529SOL     OW 5485   4.056   0.880   0.325
 1529SOL    HW1 5486   4.088   0.861   0.418
 1529SOL    HW2 5487   3.984   0.815   0.300
 1530SOL     OW 5488   3.574   1.714   2.403
 1530SOL    HW1 5489   3.672   1.723   2.385
 1530SOL    HW2 5490   3.560   1.670   2.492
 1531SOL     OW 5491   4.384   1.177   4.912
 1531SOL    HW1 5492   4.395   1.111   4.987
 1531SOL    HW2 5493   4.473   1.216   4.889
 1532SOL     OW 5494   2.644   3.501   6.209
 1532SOL    HW1 5495   2.624   3.583   6.155
 1532SOL    HW2 5496   2.664   3.527   6.304
 1533SOL     OW 5497   6.279   3.561   6.735
 1533SOL    HW1 5498   6.215   3.493   6.700
 1533SOL    HW2 5499   6.229   3.644   6.762
 1534SOL     OW 5500   2.256   4.631   6.535
 1534SOL    HW1 5501   2.314   4.556   6.565
 1534SOL    HW2 5502   2.178   4.595   6.485
 1535SOL     OW 5503   5.263   6.367   3.788
 1535SOL    HW1 5504   5.198   6.322   3.728
 1535SOL    HW2 5505   5.265   6.465   3.768
 1536SOL     OW 5506   4.105   4.477   5.357
 1536SOL    HW1 5507   4.147   4.529   5.283
 1536SOL    HW2 5508   4.025   4.427   5.322
 1537SOL     OW 5509   4.452   6.900   3.168
 1537SOL    HW1 5510   4.514   6.829   3.202
 1537SOL    HW2 5511   4.440   6.970   3.239
 1538SOL     OW 5512   3.987   5.699   6.065
 1538SOL    HW1 5513   3.945   5.690   6.155
 1538SOL    HW2 5514   3.933   5.762   6.009
 1539SOL     OW 5515   4.029   3.896   1.948
 1539SOL    HW1 5516   4.059   3.987   1.919
 1539SOL    HW2 5517   3.929   3.894   1.951
 1540SOL     OW 5518   1.832   5.606   5.980
 1540SOL    HW1 5519   1.789   5.517   5.995
 1540SOL    HW2 5520   1.822   5.662   6.062
 1541SOL     OW 5521   3.810   2.939   2.835
 1541SOL    HW1 5522   3.838   2.848   2.864
 1541SOL    HW2 5523   3.729   2.968   2.887
 1542SOL     OW 5524   5.946   5.972   2.125
 1542SOL    HW1 5525   6.016   5.966   2.054
 1542SOL    HW2 5526   5.987   6.006   2.210
 1543SOL     OW 5527   3.661   4.435   5.390
 1543SOL    HW1 5528   3.634   4.364   5.455
 1543SOL    HW2 5529   3.740   4.403   5.337
 1544SOL     OW 5530   3.384   3.537   2.825
 1544SOL    HW1 5531   3.479   3.563   2.812
 1544SOL    HW2 5532   3.360   3.464   2.761
 1545SOL     OW 5533   4.670   0.870   3.855
 1545SOL    HW1 5534   4.752   0.831   3.812
 1545SOL    HW2 5535   4.684   0.968   3.869
 1546SOL     OW 5536   3.785   6.018   6.261
 1546SOL    HW1 5537   3.869   5.966   6.276
 1546SOL    HW2 5538   3.777   6.040   6.164
 1547SOL     OW 5539   1.491   3.498   3.226
 1547SOL    HW1 5540   1.440   3.516   3.310
 1547SOL    HW2 5541   1.427   3.473   3.153
 1548SOL     OW 5542   4.901   3.971   5.871
 1548SOL    HW1 5543   4.934   3.877   5.861
 1548SOL    HW2 5544   4.887   3.991   5.968
 1549SOL     OW 5545   4.897   1.173   2.977
 1549SOL    HW1 5546   4.830   1.113   2.933
 1549SOL    HW2 5547   4.958   1.212   2.907
 1550SOL     OW 5548   3.007   4.307   6.997
 1550SOL    HW1 5549   3.024   4.345   0.062
 1550SOL    HW2 5550   2.912   4.276   6.991
 1551SOL     OW 5551   2.087   4.548   6.089
 1551SOL    HW1 5552   2.160   4.481   6.108
 1551SOL    HW2 5553   2.004   4.520   6.138
 1552SOL     OW 5554   0.043   6.554   0.008
 1552SOL    HW1 5555   0.067   6.482   6.968
 1552SOL    HW2 5556   0.014   6.513   0.094
 1553SOL     OW 5557   0.022   1.289   5.566
 1553SOL    HW1 5558   7.022   1.278   5.470
 1553SOL    HW2 5559   0.012   1.202   5.614
 1554SOL     OW 5560   4.475   1.334   3.094
 1554SOL    HW1 5561   4.463   1.244   3.051
 1554SOL    HW2 5562   4.549   1.383   3.048
 1555SOL     OW 5563   5.200   1.738   0.030
 1555SOL    HW1 5564   5.166   1.666   0.091
 1555SOL    HW2 5565   5.125   1.772   6.999
 1556SOL     OW 5566   2.967   1.182   1.148
 1556SOL    HW1 5567   2.988   1.171   1.245
 1556SOL    HW2 5568   2.892   1.121   1.123
 1557SOL     OW 5569   1.888   1.295   6.590
 1557SOL    HW1 5570   1.821   1.352   6.542
 1557SOL    HW2 5571   1.906   1.213   6.536
 1558SOL     OW 5572   5.274   0.870   4.512
 1558SOL    HW1 5573   5.188   0.851   4.464
 1558SOL    HW2 5574   5.254   0.903   4.604
 1559SOL     OW 5575   7.008   2.630   0.056
 1559SOL    HW1 5576   6.983   2.668   6.993
 1559SOL    HW2 5577   6.927   2.629   0.116
 1560SOL     OW 5578   2.573   2.105   5.831
 1560SOL    HW1 5579   2.489   2.053   5.812
 1560SOL    HW2 5580   2.629   2.054   5.896
 1561SOL     OW 5581   6.697   6.242   4.152
 1561SOL    HW1 5582   6.646   6.163   4.120
 1561SOL    HW2 5583   6.656   6.326   4.117
 1562SOL     OW 5584   3.836   5.778   3.082
 1562SOL    HW1 5585   3.741   5.750   3.095
 1562SOL    HW2 5586   3.861   5.847   3.151
 1563SOL     OW 5587   2.332   0.243   6.169
 1563SOL    HW1 5588   2.244   0.220   6.211
 1563SOL    HW2 5589   2.360   0.168   6.109
 1564SOL     OW 5590   1.153   2.677   3.114
 1564SOL    HW1 5591   1.207   2.759   3.134
 1564SOL    HW2 5592   1.076   2.672   3.178
 1565SOL     OW 5593   4.103   5.089   4.924
 1565SOL    HW1 5594   4.097   5.177   4.876
 1565SOL    HW2 5595   4.011   5.048   4.930
 1566SOL     OW 5596   5.285   5.228   3.645
 1566SOL    HW1 5597   5.369   5.247   3.695
 1566SOL    HW2 5598   5.243   5.144   3.681
 1567SOL     OW 5599   5.850   6.103   6.883
 1567SOL    HW1 5600   5.911   6.046   6.938
 1567SOL    HW2 5601   5.830   6.056   6.797
 1568SOL     OW 5602   1.896   5.582   1.462
 1568SOL    HW1 5603   1.892   5.662   1.522
 1568SOL    HW2 5604   1.807   5.536   1.460
 1569SOL     OW 5605   2.953   6.779   3.603
 1569SOL    HW1 5606   3.002   6.824   3.528
 1569SOL    HW2 5607   3.013   6.711   3.646
 1570SOL     OW 5608   1.976   6.617   0.850
 1570SOL    HW1 5609   1.877   6.624   0.835
 1570SOL    HW2 5610   1.993   6.588   0.945
 1571SOL     OW 5611   6.262   1.744   2.159
 1571SOL    HW1 5612   6.354   1.741   2.120
 1571SOL    HW2 5613   6.232   1.651   2.182
 1572SOL     OW 5614   0.799   6.624   0.581
 1572SOL    HW1 5615   0.897   6.603   0.581
 1572SOL    HW2 5616   0.777   6.680   0.660
 1573SOL     OW 5617   6.302   3.551   1.898
 1573SOL    HW1 5618   6.383   3.513   1.942
 1573SOL    HW2 5619   6.300   3.650   1.911
 1574SOL     OW 5620   0.167   0.973   3.119
 1574SOL    HW1 5621   0.236   0.914   3.076
 1574SOL    HW2 5622   0.122   0.922   3.192
 1575SOL     OW 5623   2.798   2.117   0.663
 1575SOL    HW1 5624   2.800   2.043   0.731
 1575SOL    HW2 5625   2.892   2.140   0.638
 1576SOL     OW 5626   0.825   1.129   3.045
 1576SOL    HW1 5627   0.727   1.112   3.049
 1576SOL    HW2 5628   0.862   1.090   2.960
 1577SOL     OW 5629   2.934   0.654   5.156
 1577SOL    HW1 5630   2.962   0.592   5.229
 1577SOL    HW2 5631   2.927   0.602   5.070
 1578SOL     OW 5632   5.638   3.087   5.961
 1578SOL    HW1 5633   5.559   3.053   6.012
 1578SOL    HW2 5634   5.686   3.010   5.919
 1579SOL     OW 5635   0.798   1.794   2.494
 1579SOL    HW1 5636   0.898   1.798   2.494
 1579SOL    HW2 5637   0.761   1.875   2.450
 1580SOL     OW 5638   3.202   4.115   4.344
 1580SOL    HW1 5639   3.262   4.043   4.310
 1580SOL    HW2 5640   3.164   4.166   4.267
 1581SOL     OW 5641   6.727   4.167   5.570
 1581SOL    HW1 5642   6.760   4.118   5.490
 1581SOL    HW2 5643   6.796   4.163   5.643
 1582SOL     OW 5644   2.443   0.040   4.091
 1582SOL    HW1 5645   2.538   0.037   4.061
 1582SOL    HW2 5646   2.382   0.021   4.013
 1583SOL     OW 5647   0.837   4.919   3.345
 1583SOL    HW1 5648   0.921   4.970   3.326
 1583SOL    HW2 5649   0.759   4.982   3.344
 1584SOL     OW 5650   1.160   6.005   6.065
 1584SOL    HW1 5651   1.105   6.056   6.131
 1584SOL    HW2 5652   1.207   6.070   6.004
 1585SOL     OW 5653   5.320   1.214   3.359
 1585SOL    HW1 5654   5.255   1.139   3.372
 1585SOL    HW2 5655   5.298   1.263   3.274
 1586SOL     OW 5656   3.506   4.967   2.111
 1586SOL    HW1 5657   3.560   4.892   2.073
 1586SOL    HW2 5658   3.410   4.956   2.085
 1587SOL     OW 5659   3.212   5.706   6.499
 1587SOL    HW1 5660   3.295   5.743   6.457
 1587SOL    HW2 5661   3.179   5.769   6.570
 1588SOL     OW 5662   4.282   0.490   2.876
 1588SOL    HW1 5663   4.271   0.579   2.831
 1588SOL    HW2 5664   4.192   0.449   2.890
 1589SOL     OW 5665   6.495   3.151   1.983
 1589SOL    HW1 5666   6.476   3.056   1.955
 1589SOL    HW2 5667   6.410   3.194   2.012
 1590SOL     OW 5668   3.914   6.143   5.801
 1590SOL    HW1 5669   3.944   6.061   5.754
 1590SOL    HW2 5670   3.865   6.203   5.737
 1591SOL     OW 5671   6.734   5.170   2.146
 1591SOL    HW1 5672   6.795   5.248   2.155
 1591SOL    HW2 5673   6.704   5.161   2.051
 1592SOL     OW 5674   2.070   4.036   0.179
 1592SOL    HW1 5675   2.120   3.981   0.247
 1592SOL    HW2 5676   2.099   4.132   0.187
 1593SOL     OW 5677   1.288   6.359   5.417
 1593SOL    HW1 5678   1.292   6.259   5.416
 1593SOL    HW2 5679   1.374   6.395   5.453
 1594SOL     OW 5680   0.288   6.268   2.072
 1594SOL    HW1 5681   0.223   6.272   1.996
 1594SOL    HW2 5682   0.299   6.360   2.111
 1595SOL     OW 5683   1.148   5.452   0.462
 1595SOL    HW1 5684   1.147   5.537   0.516
 1595SOL    HW2 5685   1.239   5.410   0.468
 1596SOL     OW 5686   0.695   2.473   3.871
 1596SOL    HW1 5687   0.632   2.522   3.811
 1596SOL    HW2 5688   0.657   2.469   3.963
 1597SOL     OW 5689   1.378   6.179   0.236
 1597SOL    HW1 5690   1.452   6.111   0.239
 1597SOL    HW2 5691   1.362   6.204   0.140
 1598SOL     OW 5692   0.468   4.319   5.927
 1598SOL    HW1 5693   0.550   4.269   5.952
 1598SOL    HW2 5694   0.462   4.403   5.982
 1599SOL     OW 5695   5.023   4.816   5.158
 1599SOL    HW1 5696   5.091   4.755   5.119
 1599SOL    HW2 5697   4.966   4.765   5.223
 1600SOL     OW 5698   4.262   1.022   3.283
 1600SOL    HW1 5699   4.355   1.058   3.288
 1600SOL    HW2 5700   4.255   0.958   3.207
 1601SOL     OW 5701   6.956   4.697   4.544
 1601SOL    HW1 5702   0.027   4.726   4.544
 1601SOL    HW2 5703   6.901   4.765   4.592
 1602SOL     OW 5704   3.927   5.224   3.370
 1602SOL    HW1 5705   4.005   5.263   3.420
 1602SOL    HW2 5706   3.956   5.141   3.322
 1603SOL     OW 5707   0.916   6.273   3.296
 1603SOL    HW1 5708   0.922   6.267   3.196
 1603SOL    HW2 5709   0.830   6.233   3.327
 1604SOL     OW 5710   5.444   4.552   1.675
 1604SOL    HW1 5711   5.425   4.485   1.747
 1604SOL    HW2 5712   5.367   4.557   1.613
 1605SOL     OW 5713   6.237   5.709   1.299
 1605SOL    HW1 5714   6.242   5.710   1.199
 1605SOL    HW2 5715   6.218   5.801   1.332
 1606SOL     OW 5716   3.228   1.259   5.397
 1606SOL    HW1 5717   3.192   1.311   5.474
 1606SOL    HW2 5718   3.157   1.252   5.326
 1607SOL     OW 5719   4.254   0.974   1.179
 1607SOL    HW1 5720   4.249   1.003   1.275
 1607SOL    HW2 5721   4.348   0.980   1.147
 1608SOL     OW 5722   0.814   0.589   3.331
 1608SOL    HW1 5723   0.810   0.688   3.317
 1608SOL    HW2 5724   0.825   0.544   3.243
 1609SOL     OW 5725   4.139   0.248   0.389
 1609SOL    HW1 5726   4.129   0.171   0.452
 1609SOL    HW2 5727   4.088   0.327   0.423
 1610SOL     OW 5728   5.704   4.988   6.727
 1610SOL    HW1 5729   5.777   4.995   6.659
 1610SOL    HW2 5730   5.732   4.926   6.800
 1611SOL     OW 5731   2.057   3.248   0.931
 1611SOL    HW1 5732   2.022   3.178   0.994
 1611SOL    HW2 5733   2.136   3.293   0.973
 1612SOL     OW 5734   2.779   0.408   6.392
 1612SOL    HW1 5735   2.847   0.335   6.380
 1612SOL    HW2 5736   2.696   0.383   6.342
 1613SOL     OW 5737   1.799   5.312   1.638
 1613SOL    HW1 5738   1.886   5.341   1.677
 1613SOL    HW2 5739   1.746   5.393   1.611
 1614SOL     OW 5740   5.898   3.522   0.359
 1614SOL    HW1 5741   5.848   3.441   0.391
 1614SOL    HW2 5742   5.930   3.506   0.265
 1615SOL     OW 5743   5.735   5.139   0.756
 1615SOL    HW1 5744   5.673   5.115   0.681
 1615SOL    HW2 5745   5.768   5.056   0.800
 1616SOL     OW 5746   3.057   0.887   5.184
 1616SOL    HW1 5747   3.100   0.913   5.098
 1616SOL    HW2 5748   3.002   0.805   5.170
 1617SOL     OW 5749   6.052   6.807   2.789
 1617SOL    HW1 5750   5.990   6.832   2.863
 1617SOL    HW2 5751   6.129   6.871   2.787
 1618SOL     OW 5752   1.806   4.208   2.024
 1618SOL    HW1 5753   1.905   4.212   2.037
 1618SOL    HW2 5754   1.769   4.127   2.070
 1619SOL     OW 5755   1.402   3.421   1.645
 1619SOL    HW1 5756   1.340   3.400   1.720
 1619SOL    HW2 5757   1.497   3.415   1.677
 1620SOL     OW 5758   2.767   4.861   1.885
 1620SOL    HW1 5759   2.824   4.849   1.804
 1620SOL    HW2 5760   2.760   4.775   1.935
 1621SOL     OW 5761   0.222   1.197   0.258
 1621SOL    HW1 5762   0.204   1.163   0.351
 1621SOL    HW2 5763   0.214   1.121   0.193
 1622SOL     OW 5764   0.735   2.972   4.898
 1622SOL    HW1 5765   0.779   3.002   4.814
 1622SOL    HW2 5766   0.775   2.885   4.928
 1623SOL     OW 5767   2.173   3.069   4.881
 1623SOL    HW1 5768   2.195   3.083   4.784
 1623SOL    HW2 5769   2.255   3.038   4.929
 1624SOL     OW 5770   2.833   0.792   4.730
 1624SOL    HW1 5771   2.785   0.726   4.672
 1624SOL    HW2 5772   2.775   0.872   4.745
 1625SOL     OW 5773   0.824   5.275   0.686
 1625SOL    HW1 5774   0.846   5.178   0.674
 1625SOL    HW2 5775   0.752   5.285   0.754
 1626SOL     OW 5776   4.147   2.055   6.627
 1626SOL    HW1 5777   4.179   2.064   6.533
 1626SOL    HW2 5778   4.111   1.963   6.641
 1627SOL     OW 5779   6.515   3.911   2.839
 1627SOL    HW1 5780   6.549   3.892   2.747
 1627SOL    HW2 5781   6.537   3.834   2.900
 1628SOL     OW 5782   4.786   4.223   0.114
 1628SOL    HW1 5783   4.792   4.127   0.087
 1628SOL    HW2 5784   4.771   4.229   0.213
 1629SOL     OW 5785   2.476   0.727   4.027
 1629SOL    HW1 5786   2.541   0.654   4.049
 1629SOL    HW2 5787   2.386   0.702   4.063
 1630SOL     OW 5788   1.898   5.190   5.467
 1630SOL    HW1 5789   1.980   5.172   5.412
 1630SOL    HW2 5790   1.896   5.287   5.492
 1631SOL     OW 5791   1.131   2.694   6.722
 1631SOL    HW1 5792   1.100   2.601   6.704
 1631SOL    HW2 5793   1.120   2.715   6.819
 1632SOL     OW 5794   0.029   1.908   0.153
 1632SOL    HW1 5795   0.128   1.917   0.160
 1632SOL    HW2 5796   7.014   1.995   0.126
 1633SOL     OW 5797   5.221   3.591   4.450
 1633SOL    HW1 5798   5.269   3.662   4.502
 1633SOL    HW2 5799   5.284   3.551   4.383
 1634SOL     OW 5800   4.606   5.511   5.018
 1634SOL    HW1 5801   4.668   5.570   5.070
 1634SOL    HW2 5802   4.516   5.555   5.010
 1635SOL     OW 5803   0.058   5.242   5.807
 1635SOL    HW1 5804   0.000   5.309   5.854
 1635SOL    HW2 5805   0.027   5.150   5.829
 1636SOL     OW 5806   3.162   4.354   1.684
 1636SOL    HW1 5807   3.086   4.418   1.697
 1636SOL    HW2 5808   3.141   4.268   1.729
 1637SOL     OW 5809   1.213   0.816   2.785
 1637SOL    HW1 5810   1.158   0.803   2.703
 1637SOL    HW2 5811   1.211   0.912   2.812
 1638SOL     OW 5812   0.295   4.286   2.951
 1638SOL    HW1 5813   0.271   4.340   2.871
 1638SOL    HW2 5814   0.220   4.223   2.972
 1639SOL     OW 5815   5.218   6.873   2.524
 1639SOL    HW1 5816   5.173   6.915   2.602
 1639SOL    HW2 5817   5.245   6.944   2.459
 1640SOL     OW 5818   5.863   1.257   0.666
 1640SOL    HW1 5819   5.854   1.235   0.569
 1640SOL    HW2 5820   5.943   1.210   0.703
 1641SOL     OW 5821   4.815   2.567   3.478
 1641SOL    HW1 5822   4.761   2.629   3.535
 1641SOL    HW2 5823   4.763   2.546   3.395
 1642SOL     OW 5824   5.819   3.560   6.604
 1642SOL    HW1 5825   5.852   3.506   6.526
 1642SOL    HW2 5826   5.872   3.645   6.610
 1643SOL     OW 5827   3.027   4.834   4.449
 1643SOL    HW1 5828   2.981   4.897   4.385
 1643SOL    HW2 5829   2.962   4.764   4.479
 1644SOL     OW 5830   6.502   3.557   0.698
 1644SOL    HW1 5831   6.484   3.644   0.650
 1644SOL    HW2 5832   6.454   3.557   0.786
 1645SOL     OW 5833   2.936   5.568   5.599
 1645SOL    HW1 5834   2.908   5.472   5.598
 1645SOL    HW2 5835   3.012   5.581   5.535
 1646SOL     OW 5836   2.676   6.216   0.405
 1646SOL    HW1 5837   2.622   6.139   0.372
 1646SOL    HW2 5838   2.748   6.182   0.465
 1647SOL     OW 5839   6.088   2.954   4.472
 1647SOL    HW1 5840   6.013   2.936   4.535
 1647SOL    HW2 5841   6.053   2.996   4.388
 1648SOL     OW 5842   5.404   5.336   0.679
 1648SOL    HW1 5843   5.386   5.294   0.590
 1648SOL    HW2 5844   5.394   5.435   0.673
 1649SOL     OW 5845   2.901   0.894   4.364
 1649SOL    HW1 5846   2.809   0.913   4.398
 1649SOL    HW2 5847   2.960   0.973   4.382
 1650SOL     OW 5848   2.084   6.040   5.405
 1650SOL    HW1 5849   2.101   6.008   5.498
 1650SOL    HW2 5850   2.002   5.995   5.369
 1651SOL     OW 5851   0.505   1.827   1.209
 1651SOL    HW1 5852   0.570   1.799   1.279
 1651SOL    HW2 5853   0.541   1.804   1.118
 1652SOL     OW 5854   1.105   4.076   2.255
 1652SOL    HW1 5855   1.056   4.004   2.304
 1652SOL    HW2 5856   1.196   4.043   2.229
 1653SOL     OW 5857   1.102   6.900   1.223
 1653SOL    HW1 5858   1.020   6.948   1.191
 1653SOL    HW2 5859   1.145   6.954   1.296
 1654SOL     OW 5860   0.283   3.574   1.199
 1654SOL    HW1 5861   0.317   3.567   1.106
 1654SOL    HW2 5862   0.334   3.510   1.258
 1655SOL     OW 5863   6.716   2.043   5.238
 1655SOL    HW1 5864   6.645   2.113   5.228
 1655SOL    HW2 5865   6.673   1.952   5.241
 1656SOL     OW 5866   2.455   4.465   2.273
 1656SOL    HW1 5867   2.511   4.473   2.356
 1656SOL    HW2 5868   2.496   4.520   2.200
 1657SOL     OW 5869   0.054   1.277   3.415
 1657SOL    HW1 5870   0.035   1.375   3.426
 1657SOL    HW2 5871   0.010   1.226   3.489
 1658SOL     OW 5872   0.820   6.748   1.253
 1658SOL    HW1 5873   0.912   6.783   1.237
 1658SOL    HW2 5874   0.790   6.774   1.345
 1659SOL     OW 5875   3.456   0.338   5.971
 1659SOL    HW1 5876   3.385   0.339   6.041
 1659SOL    HW2 5877   3.504   0.251   5.973
 1660SOL     OW 5878   1.408   5.511   4.333
 1660SOL    HW1 5879   1.341   5.479   4.400
 1660SOL    HW2 5880   1.390   5.607   4.312
 1661SOL     OW 5881   2.527   0.861   2.157
 1661SOL    HW1 5882   2.443   0.810   2.134
 1661SOL    HW2 5883   2.510   0.918   2.237
 1662SOL     OW 5884   6.481   0.614   4.310
 1662SOL    HW1 5885   6.423   0.605   4.229
 1662SOL    HW2 5886   6.424   0.635   4.389
 1663SOL     OW 5887   4.212   5.960   2.190
 1663SOL    HW1 5888   4.154   6.035   2.220
 1663SOL    HW2 5889   4.170   5.915   2.111
 1664SOL     OW 5890   1.644   6.927   4.538
 1664SOL    HW1 5891   1.658   6.952   4.442
 1664SOL    HW2 5892   1.566   6.865   4.545
 1665SOL     OW 5893   7.008   1.467   3.031
 1665SOL    HW1 5894   0.039   1.504   2.957
 1665SOL    HW2 5895   0.025   1.384   3.067
 1666SOL     OW 5896   5.662   2.526   0.233
 1666SOL    HW1 5897   5.713   2.440   0.233
 1666SOL    HW2 5898   5.725   2.602   0.215
 1667SOL     OW 5899   6.824   5.964   1.404
 1667SOL    HW1 5900   6.764   5.921   1.473
 1667SOL    HW2 5901   6.872   5.893   1.353
 1668SOL     OW 5902   4.890   5.949   5.719
 1668SOL    HW1 5903   4.927   6.029   5.766
 1668SOL    HW2 5904   4.922   5.947   5.624
 1669SOL     OW 5905   0.048   5.873   6.477
 1669SOL    HW1 5906   0.066   5.942   6.546
 1669SOL    HW2 5907   0.132   5.822   6.457
 1670SOL     OW 5908   0.172   3.574   5.901
 1670SOL    HW1 5909   0.103   3.641   5.929
 1670SOL    HW2 5910   0.249   3.577   5.965
 1671SOL     OW 5911   5.211   1.420   1.286
 1671SOL    HW1 5912   5.131   1.453   1.336
 1671SOL    HW2 5913   5.294   1.453   1.329
 1672SOL     OW 5914   1.889   2.766   1.011
 1672SOL    HW1 5915   1.940   2.849   1.029
 1672SOL    HW2 5916   1.796   2.775   1.047
 1673SOL     OW 5917   0.419   2.210   4.419
 1673SOL    HW1 5918   0.518   2.216   4.403
 1673SOL    HW2 5919   0.371   2.255   4.343
 1674SOL     OW 5920   0.570   3.761   2.708
 1674SOL    HW1 5921   0.619   3.791   2.790
 1674SOL    HW2 5922   0.556   3.662   2.712
 1675SOL     OW 5923   4.478   0.304   6.307
 1675SOL    HW1 5924   4.388   0.259   6.304
 1675SOL    HW2 5925   4.543   0.245   6.356
 1676SOL     OW 5926   2.252   2.182   1.886
 1676SOL    HW1 5927   2.236   2.226   1.798
 1676SOL    HW2 5928   2.348   2.154   1.892
 1677SOL     OW 5929   3.152   3.244   5.422
 1677SOL    HW1 5930   3.061   3.257   5.383
 1677SOL    HW2 5931   3.221   3.283   5.361
 1678SOL     OW 5932   4.766   3.994   4.447
 1678SOL    HW1 5933   4.699   3.985   4.374
 1678SOL    HW2 5934   4.736   4.065   4.511
 1679SOL     OW 5935   2.543   2.134   4.324
 1679SOL    HW1 5936   2.507   2.220   4.288
 1679SOL    HW2 5937   2.517   2.124   4.420
 1680SOL     OW 5938   0.012   3.440   4.967
 1680SOL    HW1 5939   6.980   3.433   5.049
 1680SOL    HW2 5940   0.055   3.351   4.948
 1681SOL     OW 5941   6.626   5.824   0.157
 1681SOL    HW1 5942   6.534   5.818   0.119
 1681SOL    HW2 5943   6.657   5.732   0.185
 1682SOL     OW 5944   1.236   0.890   4.263
 1682SOL    HW1 5945   1.232   0.952   4.341
 1682SOL    HW2 5946   1.317   0.910   4.209
 1683SOL     OW 5947   4.554   5.413   1.659
 1683SOL    HW1 5948   4.511   5.486   1.713
 1683SOL    HW2 5949   4.513   5.325   1.683
 1684SOL     OW 5950   1.716   6.059   2.474
 1684SOL    HW1 5951   1.709   5.962   2.498
 1684SOL    HW2 5952   1.811   6.088   2.480
 1685SOL     OW 5953   2.446   0.839   5.319
 1685SOL    HW1 5954   2.414   0.921   5.272
 1685SOL    HW2 5955   2.475   0.771   5.251
 1686SOL     OW 5956   3.003   5.616   4.984
 1686SOL    HW1 5957   3.004   5.712   5.013
 1686SOL    HW2 5958   3.088   5.572   5.013
 1687SOL     OW 5959   2.431   3.849   1.485
 1687SOL    HW1 5960   2.487   3.905   1.545
 1687SOL    HW2 5961   2.410   3.762   1.530
 1688SOL     OW 5962   2.345   2.293   4.443
 1688SOL    HW1 5963   2.266   2.234   4.428
 1688SOL    HW2 5964   2.378   2.283   4.537
 1689SOL     OW 5965   5.902   1.593   2.649
 1689SOL    HW1 5966   5.887   1.641   2.735
 1689SOL    HW2 5967   5.851   1.507   2.649
 1690SOL     OW 5968   1.704   2.958   3.743
 1690SOL    HW1 5969   1.667   2.897   3.673
 1690SOL    HW2 5970   1.634   3.024   3.770
 1691SOL     OW 5971   5.997   3.445   2.936
 1691SOL    HW1 5972   6.033   3.413   3.023
 1691SOL    HW2 5973   5.899   3.424   2.930
 1692SOL     OW 5974   5.687   6.900   1.563
 1692SOL    HW1 5975   5.695   6.800   1.571
 1692SOL    HW2 5976   5.599   6.929   1.599
 1693SOL     OW 5977   0.466   2.395   1.815
 1693SOL    HW1 5978   0.426   2.481   1.843
 1693SOL    HW2 5979   0.499   2.401   1.720
 1694SOL     OW 5980   5.309   0.749   3.100
 1694SOL    HW1 5981   5.405   0.737   3.076
 1694SOL    HW2 5982   5.262   0.661   3.095
 1695SOL     OW 5983   3.207   1.901   6.024
 1695SOL    HW1 5984   3.239   1.822   6.076
 1695SOL    HW2 5985   3.173   1.870   5.935
 1696SOL     OW 5986   4.431   4.445   0.630
 1696SOL    HW1 5987   4.399   4.361   0.673
 1696SOL    HW2 5988   4.520   4.471   0.667
 1697SOL     OW 5989   5.667   6.852   1.154
 1697SOL    HW1 5990   5.753   6.885   1.116
 1697SOL    HW2 5991   5.614   6.930   1.189
 1698SOL     OW 5992   4.059   0.520   0.047
 1698SOL    HW1 5993   4.103   0.478   6.993
 1698SOL    HW2 5994   4.119   0.591   0.084
 1699SOL     OW 5995   2.217   0.907   0.778
 1699SOL    HW1 5996   2.218   0.896   0.877
 1699SOL    HW2 5997   2.225   0.817   0.735
 1700SOL     OW 5998   5.632   2.569   3.173
 1700SOL    HW1 5999   5.632   2.568   3.273
 1700SOL    HW2 6000   5.584   2.488   3.139
 1701SOL     OW 6001   4.683   4.181   6.749
 1701SOL    HW1 6002   4.728   4.266   6.721
 1701SOL    HW2 6003   4.597   4.171   6.698
 1702SOL     OW 6004   6.609   2.502   0.330
 1702SOL    HW1 6005   6.575   2.423   0.280
 1702SOL    HW2 6006   6.611   2.481   0.428
 1703SOL     OW 6007   3.074   2.712   1.813
 1703SOL    HW1 6008   3.036   2.627   1.851
 1703SOL    HW2 6009   3.036   2.728   1.722
 1704SOL     OW 6010   1.088   2.202   0.998
 1704SOL    HW1 6011   1.134   2.290   0.988
 1704SOL    HW2 6012   0.989   2.216   1.003
 1705SOL     OW 6013   3.411   1.605   2.192
 1705SOL    HW1 6014   3.341   1.664   2.151
 1705SOL    HW2 6015   3.454   1.653   2.268
 1706SOL     OW 6016   4.698   1.030   2.598
 1706SOL    HW1 6017   4.682   1.125   2.572
 1706SOL    HW2 6018   4.610   0.982   2.604
 1707SOL     OW 6019   5.356   1.726   2.069
 1707SOL    HW1 6020   5.417   1.754   1.995
 1707SOL    HW2 6021   5.402   1.658   2.126
 1708SOL     OW 6022   5.181   5.083   2.240
 1708SOL    HW1 6023   5.249   5.034   2.295
 1708SOL    HW2 6024   5.092   5.039   2.250
 1709SOL     OW 6025   3.371   5.362   1.774
 1709SOL    HW1 6026   3.358   5.296   1.848
 1709SOL    HW2 6027   3.347   5.320   1.687
 1710SOL     OW 6028   5.103   5.439   3.969
 1710SOL    HW1 6029   5.031   5.464   4.033
 1710SOL    HW2 6030   5.090   5.344   3.939
 1711SOL     OW 6031   0.449   4.807   4.428
 1711SOL    HW1 6032   0.369   4.829   4.371
 1711SOL    HW2 6033   0.526   4.784   4.369
 1712SOL     OW 6034   0.316   2.763   5.926
 1712SOL    HW1 6035   0.217   2.777   5.922
 1712SOL    HW2 6036   0.344   2.747   6.021
 1713SOL     OW 6037   4.753   2.127   1.868
 1713SOL    HW1 6038   4.717   2.067   1.939
 1713SOL    HW2 6039   4.753   2.221   1.900
 1714SOL     OW 6040   3.689   1.892   5.366
 1714SOL    HW1 6041   3.609   1.913   5.309
 1714SOL    HW2 6042   3.676   1.931   5.457
 1715SOL     OW 6043   0.050   5.414   2.957
 1715SOL    HW1 6044   7.011   5.352   3.002
 1715SOL    HW2 6045   0.006   5.454   2.876
 1716SOL     OW 6046   4.495   6.581   3.062
 1716SOL    HW1 6047   4.539   6.629   3.139
 1716SOL    HW2 6048   4.432   6.644   3.016
 1717SOL     OW 6049   2.469   6.459   5.784
 1717SOL    HW1 6050   2.505   6.489   5.871
 1717SOL    HW2 6051   2.408   6.380   5.798
 1718SOL     OW 6052   2.212   1.795   1.263
 1718SOL    HW1 6053   2.280   1.722   1.268
 1718SOL    HW2 6054   2.251   1.875   1.217
 1719SOL     OW 6055   1.822   3.352   0.804
 1719SOL    HW1 6056   1.800   3.282   0.735
 1719SOL    HW2 6057   1.906   3.325   0.852
 1720SOL     OW 6058   0.351   2.629   6.835
 1720SOL    HW1 6059   0.334   2.663   6.928
 1720SOL    HW2 6060   0.378   2.533   6.839
 1721SOL     OW 6061   1.338   6.167   1.506
 1721SOL    HW1 6062   1.288   6.245   1.471
 1721SOL    HW2 6063   1.274   6.097   1.538
 1722SOL     OW 6064   3.932   1.896   4.284
 1722SOL    HW1 6065   3.881   1.974   4.321
 1722SOL    HW2 6066   4.024   1.925   4.260
 1723SOL     OW 6067   6.130   2.437   2.809
 1723SOL    HW1 6068   6.073   2.516   2.832
 1723SOL    HW2 6069   6.150   2.385   2.892
 1724SOL     OW 6070   6.763   2.844   0.917
 1724SOL    HW1 6071   6.826   2.800   0.980
 1724SOL    HW2 6072   6.702   2.776   0.876
 1725SOL     OW 6073   2.174   5.054   6.992
 1725SOL    HW1 6074   2.170   4.998   6.909
 1725SOL    HW2 6075   2.082   5.083   7.018
 1726SOL     OW 6076   5.400   4.438   5.238
 1726SOL    HW1 6077   5.330   4.502   5.270
 1726SOL    HW2 6078   5.380   4.346   5.273
 1727SOL     OW 6079   3.881   3.327   4.308
 1727SOL    HW1 6080   3.930   3.276   4.379
 1727SOL    HW2 6081   3.783   3.319   4.322
 1728SOL     OW 6082   4.878   4.687   5.368
 1728SOL    HW1 6083   4.800   4.626   5.377
 1728SOL    HW2 6084   4.908   4.716   5.459
 1729SOL     OW 6085   2.272   4.203   3.093
 1729SOL    HW1 6086   2.303   4.284   3.044
 1729SOL    HW2 6087   2.282   4.218   3.191
 1730SOL     OW 6088   0.943   6.628   6.151
 1730SOL    HW1 6089   0.968   6.723   6.169
 1730SOL    HW2 6090   0.898   6.621   6.062
 1731SOL     OW 6091   6.845   3.657   2.811
 1731SOL    HW1 6092   6.844   3.739   2.868
 1731SOL    HW2 6093   6.912   3.668   2.737
 1732SOL     OW 6094   2.555   4.990   5.714
 1732SOL    HW1 6095   2.543   4.919   5.644
 1732SOL    HW2 6096   2.467   5.032   5.734
 1733SOL     OW 6097   1.456   4.090   1.520
 1733SOL    HW1 6098   1.487   4.051   1.607
 1733SOL    HW2 6099   1.361   4.120   1.528
 1734SOL     OW 6100   4.635   3.050   1.463
 1734SOL    HW1 6101   4.630   3.141   1.422
 1734SOL    HW2 6102   4.594   3.052   1.554
 1735SOL     OW 6103   5.351   6.064   0.625
 1735SOL    HW1 6104   5.447   6.046   0.604
 1735SOL    HW2 6105   5.303   6.091   0.541
 1736SOL     OW 6106   3.577   3.372   0.594
 1736SOL    HW1 6107   3.538   3.291   0.638
 1736SOL    HW2 6108   3.513   3.406   0.525
 1737SOL     OW 6109   2.485   1.447   4.488
 1737SOL    HW1 6110   2.451   1.453   4.394
 1737SOL    HW2 6111   2.569   1.501   4.496
 1738SOL     OW 6112   2.039   2.225   3.717
 1738SOL    HW1 6113   2.031   2.148   3.655
 1738SOL    HW2 6114   1.957   2.282   3.710
 1739SOL     OW 6115   0.030   2.194   5.276
 1739SOL    HW1 6116   6.980   2.192   5.342
 1739SOL    HW2 6117   0.084   2.110   5.285
 1740SOL     OW 6118   6.835   1.916   5.924
 1740SOL    HW1 6119   6.839   2.011   5.957
 1740SOL    HW2 6120   6.742   1.882   5.935
 1741SOL     OW 6121   1.882   0.691   3.905
 1741SOL    HW1 6122   1.886   0.788   3.930
 1741SOL    HW2 6123   1.950   0.672   3.834
 1742SOL     OW 6124   5.309   0.763   5.892
 1742SOL    HW1 6125   5.253   0.699   5.944
 1742SOL    HW2 6126   5.399   0.773   5.935
 1743SOL     OW 6127   1.375   2.536   1.559
 1743SOL    HW1 6128   1.372   2.512   1.656
 1743SOL    HW2 6129   1.465   2.574   1.537
 1744SOL     OW 6130   0.075   1.679   2.508
 1744SOL    HW1 6131   0.025   1.764   2.524
 1744SOL    HW2 6132   0.152   1.696   2.447
 1745SOL     OW 6133   6.270   6.647   3.348
 1745SOL    HW1 6134   6.301   6.678   3.438
 1745SOL    HW2 6135   6.173   6.622   3.353
 1746SOL     OW 6136   1.888   5.091   4.422
 1746SOL    HW1 6137   1.905   5.020   4.491
 1746SOL    HW2 6138   1.908   5.181   4.461
 1747SOL     OW 6139   5.716   2.055   2.474
 1747SOL    HW1 6140   5.670   2.111   2.405
 1747SOL    HW2 6141   5.793   2.007   2.432
 1748SOL     OW 6142   0.784   0.510   4.598
 1748SOL    HW1 6143   0.753   0.581   4.661
 1748SOL    HW2 6144   0.770   0.420   4.639
 1749SOL     OW 6145   2.795   0.317   4.935
 1749SOL    HW1 6146   2.751   0.364   5.011
 1749SOL    HW2 6147   2.833   0.384   4.872
 1750SOL     OW 6148   5.324   6.805   3.955
 1750SOL    HW1 6149   5.279   6.790   4.042
 1750SOL    HW2 6150   5.389   6.881   3.963
 1751SOL     OW 6151   4.292   6.170   4.957
 1751SOL    HW1 6152   4.378   6.148   5.004
 1751SOL    HW2 6153   4.307   6.165   4.858
 1752SOL     OW 6154   0.034   2.393   1.533
 1752SOL    HW1 6155   0.057   2.488   1.552
 1752SOL    HW2 6156   7.002   2.357   1.606
 1753SOL     OW 6157   0.236   1.132   0.555
 1753SOL    HW1 6158   0.214   1.069   0.629
 1753SOL    HW2 6159   0.262   1.221   0.593
 1754SOL     OW 6160   2.148   3.876   1.151
 1754SOL    HW1 6161   2.151   3.974   1.132
 1754SOL    HW2 6162   2.078   3.858   1.221
 1755SOL     OW 6163   6.823   6.157   2.044
 1755SOL    HW1 6164   6.900   6.187   2.101
 1755SOL    HW2 6165   6.739   6.159   2.099
 1756SOL     OW 6166   4.424   5.452   6.065
 1756SOL    HW1 6167   4.443   5.389   6.140
 1756SOL    HW2 6168   4.366   5.527   6.098
 1757SOL     OW 6169   2.960   5.323   4.786
 1757SOL    HW1 6170   3.003   5.246   4.833
 1757SOL    HW2 6171   2.921   5.291   4.699
 1758SOL     OW 6172   1.643   0.384   4.198
 1758SOL    HW1 6173   1.639   0.437   4.113
 1758SOL    HW2 6174   1.556   0.393   4.247
 1759SOL     OW 6175   2.003   5.334   6.315
 1759SOL    HW1 6176   2.009   5.428   6.281
 1759SOL    HW2 6177   2.074   5.279   6.270
 1760SOL     OW 6178   5.608   1.989   2.871
 1760SOL    HW1 6179   5.524   1.956   2.828
 1760SOL    HW2 6180   5.604   1.973   2.969
 1761SOL     OW 6181   0.315   0.368   0.317
 1761SOL    HW1 6182   0.285   0.327   0.403
 1761SOL    HW2 6183   0.343   0.297   0.253
 1762SOL     OW 6184   6.901   1.323   5.336
 1762SOL    HW1 6185   6.816   1.290   5.295
 1762SOL    HW2 6186   6.896   1.422   5.346
 1763SOL     OW 6187   1.330   3.809   3.595
 1763SOL    HW1 6188   1.257   3.875   3.611
 1763SOL    HW2 6189   1.418   3.856   3.594
 1764SOL     OW 6190   2.067   3.816   2.477
 1764SOL    HW1 6191   2.100   3.725   2.454
 1764SOL    HW2 6192   1.970   3.812   2.501
 1765SOL     OW 6193   3.588   1.087   1.202
 1765SOL    HW1 6194   3.655   1.158   1.177
 1765SOL    HW2 6195   3.520   1.127   1.263
 1766SOL     OW 6196   4.923   3.992   2.864
 1766SOL    HW1 6197   4.868   3.928   2.917
 1766SOL    HW2 6198   4.997   3.943   2.819
 1767SOL     OW 6199   0.350   3.449   3.286
 1767SOL    HW1 6200   0.311   3.540   3.272
 1767SOL    HW2 6201   0.412   3.427   3.210
 1768SOL     OW 6202   4.362   1.541   5.631
 1768SOL    HW1 6203   4.305   1.617   5.601
 1768SOL    HW2 6204   4.425   1.572   5.702
 1769SOL     OW 6205   4.417   2.431   5.727
 1769SOL    HW1 6206   4.382   2.524   5.731
 1769SOL    HW2 6207   4.438   2.398   5.819
 1770SOL     OW 6208   6.340   4.625   4.370
 1770SOL    HW1 6209   6.377   4.662   4.455
 1770SOL    HW2 6210   6.240   4.636   4.369
 1771SOL     OW 6211   2.264   4.883   0.183
 1771SOL    HW1 6212   2.313   4.934   0.254
 1771SOL    HW2 6213   2.249   4.943   0.104
 1772SOL     OW 6214   3.433   0.176   3.408
 1772SOL    HW1 6215   3.401   0.138   3.494
 1772SOL    HW2 6216   3.410   0.113   3.333
 1773SOL     OW 6217   3.411   3.977   6.953
 1773SOL    HW1 6218   3.446   4.068   6.932
 1773SOL    HW2 6219   3.428   3.916   6.876
 1774SOL     OW 6220   4.392   0.462   1.861
 1774SOL    HW1 6221   4.441   0.541   1.825
 1774SOL    HW2 6222   4.457   0.391   1.888
 1775SOL     OW 6223   1.562   5.777   4.338
 1775SOL    HW1 6224   1.463   5.778   4.324
 1775SOL    HW2 6225   1.608   5.756   4.251
 1776SOL     OW 6226   3.992   0.945   5.673
 1776SOL    HW1 6227   4.083   0.959   5.712
 1776SOL    HW2 6228   3.985   0.851   5.640
 1777SOL     OW 6229   3.122   5.568   5.391
 1777SOL    HW1 6230   3.092   5.655   5.351
 1777SOL    HW2 6231   3.219   5.575   5.414
 1778SOL     OW 6232   4.197   2.320   4.502
 1778SOL    HW1 6233   4.159   2.287   4.415
 1778SOL    HW2 6234   4.276   2.379   4.484
 1779SOL     OW 6235   4.479   2.150   4.484
 1779SOL    HW1 6236   4.397   2.113   4.529
 1779SOL    HW2 6237   4.507   2.235   4.530
 1780SOL     OW 6238   2.452   4.497   5.693
 1780SOL    HW1 6239   2.517   4.496   5.617
 1780SOL    HW2 6240   2.495   4.461   5.775
 1781SOL     OW 6241   4.704   5.557   3.650
 1781SOL    HW1 6242   4.736   5.475   3.603
 1781SOL    HW2 6243   4.605   5.555   3.657
 1782SOL     OW 6244   2.765   1.670   3.057
 1782SOL    HW1 6245   2.853   1.669   3.103
 1782SOL    HW2 6246   2.764   1.600   2.985
 1783SOL     OW 6247   1.990   3.100   6.407
 1783SOL    HW1 6248   1.950   3.008   6.402
 1783SOL    HW2 6249   2.016   3.119   6.501
 1784SOL     OW 6250   2.739   0.677   3.402
 1784SOL    HW1 6251   2.760   0.621   3.482
 1784SOL    HW2 6252   2.801   0.756   3.400
 1785SOL     OW 6253   5.327   5.760   3.530
 1785SOL    HW1 6254   5.297   5.665   3.540
 1785SOL    HW2 6255   5.417   5.770   3.572
 1786SOL     OW 6256   1.528   2.825   0.733
 1786SOL    HW1 6257   1.608   2.885   0.739
 1786SOL    HW2 6258   1.464   2.848   0.807
 1787SOL     OW 6259   1.614   1.120   4.747
 1787SOL    HW1 6260   1.545   1.189   4.772
 1787SOL    HW2 6261   1.640   1.133   4.652
 1788SOL     OW 6262   3.113   3.800   0.213
 1788SOL    HW1 6263   3.100   3.713   0.166
 1788SOL    HW2 6264   3.206   3.833   0.198
 1789SOL     OW 6265   6.262   2.263   2.227
 1789SOL    HW1 6266   6.328   2.244   2.154
 1789SOL    HW2 6267   6.297   2.226   2.313
 1790SOL     OW 6268   4.048   5.946   4.094
 1790SOL    HW1 6269   4.141   5.933   4.058
 1790SOL    HW2 6270   4.020   6.041   4.081
 1791SOL     OW 6271   0.667   2.117   4.823
 1791SOL    HW1 6272   0.667   2.217   4.811
 1791SOL    HW2 6273   0.573   2.086   4.840
 1792SOL     OW 6274   0.346   1.687   4.528
 1792SOL    HW1 6275   0.325   1.764   4.467
 1792SOL    HW2 6276   0.445   1.682   4.541
 1793SOL     OW 6277   6.862   0.185   3.470
 1793SOL    HW1 6278   6.777   0.238   3.466
 1793SOL    HW2 6279   6.842   0.092   3.499
 1794SOL     OW 6280   4.891   6.325   6.266
 1794SOL    HW1 6281   4.961   6.357   6.330
 1794SOL    HW2 6282   4.909   6.230   6.241
 1795SOL     OW 6283   0.270   4.399   2.572
 1795SOL    HW1 6284   0.180   4.392   2.614
 1795SOL    HW2 6285   0.330   4.455   2.629
 1796SOL     OW 6286   1.869   1.459   4.501
 1796SOL    HW1 6287   1.887   1.499   4.590
 1796SOL    HW2 6288   1.885   1.528   4.430
 1797SOL     OW 6289   1.149   0.494   5.937
 1797SOL    HW1 6290   1.195   0.431   5.874
 1797SOL    HW2 6291   1.106   0.443   6.011
 1798SOL     OW 6292   4.656   2.827   5.321
 1798SOL    HW1 6293   4.687   2.921   5.311
 1798SOL    HW2 6294   4.556   2.826   5.324
 1799SOL     OW 6295   6.332   1.870   6.735
 1799SOL    HW1 6296   6.326   1.958   6.688
 1799SOL    HW2 6297   6.257   1.861   6.800
 1800SOL     OW 6298   4.807   4.866   3.846
 1800SOL    HW1 6299   4.747   4.788   3.830
 1800SOL    HW2 6300   4.859   4.887   3.763
 1801SOL     OW 6301   0.793   1.516   2.596
 1801SOL    HW1 6302   0.778   1.599   2.542
 1801SOL    HW2 6303   0.762   1.436   2.544
 1802SOL     OW 6304   5.661   4.941   2.837
 1802SOL    HW1 6305   5.585   4.887   2.874
 1802SOL    HW2 6306   5.737   4.939   2.902
 1803SOL     OW 6307   6.894   5.951   0.666
 1803SOL    HW1 6308   6.929   6.036   0.706
 1803SOL    HW2 6309   6.937   5.873   0.711
 1804SOL     OW 6310   3.021   3.078   5.771
 1804SOL    HW1 6311   3.005   3.174   5.794
 1804SOL    HW2 6312   2.933   3.030   5.766
 1805SOL     OW 6313   0.731   4.039   5.986
 1805SOL    HW1 6314   0.703   4.025   5.891
 1805SOL    HW2 6315   0.735   4.137   6.005
 1806SOL     OW 6316   1.605   1.249   1.716
 1806SOL    HW1 6317   1.689   1.228   1.665
 1806SOL    HW2 6318   1.551   1.317   1.666
 1807SOL     OW 6319   6.027   2.098   6.692
 1807SOL    HW1 6320   6.119   2.085   6.655
 1807SOL    HW2 6321   6.014   2.194   6.717
 1808SOL     OW 6322   6.590   3.930   4.715
 1808SOL    HW1 6323   6.514   3.938   4.651
 1808SOL    HW2 6324   6.592   3.839   4.755
 1809SOL     OW 6325   1.944   2.614   4.599
 1809SOL    HW1 6326   1.867   2.629   4.661
 1809SOL    HW2 6327   2.026   2.658   4.636
 1810SOL     OW 6328   2.290   0.344   5.348
 1810SOL    HW1 6329   2.219   0.293   5.397
 1810SOL    HW2 6330   2.379   0.322   5.386
 1811SOL     OW 6331   3.956   4.879   3.253
 1811SOL    HW1 6332   4.048   4.869   3.291
 1811SOL    HW2 6333   3.958   4.857   3.155
 1812SOL     OW 6334   4.435   0.118   5.950
 1812SOL    HW1 6335   4.450   0.126   5.852
 1812SOL    HW2 6336   4.487   0.189   5.998
 1813SOL     OW 6337   4.556   4.951   1.379
 1813SOL    HW1 6338   4.596   4.909   1.297
 1813SOL    HW2 6339   4.602   4.915   1.460
 1814SOL     OW 6340   6.608   0.622   0.178
 1814SOL    HW1 6341   6.678   0.693   0.174
 1814SOL    HW2 6342   6.645   0.536   0.143
 1815SOL     OW 6343   6.521   1.361   1.597
 1815SOL    HW1 6344   6.566   1.301   1.531
 1815SOL    HW2 6345   6.547   1.335   1.690
 1816SOL     OW 6346   1.746   4.320   0.893
 1816SOL    HW1 6347   1.711   4.344   0.983
 1816SOL    HW2 6348   1.845   4.310   0.897
 1817SOL     OW 6349   3.836   6.652   3.173
 1817SOL    HW1 6350   3.779   6.721   3.128
 1817SOL    HW2 6351   3.792   6.624   3.259
 1818SOL     OW 6352   2.625   6.054   1.368
 1818SOL    HW1 6353   2.592   6.148   1.381
 1818SOL    HW2 6354   2.547   5.993   1.356
 1819SOL     OW 6355   1.067   5.487   1.789
 1819SOL    HW1 6356   1.073   5.478   1.889
 1819SOL    HW2 6357   1.072   5.584   1.764
 1820SOL     OW 6358   2.508   0.231   2.276
 1820SOL    HW1 6359   2.607   0.231   2.287
 1820SOL    HW2 6360   2.479   0.147   2.230
 1821SOL     OW 6361   2.446   0.458   1.970
 1821SOL    HW1 6362   2.396   0.537   1.937
 1821SOL    HW2 6363   2.491   0.481   2.057
 1822SOL     OW 6364   1.120   3.138   0.648
 1822SOL    HW1 6365   1.114   3.234   0.677
 1822SOL    HW2 6366   1.212   3.119   0.615
 1823SOL     OW 6367   3.038   5.819   2.972
 1823SOL    HW1 6368   2.952   5.868   2.987
 1823SOL    HW2 6369   3.083   5.856   2.890
 1824SOL     OW 6370   3.670   3.604   0.750
 1824SOL    HW1 6371   3.607   3.543   0.701
 1824SOL    HW2 6372   3.687   3.567   0.842
 1825SOL     OW 6373   2.056   2.225   4.493
 1825SOL    HW1 6374   1.961   2.216   4.465
 1825SOL    HW2 6375   2.095   2.135   4.512
 1826SOL     OW 6376   3.563   1.643   1.407
 1826SOL    HW1 6377   3.637   1.580   1.430
 1826SOL    HW2 6378   3.595   1.737   1.414
 1827SOL     OW 6379   6.850   5.536   0.918
 1827SOL    HW1 6380   6.758   5.526   0.955
 1827SOL    HW2 6381   6.898   5.448   0.923
 1828SOL     OW 6382   1.817   2.108   0.583
 1828SOL    HW1 6383   1.826   2.132   0.486
 1828SOL    HW2 6384   1.878   2.165   0.638
 1829SOL     OW 6385   2.916   0.919   3.126
 1829SOL    HW1 6386   2.911   0.955   3.220
 1829SOL    HW2 6387   3.010   0.893   3.106
 1830SOL     OW 6388   5.746   6.111   3.711
 1830SOL    HW1 6389   5.840   6.079   3.698
 1830SOL    HW2 6390   5.724   6.109   3.809
 1831SOL     OW 6391   6.009   0.326   2.034
 1831SOL    HW1 6392   6.074   0.381   2.086
 1831SOL    HW2 6393   6.017   0.230   2.062
 1832SOL     OW 6394   4.564   1.619   1.165
 1832SOL    HW1 6395   4.525   1.581   1.249
 1832SOL    HW2 6396   4.622   1.550   1.121
 1833SOL     OW 6397   5.291   0.659   0.549
 1833SOL    HW1 6398   5.265   0.693   0.639
 1833SOL    HW2 6399   5.328   0.734   0.494
 1834SOL     OW 6400   2.270   3.609   0.585
 1834SOL    HW1 6401   2.327   3.670   0.530
 1834SOL    HW2 6402   2.198   3.571   0.528
 1835SOL     OW 6403   0.282   4.747   2.298
 1835SOL    HW1 6404   0.326   4.790   2.219
 1835SOL    HW2 6405   0.295   4.648   2.294
 1836SOL     OW 6406   5.321   1.678   1.550
 1836SOL    HW1 6407   5.385   1.756   1.549
 1836SOL    HW2 6408   5.370   1.596   1.522
 1837SOL     OW 6409   0.881   0.018   4.566
 1837SOL    HW1 6410   0.880   0.095   4.629
 1837SOL    HW2 6411   0.902   0.051   4.474
 1838SOL     OW 6412   6.438   1.693   5.626
 1838SOL    HW1 6413   6.515   1.639   5.591
 1838SOL    HW2 6414   6.353   1.660   5.585
 1839SOL     OW 6415   6.452   1.836   5.061
 1839SOL    HW1 6416   6.359   1.799   5.068
 1839SOL    HW2 6417   6.493   1.840   5.152
 1840SOL     OW 6418   3.942   0.042   1.387
 1840SOL    HW1 6419   3.999   0.124   1.385
 1840SOL    HW2 6420   3.909   0.022   1.295
 1841SOL     OW 6421   1.758   1.327   3.699
 1841SOL    HW1 6422   1.675   1.382   3.709
 1841SOL    HW2 6423   1.813   1.332   3.782
 1842SOL     OW 6424   1.413   5.724   0.177
 1842SOL    HW1 6425   1.372   5.674   0.254
 1842SOL    HW2 6426   1.342   5.775   0.129
 1843SOL     OW 6427   6.242   1.770   3.734
 1843SOL    HW1 6428   6.340   1.762   3.718
 1843SOL    HW2 6429   6.219   1.865   3.755
 1844SOL     OW 6430   3.374   6.507   5.162
 1844SOL    HW1 6431   3.326   6.469   5.241
 1844SOL    HW2 6432   3.419   6.433   5.112
 1845SOL     OW 6433   3.535   0.380   4.254
 1845SOL    HW1 6434   3.594   0.453   4.290
 1845SOL    HW2 6435   3.451   0.420   4.218
 1846SOL     OW 6436   3.282   1.415   2.026
 1846SOL    HW1 6437   3.327   1.495   2.065
 1846SOL    HW2 6438   3.276   1.425   1.926
 1847SOL     OW 6439   1.456   0.674   6.693
 1847SOL    HW1 6440   1.417   0.762   6.720
 1847SOL    HW2 6441   1.425   0.603   6.755
 1848SOL     OW 6442   1.687   6.466   3.645
 1848SOL    HW1 6443   1.691   6.396   3.717
 1848SOL    HW2 6444   1.691   6.557   3.687
 1849SOL     OW 6445   4.068   2.709   1.634
 1849SOL    HW1 6446   4.030   2.673   1.549
 1849SOL    HW2 6447   4.150   2.762   1.615
 1850SOL     OW 6448   0.458   3.008   2.074
 1850SOL    HW1 6449   0.360   3.016   2.055
 1850SOL    HW2 6450   0.477   2.917   2.113
 1851SOL     OW 6451   0.003   2.630   0.463
 1851SOL    HW1 6452   0.090   2.680   0.470
 1851SOL    HW2 6453   6.968   2.658   0.537
 1852SOL     OW 6454   6.639   4.305   2.319
 1852SOL    HW1 6455   6.577   4.243   2.271
 1852SOL    HW2 6456   6.610   4.399   2.303
 1853SOL     OW 6457   0.639   2.608   3.032
 1853SOL    HW1 6458   0.686   2.530   2.988
 1853SOL    HW2 6459   0.698   2.688   3.028
 1854SOL     OW 6460   2.704   5.551   3.278
 1854SOL    HW1 6461   2.748   5.518   3.194
 1854SOL    HW2 6462   2.751   5.634   3.310
 1855SOL     OW 6463   5.209   2.842   5.264
 1855SOL    HW1 6464   5.293   2.889   5.292
 1855SOL    HW2 6465   5.184   2.873   5.172
 1856SOL     OW 6466   5.757   3.982   5.940
 1856SOL    HW1 6467   5.837   4.004   5.996
 1856SOL    HW2 6468   5.787   3.956   5.848
 1857SOL     OW 6469   4.185   2.147   6.253
 1857SOL    HW1 6470   4.174   2.241   6.286
 1857SOL    HW2 6471   4.230   2.092   6.323
 1858SOL     OW 6472   5.461   4.189   3.310
 1858SOL    HW1 6473   5.488   4.117   3.246
 1858SOL    HW2 6474   5.384   4.158   3.366
 1859SOL     OW 6475   5.645   1.821   3.955
 1859SOL    HW1 6476   5.577   1.807   3.883
 1859SOL    HW2 6477   5.659   1.919   3.969
 1860SOL     OW 6478   0.127   0.864   5.452
 1860SOL    HW1 6479   0.187   0.828   5.381
 1860SOL    HW2 6480   0.089   0.952   5.421
 1861SOL     OW 6481   6.557   6.828   2.167
 1861SOL    HW1 6482   6.523   6.734   2.175
 1861SOL    HW2 6483   6.514   6.872   2.087
 1862SOL     OW 6484   3.369   6.844   6.426
 1862SOL    HW1 6485   3.433   6.890   6.487
 1862SOL    HW2 6486   3.387   6.870   6.331
 1863SOL     OW 6487   0.637   3.010   3.783
 1863SOL    HW1 6488   0.578   2.990   3.861
 1863SOL    HW2 6489   0.676   3.102   3.793
 1864SOL     OW 6490   1.392   6.678   5.331
 1864SOL    HW1 6491   1.318   6.707   5.392
 1864SOL    HW2 6492   1.393   6.737   5.251
 1865SOL     OW 6493   3.580   6.930   6.900
 1865SOL    HW1 6494   3.646   6.858   6.881
 1865SOL    HW2 6495   3.612   7.016   6.861
 1866SOL     OW 6496   5.594   4.882   3.517
 1866SOL    HW1 6497   5.568   4.792   3.481
 1866SOL    HW2 6498   5.564   4.954   3.454
 1867SOL     OW 6499   0.575   4.284   6.951
 1867SOL    HW1 6500   0.556   4.262   0.021
 1867SOL    HW2 6501   0.654   4.345   6.945
 1868SOL     OW 6502   4.806   3.377   6.225
 1868SOL    HW1 6503   4.799   3.402   6.128
 1868SOL    HW2 6504   4.714   3.368   6.264
 1869SOL     OW 6505   6.328   3.556   5.103
 1869SOL    HW1 6506   6.312   3.566   5.005
 1869SOL    HW2 6507   6.242   3.572   5.153
 1870SOL     OW 6508   1.799   2.623   4.886
 1870SOL    HW1 6509   1.847   2.551   4.936
 1870SOL    HW2 6510   1.854   2.706   4.885
 1871SOL     OW 6511   0.823   0.806   0.136
 1871SOL    HW1 6512   0.904   0.860   0.116
 1871SOL    HW2 6513   0.769   0.850   0.208
 1872SOL     OW 6514   4.262   2.004   6.910
 1872SOL    HW1 6515   4.334   2.065   6.944
 1872SOL    HW2 6516   4.252   2.016   6.812
 1873SOL     OW 6517   5.618   1.486   5.706
 1873SOL    HW1 6518   5.598   1.553   5.635
 1873SOL    HW2 6519   5.618   1.394   5.667
 1874SOL     OW 6520   2.434   1.226   0.395
 1874SOL    HW1 6521   2.350   1.273   0.422
 1874SOL    HW2 6522   2.422   1.185   0.305
 1875SOL     OW 6523   0.152   0.610   0.519
 1875SOL    HW1 6524   0.209   0.692   0.523
 1875SOL    HW2 6525   0.211   0.529   0.525
 1876SOL     OW 6526   3.215   6.136   6.147
 1876SOL    HW1 6527   3.213   6.141   6.047
 1876SOL    HW2 6528   3.206   6.228   6.185
 1877SOL     OW 6529   0.616   1.961   2.920
 1877SOL    HW1 6530   0.530   1.953   2.868
 1877SOL    HW2 6531   0.670   1.878   2.909
 1878SOL     OW 6532   6.530   3.208   4.136
 1878SOL    HW1 6533   6.628   3.193   4.121
 1878SOL    HW2 6534   6.514   3.302   4.164
 1879SOL     OW 6535   1.568   5.274   4.003
 1879SOL    HW1 6536   1.643   5.287   4.068
 1879SOL    HW2 6537   1.493   5.337   4.025
 1880SOL     OW 6538   6.353   1.371   4.107
 1880SOL    HW1 6539   6.414   1.294   4.087
 1880SOL    HW2 6540   6.388   1.454   4.063
 1881SOL     OW 6541   0.464   3.168   2.942
 1881SOL    HW1 6542   0.382   3.218   2.913
 1881SOL    HW2 6543   0.465   3.161   3.042
 1882SOL     OW 6544   0.924   4.173   0.216
 1882SOL    HW1 6545   0.851   4.123   0.263
 1882SOL    HW2 6546   0.993   4.202   0.283
 1883SOL     OW 6547   1.394   2.989   3.787
 1883SOL    HW1 6548   1.355   2.913   3.736
 1883SOL    HW2 6549   1.322   3.039   3.835
 1884SOL     OW 6550   5.887   2.893   6.887
 1884SOL    HW1 6551   5.809   2.847   6.845
 1884SOL    HW2 6552   5.927   2.957   6.821
 1885SOL     OW 6553   0.918   2.329   6.239
 1885SOL    HW1 6554   0.877   2.241   6.215
 1885SOL    HW2 6555   0.915   2.390   6.160
 1886SOL     OW 6556   2.264   0.922   1.895
 1886SOL    HW1 6557   2.293   0.942   1.802
 1886SOL    HW2 6558   2.319   0.847   1.933
 1887SOL     OW 6559   1.783   5.744   6.493
 1887SOL    HW1 6560   1.755   5.651   6.517
 1887SOL    HW2 6561   1.866   5.768   6.544
 1888SOL     OW 6562   2.958   2.543   6.880
 1888SOL    HW1 6563   2.995   2.454   6.854
 1888SOL    HW2 6564   3.031   2.612   6.878
 1889SOL     OW 6565   5.706   3.088   6.676
 1889SOL    HW1 6566   5.627   3.098   6.736
 1889SOL    HW2 6567   5.769   3.164   6.692
 1890SOL     OW 6568   1.392   5.536   4.784
 1890SOL    HW1 6569   1.483   5.495   4.773
 1890SOL    HW2 6570   1.347   5.495   4.864
 1891SOL     OW 6571   6.034   2.524   3.221
 1891SOL    HW1 6572   5.948   2.476   3.238
 1891SOL    HW2 6573   6.071   2.559   3.307
 1892SOL     OW 6574   3.474   0.951   0.663
 1892SOL    HW1 6575   3.418   1.032   0.680
 1892SOL    HW2 6576   3.567   0.980   0.638
 1893SOL     OW 6577   2.998   2.901   0.127
 1893SOL    HW1 6578   2.913   2.936   0.168
 1893SOL    HW2 6579   2.997   2.920   0.029
 1894SOL     OW 6580   3.777   3.717   3.382
 1894SOL    HW1 6581   3.746   3.628   3.347
 1894SOL    HW2 6582   3.707   3.756   3.441
 1895SOL     OW 6583   6.096   1.302   2.278
 1895SOL    HW1 6584   6.121   1.245   2.200
 1895SOL    HW2 6585   6.002   1.282   2.305
 1896SOL     OW 6586   0.423   0.587   1.934
 1896SOL    HW1 6587   0.443   0.516   1.866
 1896SOL    HW2 6588   0.474   0.670   1.911
 1897SOL     OW 6589   1.548   4.754   2.509
 1897SOL    HW1 6590   1.465   4.724   2.461
 1897SOL    HW2 6591   1.524   4.785   2.600
 1898SOL     OW 6592   3.435   5.072   2.748
 1898SOL    HW1 6593   3.466   5.058   2.841
 1898SOL    HW2 6594   3.339   5.048   2.740
 1899SOL     OW 6595   1.071   1.763   2.438
 1899SOL    HW1 6596   1.068   1.767   2.338
 1899SOL    HW2 6597   1.095   1.670   2.468
 1900SOL     OW 6598   1.365   0.311   6.354
 1900SOL    HW1 6599   1.366   0.367   6.437
 1900SOL    HW2 6600   1.459   0.295   6.324
 1901SOL     OW 6601   2.148   1.538   1.577
 1901SOL    HW1 6602   2.226   1.600   1.563
 1901SOL    HW2 6603   2.072   1.589   1.617
 1902SOL     OW 6604   2.509   2.085   4.971
 1902SOL    HW1 6605   2.569   2.096   5.051
 1902SOL    HW2 6606   2.562   2.047   4.895
 1903SOL     OW 6607   6.541   3.344   3.548
 1903SOL    HW1 6608   6.536   3.319   3.645
 1903SOL    HW2 6609   6.469   3.296   3.497
 1904SOL     OW 6610   5.991   6.660   4.889
 1904SOL    HW1 6611   6.032   6.571   4.912
 1904SOL    HW2 6612   5.957   6.657   4.795
 1905SOL     OW 6613   1.738   0.915   4.172
 1905SOL    HW1 6614   1.677   0.847   4.131
 1905SOL    HW2 6615   1.734   0.999   4.119
 1906SOL     OW 6616   2.325   0.224   5.099
 1906SOL    HW1 6617   2.235   0.183   5.083
 1906SOL    HW2 6618   2.321   0.282   5.181
 1907SOL     OW 6619   3.487   6.555   3.231
 1907SOL    HW1 6620   3.534   6.470   3.207
 1907SOL    HW2 6621   3.458   6.551   3.327
 1908SOL     OW 6622   3.830   0.023   5.205
 1908SOL    HW1 6623   3.885   0.016   5.122
 1908SOL    HW2 6624   3.831   6.961   5.254
 1909SOL     OW 6625   0.663   4.132   2.704
 1909SOL    HW1 6626   0.704   4.103   2.791
 1909SOL    HW2 6627   0.687   4.068   2.632
 1910SOL     OW 6628   7.022   2.958   6.332
 1910SOL    HW1 6629   6.933   2.974   6.289
 1910SOL    HW2 6630   0.016   3.033   6.395
 1911SOL     OW 6631   5.963   3.331   5.076
 1911SOL    HW1 6632   6.005   3.337   4.986
 1911SOL    HW2 6633   5.937   3.423   5.107
 1912SOL     OW 6634   3.067   6.723   1.222
 1912SOL    HW1 6635   3.116   6.748   1.138
 1912SOL    HW2 6636   3.064   6.623   1.231
 1913SOL     OW 6637   1.385   5.967   5.291
 1913SOL    HW1 6638   1.404   5.878   5.335
 1913SOL    HW2 6639   1.409   5.962   5.194
 1914SOL     OW 6640   3.801   2.937   6.573
 1914SOL    HW1 6641   3.757   3.011   6.624
 1914SOL    HW2 6642   3.757   2.927   6.484
 1915SOL     OW 6643   3.715   2.094   4.989
 1915SOL    HW1 6644   3.704   2.143   5.075
 1915SOL    HW2 6645   3.665   2.142   4.917
 1916SOL     OW 6646   3.664   5.685   1.430
 1916SOL    HW1 6647   3.619   5.596   1.429
 1916SOL    HW2 6648   3.629   5.740   1.506
 1917SOL     OW 6649   3.000   3.106   5.010
 1917SOL    HW1 6650   2.910   3.063   5.011
 1917SOL    HW2 6651   3.064   3.052   5.064
 1918SOL     OW 6652   0.727   1.099   5.765
 1918SOL    HW1 6653   0.742   1.042   5.846
 1918SOL    HW2 6654   0.684   1.185   5.792
 1919SOL     OW 6655   2.736   0.772   1.418
 1919SOL    HW1 6656   2.734   0.701   1.348
 1919SOL    HW2 6657   2.643   0.795   1.445
 1920SOL     OW 6658   1.788   4.690   2.382
 1920SOL    HW1 6659   1.856   4.763   2.388
 1920SOL    HW2 6660   1.705   4.718   2.429
 1921SOL     OW 6661   0.853   4.854   0.032
 1921SOL    HW1 6662   0.877   4.937   0.082
 1921SOL    HW2 6663   0.911   4.847   6.976
 1922SOL     OW 6664   2.169   4.346   1.088
 1922SOL    HW1 6665   2.109   4.359   1.167
 1922SOL    HW2 6666   2.208   4.254   1.090
 1923SOL     OW 6667   2.807   0.594   5.650
 1923SOL    HW1 6668   2.781   0.649   5.571
 1923SOL    HW2 6669   2.874   0.643   5.705
 1924SOL     OW 6670   4.453   5.466   1.414
 1924SOL    HW1 6671   4.482   5.528   1.341
 1924SOL    HW2 6672   4.517   5.473   1.491
 1925SOL     OW 6673   1.630   4.327   0.231
 1925SOL    HW1 6674   1.639   4.228   0.243
 1925SOL    HW2 6675   1.535   4.354   0.250
 1926SOL     OW 6676   2.266   6.769   3.472
 1926SOL    HW1 6677   2.320   6.799   3.550
 1926SOL    HW2 6678   2.214   6.846   3.435
 1927SOL     OW 6679   2.943   4.372   6.518
 1927SOL    HW1 6680   3.010   4.299   6.525
 1927SOL    HW2 6681   2.852   4.337   6.543
 1928SOL     OW 6682   6.497   4.430   5.905
 1928SOL    HW1 6683   6.401   4.443   5.929
 1928SOL    HW2 6684   6.534   4.351   5.954
 1929SOL     OW 6685   0.849   5.045   1.564
 1929SOL    HW1 6686   0.863   5.021   1.660
 1929SOL    HW2 6687   0.880   5.138   1.548
 1930SOL     OW 6688   3.613   3.733   6.433
 1930SOL    HW1 6689   3.672   3.668   6.481
 1930SOL    HW2 6690   3.627   3.825   6.470
 1931SOL     OW 6691   0.317   3.419   2.906
 1931SOL    HW1 6692   0.233   3.368   2.924
 1931SOL    HW2 6693   0.296   3.516   2.896
 1932SOL     OW 6694   4.909   3.335   3.070
 1932SOL    HW1 6695   4.895   3.282   3.154
 1932SOL    HW2 6696   4.879   3.429   3.084
 1933SOL     OW 6697   1.863   3.817   0.680
 1933SOL    HW1 6698   1.921   3.799   0.759
 1933SOL    HW2 6699   1.811   3.735   0.657
 1934SOL     OW 6700   0.353   0.184   5.107
 1934SOL    HW1 6701   0.254   0.173   5.105
 1934SOL    HW2 6702   0.393   0.114   5.166
 1935SOL     OW 6703   4.164   6.167   3.587
 1935SOL    HW1 6704   4.135   6.248   3.535
 1935SOL    HW2 6705   4.259   6.177   3.614
 1936SOL     OW 6706   5.871   3.678   3.918
 1936SOL    HW1 6707   5.819   3.748   3.868
 1936SOL    HW2 6708   5.939   3.637   3.857
 1937SOL     OW 6709   3.533   7.005   0.975
 1937SOL    HW1 6710   3.563   0.075   0.971
 1937SOL    HW2 6711   3.438   7.002   1.006
 1938SOL     OW 6712   2.255   1.801   1.676
 1938SOL    HW1 6713   2.244   1.772   1.771
 1938SOL    HW2 6714   2.320   1.876   1.671
 1939SOL     OW 6715   6.695   0.533   4.699
 1939SOL    HW1 6716   6.655   0.441   4.698
 1939SOL    HW2 6717   6.790   0.527   4.730
 1940SOL     OW 6718   5.210   4.740   0.627
 1940SOL    HW1 6719   5.187   4.655   0.675
 1940SOL    HW2 6720   5.245   4.719   0.536
 1941SOL     OW 6721   0.645   4.098   4.455
 1941SOL    HW1 6722   0.739   4.120   4.481
 1941SOL    HW2 6723   0.612   4.022   4.512
 1942SOL     OW 6724   5.621   1.215   1.472
 1942SOL    HW1 6725   5.635   1.205   1.571
 1942SOL    HW2 6726   5.706   1.196   1.424
 1943SOL     OW 6727   2.105   6.344   3.566
 1943SOL    HW1 6728   2.188   6.298   3.533
 1943SOL    HW2 6729   2.075   6.300   3.651
 1944SOL     OW 6730   6.280   2.932   0.208
 1944SOL    HW1 6731   6.364   2.883   0.231
 1944SOL    HW2 6732   6.207   2.903   0.270
 1945SOL     OW 6733   4.170   5.316   0.664
 1945SOL    HW1 6734   4.158   5.344   0.759
 1945SOL    HW2 6735   4.267   5.292   0.649
 1946SOL     OW 6736   6.494   6.709   0.774
 1946SOL    HW1 6737   6.397   6.721   0.751
 1946SOL    HW2 6738   6.540   6.797   0.767
 1947SOL     OW 6739   4.633   6.303   4.561
 1947SOL    HW1 6740   4.720   6.314   4.513
 1947SOL    HW2 6741   4.562   6.352   4.511
 1948SOL     OW 6742   5.853   5.325   3.841
 1948SOL    HW1 6743   5.781   5.361   3.781
 1948SOL    HW2 6744   5.904   5.401   3.881
 1949SOL     OW 6745   3.526   4.268   6.338
 1949SOL    HW1 6746   3.504   4.174   6.310
 1949SOL    HW2 6747   3.595   4.266   6.410
 1950SOL     OW 6748   3.999   3.643   0.447
 1950SOL    HW1 6749   4.088   3.645   0.403
 1950SOL    HW2 6750   3.952   3.558   0.424
 1951SOL     OW 6751   5.879   3.663   6.882
 1951SOL    HW1 6752   5.891   3.568   6.912
 1951SOL    HW2 6753   5.819   3.665   6.802
 1952SOL     OW 6754   4.950   3.406   0.985
 1952SOL    HW1 6755   4.984   3.487   0.937
 1952SOL    HW2 6756   4.850   3.408   0.987
 1953SOL     OW 6757   6.100   1.908   5.398
 1953SOL    HW1 6758   6.182   1.965   5.401
 1953SOL    HW2 6759   6.037   1.936   5.470
 1954SOL     OW 6760   6.587   0.868   2.747
 1954SOL    HW1 6761   6.656   0.797   2.757
 1954SOL    HW2 6762   6.536   0.877   2.832
 1955SOL     OW 6763   0.418   1.338   2.888
 1955SOL    HW1 6764   0.510   1.298   2.891
 1955SOL    HW2 6765   0.424   1.432   2.856
 1956SOL     OW 6766   4.936   6.856   2.471
 1956SOL    HW1 6767   4.997   6.791   2.517
 1956SOL    HW2 6768   4.965   6.949   2.491
 1957SOL     OW 6769   5.843   4.550   4.301
 1957SOL    HW1 6770   5.750   4.521   4.323
 1957SOL    HW2 6771   5.864   4.523   4.207
 1958SOL     OW 6772   4.912   1.844   2.030
 1958SOL    HW1 6773   4.989   1.892   2.073
 1958SOL    HW2 6774   4.826   1.881   2.065
 1959SOL     OW 6775   1.182   0.468   4.441
 1959SOL    HW1 6776   1.207   0.442   4.534
 1959SOL    HW2 6777   1.088   0.440   4.422
 1960SOL     OW 6778   6.971   4.321   2.065
 1960SOL    HW1 6779   6.900   4.253   2.081
 1960SOL    HW2 6780   0.030   4.293   2.111
 1961SOL     OW 6781   6.154   4.382   3.848
 1961SOL    HW1 6782   6.213   4.385   3.929
 1961SOL    HW2 6783   6.197   4.325   3.778
 1962SOL     OW 6784   1.131   6.411   3.411
 1962SOL    HW1 6785   1.135   6.483   3.341
 1962SOL    HW2 6786   1.059   6.346   3.387
 1963SOL     OW 6787   0.934   1.989   1.173
 1963SOL    HW1 6788   0.884   1.923   1.117
 1963SOL    HW2 6789   1.032   1.979   1.157
 1964SOL     OW 6790   4.769   4.720   0.832
 1964SOL    HW1 6791   4.744   4.799   0.776
 1964SOL    HW2 6792   4.843   4.746   0.895
 1965SOL     OW 6793   1.858   2.866   4.342
 1965SOL    HW1 6794   1.940   2.818   4.373
 1965SOL    HW2 6795   1.791   2.867   4.416
 1966SOL     OW 6796   0.330   6.004   0.586
 1966SOL    HW1 6797   0.385   6.085   0.606
 1966SOL    HW2 6798   0.314   5.953   0.671
 1967SOL     OW 6799   5.660   2.821   5.821
 1967SOL    HW1 6800   5.741   2.794   5.769
 1967SOL    HW2 6801   5.588   2.852   5.759
 1968SOL     OW 6802   1.371   6.679   5.724
 1968SOL    HW1 6803   1.348   6.776   5.722
 1968SOL    HW2 6804   1.293   6.625   5.693
 1969SOL     OW 6805   0.931   1.529   1.344
 1969SOL    HW1 6806   0.883   1.546   1.258
 1969SOL    HW2 6807   0.949   1.616   1.389
 1970SOL     OW 6808   2.932   6.363   5.956
 1970SOL    HW1 6809   2.853   6.350   5.896
 1970SOL    HW2 6810   3.003   6.295   5.932
 1971SOL     OW 6811   0.664   0.475   6.059
 1971SOL    HW1 6812   0.672   0.570   6.028
 1971SOL    HW2 6813   0.597   0.427   6.003
 1972SOL     OW 6814   5.525   1.805   1.892
 1972SOL    HW1 6815   5.579   1.732   1.851
 1972SOL    HW2 6816   5.582   1.886   1.905
 1973SOL     OW 6817   3.331   3.204   6.948
 1973SOL    HW1 6818   3.234   3.201   6.925
 1973SOL    HW2 6819   3.371   3.291   6.921
 1974SOL     OW 6820   5.818   6.637   5.105
 1974SOL    HW1 6821   5.828   6.542   5.131
 1974SOL    HW2 6822   5.897   6.666   5.051
 1975SOL     OW 6823   1.738   1.646   3.888
 1975SOL    HW1 6824   1.659   1.681   3.938
 1975SOL    HW2 6825   1.818   1.646   3.948
 1976SOL     OW 6826   0.114   6.875   0.254
 1976SOL    HW1 6827   0.163   6.895   0.169
 1976SOL    HW2 6828   0.131   6.780   0.281
 1977SOL     OW 6829   1.941   3.085   4.629
 1977SOL    HW1 6830   1.890   3.101   4.714
 1977SOL    HW2 6831   2.037   3.066   4.651
 1978SOL     OW 6832   1.542   6.012   3.056
 1978SOL    HW1 6833   1.576   6.011   3.150
 1978SOL    HW2 6834   1.509   6.104   3.034
 1979SOL     OW 6835   5.877   4.179   6.486
 1979SOL    HW1 6836   5.904   4.192   6.390
 1979SOL    HW2 6837   5.957   4.150   6.539
 1980SOL     OW 6838   3.505   0.066   4.968
 1980SOL    HW1 6839   3.505   0.060   4.868
 1980SOL    HW2 6840   3.565   7.021   5.006
 1981SOL     OW 6841   6.987   2.829   2.142
 1981SOL    HW1 6842   0.041   2.853   2.197
 1981SOL    HW2 6843   7.015   2.816   2.047
 1982SOL     OW 6844   0.673   4.416   4.209
 1982SOL    HW1 6845   0.634   4.422   4.301
 1982SOL    HW2 6846   0.749   4.351   4.209
 1983SOL     OW 6847   0.848   0.955   2.821
 1983SOL    HW1 6848   0.868   0.980   2.727
 1983SOL    HW2 6849   0.918   0.892   2.856
 1984SOL     OW 6850   4.748   2.070   4.754
 1984SOL    HW1 6851   4.651   2.061   4.775
 1984SOL    HW2 6852   4.800   2.006   4.810
 1985SOL     OW 6853   1.237   6.274   2.591
 1985SOL    HW1 6854   1.276   6.210   2.525
 1985SOL    HW2 6855   1.311   6.318   2.642
 1986SOL     OW 6856   2.370   1.150   0.140
 1986SOL    HW1 6857   2.438   1.102   0.085
 1986SOL    HW2 6858   2.281   1.106   0.127
 1987SOL     OW 6859   1.728   2.606   2.794
 1987SOL    HW1 6860   1.786   2.670   2.744
 1987SOL    HW2 6861   1.784   2.531   2.830
 1988SOL     OW 6862   5.913   3.644   0.746
 1988SOL    HW1 6863   5.985   3.607   0.805
 1988SOL    HW2 6864   5.949   3.655   0.654
 1989SOL     OW 6865   2.246   5.376   5.287
 1989SOL    HW1 6866   2.193   5.449   5.243
 1989SOL    HW2 6867   2.341   5.382   5.256
 1990SOL     OW 6868   3.761   6.070   0.566
 1990SOL    HW1 6869   3.730   6.139   0.501
 1990SOL    HW2 6870   3.690   6.056   0.635
 1991SOL     OW 6871   2.806   5.338   7.015
 1991SOL    HW1 6872   2.743   5.373   0.059
 1991SOL    HW2 6873   2.764   5.260   6.968
 1992SOL     OW 6874   0.416   0.976   0.303
 1992SOL    HW1 6875   0.359   0.949   0.225
 1992SOL    HW2 6876   0.391   1.068   0.332
 1993SOL     OW 6877   3.512   2.316   5.446
 1993SOL    HW1 6878   3.426   2.353   5.411
 1993SOL    HW2 6879   3.492   2.246   5.515
 1994SOL     OW 6880   0.983   1.782   0.252
 1994SOL    HW1 6881   1.041   1.703   0.229
 1994SOL    HW2 6882   0.888   1.760   0.232
 1995SOL     OW 6883   5.306   2.395   3.578
 1995SOL    HW1 6884   5.329   2.373   3.673
 1995SOL    HW2 6885   5.261   2.316   3.536
 1996SOL     OW 6886   1.912   2.667   0.273
 1996SOL    HW1 6887   1.835   2.728   0.290
 1996SOL    HW2 6888   1.913   2.594   0.341
 1997SOL     OW 6889   3.483   1.690   5.115
 1997SOL    HW1 6890   3.527   1.603   5.134
 1997SOL    HW2 6891   3.405   1.676   5.053
 1998SOL     OW 6892   2.738   4.243   6.894
 1998SOL    HW1 6893   2.664   4.310   6.899
 1998SOL    HW2 6894   2.700   4.153   6.876
 1999SOL     OW 6895   2.531   6.365   6.098
 1999SOL    HW1 6896   2.589   6.283   6.101
 1999SOL    HW2 6897   2.435   6.338   6.087
 2000SOL     OW 6898   4.398   2.760   5.269
 2000SOL    HW1 6899   4.346   2.696   5.212
 2000SOL    HW2 6900   4.335   2.827   5.309
 2001SOL     OW 6901   2.974   0.331   1.539
 2001SOL    HW1 6902   2.977   0.426   1.570
 2001SOL    HW2 6903   3.045   0.317   1.470
 2002SOL     OW 6904   0.373   4.682   0.493
 2002SOL    HW1 6905   0.323   4.704   0.577
 2002SOL    HW2 6906   0.450   4.744   0.483
 2003SOL     OW 6907   5.731   5.600   2.618
 2003SOL    HW1 6908   5.632   5.585   2.607
 2003SOL    HW2 6909   5.753   5.605   2.715
 2004SOL     OW 6910   4.825   1.475   4.845
 2004SOL    HW1 6911   4.798   1.453   4.751
 2004SOL    HW2 6912   4.759   1.539   4.885
 2005SOL     OW 6913   0.351   5.169   0.075
 2005SOL    HW1 6914   0.327   5.094   0.137
 2005SOL    HW2 6915   0.447   5.162   0.050
 2006SOL     OW 6916   5.890   0.124   3.260
 2006SOL    HW1 6917   5.862   0.033   3.288
 2006SOL    HW2 6918   5.986   0.138   3.284
 2007SOL     OW 6919   4.676   4.437   1.030
 2007SOL    HW1 6920   4.592   4.464   0.983
 2007SOL    HW2 6921   4.677   4.478   1.121
 2008SOL     OW 6922   2.037   4.411   3.899
 2008SOL    HW1 6923   2.073   4.351   3.827
 2008SOL    HW2 6924   2.099   4.487   3.913
 2009SOL     OW 6925   5.471   0.626   2.575
 2009SOL    HW1 6926   5.429   0.662   2.658
 2009SOL    HW2 6927   5.409   0.562   2.530
 2010SOL     OW 6928   2.267   1.726   1.961
 2010SOL    HW1 6929   2.306   1.772   2.041
 2010SOL    HW2 6930   2.178   1.687   1.985
 2011SOL     OW 6931   6.409   6.671   4.939
 2011SOL    HW1 6932   6.345   6.745   4.916
 2011SOL    HW2 6933   6.490   6.677   4.881
 2012SOL     OW 6934   1.195   4.333   2.219
 2012SOL    HW1 6935   1.288   4.348   2.252
 2012SOL    HW2 6936   1.176   4.235   2.217
 2013SOL     OW 6937   6.174   2.615   3.463
 2013SOL    HW1 6938   6.248   2.620   3.396
 2013SOL    HW2 6939   6.190   2.682   3.535
 2014SOL     OW 6940   2.477   6.312   3.683
 2014SOL    HW1 6941   2.445   6.227   3.640
 2014SOL    HW2 6942   2.410   6.342   3.750
 2015SOL     OW 6943   1.936   0.416   7.009
 2015SOL    HW1 6944   1.946   0.336   6.949
 2015SOL    HW2 6945   2.012   0.479   6.992
 2016SOL     OW 6946   2.105   5.859   6.021
 2016SOL    HW1 6947   2.007   5.844   6.015
 2016SOL    HW2 6948   2.126   5.955   6.004
 2017SOL     OW 6949   3.541   6.881   4.397
 2017SOL    HW1 6950   3.497   6.792   4.407
 2017SOL    HW2 6951   3.507   6.926   4.314
 2018SOL     OW 6952   5.289   2.093   4.919
 2018SOL    HW1 6953   5.317   2.003   4.883
 2018SOL    HW2 6954   5.205   2.122   4.873
 2019SOL     OW 6955   5.176   3.504   6.227
 2019SOL    HW1 6956   5.171   3.408   6.198
 2019SOL    HW2 6957   5.271   3.536   6.219
 2020SOL     OW 6958   1.695   0.072   5.362
 2020SOL    HW1 6959   1.735   0.077   5.453
 2020SOL    HW2 6960   1.595   0.073   5.369
 2021SOL     OW 6961   0.695   6.266   5.195
 2021SOL    HW1 6962   0.763   6.331   5.227
 2021SOL    HW2 6963   0.733   6.213   5.119
 2022SOL     OW 6964   1.577   4.365   3.375
 2022SOL    HW1 6965   1.601   4.379   3.279
 2022SOL    HW2 6966   1.484   4.396   3.392
 2023SOL     OW 6967   6.888   0.585   6.625
 2023SOL    HW1 6968   6.961   0.652   6.620
 2023SOL    HW2 6969   6.891   0.539   6.713
 2024SOL     OW 6970   0.242   6.195   3.322
 2024SOL    HW1 6971   0.154   6.155   3.296
 2024SOL    HW2 6972   0.263   6.172   3.417
 2025SOL     OW 6973   2.739   1.219   3.495
 2025SOL    HW1 6974   2.644   1.247   3.483
 2025SOL    HW2 6975   2.744   1.149   3.566
 2026SOL     OW 6976   6.690   2.926   5.571
 2026SOL    HW1 6977   6.789   2.933   5.572
 2026SOL    HW2 6978   6.651   3.000   5.515
 2027SOL     OW 6979   1.402   0.011   0.527
 2027SOL    HW1 6980   1.488   0.055   0.553
 2027SOL    HW2 6981   1.327   0.051   0.580
 2028SOL     OW 6982   2.539   6.683   4.792
 2028SOL    HW1 6983   2.500   6.728   4.872
 2028SOL    HW2 6984   2.507   6.728   4.709
 2029SOL     OW 6985   6.694   1.115   7.017
 2029SOL    HW1 6986   6.634   1.049   0.036
 2029SOL    HW2 6987   6.640   1.175   6.958
 2030SOL     OW 6988   2.688   0.997   3.667
 2030SOL    HW1 6989   2.647   1.064   3.730
 2030SOL    HW2 6990   2.690   0.907   3.711
 2031SOL     OW 6991   6.537   5.839   1.188
 2031SOL    HW1 6992   6.492   5.756   1.222
 2031SOL    HW2 6993   6.616   5.813   1.133
 2032SOL     OW 6994   4.758   0.492   2.245
 2032SOL    HW1 6995   4.736   0.587   2.221
 2032SOL    HW2 6996   4.805   0.490   2.333
 2033SOL     OW 6997   3.225   3.140   5.956
 2033SOL    HW1 6998   3.161   3.095   5.893
 2033SOL    HW2 6999   3.173   3.180   6.032
 2034SOL     OW 7000   2.451   5.576   5.403
 2034SOL    HW1 7001   2.446   5.575   5.303
 2034SOL    HW2 7002   2.361   5.603   5.440
 2035SOL     OW 7003   6.993   6.556   3.818
 2035SOL    HW1 7004   6.908   6.518   3.855
 2035SOL    HW2 7005   7.016   6.640   3.866
 2036SOL     OW 7006   1.409   4.539   2.941
 2036SOL    HW1 7007   1.493   4.517   2.891
 2036SOL    HW2 7008   1.431   4.598   3.018
 2037SOL     OW 7009   6.126   3.134   5.863
 2037SOL    HW1 7010   6.224   3.152   5.858
 2037SOL    HW2 7011   6.100   3.069   5.792
 2038SOL     OW 7012   2.025   1.995   0.023
 2038SOL    HW1 7013   2.113   2.040   0.042
 2038SOL    HW2 7014   2.042   1.913   6.993
 2039SOL     OW 7015   0.207   5.226   4.069
 2039SOL    HW1 7016   0.113   5.261   4.067
 2039SOL    HW2 7017   0.210   5.142   4.123
 2040SOL     OW 7018   2.539   3.165   5.902
 2040SOL    HW1 7019   2.484   3.084   5.883
 2040SOL    HW2 7020   2.510   3.240   5.842
 2041SOL     OW 7021   0.925   6.210   5.866
 2041SOL    HW1 7022   0.884   6.295   5.832
 2041SOL    HW2 7023   0.883   6.186   5.954
 2042SOL     OW 7024   4.757   6.025   6.814
 2042SOL    HW1 7025   4.692   6.075   6.756
 2042SOL    HW2 7026   4.707   5.961   6.872
 2043SOL     OW 7027   6.085   3.928   2.945
 2043SOL    HW1 7028   6.093   3.883   2.855
 2043SOL    HW2 7029   6.175   3.934   2.987
 2044SOL     OW 7030   6.932   0.302   1.766
 2044SOL    HW1 7031   6.900   0.379   1.821
 2044SOL    HW2 7032   6.922   0.324   1.669
 2045SOL     OW 7033   1.434   5.062   4.204
 2045SOL    HW1 7034   1.497   5.070   4.127
 2045SOL    HW2 7035   1.470   5.111   4.283
 2046SOL     OW 7036   6.999   1.942   4.540
 2046SOL    HW1 7037   6.982   1.917   4.444
 2046SOL    HW2 7038   0.042   1.881   4.579
 2047SOL     OW 7039   6.839   2.669   0.273
 2047SOL    HW1 7040   6.761   2.609   0.290
 2047SOL    HW2 7041   6.903   2.663   0.350
 2048SOL     OW 7042   1.662   6.627   6.174
 2048SOL    HW1 7043   1.616   6.666   6.095
 2048SOL    HW2 7044   1.745   6.579   6.143
 2049SOL     OW 7045   5.985   1.612   4.620
 2049SOL    HW1 7046   5.955   1.696   4.575
 2049SOL    HW2 7047   5.914   1.542   4.610
 2050SOL     OW 7048   6.051   2.702   4.080
 2050SOL    HW1 7049   6.122   2.656   4.134
 2050SOL    HW2 7050   5.963   2.692   4.125
 2051SOL     OW 7051   0.908   6.169   0.081
 2051SOL    HW1 7052   0.920   6.080   0.124
 2051SOL    HW2 7053   0.814   6.177   0.047
 2052SOL     OW 7054   1.768   3.103   1.363
 2052SOL    HW1 7055   1.827   3.023   1.360
 2052SOL    HW2 7056   1.743   3.122   1.458
 2053SOL     OW 7057   6.579   6.301   4.394
 2053SOL    HW1 7058   6.622   6.288   4.305
 2053SOL    HW2 7059   6.490   6.255   4.395
 2054SOL     OW 7060   3.251   4.071   3.360
 2054SOL    HW1 7061   3.315   4.083   3.437
 2054SOL    HW2 7062   3.271   4.139   3.290
 2055SOL     OW 7063   5.552   3.594   3.865
 2055SOL    HW1 7064   5.647   3.598   3.835
 2055SOL    HW2 7065   5.546   3.621   3.961
 2056SOL     OW 7066   3.992   5.829   1.592
 2056SOL    HW1 7067   3.935   5.894   1.542
 2056SOL    HW2 7068   4.042   5.878   1.664
 2057SOL     OW 7069   5.254   4.052   5.810
 2057SOL    HW1 7070   5.230   3.957   5.830
 2057SOL    HW2 7071   5.244   4.107   5.894
 2058SOL     OW 7072   0.300   0.687   3.249
 2058SOL    HW1 7073   0.316   0.707   3.153
 2058SOL    HW2 7074   0.202   0.680   3.267
 2059SOL     OW 7075   1.784   5.751   6.211
 2059SOL    HW1 7076   1.755   5.744   6.307
 2059SOL    HW2 7077   1.815   5.844   6.192
 2060SOL     OW 7078   0.655   4.086   1.717
 2060SOL    HW1 7079   0.691   3.995   1.697
 2060SOL    HW2 7080   0.639   4.136   1.632
 2061SOL     OW 7081   1.381   1.940   2.475
 2061SOL    HW1 7082   1.443   2.017   2.488
 2061SOL    HW2 7083   1.359   1.930   2.378
 2062SOL     OW 7084   0.058   5.083   5.003
 2062SOL    HW1 7085   0.094   4.997   5.040
 2062SOL    HW2 7086   0.006   5.130   5.075
 2063SOL     OW 7087   1.073   6.527   5.346
 2063SOL    HW1 7088   1.123   6.453   5.390
 2063SOL    HW2 7089   0.994   6.552   5.403
 2064SOL     OW 7090   0.296   2.520   5.046
 2064SOL    HW1 7091   0.216   2.464   5.023
 2064SOL    HW2 7092   0.377   2.481   5.003
 2065SOL     OW 7093   6.085   2.552   5.816
 2065SOL    HW1 7094   6.180   2.565   5.787
 2065SOL    HW2 7095   6.072   2.590   5.908
 2066SOL     OW 7096   0.247   4.454   4.506
 2066SOL    HW1 7097   0.174   4.508   4.548
 2066SOL    HW2 7098   0.300   4.408   4.577
 2067SOL     OW 7099   0.137   5.476   0.690
 2067SOL    HW1 7100   0.040   5.450   0.683
 2067SOL    HW2 7101   0.158   5.543   0.619
 2068SOL     OW 7102   1.700   0.218   4.592
 2068SOL    HW1 7103   1.617   0.249   4.546
 2068SOL    HW2 7104   1.707   0.118   4.585
 2069SOL     OW 7105   6.188   2.924   3.871
 2069SOL    HW1 7106   6.115   2.872   3.915
 2069SOL    HW2 7107   6.276   2.882   3.891
 2070SOL     OW 7108   1.106   1.117   0.937
 2070SOL    HW1 7109   1.036   1.169   0.985
 2070SOL    HW2 7110   1.192   1.167   0.938
 2071SOL     OW 7111   6.090   0.562   5.945
 2071SOL    HW1 7112   6.086   0.646   5.998
 2071SOL    HW2 7113   6.141   0.578   5.860
 2072SOL     OW 7114   4.490   5.171   4.438
 2072SOL    HW1 7115   4.578   5.143   4.401
 2072SOL    HW2 7116   4.425   5.187   4.364
 2073SOL     OW 7117   5.018   6.864   5.014
 2073SOL    HW1 7118   4.943   6.883   4.951
 2073SOL    HW2 7119   4.996   6.784   5.070
 2074SOL     OW 7120   2.157   2.170   6.149
 2074SOL    HW1 7121   2.229   2.226   6.109
 2074SOL    HW2 7122   2.194   2.079   6.170
 2075SOL     OW 7123   6.942   2.435   3.286
 2075SOL    HW1 7124   6.929   2.341   3.316
 2075SOL    HW2 7125   6.863   2.490   3.315
 2076SOL     OW 7126   5.260   6.507   6.161
 2076SOL    HW1 7127   5.233   6.602   6.145
 2076SOL    HW2 7128   5.206   6.446   6.103
 2077SOL     OW 7129   6.456   2.082   2.997
 2077SOL    HW1 7130   6.547   2.069   2.958
 2077SOL    HW2 7131   6.410   1.994   3.005
 2078SOL     OW 7132   1.722   5.195   6.344
 2078SOL    HW1 7133   1.637   5.234   6.380
 2078SOL    HW2 7134   1.786   5.269   6.323
 2079SOL     OW 7135   6.873   2.286   3.057
 2079SOL    HW1 7136   6.822   2.371   3.072
 2079SOL    HW2 7137   6.896   2.245   3.146
 2080SOL     OW 7138   1.583   0.407   5.238
 2080SOL    HW1 7139   1.549   0.333   5.179
 2080SOL    HW2 7140   1.512   0.432   5.304
 2081SOL     OW 7141   0.939   6.446   4.496
 2081SOL    HW1 7142   0.954   6.545   4.492
 2081SOL    HW2 7143   0.901   6.421   4.584
 2082SOL     OW 7144   0.829   0.022   3.234
 2082SOL    HW1 7145   0.765   6.984   3.193
 2082SOL    HW2 7146   0.907   6.998   3.272
 2083SOL     OW 7147   1.370   5.193   6.037
 2083SOL    HW1 7148   1.298   5.125   6.048
 2083SOL    HW2 7149   1.454   5.161   6.082
 2084SOL     OW 7150   0.562   4.238   3.016
 2084SOL    HW1 7151   0.471   4.273   2.995
 2084SOL    HW2 7152   0.630   4.310   2.997
 2085SOL     OW 7153   5.270   0.774   0.837
 2085SOL    HW1 7154   5.348   0.825   0.871
 2085SOL    HW2 7155   5.212   0.745   0.913
 2086SOL     OW 7156   3.756   6.594   6.273
 2086SOL    HW1 7157   3.710   6.660   6.213
 2086SOL    HW2 7158   3.746   6.623   6.368
 2087SOL     OW 7159   4.942   1.020   1.937
 2087SOL    HW1 7160   4.970   1.017   2.034
 2087SOL    HW2 7161   4.915   1.113   1.913
 2088SOL     OW 7162   1.121   6.143   6.937
 2088SOL    HW1 7163   1.085   6.111   6.849
 2088SOL    HW2 7164   1.045   6.172   6.995
 2089SOL     OW 7165   4.650   2.776   5.953
 2089SOL    HW1 7166   4.572   2.718   5.976
 2089SOL    HW2 7167   4.631   2.870   5.980
 2090SOL     OW 7168   4.132   3.469   6.069
 2090SOL    HW1 7169   4.141   3.381   6.117
 2090SOL    HW2 7170   4.109   3.452   5.973
 2091SOL     OW 7171   6.809   4.856   0.317
 2091SOL    HW1 7172   6.787   4.842   0.220
 2091SOL    HW2 7173   6.731   4.829   0.373
 2092SOL     OW 7174   5.367   3.633   0.436
 2092SOL    HW1 7175   5.285   3.661   0.386
 2092SOL    HW2 7176   5.446   3.633   0.375
 2093SOL     OW 7177   3.029   2.241   1.609
 2093SOL    HW1 7178   3.073   2.321   1.650
 2093SOL    HW2 7179   2.951   2.213   1.665
 2094SOL     OW 7180   6.016   1.265   1.800
 2094SOL    HW1 7181   5.929   1.294   1.839
 2094SOL    HW2 7182   6.004   1.177   1.753
 2095SOL     OW 7183   6.232   6.313   5.176
 2095SOL    HW1 7184   6.248   6.216   5.154
 2095SOL    HW2 7185   6.315   6.365   5.161
 2096SOL     OW 7186   4.682   4.848   2.943
 2096SOL    HW1 7187   4.619   4.781   2.903
 2096SOL    HW2 7188   4.645   4.940   2.931
 2097SOL     OW 7189   2.961   2.713   6.385
 2097SOL    HW1 7190   3.050   2.743   6.417
 2097SOL    HW2 7191   2.894   2.720   6.458
 2098SOL     OW 7192   4.843   6.020   1.892
 2098SOL    HW1 7193   4.857   6.021   1.793
 2098SOL    HW2 7194   4.805   5.932   1.920
 2099SOL     OW 7195   3.615   2.030   6.644
 2099SOL    HW1 7196   3.624   2.104   6.712
 2099SOL    HW2 7197   3.633   2.068   6.553
 2100SOL     OW 7198   5.426   1.582   0.707
 2100SOL    HW1 7199   5.349   1.607   0.764
 2100SOL    HW2 7200   5.477   1.506   0.748
 2101SOL     OW 7201   0.410   6.569   1.275
 2101SOL    HW1 7202   0.359   6.483   1.266
 2101SOL    HW2 7203   0.347   6.644   1.295
 2102SOL     OW 7204   5.041   4.111   2.497
 2102SOL    HW1 7205   5.122   4.169   2.486
 2102SOL    HW2 7206   5.035   4.081   2.593
 2103SOL     OW 7207   3.427   3.461   6.954
 2103SOL    HW1 7208   3.388   3.509   0.007
 2103SOL    HW2 7209   3.470   3.528   6.892
 2104SOL     OW 7210   1.860   4.437   2.273
 2104SOL    HW1 7211   1.798   4.438   2.194
 2104SOL    HW2 7212   1.842   4.518   2.330
 2105SOL     OW 7213   4.703   4.379   6.201
 2105SOL    HW1 7214   4.656   4.337   6.279
 2105SOL    HW2 7215   4.786   4.328   6.180
 2106SOL     OW 7216   5.428   3.503   1.109
 2106SOL    HW1 7217   5.445   3.601   1.098
 2106SOL    HW2 7218   5.349   3.488   1.168
 2107SOL     OW 7219   6.536   2.321   5.653
 2107SOL    HW1 7220   6.528   2.226   5.623
 2107SOL    HW2 7221   6.597   2.371   5.591
 2108SOL     OW 7222   6.247   5.430   5.158
 2108SOL    HW1 7223   6.180   5.497   5.127
 2108SOL    HW2 7224   6.313   5.412   5.086
 2109SOL     OW 7225   3.871   6.253   2.561
 2109SOL    HW1 7226   3.794   6.265   2.498
 2109SOL    HW2 7227   3.909   6.161   2.551
 2110SOL     OW 7228   3.323   0.828   0.461
 2110SOL    HW1 7229   3.387   0.884   0.512
 2110SOL    HW2 7230   3.292   0.878   0.380
 2111SOL     OW 7231   2.065   3.137   6.694
 2111SOL    HW1 7232   2.164   3.136   6.706
 2111SOL    HW2 7233   2.021   3.102   6.777
 2112SOL     OW 7234   5.521   2.084   0.572
 2112SOL    HW1 7235   5.448   2.090   0.504
 2112SOL    HW2 7236   5.557   1.990   0.574
 2113SOL     OW 7237   2.126   1.198   5.280
 2113SOL    HW1 7238   2.054   1.150   5.329
 2113SOL    HW2 7239   2.186   1.132   5.235
 2114SOL     OW 7240   2.457   1.797   6.618
 2114SOL    HW1 7241   2.392   1.828   6.688
 2114SOL    HW2 7242   2.499   1.711   6.648
 2115SOL     OW 7243   0.393   4.142   2.589
 2115SOL    HW1 7244   0.491   4.150   2.604
 2115SOL    HW2 7245   0.346   4.221   2.629
 2116SOL     OW 7246   1.039   3.811   2.372
 2116SOL    HW1 7247   1.106   3.814   2.445
 2116SOL    HW2 7248   0.960   3.757   2.401
 2117SOL     OW 7249   6.091   4.192   1.203
 2117SOL    HW1 7250   6.121   4.145   1.286
 2117SOL    HW2 7251   6.159   4.261   1.177
 2118SOL     OW 7252   6.056   3.721   3.591
 2118SOL    HW1 7253   6.005   3.635   3.582
 2118SOL    HW2 7254   6.151   3.707   3.563
 2119SOL     OW 7255   1.657   0.421   1.058
 2119SOL    HW1 7256   1.613   0.433   1.148
 2119SOL    HW2 7257   1.731   0.487   1.049
 2120SOL     OW 7258   0.600   4.175   3.287
 2120SOL    HW1 7259   0.575   4.208   3.196
 2120SOL    HW2 7260   0.576   4.079   3.296
 2121SOL     OW 7261   1.537   2.968   5.252
 2121SOL    HW1 7262   1.492   2.976   5.341
 2121SOL    HW2 7263   1.547   2.872   5.228
 2122SOL     OW 7264   5.980   5.524   6.394
 2122SOL    HW1 7265   5.936   5.581   6.324
 2122SOL    HW2 7266   6.063   5.569   6.426
 2123SOL     OW 7267   6.742   5.434   1.708
 2123SOL    HW1 7268   6.679   5.425   1.785
 2123SOL    HW2 7269   6.836   5.439   1.742
 2124SOL     OW 7270   3.156   1.730   0.355
 2124SOL    HW1 7271   3.099   1.745   0.274
 2124SOL    HW2 7272   3.128   1.793   0.427
 2125SOL     OW 7273   1.571   6.419   2.250
 2125SOL    HW1 7274   1.599   6.402   2.155
 2125SOL    HW2 7275   1.618   6.501   2.284
 2126SOL     OW 7276   4.020   2.644   6.636
 2126SOL    HW1 7277   3.967   2.635   6.551
 2126SOL    HW2 7278   4.036   2.741   6.654
 2127SOL     OW 7279   0.581   1.600   6.188
 2127SOL    HW1 7280   0.658   1.544   6.218
 2127SOL    HW2 7281   0.615   1.681   6.140
 2128SOL     OW 7282   6.426   2.847   2.822
 2128SOL    HW1 7283   6.328   2.857   2.838
 2128SOL    HW2 7284   6.477   2.890   2.896
 2129SOL     OW 7285   5.158   4.089   5.111
 2129SOL    HW1 7286   5.113   4.039   5.185
 2129SOL    HW2 7287   5.110   4.175   5.096
 2130SOL     OW 7288   2.918   0.050   2.390
 2130SOL    HW1 7289   2.864   6.994   2.413
 2130SOL    HW2 7290   2.957   0.039   2.299
 2131SOL     OW 7291   5.248   1.615   0.947
 2131SOL    HW1 7292   5.232   1.693   1.008
 2131SOL    HW2 7293   5.195   1.627   0.863
 2132SOL     OW 7294   3.424   1.488   7.004
 2132SOL    HW1 7295   3.472   1.490   6.916
 2132SOL    HW2 7296   3.342   1.544   6.999
 2133SOL     OW 7297   3.508   2.498   1.349
 2133SOL    HW1 7298   3.498   2.416   1.406
 2133SOL    HW2 7299   3.549   2.474   1.261
 2134SOL     OW 7300   0.817   0.895   4.411
 2134SOL    HW1 7301   0.875   0.814   4.422
 2134SOL    HW2 7302   0.757   0.882   4.331
 2135SOL     OW 7303   0.620   1.737   4.217
 2135SOL    HW1 7304   0.591   1.832   4.208
 2135SOL    HW2 7305   0.661   1.707   4.131
 2136SOL     OW 7306   1.164   4.051   4.732
 2136SOL    HW1 7307   1.152   4.017   4.825
 2136SOL    HW2 7308   1.168   4.151   4.733
 2137SOL     OW 7309   6.978   6.193   4.277
 2137SOL    HW1 7310   6.916   6.203   4.199
 2137SOL    HW2 7311   6.929   6.213   4.362
 2138SOL     OW 7312   6.898   1.412   1.472
 2138SOL    HW1 7313   6.845   1.348   1.416
 2138SOL    HW2 7314   6.932   1.487   1.414
 2139SOL     OW 7315   3.808   0.791   2.822
 2139SOL    HW1 7316   3.878   0.860   2.804
 2139SOL    HW2 7317   3.844   0.723   2.886
 2140SOL     OW 7318   3.349   5.635   2.963
 2140SOL    HW1 7319   3.276   5.589   3.013
 2140SOL    HW2 7320   3.309   5.700   2.898
 2141SOL     OW 7321   6.444   4.242   0.737
 2141SOL    HW1 7322   6.486   4.160   0.776
 2141SOL    HW2 7323   6.351   4.222   0.709
 2142SOL     OW 7324   1.182   2.064   2.885
 2142SOL    HW1 7325   1.220   2.004   2.955
 2142SOL    HW2 7326   1.149   2.010   2.808
 2143SOL     OW 7327   3.157   4.907   1.582
 2143SOL    HW1 7328   3.095   4.983   1.600
 2143SOL    HW2 7329   3.112   4.841   1.521
 2144SOL     OW 7330   1.498   6.206   3.490
 2144SOL    HW1 7331   1.544   6.278   3.541
 2144SOL    HW2 7332   1.447   6.246   3.414
 2145SOL     OW 7333   3.300   6.480   4.428
 2145SOL    HW1 7334   3.284   6.414   4.501
 2145SOL    HW2 7335   3.375   6.449   4.369
 2146SOL     OW 7336   2.593   3.148   1.651
 2146SOL    HW1 7337   2.691   3.151   1.634
 2146SOL    HW2 7338   2.569   3.062   1.696
 2147SOL     OW 7339   0.282   1.318   6.568
 2147SOL    HW1 7340   0.287   1.277   6.659
 2147SOL    HW2 7341   0.373   1.347   6.539
 2148SOL     OW 7342   5.010   2.640   4.064
 2148SOL    HW1 7343   4.923   2.671   4.102
 2148SOL    HW2 7344   4.996   2.606   3.971
 2149SOL     OW 7345   3.895   1.088   1.390
 2149SOL    HW1 7346   3.898   1.132   1.481
 2149SOL    HW2 7347   3.827   1.015   1.391
 2150SOL     OW 7348   2.007   2.583   2.553
 2150SOL    HW1 7349   1.964   2.661   2.599
 2150SOL    HW2 7350   2.073   2.540   2.615
 2151SOL     OW 7351   2.106   1.198   4.148
 2151SOL    HW1 7352   2.101   1.298   4.155
 2151SOL    HW2 7353   2.184   1.164   4.200
 2152SOL     OW 7354   3.850   6.326   1.123
 2152SOL    HW1 7355   3.917   6.262   1.160
 2152SOL    HW2 7356   3.771   6.276   1.088
 2153SOL     OW 7357   4.002   0.002   3.121
 2153SOL    HW1 7358   4.033   0.091   3.154
 2153SOL    HW2 7359   3.984   0.007   3.023
 2154SOL     OW 7360   4.945   0.709   4.447
 2154SOL    HW1 7361   4.847   0.714   4.426
 2154SOL    HW2 7362   4.993   0.665   4.371
 2155SOL     OW 7363   2.254   5.357   0.460
 2155SOL    HW1 7364   2.227   5.450   0.486
 2155SOL    HW2 7365   2.177   5.310   0.418
 2156SOL     OW 7366   2.537   0.339   2.894
 2156SOL    HW1 7367   2.463   0.351   2.960
 2156SOL    HW2 7368   2.499   0.338   2.801
 2157SOL     OW 7369   6.114   0.722   3.130
 2157SOL    HW1 7370   6.204   0.721   3.087
 2157SOL    HW2 7371   6.084   0.816   3.142
 2158SOL     OW 7372   4.139   6.440   0.843
 2158SOL    HW1 7373   4.195   6.410   0.920
 2158SOL    HW2 7374   4.067   6.374   0.826
 2159SOL     OW 7375   2.433   6.156   5.589
 2159SOL    HW1 7376   2.487   6.214   5.527
 2159SOL    HW2 7377   2.420   6.066   5.547
 2160SOL     OW 7378   4.873   3.588   1.427
 2160SOL    HW1 7379   4.917   3.499   1.416
 2160SOL    HW2 7380   4.791   3.592   1.370
 2161SOL     OW 7381   5.284   3.050   4.135
 2161SOL    HW1 7382   5.352   3.017   4.069
 2161SOL    HW2 7383   5.297   3.002   4.222
 2162SOL     OW 7384   2.911   0.597   0.099
 2162SOL    HW1 7385   2.888   0.562   0.008
 2162SOL    HW2 7386   2.998   0.558   0.130
 2163SOL     OW 7387   0.437   5.124   6.055
 2163SOL    HW1 7388   0.433   5.102   5.958
 2163SOL    HW2 7389   0.345   5.122   6.094
 2164SOL     OW 7390   1.801   2.154   0.268
 2164SOL    HW1 7391   1.757   2.242   0.246
 2164SOL    HW2 7392   1.899   2.160   0.250
 2165SOL     OW 7393   0.961   1.631   2.795
 2165SOL    HW1 7394   0.944   1.570   2.872
 2165SOL    HW2 7395   0.926   1.589   2.711
 2166SOL     OW 7396   1.972   1.684   5.345
 2166SOL    HW1 7397   2.032   1.747   5.296
 2166SOL    HW2 7398   1.909   1.736   5.403
 2167SOL     OW 7399   1.577   0.896   3.759
 2167SOL    HW1 7400   1.563   0.829   3.686
 2167SOL    HW2 7401   1.584   0.987   3.720
 2168SOL     OW 7402   0.653   2.273   3.500
 2168SOL    HW1 7403   0.612   2.189   3.464
 2168SOL    HW2 7404   0.690   2.255   3.591
 2169SOL     OW 7405   5.852   2.416   5.807
 2169SOL    HW1 7406   5.948   2.445   5.814
 2169SOL    HW2 7407   5.800   2.487   5.759
 2170SOL     OW 7408   5.468   4.741   5.843
 2170SOL    HW1 7409   5.517   4.676   5.900
 2170SOL    HW2 7410   5.531   4.811   5.810
 2171SOL     OW 7411   6.574   3.075   1.654
 2171SOL    HW1 7412   6.619   3.045   1.570
 2171SOL    HW2 7413   6.582   3.174   1.662
 2172SOL     OW 7414   2.966   1.731   0.175
 2172SOL    HW1 7415   2.914   1.672   0.236
 2172SOL    HW2 7416   2.972   1.689   0.085
 2173SOL     OW 7417   4.122   6.970   5.290
 2173SOL    HW1 7418   4.085   6.954   5.199
 2173SOL    HW2 7419   4.135   0.042   5.304
 2174SOL     OW 7420   5.691   4.924   5.760
 2174SOL    HW1 7421   5.662   4.954   5.669
 2174SOL    HW2 7422   5.786   4.893   5.756
 2175SOL     OW 7423   3.346   1.763   3.415
 2175SOL    HW1 7424   3.288   1.779   3.335
 2175SOL    HW2 7425   3.330   1.834   3.483
 2176SOL     OW 7426   0.810   3.188   6.951
 2176SOL    HW1 7427   0.871   3.144   6.884
 2176SOL    HW2 7428   0.852   3.272   6.984
 2177SOL     OW 7429   6.781   0.701   3.449
 2177SOL    HW1 7430   6.778   0.759   3.367
 2177SOL    HW2 7431   6.811   0.755   3.527
 2178SOL     OW 7432   1.507   4.035   0.334
 2178SOL    HW1 7433   1.451   4.067   0.411
 2178SOL    HW2 7434   1.448   4.014   0.256
 2179SOL     OW 7435   1.657   5.483   4.788
 2179SOL    HW1 7436   1.739   5.430   4.812
 2179SOL    HW2 7437   1.677   5.542   4.710
 2180SOL     OW 7438   2.769   3.393   1.824
 2180SOL    HW1 7439   2.722   3.306   1.838
 2180SOL    HW2 7440   2.747   3.429   1.734
 2181SOL     OW 7441   5.750   4.054   5.556
 2181SOL    HW1 7442   5.825   4.022   5.614
 2181SOL    HW2 7443   5.663   4.028   5.596
 2182SOL     OW 7444   6.550   2.989   4.803
 2182SOL    HW1 7445   6.612   3.064   4.824
 2182SOL    HW2 7446   6.510   3.002   4.713
 2183SOL     OW 7447   3.112   3.636   6.471
 2183SOL    HW1 7448   3.211   3.635   6.458
 2183SOL    HW2 7449   3.071   3.560   6.420
 2184SOL     OW 7450   3.934   1.339   5.157
 2184SOL    HW1 7451   3.912   1.416   5.097
 2184SOL    HW2 7452   3.888   1.352   5.245
 2185SOL     OW 7453   1.551   2.067   0.644
 2185SOL    HW1 7454   1.545   2.084   0.743
 2185SOL    HW2 7455   1.641   2.092   0.611
 2186SOL     OW 7456   6.861   4.569   2.225
 2186SOL    HW1 7457   6.887   4.480   2.186
 2186SOL    HW2 7458   6.841   4.558   2.322
 2187SOL     OW 7459   0.572   2.127   1.910
 2187SOL    HW1 7460   0.498   2.163   1.968
 2187SOL    HW2 7461   0.648   2.191   1.910
 2188SOL     OW 7462   5.452   5.940   3.847
 2188SOL    HW1 7463   5.378   5.949   3.914
 2188SOL    HW2 7464   5.444   6.013   3.779
 2189SOL     OW 7465   1.879   6.572   6.856
 2189SOL    HW1 7466   1.976   6.580   6.830
 2189SOL    HW2 7467   1.839   6.493   6.811
 2190SOL     OW 7468   0.272   2.933   2.316
 2190SOL    HW1 7469   0.189   2.945   2.370
 2190SOL    HW2 7470   0.263   2.984   2.230
 2191SOL     OW 7471   3.165   1.676   6.450
 2191SOL    HW1 7472   3.199   1.641   6.362
 2191SOL    HW2 7473   3.239   1.724   6.497
 2192SOL     OW 7474   3.638   0.118   3.926
 2192SOL    HW1 7475   3.655   0.033   3.877
 2192SOL    HW2 7476   3.725   0.165   3.943
 2193SOL     OW 7477   0.493   5.843   6.162
 2193SOL    HW1 7478   0.593   5.844   6.157
 2193SOL    HW2 7479   0.463   5.891   6.245
 2194SOL     OW 7480   2.435   4.482   6.700
 2194SOL    HW1 7481   2.506   4.539   6.657
 2194SOL    HW2 7482   2.454   4.473   6.798
 2195SOL     OW 7483   0.080   6.960   3.370
 2195SOL    HW1 7484   0.085   6.874   3.419
 2195SOL    HW2 7485   0.020   6.950   3.290
 2196SOL     OW 7486   3.232   0.113   5.289
 2196SOL    HW1 7487   3.159   0.055   5.325
 2196SOL    HW2 7488   3.240   0.099   5.191
 2197SOL     OW 7489   4.248   3.807   1.812
 2197SOL    HW1 7490   4.170   3.789   1.872
 2197SOL    HW2 7491   4.294   3.891   1.841
 2198SOL     OW 7492   6.767   1.715   0.182
 2198SOL    HW1 7493   6.741   1.660   0.102
 2198SOL    HW2 7494   6.866   1.727   0.183
 2199SOL     OW 7495   5.256   1.158   1.917
 2199SOL    HW1 7496   5.173   1.104   1.926
 2199SOL    HW2 7497   5.234   1.255   1.927
 2200SOL     OW 7498   3.888   0.207   4.443
 2200SOL    HW1 7499   3.972   0.156   4.431
 2200SOL    HW2 7500   3.818   0.172   4.381
 2201SOL     OW 7501   6.441   2.762   2.209
 2201SOL    HW1 7502   6.417   2.850   2.249
 2201SOL    HW2 7503   6.442   2.692   2.280
 2202SOL     OW 7504   3.823   4.959   3.838
 2202SOL    HW1 7505   3.797   4.987   3.930
 2202SOL    HW2 7506   3.813   5.036   3.775
 2203SOL     OW 7507   2.173   2.693   1.606
 2203SOL    HW1 7508   2.227   2.610   1.606
 2203SOL    HW2 7509   2.143   2.714   1.513
 2204SOL     OW 7510   3.629   1.843   7.020
 2204SOL    HW1 7511   3.538   1.828   0.034
 2204SOL    HW2 7512   3.699   1.805   0.054
 2205SOL     OW 7513   2.045   6.891   6.092
 2205SOL    HW1 7514   2.144   6.890   6.107
 2205SOL    HW2 7515   1.998   6.869   6.178
 2206SOL     OW 7516   2.663   4.161   5.326
 2206SOL    HW1 7517   2.613   4.237   5.368
 2206SOL    HW2 7518   2.602   4.083   5.315
 2207SOL     OW 7519   2.142   3.826   6.416
 2207SOL    HW1 7520   2.087   3.909   6.409
 2207SOL    HW2 7521   2.213   3.838   6.485
 2208SOL     OW 7522   2.189   5.088   3.043
 2208SOL    HW1 7523   2.264   5.037   3.087
 2208SOL    HW2 7524   2.110   5.028   3.033
 2209SOL     OW 7525   1.700   5.327   6.044
 2209SOL    HW1 7526   1.771   5.317   5.974
 2209SOL    HW2 7527   1.677   5.237   6.081
 2210SOL     OW 7528   0.076   4.755   3.488
 2210SOL    HW1 7529   7.011   4.798   3.494
 2210SOL    HW2 7530   0.070   4.671   3.435
 2211SOL     OW 7531   5.230   0.710   6.551
 2211SOL    HW1 7532   5.249   0.701   6.649
 2211SOL    HW2 7533   5.298   0.656   6.500
 2212SOL     OW 7534   1.676   5.822   0.645
 2212SOL    HW1 7535   1.748   5.818   0.715
 2212SOL    HW2 7536   1.687   5.746   0.581
 2213SOL     OW 7537   4.106   2.618   5.426
 2213SOL    HW1 7538   4.118   2.610   5.327
 2213SOL    HW2 7539   4.030   2.681   5.445
 2214SOL     OW 7540   5.004   2.048   5.436
 2214SOL    HW1 7541   4.921   2.020   5.485
 2214SOL    HW2 7542   4.995   2.143   5.408
 2215SOL     OW 7543   6.661   1.821   6.451
 2215SOL    HW1 7544   6.650   1.887   6.525
 2215SOL    HW2 7545   6.705   1.739   6.486
 2216SOL     OW 7546   2.021   0.880   6.558
 2216SOL    HW1 7547   2.045   0.813   6.488
 2216SOL    HW2 7548   1.936   0.926   6.532
 2217SOL     OW 7549   3.211   0.340   1.381
 2217SOL    HW1 7550   3.234   0.381   1.469
 2217SOL    HW2 7551   3.259   0.388   1.308
 2218SOL     OW 7552   1.018   6.751   1.006
 2218SOL    HW1 7553   1.053   6.657   1.012
 2218SOL    HW2 7554   1.085   6.814   1.046
 2219SOL     OW 7555   0.557   3.700   3.240
 2219SOL    HW1 7556   0.566   3.616   3.186
 2219SOL    HW2 7557   0.647   3.740   3.257
 2220SOL     OW 7558   0.258   0.998   4.493
 2220SOL    HW1 7559   0.255   1.088   4.536
 2220SOL    HW2 7560   0.340   0.992   4.435
 2221SOL     OW 7561   6.415   1.129   6.384
 2221SOL    HW1 7562   6.470   1.192   6.439
 2221SOL    HW2 7563   6.322   1.125   6.421
 2222SOL     OW 7564   3.834   0.460   1.176
 2222SOL    HW1 7565   3.913   0.407   1.205
 2222SOL    HW2 7566   3.783   0.490   1.257
 2223SOL     OW 7567   5.799   6.176   3.985
 2223SOL    HW1 7568   5.830   6.214   4.072
 2223SOL    HW2 7569   5.856   6.210   3.910
 2224SOL     OW 7570   2.211   4.684   2.406
 2224SOL    HW1 7571   2.160   4.675   2.320
 2224SOL    HW2 7572   2.309   4.681   2.386
 2225SOL     OW 7573   6.550   5.888   3.162
 2225SOL    HW1 7574   6.481   5.956   3.182
 2225SOL    HW2 7575   6.541   5.811   3.226
 2226SOL     OW 7576   4.207   4.160   0.561
 2226SOL    HW1 7577   4.195   4.061   0.557
 2226SOL    HW2 7578   4.234   4.187   0.653
 2227SOL     OW 7579   5.590   3.666   0.290
 2227SOL    HW1 7580   5.614   3.691   0.196
 2227SOL    HW2 7581   5.614   3.740   0.352
 2228SOL     OW 7582   2.688   5.915   1.141
 2228SOL    HW1 7583   2.652   5.972   1.215
 2228SOL    HW2 7584   2.777   5.879   1.167
 2229SOL     OW 7585   4.353   1.138   4.638
 2229SOL    HW1 7586   4.315   1.050   4.609
 2229SOL    HW2 7587   4.346   1.147   4.737
 2230SOL     OW 7588   0.433   5.661   5.397
 2230SOL    HW1 7589   0.354   5.612   5.359
 2230SOL    HW2 7590   0.418   5.759   5.391
 2231SOL     OW 7591   2.006   0.729   1.345
 2231SOL    HW1 7592   1.952   0.783   1.408
 2231SOL    HW2 7593   2.098   0.769   1.337
 2232SOL     OW 7594   1.224   1.923   3.861
 2232SOL    HW1 7595   1.229   1.833   3.903
 2232SOL    HW2 7596   1.227   1.914   3.761
 2233SOL     OW 7597   2.021   4.755   1.487
 2233SOL    HW1 7598   1.925   4.748   1.515
 2233SOL    HW2 7599   2.027   4.753   1.387
 2234SOL     OW 7600   4.907   1.898   1.394
 2234SOL    HW1 7601   4.878   1.949   1.474
 2234SOL    HW2 7602   4.879   1.803   1.403
 2235SOL     OW 7603   2.176   6.790   0.790
 2235SOL    HW1 7604   2.200   6.782   0.693
 2235SOL    HW2 7605   2.099   6.730   0.810
 2236SOL     OW 7606   0.559   4.241   0.209
 2236SOL    HW1 7607   0.518   4.331   0.228
 2236SOL    HW2 7608   0.658   4.252   0.196
 2237SOL     OW 7609   5.532   4.165   4.349
 2237SOL    HW1 7610   5.529   4.074   4.308
 2237SOL    HW2 7611   5.450   4.180   4.403
 2238SOL     OW 7612   6.254   5.684   2.223
 2238SOL    HW1 7613   6.340   5.671   2.174
 2238SOL    HW2 7614   6.229   5.600   2.270
 2239SOL     OW 7615   3.906   5.658   3.936
 2239SOL    HW1 7616   3.814   5.631   3.964
 2239SOL    HW2 7617   3.969   5.646   4.012
 2240SOL     OW 7618   5.427   6.163   3.699
 2240SOL    HW1 7619   5.386   6.232   3.759
 2240SOL    HW2 7620   5.482   6.209   3.629
 2241SOL     OW 7621   0.426   6.878   2.293
 2241SOL    HW1 7622   0.442   6.920   2.382
 2241SOL    HW2 7623   0.513   6.864   2.246
 2242SOL     OW 7624   5.187   2.565   2.630
 2242SOL    HW1 7625   5.151   2.482   2.673
 2242SOL    HW2 7626   5.145   2.645   2.674
 2243SOL     OW 7627   2.832   6.312   5.224
 2243SOL    HW1 7628   2.844   6.223   5.269
 2243SOL    HW2 7629   2.734   6.331   5.214
 2244SOL     OW 7630   3.666   0.758   3.172
 2244SOL    HW1 7631   3.698   0.718   3.258
 2244SOL    HW2 7632   3.668   0.688   3.101
 2245SOL     OW 7633   0.637   2.424   1.551
 2245SOL    HW1 7634   0.654   2.329   1.577
 2245SOL    HW2 7635   0.705   2.454   1.484
 2246SOL     OW 7636   1.372   1.466   4.608
 2246SOL    HW1 7637   1.390   1.549   4.660
 2246SOL    HW2 7638   1.291   1.479   4.551
 2247SOL     OW 7639   2.471   2.433   6.232
 2247SOL    HW1 7640   2.536   2.505   6.254
 2247SOL    HW2 7641   2.399   2.431   6.301
 2248SOL     OW 7642   4.511   3.995   6.481
 2248SOL    HW1 7643   4.462   3.938   6.415
 2248SOL    HW2 7644   4.488   3.966   6.574
 2249SOL     OW 7645   5.993   6.337   2.838
 2249SOL    HW1 7646   6.022   6.342   2.743
 2249SOL    HW2 7647   5.919   6.269   2.846
 2250SOL     OW 7648   5.262   3.983   1.016
 2250SOL    HW1 7649   5.263   3.911   0.946
 2250SOL    HW2 7650   5.245   3.942   1.106
 2251SOL     OW 7651   5.149   1.533   0.201
 2251SOL    HW1 7652   5.193   1.457   0.153
 2251SOL    HW2 7653   5.189   1.542   0.292
 2252SOL     OW 7654   7.012   2.375   3.996
 2252SOL    HW1 7655   6.923   2.330   4.006
 2252SOL    HW2 7656   0.023   2.396   4.087
 2253SOL     OW 7657   1.007   3.010   0.048
 2253SOL    HW1 7658   1.024   3.033   0.144
 2253SOL    HW2 7659   0.909   3.013   0.029
 2254SOL     OW 7660   2.272   2.929   5.493
 2254SOL    HW1 7661   2.303   2.860   5.428
 2254SOL    HW2 7662   2.224   2.883   5.569
 2255SOL     OW 7663   5.634   2.340   0.604
 2255SOL    HW1 7664   5.703   2.299   0.664
 2255SOL    HW2 7665   5.577   2.268   0.565
 2256SOL     OW 7666   3.730   6.257   1.524
 2256SOL    HW1 7667   3.741   6.347   1.480
 2256SOL    HW2 7668   3.738   6.268   1.623
 2257SOL     OW 7669   0.458   3.216   4.491
 2257SOL    HW1 7670   0.510   3.233   4.407
 2257SOL    HW2 7671   0.385   3.149   4.472
 2258SOL     OW 7672   1.152   5.460   5.380
 2258SOL    HW1 7673   1.238   5.445   5.428
 2258SOL    HW2 7674   1.112   5.372   5.354
 2259SOL     OW 7675   4.536   3.649   6.821
 2259SOL    HW1 7676   4.618   3.593   6.834
 2259SOL    HW2 7677   4.519   3.660   6.723
 2260SOL     OW 7678   5.365   4.528   3.009
 2260SOL    HW1 7679   5.420   4.509   3.090
 2260SOL    HW2 7680   5.303   4.451   2.991
 2261SOL     OW 7681   6.328   6.590   1.117
 2261SOL    HW1 7682   6.366   6.498   1.115
 2261SOL    HW2 7683   6.272   6.606   1.036
 2262SOL     OW 7684   5.842   2.962   2.436
 2262SOL    HW1 7685   5.871   3.048   2.479
 2262SOL    HW2 7686   5.743   2.965   2.420
 2263SOL     OW 7687   2.893   5.763   6.024
 2263SOL    HW1 7688   2.861   5.852   5.989
 2263SOL    HW2 7689   2.973   5.777   6.081
 2264SOL     OW 7690   3.080   3.717   2.027
 2264SOL    HW1 7691   3.042   3.754   2.112
 2264SOL    HW2 7692   3.179   3.710   2.034
 2265SOL     OW 7693   0.403   0.453   4.011
 2265SOL    HW1 7694   0.309   0.489   4.016
 2265SOL    HW2 7695   0.426   0.412   4.100
 2266SOL     OW 7696   6.050   1.456   1.124
 2266SOL    HW1 7697   6.051   1.445   1.223
 2266SOL    HW2 7698   6.136   1.498   1.094
 2267SOL     OW 7699   5.354   2.435   5.317
 2267SOL    HW1 7700   5.372   2.381   5.399
 2267SOL    HW2 7701   5.348   2.375   5.238
 2268SOL     OW 7702   6.741   4.613   6.339
 2268SOL    HW1 7703   6.711   4.629   6.245
 2268SOL    HW2 7704   6.822   4.668   6.358
 2269SOL     OW 7705   5.988   5.663   5.408
 2269SOL    HW1 7706   6.029   5.637   5.496
 2269SOL    HW2 7707   5.976   5.762   5.405
 2270SOL     OW 7708   3.664   3.145   6.736
 2270SOL    HW1 7709   3.714   3.166   6.820
 2270SOL    HW2 7710   3.602   3.069   6.752
 2271SOL     OW 7711   6.095   4.347   0.731
 2271SOL    HW1 7712   6.087   4.411   0.655
 2271SOL    HW2 7713   6.036   4.268   0.715
 2272SOL     OW 7714   6.111   2.338   4.892
 2272SOL    HW1 7715   6.017   2.312   4.870
 2272SOL    HW2 7716   6.174   2.268   4.859
 2273SOL     OW 7717   1.877   1.227   1.587
 2273SOL    HW1 7718   1.976   1.214   1.596
 2273SOL    HW2 7719   1.842   1.168   1.514
 2274SOL     OW 7720   1.006   2.865   6.140
 2274SOL    HW1 7721   0.948   2.787   6.164
 2274SOL    HW2 7722   0.954   2.950   6.152
 2275SOL     OW 7723   5.326   0.495   4.336
 2275SOL    HW1 7724   5.356   0.491   4.431
 2275SOL    HW2 7725   5.230   0.526   4.333
 2276SOL     OW 7726   3.039   4.687   1.464
 2276SOL    HW1 7727   2.941   4.667   1.462
 2276SOL    HW2 7728   3.091   4.602   1.460
 2277SOL     OW 7729   3.282   3.881   4.649
 2277SOL    HW1 7730   3.309   3.973   4.620
 2277SOL    HW2 7731   3.186   3.882   4.677
 2278SOL     OW 7732   5.221   6.733   4.685
 2278SOL    HW1 7733   5.137   6.678   4.686
 2278SOL    HW2 7734   5.201   6.823   4.645
 2279SOL     OW 7735   5.202   5.598   4.744
 2279SOL    HW1 7736   5.225   5.501   4.751
 2279SOL    HW2 7737   5.284   5.653   4.763
 2280SOL     OW 7738   0.066   6.407   4.794
 2280SOL    HW1 7739   0.057   6.446   4.702
 2280SOL    HW2 7740   0.108   6.317   4.788
 2281SOL     OW 7741   3.299   0.886   1.699
 2281SOL    HW1 7742   3.364   0.816   1.728
 2281SOL    HW2 7743   3.276   0.945   1.777
 2282SOL     OW 7744   5.143   0.512   4.524
 2282SOL    HW1 7745   5.055   0.554   4.502
 2282SOL    HW2 7746   5.135   0.412   4.515
 2283SOL     OW 7747   6.969   4.462   1.248
 2283SOL    HW1 7748   6.998   4.448   1.343
 2283SOL    HW2 7749   0.002   4.409   1.187
 2284SOL     OW 7750   2.023   1.547   0.211
 2284SOL    HW1 7751   2.024   1.606   0.291
 2284SOL    HW2 7752   2.084   1.469   0.226
 2285SOL     OW 7753   1.928   3.071   0.328
 2285SOL    HW1 7754   1.969   3.034   0.411
 2285SOL    HW2 7755   1.829   3.081   0.341
 2286SOL     OW 7756   6.947   6.735   4.557
 2286SOL    HW1 7757   6.876   6.751   4.489
 2286SOL    HW2 7758   6.988   6.645   4.543
 2287SOL     OW 7759   2.609   2.857   1.689
 2287SOL    HW1 7760   2.688   2.841   1.630
 2287SOL    HW2 7761   2.528   2.874   1.633
 2288SOL     OW 7762   6.665   4.677   4.240
 2288SOL    HW1 7763   6.683   4.762   4.290
 2288SOL    HW2 7764   6.649   4.603   4.304
 2289SOL     OW 7765   6.357   3.927   2.555
 2289SOL    HW1 7766   6.331   4.023   2.542
 2289SOL    HW2 7767   6.296   3.885   2.622
 2290SOL     OW 7768   2.092   3.602   2.304
 2290SOL    HW1 7769   2.137   3.590   2.216
 2290SOL    HW2 7770   1.993   3.614   2.290
 2291SOL     OW 7771   2.364   2.040   0.470
 2291SOL    HW1 7772   2.402   2.025   0.378
 2291SOL    HW2 7773   2.324   1.955   0.503
 2292SOL     OW 7774   5.558   2.272   3.136
 2292SOL    HW1 7775   5.566   2.173   3.133
 2292SOL    HW2 7776   5.479   2.301   3.082
 2293SOL     OW 7777   6.905   6.861   0.936
 2293SOL    HW1 7778   6.944   6.935   0.992
 2293SOL    HW2 7779   6.953   6.776   0.955
 2294SOL     OW 7780   3.261   1.510   5.883
 2294SOL    HW1 7781   3.309   1.444   5.825
 2294SOL    HW2 7782   3.278   1.603   5.848
 2295SOL     OW 7783   0.655   1.686   3.162
 2295SOL    HW1 7784   0.659   1.694   3.062
 2295SOL    HW2 7785   0.737   1.728   3.202
 2296SOL     OW 7786   3.130   5.085   3.150
 2296SOL    HW1 7787   3.214   5.031   3.140
 2296SOL    HW2 7788   3.152   5.174   3.191
 2297SOL     OW 7789   4.800   4.663   5.859
 2297SOL    HW1 7790   4.829   4.738   5.799
 2297SOL    HW2 7791   4.880   4.623   5.904
 2298SOL     OW 7792   4.050   3.856   2.842
 2298SOL    HW1 7793   4.043   3.914   2.760
 2298SOL    HW2 7794   4.097   3.771   2.819
 2299SOL     OW 7795   5.029   4.336   5.164
 2299SOL    HW1 7796   4.944   4.296   5.197
 2299SOL    HW2 7797   5.057   4.409   5.227
 2300SOL     OW 7798   2.719   6.408   3.581
 2300SOL    HW1 7799   2.624   6.386   3.603
 2300SOL    HW2 7800   2.740   6.378   3.488
 2301SOL     OW 7801   3.673   2.950   3.710
 2301SOL    HW1 7802   3.576   2.950   3.733
 2301SOL    HW2 7803   3.727   2.953   3.795
 2302SOL     OW 7804   3.521   0.434   1.302
 2302SOL    HW1 7805   3.541   0.491   1.222
 2302SOL    HW2 7806   3.545   0.484   1.385
 2303SOL     OW 7807   2.524   3.370   0.865
 2303SOL    HW1 7808   2.529   3.274   0.837
 2303SOL    HW2 7809   2.560   3.380   0.958
 2304SOL     OW 7810   5.826   6.237   4.457
 2304SOL    HW1 7811   5.807   6.326   4.499
 2304SOL    HW2 7812   5.884   6.183   4.519
 2305SOL     OW 7813   2.188   0.625   3.037
 2305SOL    HW1 7814   2.272   0.665   3.073
 2305SOL    HW2 7815   2.209   0.566   2.960
 2306SOL     OW 7816   1.623   5.489   1.438
 2306SOL    HW1 7817   1.555   5.517   1.506
 2306SOL    HW2 7818   1.577   5.458   1.355
 2307SOL     OW 7819   0.373   2.987   5.618
 2307SOL    HW1 7820   0.355   2.893   5.587
 2307SOL    HW2 7821   0.441   2.986   5.691
 2308SOL     OW 7822   2.651   4.625   1.450
 2308SOL    HW1 7823   2.591   4.566   1.396
 2308SOL    HW2 7824   2.710   4.568   1.507
 2309SOL     OW 7825   1.804   0.796   4.939
 2309SOL    HW1 7826   1.744   0.735   4.889
 2309SOL    HW2 7827   1.793   0.781   5.037
 2310SOL     OW 7828   5.693   6.116   2.053
 2310SOL    HW1 7829   5.779   6.067   2.066
 2310SOL    HW2 7830   5.625   6.055   2.011
 2311SOL     OW 7831   2.692   6.461   0.572
 2311SOL    HW1 7832   2.694   6.400   0.493
 2311SOL    HW2 7833   2.782   6.461   0.616
 2312SOL     OW 7834   4.674   5.656   3.380
 2312SOL    HW1 7835   4.700   5.641   3.475
 2312SOL    HW2 7836   4.716   5.740   3.346
 2313SOL     OW 7837   4.629   5.270   1.950
 2313SOL    HW1 7838   4.536   5.307   1.950
 2313SOL    HW2 7839   4.680   5.310   2.026
 2314SOL     OW 7840   4.576   6.303   2.549
 2314SOL    HW1 7841   4.549   6.326   2.456
 2314SOL    HW2 7842   4.664   6.255   2.548
 2315SOL     OW 7843   5.192   3.263   5.715
 2315SOL    HW1 7844   5.238   3.274   5.803
 2315SOL    HW2 7845   5.253   3.214   5.652
 2316SOL     OW 7846   4.876   1.969   3.945
 2316SOL    HW1 7847   4.897   1.902   3.873
 2316SOL    HW2 7848   4.844   1.921   4.027
 2317SOL     OW 7849   0.262   5.561   3.040
 2317SOL    HW1 7850   0.247   5.647   2.991
 2317SOL    HW2 7851   0.179   5.505   3.034
 2318SOL     OW 7852   0.584   2.873   3.567
 2318SOL    HW1 7853   0.491   2.834   3.567
 2318SOL    HW2 7854   0.603   2.912   3.657
 2319SOL     OW 7855   1.358   4.799   4.680
 2319SOL    HW1 7856   1.399   4.713   4.649
 2319SOL    HW2 7857   1.259   4.786   4.691
 2320SOL     OW 7858   1.110   2.559   4.165
 2320SOL    HW1 7859   1.124   2.472   4.117
 2320SOL    HW2 7860   1.012   2.581   4.166
 2321SOL     OW 7861   3.039   1.221   5.174
 2321SOL    HW1 7862   3.043   1.278   5.092
 2321SOL    HW2 7863   3.060   1.126   5.150
 2322SOL     OW 7864   2.499   1.724   4.963
 2322SOL    HW1 7865   2.447   1.720   4.877
 2322SOL    HW2 7866   2.442   1.766   5.034
 2323SOL     OW 7867   2.948   4.797   2.424
 2323SOL    HW1 7868   2.968   4.893   2.401
 2323SOL    HW2 7869   2.920   4.791   2.519
 2324SOL     OW 7870   0.113   6.399   3.001
 2324SOL    HW1 7871   0.066   6.325   3.048
 2324SOL    HW2 7872   0.198   6.365   2.960
 2325SOL     OW 7873   0.592   4.399   1.343
 2325SOL    HW1 7874   0.572   4.315   1.394
 2325SOL    HW2 7875   0.678   4.439   1.375
 2326SOL     OW 7876   3.082   3.992   6.202
 2326SOL    HW1 7877   3.140   3.990   6.284
 2326SOL    HW2 7878   3.105   4.071   6.147
 2327SOL     OW 7879   5.533   2.922   4.595
 2327SOL    HW1 7880   5.584   3.008   4.593
 2327SOL    HW2 7881   5.530   2.887   4.689
 2328SOL     OW 7882   4.442   1.633   3.605
 2328SOL    HW1 7883   4.378   1.588   3.667
 2328SOL    HW2 7884   4.523   1.575   3.591
 2329SOL     OW 7885   1.510   5.214   4.940
 2329SOL    HW1 7886   1.609   5.203   4.945
 2329SOL    HW2 7887   1.481   5.209   4.845
 2330SOL     OW 7888   6.872   4.194   2.444
 2330SOL    HW1 7889   6.788   4.232   2.404
 2330SOL    HW2 7890   6.933   4.163   2.372
 2331SOL     OW 7891   6.579   5.072   6.516
 2331SOL    HW1 7892   6.486   5.111   6.516
 2331SOL    HW2 7893   6.584   5.000   6.585
 2332SOL     OW 7894   4.618   1.814   5.156
 2332SOL    HW1 7895   4.590   1.909   5.171
 2332SOL    HW2 7896   4.646   1.774   5.244
 2333SOL     OW 7897   6.407   4.877   2.925
 2333SOL    HW1 7898   6.433   4.873   2.829
 2333SOL    HW2 7899   6.489   4.870   2.983
 2334SOL     OW 7900   2.748   0.184   0.331
 2334SOL    HW1 7901   2.784   0.134   0.251
 2334SOL    HW2 7902   2.673   0.132   0.371
 2335SOL     OW 7903   5.855   0.879   2.940
 2335SOL    HW1 7904   5.761   0.910   2.955
 2335SOL    HW2 7905   5.863   0.782   2.964
 2336SOL     OW 7906   4.782   1.956   5.529
 2336SOL    HW1 7907   4.720   1.975   5.605
 2336SOL    HW2 7908   4.762   1.866   5.491
 2337SOL     OW 7909   5.151   0.726   3.347
 2337SOL    HW1 7910   5.060   0.713   3.308
 2337SOL    HW2 7911   5.221   0.696   3.282
 2338SOL     OW 7912   0.977   0.086   6.620
 2338SOL    HW1 7913   0.959   0.097   6.718
 2338SOL    HW2 7914   1.075   0.073   6.605
 2339SOL     OW 7915   3.889   3.865   5.374
 2339SOL    HW1 7916   3.928   3.893   5.287
 2339SOL    HW2 7917   3.796   3.830   5.360
 2340SOL     OW 7918   4.494   6.795   5.498
 2340SOL    HW1 7919   4.398   6.772   5.510
 2340SOL    HW2 7920   4.519   6.869   5.561
 2341SOL     OW 7921   4.780   3.984   1.198
 2341SOL    HW1 7922   4.697   4.012   1.150
 2341SOL    HW2 7923   4.815   4.062   1.250
 2342SOL     OW 7924   0.886   5.803   5.620
 2342SOL    HW1 7925   0.950   5.803   5.543
 2342SOL    HW2 7926   0.814   5.870   5.603
 2343SOL     OW 7927   2.010   6.446   1.064
 2343SOL    HW1 7928   1.976   6.399   1.146
 2343SOL    HW2 7929   2.107   6.468   1.077
 2344SOL     OW 7930   2.117   1.018   1.441
 2344SOL    HW1 7931   2.192   1.074   1.405
 2344SOL    HW2 7932   2.040   1.019   1.378
 2345SOL     OW 7933   2.027   6.322   5.480
 2345SOL    HW1 7934   2.003   6.286   5.570
 2345SOL    HW2 7935   2.070   6.250   5.425
 2346SOL     OW 7936   4.842   2.949   5.096
 2346SOL    HW1 7937   4.941   2.941   5.086
 2346SOL    HW2 7938   4.820   3.018   5.164
 2347SOL     OW 7939   2.068   4.097   1.794
 2347SOL    HW1 7940   2.108   4.178   1.752
 2347SOL    HW2 7941   2.067   4.108   1.894
 2348SOL     OW 7942   2.309   6.236   3.393
 2348SOL    HW1 7943   2.306   6.159   3.330
 2348SOL    HW2 7944   2.348   6.316   3.347
 2349SOL     OW 7945   0.697   6.546   0.242
 2349SOL    HW1 7946   0.761   6.493   0.186
 2349SOL    HW2 7947   0.702   6.513   0.336
 2350SOL     OW 7948   4.344   6.900   5.776
 2350SOL    HW1 7949   4.254   6.860   5.761
 2350SOL    HW2 7950   4.366   6.899   5.873
 2351SOL     OW 7951   3.334   5.415   3.614
 2351SOL    HW1 7952   3.305   5.436   3.520
 2351SOL    HW2 7953   3.424   5.373   3.612
 2352SOL     OW 7954   0.233   4.556   2.861
 2352SOL    HW1 7955   0.175   4.637   2.857
 2352SOL    HW2 7956   0.290   4.560   2.944
 2353SOL     OW 7957   2.397   4.427   4.677
 2353SOL    HW1 7958   2.402   4.491   4.754
 2353SOL    HW2 7959   2.477   4.366   4.679
 2354SOL     OW 7960   3.617   2.480   6.614
 2354SOL    HW1 7961   3.572   2.435   6.536
 2354SOL    HW2 7962   3.629   2.415   6.688
 2355SOL     OW 7963   0.692   5.619   0.624
 2355SOL    HW1 7964   0.737   5.624   0.712
 2355SOL    HW2 7965   0.652   5.528   0.612
 2356SOL     OW 7966   2.184   3.551   1.456
 2356SOL    HW1 7967   2.107   3.516   1.402
 2356SOL    HW2 7968   2.151   3.613   1.526
 2357SOL     OW 7969   4.283   4.981   3.727
 2357SOL    HW1 7970   4.210   5.040   3.760
 2357SOL    HW2 7971   4.281   4.894   3.777
 2358SOL     OW 7972   3.038   6.480   4.276
 2358SOL    HW1 7973   3.124   6.498   4.324
 2358SOL    HW2 7974   2.964   6.473   4.343
 2359SOL     OW 7975   1.897   0.580   6.246
 2359SOL    HW1 7976   1.857   0.671   6.241
 2359SOL    HW2 7977   1.836   0.519   6.297
 2360SOL     OW 7978   4.423   5.128   6.011
 2360SOL    HW1 7979   4.384   5.063   5.945
 2360SOL    HW2 7980   4.504   5.087   6.054
 2361SOL     OW 7981   2.720   0.369   3.930
 2361SOL    HW1 7982   2.778   0.408   4.001
 2361SOL    HW2 7983   2.777   0.330   3.858
 2362SOL     OW 7984   4.833   6.584   4.884
 2362SOL    HW1 7985   4.762   6.515   4.870
 2362SOL    HW2 7986   4.791   6.675   4.884
 2363SOL     OW 7987   4.537   2.656   4.852
 2363SOL    HW1 7988   4.446   2.696   4.867
 2363SOL    HW2 7989   4.599   2.689   4.923
 2364SOL     OW 7990   6.028   2.177   1.784
 2364SOL    HW1 7991   6.115   2.215   1.814
 2364SOL    HW2 7992   6.002   2.218   1.696
 2365SOL     OW 7993   5.899   3.868   5.723
 2365SOL    HW1 7994   5.996   3.847   5.711
 2365SOL    HW2 7995   5.845   3.806   5.668
 2366SOL     OW 7996   1.077   4.314   5.402
 2366SOL    HW1 7997   1.090   4.333   5.305
 2366SOL    HW2 7998   1.127   4.230   5.426
 2367SOL     OW 7999   1.139   3.592   6.749
 2367SOL    HW1 8000   1.156   3.674   6.695
 2367SOL    HW2 8001   1.068   3.537   6.705
 2368SOL     OW 8002   4.597   1.123   5.174
 2368SOL    HW1 8003   4.605   1.052   5.104
 2368SOL    HW2 8004   4.622   1.212   5.135
 2369SOL     OW 8005   2.353   2.069   3.901
 2369SOL    HW1 8006   2.385   2.036   3.990
 2369SOL    HW2 8007   2.294   2.149   3.915
 2370SOL     OW 8008   4.214   3.647   0.272
 2370SOL    HW1 8009   4.296   3.702   0.285
 2370SOL    HW2 8010   4.226   3.586   0.194
 2371SOL     OW 8011   1.934   5.803   2.128
 2371SOL    HW1 8012   2.021   5.753   2.129
 2371SOL    HW2 8013   1.945   5.890   2.176
 2372SOL     OW 8014   0.710   1.756   0.251
 2372SOL    HW1 8015   0.694   1.806   0.167
 2372SOL    HW2 8016   0.625   1.748   0.303
 2373SOL     OW 8017   5.997   1.128   6.607
 2373SOL    HW1 8018   6.020   1.180   6.689
 2373SOL    HW2 8019   5.899   1.111   6.604
 2374SOL     OW 8020   6.480   5.939   3.571
 2374SOL    HW1 8021   6.536   5.904   3.646
 2374SOL    HW2 8022   6.537   5.989   3.507
 2375SOL     OW 8023   0.758   0.206   4.718
 2375SOL    HW1 8024   0.674   0.152   4.715
 2375SOL    HW2 8025   0.766   0.251   4.807
 2376SOL     OW 8026   6.075   2.899   3.295
 2376SOL    HW1 8027   5.994   2.839   3.298
 2376SOL    HW2 8028   6.090   2.939   3.385
 2377SOL     OW 8029   3.339   3.693   4.461
 2377SOL    HW1 8030   3.304   3.781   4.493
 2377SOL    HW2 8031   3.434   3.703   4.432
 2378SOL     OW 8032   5.657   1.706   0.261
 2378SOL    HW1 8033   5.605   1.789   0.281
 2378SOL    HW2 8034   5.745   1.731   0.219
 2379SOL     OW 8035   6.776   3.467   0.005
 2379SOL    HW1 8036   6.686   3.487   6.991
 2379SOL    HW2 8037   6.836   3.428   6.960
 2380SOL     OW 8038   6.525   0.659   5.458
 2380SOL    HW1 8039   6.613   0.632   5.419
 2380SOL    HW2 8040   6.451   0.625   5.399
 2381SOL     OW 8041   1.398   4.330   5.003
 2381SOL    HW1 8042   1.435   4.422   4.992
 2381SOL    HW2 8043   1.448   4.281   5.075
 2382SOL     OW 8044   2.117   5.586   2.856
 2382SOL    HW1 8045   2.079   5.568   2.947
 2382SOL    HW2 8046   2.217   5.579   2.861
 2383SOL     OW 8047   5.541   6.508   6.161
 2383SOL    HW1 8048   5.560   6.477   6.068
 2383SOL    HW2 8049   5.442   6.513   6.175
 2384SOL     OW 8050   1.103   2.105   1.580
 2384SOL    HW1 8051   1.164   2.130   1.504
 2384SOL    HW2 8052   1.146   2.032   1.634
 2385SOL     OW 8053   0.476   0.250   0.924
 2385SOL    HW1 8054   0.563   0.252   0.875
 2385SOL    HW2 8055   0.477   0.173   0.989
 2386SOL     OW 8056   3.329   5.386   4.397
 2386SOL    HW1 8057   3.406   5.426   4.348
 2386SOL    HW2 8058   3.246   5.394   4.341
 2387SOL     OW 8059   6.624   2.917   4.038
 2387SOL    HW1 8060   6.645   2.964   3.952
 2387SOL    HW2 8061   6.533   2.878   4.033
 2388SOL     OW 8062   1.055   1.759   5.429
 2388SOL    HW1 8063   1.048   1.661   5.445
 2388SOL    HW2 8064   0.985   1.787   5.363
 2389SOL     OW 8065   4.450   4.691   3.932
 2389SOL    HW1 8066   4.463   4.767   3.995
 2389SOL    HW2 8067   4.533   4.634   3.931
 2390SOL     OW 8068   3.776   3.724   4.962
 2390SOL    HW1 8069   3.691   3.694   4.919
 2390SOL    HW2 8070   3.832   3.773   4.896
 2391SOL     OW 8071   3.698   4.392   6.111
 2391SOL    HW1 8072   3.651   4.367   6.195
 2391SOL    HW2 8073   3.638   4.448   6.054
 2392SOL     OW 8074   3.421   4.504   6.324
 2392SOL    HW1 8075   3.462   4.413   6.317
 2392SOL    HW2 8076   3.492   4.572   6.339
 2393SOL     OW 8077   4.032   5.500   1.183
 2393SOL    HW1 8078   4.056   5.597   1.176
 2393SOL    HW2 8079   3.932   5.491   1.186
 2394SOL     OW 8080   0.875   3.909   4.739
 2394SOL    HW1 8081   0.825   3.840   4.791
 2394SOL    HW2 8082   0.933   3.865   4.670
 2395SOL     OW 8083   6.786   2.777   6.818
 2395SOL    HW1 8084   6.874   2.729   6.826
 2395SOL    HW2 8085   6.745   2.784   6.909
 2396SOL     OW 8086   5.670   6.234   0.750
 2396SOL    HW1 8087   5.626   6.303   0.692
 2396SOL    HW2 8088   5.731   6.281   0.816
 2397SOL     OW 8089   6.808   5.068   0.103
 2397SOL    HW1 8090   6.885   5.007   0.083
 2397SOL    HW2 8091   6.843   5.159   0.125
 2398SOL     OW 8092   2.706   4.749   4.779
 2398SOL    HW1 8093   2.706   4.831   4.837
 2398SOL    HW2 8094   2.760   4.677   4.823
 2399SOL     OW 8095   4.257   1.616   3.837
 2399SOL    HW1 8096   4.323   1.541   3.838
 2399SOL    HW2 8097   4.193   1.604   3.761
 2400SOL     OW 8098   2.973   3.670   0.829
 2400SOL    HW1 8099   2.944   3.680   0.924
 2400SOL    HW2 8100   2.897   3.635   0.774
 2401SOL     OW 8101   3.320   0.670   4.482
 2401SOL    HW1 8102   3.247   0.720   4.528
 2401SOL    HW2 8103   3.396   0.656   4.545
 2402SOL     OW 8104   0.363   1.445   3.902
 2402SOL    HW1 8105   0.389   1.471   3.994
 2402SOL    HW2 8106   0.269   1.473   3.884
 2403SOL     OW 8107   3.611   3.053   0.874
 2403SOL    HW1 8108   3.670   2.975   0.895
 2403SOL    HW2 8109   3.649   3.135   0.917
 2404SOL     OW 8110   5.797   1.411   1.912
 2404SOL    HW1 8111   5.767   1.482   1.849
 2404SOL    HW2 8112   5.814   1.452   2.002
 2405SOL     OW 8113   3.783   4.110   5.423
 2405SOL    HW1 8114   3.816   4.018   5.403
 2405SOL    HW2 8115   3.691   4.121   5.385
 2406SOL     OW 8116   2.461   0.597   3.525
 2406SOL    HW1 8117   2.366   0.620   3.503
 2406SOL    HW2 8118   2.511   0.680   3.549
 2407SOL     OW 8119   4.629   2.565   2.775
 2407SOL    HW1 8120   4.618   2.665   2.769
 2407SOL    HW2 8121   4.635   2.527   2.683
 2408SOL     OW 8122   3.543   4.925   3.250
 2408SOL    HW1 8123   3.608   4.923   3.326
 2408SOL    HW2 8124   3.451   4.940   3.285
 2409SOL     OW 8125   2.150   2.671   1.322
 2409SOL    HW1 8126   2.135   2.573   1.314
 2409SOL    HW2 8127   2.221   2.700   1.258
 2410SOL     OW 8128   6.391   3.539   5.707
 2410SOL    HW1 8129   6.380   3.555   5.609
 2410SOL    HW2 8130   6.468   3.592   5.741
 2411SOL     OW 8131   3.107   3.858   5.676
 2411SOL    HW1 8132   3.041   3.927   5.704
 2411SOL    HW2 8133   3.150   3.885   5.590
 2412SOL     OW 8134   3.168   3.251   0.382
 2412SOL    HW1 8135   3.123   3.286   0.300
 2412SOL    HW2 8136   3.175   3.152   0.377
 2413SOL     OW 8137   5.983   3.789   6.587
 2413SOL    HW1 8138   6.024   3.792   6.678
 2413SOL    HW2 8139   6.055   3.790   6.518
 2414SOL     OW 8140   5.672   3.545   2.828
 2414SOL    HW1 8141   5.667   3.504   2.737
 2414SOL    HW2 8142   5.600   3.506   2.886
 2415SOL     OW 8143   2.073   0.415   1.686
 2415SOL    HW1 8144   2.020   0.495   1.714
 2415SOL    HW2 8145   2.020   0.332   1.704
 2416SOL     OW 8146   1.276   1.582   4.880
 2416SOL    HW1 8147   1.262   1.584   4.978
 2416SOL    HW2 8148   1.189   1.562   4.834
 2417SOL     OW 8149   5.591   1.824   0.913
 2417SOL    HW1 8150   5.514   1.881   0.883
 2417SOL    HW2 8151   5.654   1.811   0.836
 2418SOL     OW 8152   3.289   3.601   5.302
 2418SOL    HW1 8153   3.243   3.512   5.290
 2418SOL    HW2 8154   3.289   3.625   5.398
 2419SOL     OW 8155   1.205   6.822   5.475
 2419SOL    HW1 8156   1.166   6.744   5.524
 2419SOL    HW2 8157   1.219   6.898   5.539
 2420SOL     OW 8158   3.883   0.125   2.208
 2420SOL    HW1 8159   3.954   0.091   2.148
 2420SOL    HW2 8160   3.891   0.082   2.298
 2421SOL     OW 8161   3.179   0.187   4.485
 2421SOL    HW1 8162   3.112   0.136   4.538
 2421SOL    HW2 8163   3.179   0.283   4.513
 2422SOL     OW 8164   4.623   0.590   0.566
 2422SOL    HW1 8165   4.554   0.661   0.557
 2422SOL    HW2 8166   4.617   0.550   0.658
 2423SOL     OW 8167   2.081   5.552   2.494
 2423SOL    HW1 8168   1.991   5.536   2.453
 2423SOL    HW2 8169   2.078   5.634   2.551
 2424SOL     OW 8170   5.739   6.197   6.464
 2424SOL    HW1 8171   5.822   6.150   6.434
 2424SOL    HW2 8172   5.682   6.217   6.384
 2425SOL     OW 8173   5.683   6.626   5.482
 2425SOL    HW1 8174   5.691   6.679   5.397
 2425SOL    HW2 8175   5.618   6.551   5.467
 2426SOL     OW 8176   1.067   5.719   4.521
 2426SOL    HW1 8177   1.053   5.678   4.431
 2426SOL    HW2 8178   1.055   5.649   4.591
 2427SOL     OW 8179   5.568   5.623   6.858
 2427SOL    HW1 8180   5.527   5.646   6.770
 2427SOL    HW2 8181   5.663   5.596   6.845
 2428SOL     OW 8182   0.565   0.555   3.210
 2428SOL    HW1 8183   0.628   0.558   3.287
 2428SOL    HW2 8184   0.499   0.630   3.219
 2429SOL     OW 8185   6.121   4.861   2.954
 2429SOL    HW1 8186   6.204   4.859   2.898
 2429SOL    HW2 8187   6.143   4.828   3.046
 2430SOL     OW 8188   5.286   2.741   0.729
 2430SOL    HW1 8189   5.364   2.678   0.724
 2430SOL    HW2 8190   5.302   2.807   0.802
 2431SOL     OW 8191   4.512   0.955   1.128
 2431SOL    HW1 8192   4.572   1.009   1.069
 2431SOL    HW2 8193   4.559   0.870   1.155
 2432SOL     OW 8194   3.485   6.521   2.615
 2432SOL    HW1 8195   3.490   6.423   2.598
 2432SOL    HW2 8196   3.556   6.547   2.681
 2433SOL     OW 8197   2.382   6.605   6.828
 2433SOL    HW1 8198   2.462   6.621   6.886
 2433SOL    HW2 8199   2.401   6.636   6.735
 2434SOL     OW 8200   5.381   1.623   3.358
 2434SOL    HW1 8201   5.481   1.614   3.352
 2434SOL    HW2 8202   5.345   1.547   3.413
 2435SOL     OW 8203   5.125   4.787   0.294
 2435SOL    HW1 8204   5.043   4.843   0.309
 2435SOL    HW2 8205   5.129   4.759   0.198
 2436SOL     OW 8206   1.751   6.967   1.691
 2436SOL    HW1 8207   1.840   6.992   1.730
 2436SOL    HW2 8208   1.735   7.021   1.609
 2437SOL     OW 8209   5.203   6.175   1.338
 2437SOL    HW1 8210   5.125   6.210   1.391
 2437SOL    HW2 8211   5.268   6.130   1.399
 2438SOL     OW 8212   4.247   0.886   4.562
 2438SOL    HW1 8213   4.223   0.807   4.619
 2438SOL    HW2 8214   4.168   0.910   4.505
 2439SOL     OW 8215   1.068   4.279   0.454
 2439SOL    HW1 8216   1.054   4.362   0.401
 2439SOL    HW2 8217   1.073   4.302   0.551
 2440SOL     OW 8218   4.094   6.509   5.398
 2440SOL    HW1 8219   4.174   6.450   5.385
 2440SOL    HW2 8220   4.116   6.582   5.462
 2441SOL     OW 8221   5.553   0.257   6.931
 2441SOL    HW1 8222   5.523   0.209   6.848
 2441SOL    HW2 8223   5.585   0.348   6.907
 2442SOL     OW 8224   5.506   5.532   2.893
 2442SOL    HW1 8225   5.485   5.605   2.958
 2442SOL    HW2 8226   5.578   5.563   2.830
 2443SOL     OW 8227   2.982   0.205   6.191
 2443SOL    HW1 8228   2.906   0.207   6.126
 2443SOL    HW2 8229   3.063   0.246   6.149
 2444SOL     OW 8230   3.621   3.764   0.140
 2444SOL    HW1 8231   3.622   3.716   0.052
 2444SOL    HW2 8232   3.603   3.699   0.214
 2445SOL     OW 8233   6.660   1.330   1.847
 2445SOL    HW1 8234   6.704   1.371   1.927
 2445SOL    HW2 8235   6.600   1.256   1.877
 2446SOL     OW 8236   1.064   2.983   4.937
 2446SOL    HW1 8237   1.035   2.963   4.843
 2446SOL    HW2 8238   1.036   2.907   4.997
 2447SOL     OW 8239   2.497   1.271   1.082
 2447SOL    HW1 8240   2.511   1.190   1.140
 2447SOL    HW2 8241   2.460   1.345   1.137
 2448SOL     OW 8242   6.610   1.448   4.445
 2448SOL    HW1 8243   6.635   1.499   4.527
 2448SOL    HW2 8244   6.595   1.512   4.370
 2449SOL     OW 8245   0.330   3.866   2.626
 2449SOL    HW1 8246   0.353   3.963   2.637
 2449SOL    HW2 8247   0.409   3.811   2.654
 2450SOL     OW 8248   3.458   5.136   6.263
 2450SOL    HW1 8249   3.361   5.157   6.268
 2450SOL    HW2 8250   3.492   5.113   6.354
 2451SOL     OW 8251   1.233   6.932   3.475
 2451SOL    HW1 8252   1.215   6.985   3.558
 2451SOL    HW2 8253   1.257   6.838   3.501
 2452SOL     OW 8254   3.144   1.549   3.903
 2452SOL    HW1 8255   3.230   1.556   3.853
 2452SOL    HW2 8256   3.154   1.486   3.980
 2453SOL     OW 8257   7.020   3.328   0.281
 2453SOL    HW1 8258   0.054   3.290   0.210
 2453SOL    HW2 8259   6.979   3.413   0.248
 2454SOL     OW 8260   3.297   0.661   6.646
 2454SOL    HW1 8261   3.393   0.677   6.667
 2454SOL    HW2 8262   3.240   0.701   6.718
 2455SOL     OW 8263   4.030   0.516   0.483
 2455SOL    HW1 8264   3.956   0.541   0.420
 2455SOL    HW2 8265   4.117   0.548   0.446
 2456SOL     OW 8266   6.301   2.280   0.261
 2456SOL    HW1 8267   6.329   2.242   0.173
 2456SOL    HW2 8268   6.353   2.236   0.335
 2457SOL     OW 8269   6.165   0.844   6.299
 2457SOL    HW1 8270   6.188   0.941   6.297
 2457SOL    HW2 8271   6.066   0.833   6.293
 2458SOL     OW 8272   1.677   6.301   3.876
 2458SOL    HW1 8273   1.747   6.340   3.936
 2458SOL    HW2 8274   1.612   6.247   3.931
 2459SOL     OW 8275   2.730   5.921   5.853
 2459SOL    HW1 8276   2.701   6.005   5.807
 2459SOL    HW2 8277   2.650   5.868   5.881
 2460SOL     OW 8278   1.509   1.430   1.513
 2460SOL    HW1 8279   1.608   1.445   1.502
 2460SOL    HW2 8280   1.474   1.380   1.434
 2461SOL     OW 8281   5.099   0.902   3.047
 2461SOL    HW1 8282   5.094   0.918   2.949
 2461SOL    HW2 8283   5.194   0.879   3.072
 2462SOL     OW 8284   1.921   5.448   6.933
 2462SOL    HW1 8285   1.825   5.473   6.921
 2462SOL    HW2 8286   1.977   5.531   6.934
 2463SOL     OW 8287   5.793   1.969   6.567
 2463SOL    HW1 8288   5.859   2.040   6.592
 2463SOL    HW2 8289   5.835   1.905   6.503
 2464SOL     OW 8290   2.070   4.006   2.665
 2464SOL    HW1 8291   2.149   4.056   2.700
 2464SOL    HW2 8292   2.101   3.928   2.610
 2465SOL     OW 8293   1.385   0.149   0.158
 2465SOL    HW1 8294   1.289   0.149   0.130
 2465SOL    HW2 8295   1.408   0.062   0.201
 2466SOL     OW 8296   2.642   1.875   2.911
 2466SOL    HW1 8297   2.650   1.806   2.839
 2466SOL    HW2 8298   2.696   1.848   2.990
 2467SOL     OW 8299   5.169   1.741   4.906
 2467SOL    HW1 8300   5.092   1.805   4.906
 2467SOL    HW2 8301   5.254   1.791   4.887
 2468SOL     OW 8302   4.570   6.427   1.525
 2468SOL    HW1 8303   4.612   6.457   1.439
 2468SOL    HW2 8304   4.514   6.346   1.509
 2469SOL     OW 8305   4.421   3.971   5.393
 2469SOL    HW1 8306   4.463   4.059   5.368
 2469SOL    HW2 8307   4.324   3.973   5.371
 2470SOL     OW 8308   4.903   4.224   6.116
 2470SOL    HW1 8309   4.939   4.235   6.023
 2470SOL    HW2 8310   4.973   4.185   6.175
 2471SOL     OW 8311   2.604   6.170   0.826
 2471SOL    HW1 8312   2.636   6.147   0.735
 2471SOL    HW2 8313   2.583   6.268   0.831
 2472SOL     OW 8314   4.537   2.580   3.852
 2472SOL    HW1 8315   4.519   2.566   3.754
 2472SOL    HW2 8316   4.516   2.497   3.902
 2473SOL     OW 8317   2.047   3.539   4.822
 2473SOL    HW1 8318   2.083   3.512   4.912
 2473SOL    HW2 8319   2.055   3.638   4.811
 2474SOL     OW 8320   0.255   5.460   1.172
 2474SOL    HW1 8321   0.223   5.385   1.231
 2474SOL    HW2 8322   0.300   5.422   1.091
 2475SOL     OW 8323   3.839   0.957   3.538
 2475SOL    HW1 8324   3.823   0.861   3.560
 2475SOL    HW2 8325   3.932   0.968   3.505
 2476SOL     OW 8326   6.822   1.200   2.901
 2476SOL    HW1 8327   6.892   1.218   2.832
 2476SOL    HW2 8328   6.801   1.285   2.950
 2477SOL     OW 8329   4.338   1.149   2.289
 2477SOL    HW1 8330   4.282   1.168   2.208
 2477SOL    HW2 8331   4.278   1.130   2.367
 2478SOL     OW 8332   6.385   1.088   1.654
 2478SOL    HW1 8333   6.456   1.135   1.602
 2478SOL    HW2 8334   6.340   1.020   1.597
 2479SOL     OW 8335   1.165   3.732   1.551
 2479SOL    HW1 8336   1.105   3.653   1.565
 2479SOL    HW2 8337   1.252   3.716   1.597
 2480SOL     OW 8338   4.718   4.217   0.660
 2480SOL    HW1 8339   4.686   4.311   0.671
 2480SOL    HW2 8340   4.664   4.156   0.718
 2481SOL     OW 8341   2.825   6.940   0.323
 2481SOL    HW1 8342   2.781   6.851   0.314
 2481SOL    HW2 8343   2.824   6.968   0.420
 2482SOL     OW 8344   5.191   3.297   5.995
 2482SOL    HW1 8345   5.169   3.224   6.059
 2482SOL    HW2 8346   5.108   3.343   5.966
 2483SOL     OW 8347   1.696   1.439   0.595
 2483SOL    HW1 8348   1.703   1.482   0.685
 2483SOL    HW2 8349   1.651   1.350   0.604
 2484SOL     OW 8350   3.626   0.958   0.385
 2484SOL    HW1 8351   3.566   1.038   0.391
 2484SOL    HW2 8352   3.682   0.951   0.467
 2485SOL     OW 8353   6.483   3.911   1.541
 2485SOL    HW1 8354   6.531   3.879   1.622
 2485SOL    HW2 8355   6.413   3.978   1.567
 2486SOL     OW 8356   1.863   4.890   4.610
 2486SOL    HW1 8357   1.865   4.803   4.562
 2486SOL    HW2 8358   1.778   4.939   4.589
 2487SOL     OW 8359   4.276   6.071   0.421
 2487SOL    HW1 8360   4.180   6.044   0.416
 2487SOL    HW2 8361   4.325   6.009   0.481
 2488SOL     OW 8362   2.034   4.755   2.186
 2488SOL    HW1 8363   1.989   4.671   2.155
 2488SOL    HW2 8364   1.988   4.834   2.145
 2489SOL     OW 8365   1.420   5.382   2.640
 2489SOL    HW1 8366   1.425   5.480   2.620
 2489SOL    HW2 8367   1.343   5.342   2.592
 2490SOL     OW 8368   6.813   5.017   1.448
 2490SOL    HW1 8369   6.852   4.993   1.359
 2490SOL    HW2 8370   6.759   4.940   1.483
 2491SOL     OW 8371   2.296   5.241   0.941
 2491SOL    HW1 8372   2.251   5.292   1.014
 2491SOL    HW2 8373   2.304   5.297   0.859
 2492SOL     OW 8374   4.520   2.418   1.281
 2492SOL    HW1 8375   4.483   2.358   1.210
 2492SOL    HW2 8376   4.586   2.368   1.337
 2493SOL     OW 8377   5.905   0.530   2.259
 2493SOL    HW1 8378   5.993   0.551   2.216
 2493SOL    HW2 8379   5.919   0.463   2.332
 2494SOL     OW 8380   5.995   3.725   2.171
 2494SOL    HW1 8381   5.906   3.754   2.136
 2494SOL    HW2 8382   6.026   3.644   2.122
 2495SOL     OW 8383   5.564   0.577   4.223
 2495SOL    HW1 8384   5.618   0.501   4.184
 2495SOL    HW2 8385   5.475   0.543   4.252
 2496SOL     OW 8386   6.618   3.299   5.810
 2496SOL    HW1 8387   6.714   3.290   5.787
 2496SOL    HW2 8388   6.599   3.393   5.839
 2497SOL     OW 8389   0.703   0.331   0.755
 2497SOL    HW1 8390   0.654   0.302   0.673
 2497SOL    HW2 8391   0.792   0.284   0.759
 2498SOL     OW 8392   3.000   1.523   4.346
 2498SOL    HW1 8393   3.072   1.513   4.415
 2498SOL    HW2 8394   3.035   1.498   4.256
 2499SOL     OW 8395   6.192   2.008   2.763
 2499SOL    HW1 8396   6.190   1.936   2.695
 2499SOL    HW2 8397   6.236   1.974   2.846
 2500SOL     OW 8398   4.460   2.880   6.994
 2500SOL    HW1 8399   4.415   2.798   0.006
 2500SOL    HW2 8400   4.540   2.902   0.025
 2501SOL     OW 8401   5.529   5.497   0.078
 2501SOL    HW1 8402   5.529   5.532   7.010
 2501SOL    HW2 8403   5.482   5.563   0.137
 2502SOL     OW 8404   1.346   5.360   3.542
 2502SOL    HW1 8405   1.263   5.304   3.542
 2502SOL    HW2 8406   1.414   5.317   3.601
 2503SOL     OW 8407   3.115   5.560   3.956
 2503SOL    HW1 8408   3.146   5.638   3.903
 2503SOL    HW2 8409   3.027   5.582   3.999
 2504SOL     OW 8410   3.822   5.231   4.501
 2504SOL    HW1 8411   3.838   5.132   4.508
 2504SOL    HW2 8412   3.747   5.257   4.561
 2505SOL     OW 8413   1.303   5.927   3.595
 2505SOL    HW1 8414   1.403   5.925   3.603
 2505SOL    HW2 8415   1.266   5.841   3.630
 2506SOL     OW 8416   6.755   3.945   5.349
 2506SOL    HW1 8417   6.688   3.892   5.401
 2506SOL    HW2 8418   6.837   3.889   5.334
 2507SOL     OW 8419   0.855   4.044   1.085
 2507SOL    HW1 8420   0.910   4.103   1.026
 2507SOL    HW2 8421   0.899   3.954   1.091
 2508SOL     OW 8422   2.026   1.562   2.335
 2508SOL    HW1 8423   2.006   1.479   2.283
 2508SOL    HW2 8424   2.124   1.567   2.354
 2509SOL     OW 8425   0.128   2.656   1.645
 2509SOL    HW1 8426   0.221   2.652   1.606
 2509SOL    HW2 8427   0.088   2.745   1.624
 2510SOL     OW 8428   2.820   4.395   1.158
 2510SOL    HW1 8429   2.745   4.458   1.135
 2510SOL    HW2 8430   2.888   4.396   1.086
 2511SOL     OW 8431   3.009   2.010   3.724
 2511SOL    HW1 8432   2.947   1.956   3.668
 2511SOL    HW2 8433   2.983   2.002   3.820
 2512SOL     OW 8434   5.281   4.388   4.808
 2512SOL    HW1 8435   5.311   4.458   4.743
 2512SOL    HW2 8436   5.181   4.381   4.805
 2513SOL     OW 8437   1.145   4.079   5.124
 2513SOL    HW1 8438   1.082   4.030   5.064
 2513SOL    HW2 8439   1.132   4.178   5.114
 2514SOL     OW 8440   6.428   3.681   4.428
 2514SOL    HW1 8441   6.460   3.772   4.452
 2514SOL    HW2 8442   6.389   3.682   4.336
 2515SOL     OW 8443   1.596   6.421   0.778
 2515SOL    HW1 8444   1.638   6.408   0.688
 2515SOL    HW2 8445   1.526   6.492   0.772
 2516SOL     OW 8446   6.163   0.984   3.138
 2516SOL    HW1 8447   6.212   1.013   3.220
 2516SOL    HW2 8448   6.222   0.997   3.058
 2517SOL     OW 8449   1.505   5.535   6.040
 2517SOL    HW1 8450   1.555   5.448   6.038
 2517SOL    HW2 8451   1.550   5.600   5.979
 2518SOL     OW 8452   1.285   4.513   0.318
 2518SOL    HW1 8453   1.316   4.497   0.411
 2518SOL    HW2 8454   1.235   4.599   0.313
 2519SOL     OW 8455   5.196   6.509   3.333
 2519SOL    HW1 8456   5.274   6.449   3.350
 2519SOL    HW2 8457   5.226   6.604   3.331
 2520SOL     OW 8458   2.276   2.069   6.825
 2520SOL    HW1 8459   2.278   1.969   6.813
 2520SOL    HW2 8460   2.195   2.106   6.780
 2521SOL     OW 8461   0.752   0.114   5.008
 2521SOL    HW1 8462   0.754   0.022   5.047
 2521SOL    HW2 8463   0.834   0.163   5.034
 2522SOL     OW 8464   0.637   3.460   5.502
 2522SOL    HW1 8465   0.714   3.519   5.476
 2522SOL    HW2 8466   0.652   3.368   5.466
 2523SOL     OW 8467   0.696   2.735   1.977
 2523SOL    HW1 8468   0.722   2.639   1.968
 2523SOL    HW2 8469   0.659   2.769   1.890
 2524SOL     OW 8470   1.219   6.080   5.478
 2524SOL    HW1 8471   1.166   6.043   5.554
 2524SOL    HW2 8472   1.288   6.013   5.449
 2525SOL     OW 8473   1.315   2.434   4.774
 2525SOL    HW1 8474   1.240   2.369   4.759
 2525SOL    HW2 8475   1.332   2.485   4.690
 2526SOL     OW 8476   1.714   3.922   5.706
 2526SOL    HW1 8477   1.771   3.999   5.732
 2526SOL    HW2 8478   1.673   3.938   5.617
 2527SOL     OW 8479   5.683   5.860   4.611
 2527SOL    HW1 8480   5.771   5.858   4.660
 2527SOL    HW2 8481   5.620   5.796   4.654
 2528SOL     OW 8482   5.438   5.295   0.948
 2528SOL    HW1 8483   5.443   5.278   0.849
 2528SOL    HW2 8484   5.474   5.386   0.968
 2529SOL     OW 8485   0.096   6.656   6.708
 2529SOL    HW1 8486   0.067   6.695   6.796
 2529SOL    HW2 8487   0.124   6.730   6.647
 2530SOL     OW 8488   2.095   0.089   5.415
 2530SOL    HW1 8489   2.034   0.164   5.392
 2530SOL    HW2 8490   2.064   0.005   5.370
 2531SOL     OW 8491   5.027   6.104   4.374
 2531SOL    HW1 8492   5.046   6.012   4.339
 2531SOL    HW2 8493   5.112   6.146   4.406
 2532SOL     OW 8494   1.290   6.696   1.173
 2532SOL    HW1 8495   1.260   6.609   1.210
 2532SOL    HW2 8496   1.217   6.764   1.182
 2533SOL     OW 8497   3.133   0.011   3.022
 2533SOL    HW1 8498   3.033   0.005   3.027
 2533SOL    HW2 8499   3.163   7.018   2.928
 2534SOL     OW 8500   3.133   0.489   3.183
 2534SOL    HW1 8501   3.071   0.464   3.257
 2534SOL    HW2 8502   3.177   0.406   3.147
 2535SOL     OW 8503   3.452   2.166   5.667
 2535SOL    HW1 8504   3.370   2.115   5.642
 2535SOL    HW2 8505   3.450   2.188   5.764
 2536SOL     OW 8506   0.295   2.174   4.673
 2536SOL    HW1 8507   0.206   2.130   4.660
 2536SOL    HW2 8508   0.339   2.187   4.584
 2537SOL     OW 8509   3.614   0.122   5.977
 2537SOL    HW1 8510   3.586   0.098   5.884
 2537SOL    HW2 8511   3.712   0.103   5.989
 2538SOL     OW 8512   1.489   5.143   5.230
 2538SOL    HW1 8513   1.440   5.069   5.183
 2538SOL    HW2 8514   1.521   5.210   5.163
 2539SOL     OW 8515   4.682   0.859   5.622
 2539SOL    HW1 8516   4.746   0.801   5.571
 2539SOL    HW2 8517   4.627   0.913   5.558
 2540SOL     OW 8518   4.023   0.921   2.540
 2540SOL    HW1 8519   4.003   0.828   2.507
 2540SOL    HW2 8520   3.986   0.988   2.476
 2541SOL     OW 8521   1.728   6.629   5.131
 2541SOL    HW1 8522   1.784   6.584   5.201
 2541SOL    HW2 8523   1.696   6.717   5.167
 2542SOL     OW 8524   4.570   0.831   5.871
 2542SOL    HW1 8525   4.590   0.912   5.926
 2542SOL    HW2 8526   4.595   0.848   5.776
 2543SOL     OW 8527   1.630   1.690   2.845
 2543SOL    HW1 8528   1.586   1.622   2.903
 2543SOL    HW2 8529   1.562   1.727   2.780
 2544SOL     OW 8530   0.442   6.053   1.199
 2544SOL    HW1 8531   0.441   5.954   1.185
 2544SOL    HW2 8532   0.372   6.096   1.142
 2545SOL     OW 8533   2.023   0.887   1.655
 2545SOL    HW1 8534   2.075   0.933   1.583
 2545SOL    HW2 8535   2.035   0.934   1.741
 2546SOL     OW 8536   0.387   2.223   1.487
 2546SOL    HW1 8537   0.469   2.168   1.475
 2546SOL    HW2 8538   0.334   2.188   1.565
 2547SOL     OW 8539   6.197   3.663   0.185
 2547SOL    HW1 8540   6.236   3.650   0.276
 2547SOL    HW2 8541   6.169   3.574   0.148
 2548SOL     OW 8542   2.535   6.437   5.486
 2548SOL    HW1 8543   2.504   6.429   5.580
 2548SOL    HW2 8544   2.624   6.483   5.483
 2549SOL     OW 8545   1.870   0.596   1.058
 2549SOL    HW1 8546   1.968   0.610   1.075
 2549SOL    HW2 8547   1.818   0.661   1.112
 2550SOL     OW 8548   6.649   0.476   6.087
 2550SOL    HW1 8549   6.550   0.489   6.084
 2550SOL    HW2 8550   6.691   0.552   6.137
 2551SOL     OW 8551   3.794   4.786   0.269
 2551SOL    HW1 8552   3.807   4.858   0.336
 2551SOL    HW2 8553   3.734   4.819   0.195
 2552SOL     OW 8554   2.041   5.613   6.274
 2552SOL    HW1 8555   2.113   5.614   6.204
 2552SOL    HW2 8556   1.968   5.675   6.247
 2553SOL     OW 8557   4.271   3.101   6.441
 2553SOL    HW1 8558   4.369   3.116   6.456
 2553SOL    HW2 8559   4.250   3.117   6.344
 2554SOL     OW 8560   1.977   6.225   6.831
 2554SOL    HW1 8561   1.926   6.297   6.878
 2554SOL    HW2 8562   2.043   6.184   6.894
 2555SOL     OW 8563   5.923   6.948   6.796
 2555SOL    HW1 8564   6.012   6.950   6.841
 2555SOL    HW2 8565   5.936   6.951   6.697
 2556SOL     OW 8566   4.558   5.311   0.319
 2556SOL    HW1 8567   4.527   5.313   0.414
 2556SOL    HW2 8568   4.519   5.230   0.274
 2557SOL     OW 8569   2.602   3.034   6.548
 2557SOL    HW1 8570   2.588   3.117   6.494
 2557SOL    HW2 8571   2.515   3.004   6.586
 2558SOL     OW 8572   4.446   2.998   5.984
 2558SOL    HW1 8573   4.512   2.990   6.059
 2558SOL    HW2 8574   4.355   2.971   6.016
 2559SOL     OW 8575   6.090   3.996   3.678
 2559SOL    HW1 8576   6.109   3.899   3.664
 2559SOL    HW2 8577   6.162   4.050   3.635
 2560SOL     OW 8578   5.621   3.434   4.110
 2560SOL    HW1 8579   5.721   3.435   4.102
 2560SOL    HW2 8580   5.593   3.353   4.161
 2561SOL     OW 8581   2.784   0.092   4.287
 2561SOL    HW1 8582   2.754   0.104   4.192
 2561SOL    HW2 8583   2.815   7.023   4.300
 2562SOL     OW 8584   1.359   5.672   2.537
 2562SOL    HW1 8585   1.456   5.695   2.544
 2562SOL    HW2 8586   1.311   5.745   2.489
 2563SOL     OW 8587   3.816   2.007   0.260
 2563SOL    HW1 8588   3.719   1.995   0.278
 2563SOL    HW2 8589   3.838   2.104   0.252
 2564SOL     OW 8590   1.900   6.194   6.113
 2564SOL    HW1 8591   1.863   6.113   6.068
 2564SOL    HW2 8592   1.896   6.183   6.212
 2565SOL     OW 8593   7.005   0.314   0.286
 2565SOL    HW1 8594   0.058   0.293   0.344
 2565SOL    HW2 8595   7.009   0.259   0.203
 2566SOL     OW 8596   1.659   0.130   1.516
 2566SOL    HW1 8597   1.650   0.215   1.463
 2566SOL    HW2 8598   1.571   0.107   1.558
 2567SOL     OW 8599   0.995   1.202   1.370
 2567SOL    HW1 8600   1.090   1.182   1.394
 2567SOL    HW2 8601   0.942   1.215   1.454
 2568SOL     OW 8602   3.100   6.600   0.114
 2568SOL    HW1 8603   3.110   6.678   0.052
 2568SOL    HW2 8604   3.081   6.634   0.206
 2569SOL     OW 8605   2.573   1.066   1.705
 2569SOL    HW1 8606   2.595   1.002   1.779
 2569SOL    HW2 8607   2.497   1.030   1.651
 2570SOL     OW 8608   5.681   0.308   6.613
 2570SOL    HW1 8609   5.698   0.398   6.572
 2570SOL    HW2 8610   5.748   0.292   6.686
 2571SOL     OW 8611   2.114   4.396   4.988
 2571SOL    HW1 8612   2.112   4.365   4.893
 2571SOL    HW2 8613   2.134   4.318   5.048
 2572SOL     OW 8614   2.218   5.225   0.159
 2572SOL    HW1 8615   2.205   5.154   0.090
 2572SOL    HW2 8616   2.142   5.222   0.225
 2573SOL     OW 8617   6.844   1.856   1.995
 2573SOL    HW1 8618   6.926   1.831   1.944
 2573SOL    HW2 8619   6.792   1.773   2.016
 2574SOL     OW 8620   6.385   3.769   6.975
 2574SOL    HW1 8621   6.343   3.800   6.890
 2574SOL    HW2 8622   6.321   3.712   0.000
 2575SOL     OW 8623   5.315   5.389   6.775
 2575SOL    HW1 8624   5.394   5.332   6.750
 2575SOL    HW2 8625   5.336   5.442   6.857
 2576SOL     OW 8626   3.710   0.155   4.240
 2576SOL    HW1 8627   3.633   0.091   4.244
 2576SOL    HW2 8628   3.676   0.248   4.248
 2577SOL     OW 8629   3.516   6.755   1.681
 2577SOL    HW1 8630   3.528   6.658   1.658
 2577SOL    HW2 8631   3.478   6.764   1.773
 2578SOL     OW 8632   5.167   2.191   3.485
 2578SOL    HW1 8633   5.131   2.124   3.550
 2578SOL    HW2 8634   5.119   2.182   3.398
 2579SOL     OW 8635   1.579   6.261   2.675
 2579SOL    HW1 8636   1.545   6.353   2.691
 2579SOL    HW2 8637   1.571   6.238   2.578
 2580SOL     OW 8638   2.482   2.939   6.813
 2580SOL    HW1 8639   2.441   2.939   6.722
 2580SOL    HW2 8640   2.512   3.031   6.837
 2581SOL     OW 8641   0.576   3.950   1.017
 2581SOL    HW1 8642   0.674   3.967   1.025
 2581SOL    HW2 8643   0.543   3.901   1.098
 2582SOL     OW 8644   0.781   4.709   2.278
 2582SOL    HW1 8645   0.720   4.781   2.311
 2582SOL    HW2 8646   0.793   4.719   2.179
 2583SOL     OW 8647   0.610   1.510   0.584
 2583SOL    HW1 8648   0.574   1.601   0.560
 2583SOL    HW2 8649   0.686   1.487   0.523
 2584SOL     OW 8650   4.346   5.695   0.235
 2584SOL    HW1 8651   4.301   5.607   0.245
 2584SOL    HW2 8652   4.445   5.682   0.228
 2585SOL     OW 8653   5.249   2.323   0.612
 2585SOL    HW1 8654   5.265   2.260   0.688
 2585SOL    HW2 8655   5.277   2.280   0.526
 2586SOL     OW 8656   3.477   1.334   3.264
 2586SOL    HW1 8657   3.503   1.367   3.173
 2586SOL    HW2 8658   3.438   1.410   3.316
 2587SOL     OW 8659   0.541   0.987   3.139
 2587SOL    HW1 8660   0.457   0.937   3.117
 2587SOL    HW2 8661   0.519   1.083   3.156
 2588SOL     OW 8662   4.131   0.593   6.018
 2588SOL    HW1 8663   4.224   0.561   5.996
 2588SOL    HW2 8664   4.089   0.530   6.083
 2589SOL     OW 8665   0.682   6.038   6.525
 2589SOL    HW1 8666   0.705   5.946   6.491
 2589SOL    HW2 8667   0.672   6.100   6.447
 2590SOL     OW 8668   3.318   5.968   0.934
 2590SOL    HW1 8669   3.351   5.911   1.009
 2590SOL    HW2 8670   3.396   6.004   0.882
 2591SOL     OW 8671   6.945   5.797   2.362
 2591SOL    HW1 8672   0.018   5.785   2.369
 2591SOL    HW2 8673   6.899   5.715   2.396
 2592SOL     OW 8674   3.589   6.056   0.852
 2592SOL    HW1 8675   3.586   6.088   0.947
 2592SOL    HW2 8676   3.631   5.966   0.848
 2593SOL     OW 8677   3.113   5.511   0.910
 2593SOL    HW1 8678   3.199   5.461   0.920
 2593SOL    HW2 8679   3.037   5.448   0.922
 2594SOL     OW 8680   1.226   5.354   6.277
 2594SOL    HW1 8681   1.300   5.417   6.255
 2594SOL    HW2 8682   1.222   5.281   6.209
 2595SOL     OW 8683   6.640   1.986   4.364
 2595SOL    HW1 8684   6.738   1.970   4.373
 2595SOL    HW2 8685   6.624   2.072   4.315
 2596SOL     OW 8686   3.578   1.756   1.827
 2596SOL    HW1 8687   3.484   1.788   1.838
 2596SOL    HW2 8688   3.640   1.834   1.821
 2597SOL     OW 8689   1.660   4.469   5.990
 2597SOL    HW1 8690   1.630   4.379   5.960
 2597SOL    HW2 8691   1.717   4.510   5.919
 2598SOL     OW 8692   6.214   1.173   3.372
 2598SOL    HW1 8693   6.256   1.125   3.449
 2598SOL    HW2 8694   6.115   1.160   3.375
 2599SOL     OW 8695   1.874   6.903   1.167
 2599SOL    HW1 8696   1.812   6.965   1.216
 2599SOL    HW2 8697   1.840   6.809   1.175
 2600SOL     OW 8698   5.552   3.166   4.786
 2600SOL    HW1 8699   5.651   3.148   4.786
 2600SOL    HW2 8700   5.535   3.260   4.758
 2601SOL     OW 8701   2.266   1.814   0.816
 2601SOL    HW1 8702   2.182   1.832   0.868
 2601SOL    HW2 8703   2.345   1.836   0.873
 2602SOL     OW 8704   0.861   4.220   4.253
 2602SOL    HW1 8705   0.843   4.123   4.235
 2602SOL    HW2 8706   0.959   4.234   4.267
 2603SOL     OW 8707   2.480   1.306   3.419
 2603SOL    HW1 8708   2.396   1.301   3.474
 2603SOL    HW2 8709   2.468   1.254   3.335
 2604SOL     OW 8710   4.700   1.871   2.655
 2604SOL    HW1 8711   4.708   1.841   2.560
 2604SOL    HW2 8712   4.742   1.803   2.716
 2605SOL     OW 8713   1.955   3.823   2.853
 2605SOL    HW1 8714   1.990   3.891   2.788
 2605SOL    HW2 8715   1.873   3.860   2.898
 2606SOL     OW 8716   5.642   4.312   1.795
 2606SOL    HW1 8717   5.576   4.285   1.865
 2606SOL    HW2 8718   5.662   4.233   1.737
 2607SOL     OW 8719   1.496   1.533   1.119
 2607SOL    HW1 8720   1.485   1.452   1.176
 2607SOL    HW2 8721   1.570   1.590   1.155
 2608SOL     OW 8722   4.893   4.887   1.543
 2608SOL    HW1 8723   4.808   4.845   1.574
 2608SOL    HW2 8724   4.965   4.818   1.541
 2609SOL     OW 8725   6.565   1.406   0.966
 2609SOL    HW1 8726   6.547   1.313   0.998
 2609SOL    HW2 8727   6.546   1.412   0.868
 2610SOL     OW 8728   1.053   4.703   4.784
 2610SOL    HW1 8729   1.034   4.709   4.686
 2610SOL    HW2 8730   1.000   4.772   4.833
 2611SOL     OW 8731   4.623   6.855   1.124
 2611SOL    HW1 8732   4.537   6.849   1.175
 2611SOL    HW2 8733   4.693   6.898   1.181
 2612SOL     OW 8734   6.328   0.159   5.907
 2612SOL    HW1 8735   6.415   0.113   5.921
 2612SOL    HW2 8736   6.276   0.111   5.837
 2613SOL     OW 8737   2.657   6.124   6.081
 2613SOL    HW1 8738   2.594   6.052   6.111
 2613SOL    HW2 8739   2.751   6.096   6.099
 2614SOL     OW 8740   6.862   0.502   5.690
 2614SOL    HW1 8741   6.793   0.433   5.667
 2614SOL    HW2 8742   6.821   0.572   5.748
 2615SOL     OW 8743   6.824   2.780   2.891
 2615SOL    HW1 8744   6.868   2.691   2.875
 2615SOL    HW2 8745   6.865   2.848   2.831
 2616SOL     OW 8746   3.514   3.347   5.575
 2616SOL    HW1 8747   3.493   3.254   5.543
 2616SOL    HW2 8748   3.567   3.341   5.659
 2617SOL     OW 8749   3.655   6.556   0.459
 2617SOL    HW1 8750   3.662   6.468   0.505
 2617SOL    HW2 8751   3.703   6.551   0.371
 2618SOL     OW 8752   6.848   0.746   4.416
 2618SOL    HW1 8753   6.785   0.823   4.404
 2618SOL    HW2 8754   6.803   0.662   4.387
 2619SOL     OW 8755   4.095   1.912   3.554
 2619SOL    HW1 8756   4.104   1.822   3.597
 2619SOL    HW2 8757   4.059   1.977   3.620
 2620SOL     OW 8758   6.544   6.930   3.387
 2620SOL    HW1 8759   6.638   6.923   3.421
 2620SOL    HW2 8760   6.490   6.854   3.424
 2621SOL     OW 8761   0.927   5.610   2.647
 2621SOL    HW1 8762   1.002   5.637   2.708
 2621SOL    HW2 8763   0.964   5.579   2.560
 2622SOL     OW 8764   1.962   3.424   5.386
 2622SOL    HW1 8765   2.056   3.422   5.419
 2622SOL    HW2 8766   1.961   3.448   5.289
 2623SOL     OW 8767   1.254   0.765   5.917
 2623SOL    HW1 8768   1.214   0.820   5.844
 2623SOL    HW2 8769   1.224   0.670   5.907
 2624SOL     OW 8770   6.540   1.347   5.433
 2624SOL    HW1 8771   6.615   1.292   5.471
 2624SOL    HW2 8772   6.482   1.380   5.507
 2625SOL     OW 8773   2.120   3.191   5.152
 2625SOL    HW1 8774   2.130   3.137   5.068
 2625SOL    HW2 8775   2.197   3.171   5.213
 2626SOL     OW 8776   0.331   0.472   6.150
 2626SOL    HW1 8777   0.339   0.571   6.156
 2626SOL    HW2 8778   0.250   0.441   6.201
 2627SOL     OW 8779   1.126   1.285   5.675
 2627SOL    HW1 8780   1.128   1.357   5.745
 2627SOL    HW2 8781   1.149   1.325   5.586
 2628SOL     OW 8782   2.073   4.600   5.825
 2628SOL    HW1 8783   2.121   4.683   5.797
 2628SOL    HW2 8784   2.080   4.590   5.925
 2629SOL     OW 8785   3.348   3.143   2.088
 2629SOL    HW1 8786   3.310   3.056   2.056
 2629SOL    HW2 8787   3.284   3.187   2.150
 2630SOL     OW 8788   3.554   2.010   2.705
 2630SOL    HW1 8789   3.578   1.923   2.747
 2630SOL    HW2 8790   3.495   1.994   2.626
 2631SOL     OW 8791   5.233   1.021   5.563
 2631SOL    HW1 8792   5.254   1.119   5.558
 2631SOL    HW2 8793   5.278   0.973   5.488
 2632SOL     OW 8794   5.039   3.195   6.201
 2632SOL    HW1 8795   4.968   3.263   6.214
 2632SOL    HW2 8796   5.042   3.134   6.280
 2633SOL     OW 8797   0.384   2.394   4.813
 2633SOL    HW1 8798   0.400   2.485   4.775
 2633SOL    HW2 8799   0.337   2.337   4.746
 2634SOL     OW 8800   0.586   4.715   3.287
 2634SOL    HW1 8801   0.583   4.815   3.286
 2634SOL    HW2 8802   0.589   4.683   3.381
 2635SOL     OW 8803   6.814   5.386   5.562
 2635SOL    HW1 8804   6.804   5.389   5.463
 2635SOL    HW2 8805   6.727   5.360   5.603
 2636SOL     OW 8806   3.733   0.782   4.856
 2636SOL    HW1 8807   3.773   0.858   4.807
 2636SOL    HW2 8808   3.794   0.753   4.930
 2637SOL     OW 8809   5.057   1.432   3.674
 2637SOL    HW1 8810   5.044   1.492   3.595
 2637SOL    HW2 8811   4.973   1.382   3.692
 2638SOL     OW 8812   6.781   0.345   4.172
 2638SOL    HW1 8813   6.734   0.390   4.095
 2638SOL    HW2 8814   6.779   0.406   4.252
 2639SOL     OW 8815   0.352   5.795   1.177
 2639SOL    HW1 8816   0.419   5.745   1.122
 2639SOL    HW2 8817   0.272   5.816   1.122
 2640SOL     OW 8818   0.415   5.945   5.407
 2640SOL    HW1 8819   0.482   6.016   5.422
 2640SOL    HW2 8820   0.325   5.977   5.436
 2641SOL     OW 8821   5.555   2.935   2.365
 2641SOL    HW1 8822   5.559   2.836   2.355
 2641SOL    HW2 8823   5.522   2.977   2.280
 2642SOL     OW 8824   5.004   6.495   3.859
 2642SOL    HW1 8825   4.978   6.437   3.782
 2642SOL    HW2 8826   5.083   6.551   3.834
 2643SOL     OW 8827   0.600   3.823   3.599
 2643SOL    HW1 8828   0.621   3.807   3.695
 2643SOL    HW2 8829   0.655   3.900   3.566
 2644SOL     OW 8830   5.281   6.481   5.240
 2644SOL    HW1 8831   5.277   6.460   5.143
 2644SOL    HW2 8832   5.192   6.462   5.282
 2645SOL     OW 8833   3.928   5.700   3.681
 2645SOL    HW1 8834   3.951   5.797   3.687
 2645SOL    HW2 8835   3.908   5.665   3.772
 2646SOL     OW 8836   5.819   0.853   6.570
 2646SOL    HW1 8837   5.841   0.769   6.621
 2646SOL    HW2 8838   5.894   0.873   6.506
 2647SOL     OW 8839   6.858   0.002   1.943
 2647SOL    HW1 8840   6.936   7.024   1.881
 2647SOL    HW2 8841   6.805   6.943   1.933
 2648SOL     OW 8842   0.605   6.986   3.968
 2648SOL    HW1 8843   0.510   6.997   3.937
 2648SOL    HW2 8844   0.662   6.960   3.890
 2649SOL     OW 8845   5.840   3.358   6.974
 2649SOL    HW1 8846   5.740   3.360   6.971
 2649SOL    HW2 8847   5.869   3.314   0.033
 2650SOL     OW 8848   1.147   5.068   3.836
 2650SOL    HW1 8849   1.063   5.122   3.828
 2650SOL    HW2 8850   1.126   4.977   3.871
 2651SOL     OW 8851   1.907   1.325   1.170
 2651SOL    HW1 8852   1.963   1.366   1.242
 2651SOL    HW2 8853   1.894   1.227   1.189
 2652SOL     OW 8854   4.099   3.617   4.757
 2652SOL    HW1 8855   4.068   3.530   4.796
 2652SOL    HW2 8856   4.132   3.601   4.663
 2653SOL     OW 8857   4.948   6.630   5.118
 2653SOL    HW1 8858   4.891   6.595   5.044
 2653SOL    HW2 8859   4.996   6.553   5.161
 2654SOL     OW 8860   4.526   6.922   2.494
 2654SOL    HW1 8861   4.541   6.999   2.433
 2654SOL    HW2 8862   4.518   6.838   2.441
 2655SOL     OW 8863   4.636   6.237   4.212
 2655SOL    HW1 8864   4.631   6.264   4.116
 2655SOL    HW2 8865   4.595   6.146   4.222
 2656SOL     OW 8866   3.837   4.925   4.529
 2656SOL    HW1 8867   3.754   4.948   4.581
 2656SOL    HW2 8868   3.910   4.900   4.593
 2657SOL     OW 8869   1.056   4.217   6.999
 2657SOL    HW1 8870   0.995   4.204   0.051
 2657SOL    HW2 8871   1.006   4.199   6.914
 2658SOL     OW 8872   4.976   4.466   0.974
 2658SOL    HW1 8873   5.029   4.412   1.039
 2658SOL    HW2 8874   4.879   4.443   0.983
 2659SOL     OW 8875   5.395   3.327   4.560
 2659SOL    HW1 8876   5.299   3.337   4.534
 2659SOL    HW2 8877   5.423   3.405   4.617
 2660SOL     OW 8878   2.047   0.185   1.878
 2660SOL    HW1 8879   1.952   0.185   1.910
 2660SOL    HW2 8880   2.097   0.260   1.920
 2661SOL     OW 8881   2.202   0.475   1.433
 2661SOL    HW1 8882   2.152   0.462   1.519
 2661SOL    HW2 8883   2.211   0.386   1.387
 2662SOL     OW 8884   4.681   6.317   4.838
 2662SOL    HW1 8885   4.621   6.239   4.851
 2662SOL    HW2 8886   4.695   6.333   4.740
 2663SOL     OW 8887   3.204   4.243   6.833
 2663SOL    HW1 8888   3.292   4.229   6.878
 2663SOL    HW2 8889   3.134   4.263   6.901
 2664SOL     OW 8890   4.283   3.466   5.553
 2664SOL    HW1 8891   4.293   3.497   5.458
 2664SOL    HW2 8892   4.336   3.382   5.566
 2665SOL     OW 8893   2.711   3.146   5.310
 2665SOL    HW1 8894   2.644   3.103   5.249
 2665SOL    HW2 8895   2.764   3.076   5.357
 2666SOL     OW 8896   6.178   4.952   1.408
 2666SOL    HW1 8897   6.227   5.021   1.355
 2666SOL    HW2 8898   6.107   4.911   1.351
 2667SOL     OW 8899   0.491   5.815   4.368
 2667SOL    HW1 8900   0.457   5.875   4.441
 2667SOL    HW2 8901   0.419   5.801   4.300
 2668SOL     OW 8902   0.242   3.249   5.275
 2668SOL    HW1 8903   0.311   3.319   5.292
 2668SOL    HW2 8904   0.244   3.222   5.178
 2669SOL     OW 8905   3.174   4.568   5.569
 2669SOL    HW1 8906   3.100   4.576   5.503
 2669SOL    HW2 8907   3.168   4.480   5.616
 2670SOL     OW 8908   5.557   3.154   5.669
 2670SOL    HW1 8909   5.625   3.113   5.609
 2670SOL    HW2 8910   5.599   3.177   5.757
 2671SOL     OW 8911   4.926   5.280   6.335
 2671SOL    HW1 8912   4.910   5.379   6.343
 2671SOL    HW2 8913   4.907   5.236   6.422
 2672SOL     OW 8914   1.915   5.121   0.539
 2672SOL    HW1 8915   1.911   5.025   0.568
 2672SOL    HW2 8916   1.879   5.179   0.612
 2673SOL     OW 8917   6.561   1.389   2.241
 2673SOL    HW1 8918   6.547   1.306   2.295
 2673SOL    HW2 8919   6.515   1.379   2.152
 2674SOL     OW 8920   1.107   4.768   3.874
 2674SOL    HW1 8921   1.143   4.701   3.939
 2674SOL    HW2 8922   1.129   4.739   3.781
 2675SOL     OW 8923   6.340   5.098   4.146
 2675SOL    HW1 8924   6.387   5.019   4.106
 2675SOL    HW2 8925   6.358   5.101   4.244
 2676SOL     OW 8926   3.880   2.477   1.073
 2676SOL    HW1 8927   3.793   2.515   1.040
 2676SOL    HW2 8928   3.866   2.382   1.101
 2677SOL     OW 8929   2.529   3.627   0.255
 2677SOL    HW1 8930   2.594   3.627   0.179
 2677SOL    HW2 8931   2.436   3.616   0.220
 2678SOL     OW 8932   0.331   3.001   1.630
 2678SOL    HW1 8933   0.392   3.080   1.630
 2678SOL    HW2 8934   0.286   2.993   1.542
 2679SOL     OW 8935   1.809   4.206   1.580
 2679SOL    HW1 8936   1.807   4.281   1.645
 2679SOL    HW2 8937   1.739   4.139   1.603
 2680SOL     OW 8938   1.286   1.714   0.679
 2680SOL    HW1 8939   1.265   1.763   0.764
 2680SOL    HW2 8940   1.320   1.778   0.611
 2681SOL     OW 8941   1.752   2.290   4.987
 2681SOL    HW1 8942   1.665   2.326   4.951
 2681SOL    HW2 8943   1.789   2.223   4.923
 2682SOL     OW 8944   4.631   4.277   3.303
 2682SOL    HW1 8945   4.707   4.329   3.264
 2682SOL    HW2 8946   4.555   4.275   3.238
 2683SOL     OW 8947   2.726   5.378   1.610
 2683SOL    HW1 8948   2.658   5.378   1.683
 2683SOL    HW2 8949   2.684   5.409   1.525
 2684SOL     OW 8950   4.801   5.733   1.663
 2684SOL    HW1 8951   4.748   5.736   1.748
 2684SOL    HW2 8952   4.746   5.693   1.590
 2685SOL     OW 8953   5.836   6.276   5.701
 2685SOL    HW1 8954   5.907   6.310   5.764
 2685SOL    HW2 8955   5.762   6.235   5.754
 2686SOL     OW 8956   1.985   1.604   5.621
 2686SOL    HW1 8957   1.972   1.627   5.525
 2686SOL    HW2 8958   1.908   1.550   5.654
 2687SOL     OW 8959   5.204   4.980   1.259
 2687SOL    HW1 8960   5.180   4.925   1.339
 2687SOL    HW2 8961   5.301   4.966   1.237
 2688SOL     OW 8962   3.520   3.905   0.414
 2688SOL    HW1 8963   3.521   3.896   0.314
 2688SOL    HW2 8964   3.607   3.944   0.444
 2689SOL     OW 8965   1.359   4.497   3.432
 2689SOL    HW1 8966   1.362   4.597   3.426
 2689SOL    HW2 8967   1.278   4.464   3.383
 2690SOL     OW 8968   3.929   3.068   4.779
 2690SOL    HW1 8969   3.896   3.089   4.872
 2690SOL    HW2 8970   3.978   2.981   4.780
 2691SOL     OW 8971   1.846   5.359   3.242
 2691SOL    HW1 8972   1.804   5.276   3.206
 2691SOL    HW2 8973   1.803   5.384   3.329
 2692SOL     OW 8974   3.077   6.137   2.986
 2692SOL    HW1 8975   3.132   6.143   3.069
 2692SOL    HW2 8976   3.104   6.210   2.923
 2693SOL     OW 8977   2.552   5.318   3.781
 2693SOL    HW1 8978   2.535   5.385   3.853
 2693SOL    HW2 8979   2.650   5.313   3.762
 2694SOL     OW 8980   3.851   5.943   2.833
 2694SOL    HW1 8981   3.845   5.878   2.908
 2694SOL    HW2 8982   3.805   5.905   2.752
 2695SOL     OW 8983   5.960   0.632   1.982
 2695SOL    HW1 8984   5.882   0.589   2.029
 2695SOL    HW2 8985   6.029   0.658   2.050
 2696SOL     OW 8986   3.854   3.135   5.961
 2696SOL    HW1 8987   3.809   3.131   6.050
 2696SOL    HW2 8988   3.798   3.187   5.897
 2697SOL     OW 8989   3.494   1.268   2.808
 2697SOL    HW1 8990   3.569   1.271   2.743
 2697SOL    HW2 8991   3.410   1.301   2.764
 2698SOL     OW 8992   1.630   5.462   0.720
 2698SOL    HW1 8993   1.692   5.541   0.721
 2698SOL    HW2 8994   1.602   5.443   0.626
 2699SOL     OW 8995   2.166   5.828   0.686
 2699SOL    HW1 8996   2.093   5.810   0.619
 2699SOL    HW2 8997   2.173   5.927   0.701
 2700SOL     OW 8998   3.013   3.330   0.167
 2700SOL    HW1 8999   2.954   3.271   0.222
 2700SOL    HW2 9000   3.016   3.295   0.073
 2701SOL     OW 9001   5.367   2.062   5.756
 2701SOL    HW1 9002   5.281   2.097   5.794
 2701SOL    HW2 9003   5.435   2.135   5.758
 2702SOL     OW 9004   0.420   3.135   3.226
 2702SOL    HW1 9005   0.442   3.048   3.270
 2702SOL    HW2 9006   0.456   3.210   3.281
 2703SOL     OW 9007   1.217   0.357   0.866
 2703SOL    HW1 9008   1.237   0.455   0.863
 2703SOL    HW2 9009   1.223   0.324   0.960
 2704SOL     OW 9010   6.713   5.692   1.551
 2704SOL    HW1 9011   6.721   5.610   1.608
 2704SOL    HW2 9012   6.753   5.674   1.461
 2705SOL     OW 9013   0.268   5.356   4.435
 2705SOL    HW1 9014   0.287   5.411   4.355
 2705SOL    HW2 9015   0.352   5.340   4.487
 2706SOL     OW 9016   6.476   5.172   2.191
 2706SOL    HW1 9017   6.461   5.263   2.230
 2706SOL    HW2 9018   6.575   5.155   2.184
 2707SOL     OW 9019   4.197   6.933   3.795
 2707SOL    HW1 9020   4.127   7.005   3.799
 2707SOL    HW2 9021   4.205   6.900   3.701
 2708SOL     OW 9022   0.209   3.089   0.475
 2708SOL    HW1 9023   0.248   3.035   0.550
 2708SOL    HW2 9024   0.109   3.077   0.473
 2709SOL     OW 9025   4.934   6.996   6.897
 2709SOL    HW1 9026   5.030   7.004   6.867
 2709SOL    HW2 9027   4.877   6.976   6.817
 2710SOL     OW 9028   0.578   3.748   4.242
 2710SOL    HW1 9029   0.583   3.690   4.323
 2710SOL    HW2 9030   0.556   3.842   4.271
 2711SOL     OW 9031   2.240   0.528   4.030
 2711SOL    HW1 9032   2.319   0.467   4.035
 2711SOL    HW2 9033   2.213   0.540   3.935
 2712SOL     OW 9034   2.828   4.475   1.584
 2712SOL    HW1 9035   2.844   4.474   1.682
 2712SOL    HW2 9036   2.894   4.415   1.539
 2713SOL     OW 9037   2.530   2.470   4.962
 2713SOL    HW1 9038   2.615   2.418   4.959
 2713SOL    HW2 9039   2.506   2.500   4.870
 2714SOL     OW 9040   3.783   2.558   0.427
 2714SOL    HW1 9041   3.841   2.620   0.374
 2714SOL    HW2 9042   3.687   2.575   0.405
 2715SOL     OW 9043   5.189   1.848   1.102
 2715SOL    HW1 9044   5.098   1.818   1.073
 2715SOL    HW2 9045   5.182   1.933   1.154
 2716SOL     OW 9046   5.342   3.555   2.272
 2716SOL    HW1 9047   5.373   3.638   2.319
 2716SOL    HW2 9048   5.296   3.580   2.187
 2717SOL     OW 9049   0.909   0.272   2.871
 2717SOL    HW1 9050   0.950   0.293   2.960
 2717SOL    HW2 9051   0.818   0.315   2.865
 2718SOL     OW 9052   1.648   1.683   4.824
 2718SOL    HW1 9053   1.572   1.714   4.767
 2718SOL    HW2 9054   1.628   1.701   4.920
 2719SOL     OW 9055   0.531   4.867   2.121
 2719SOL    HW1 9056   0.450   4.910   2.083
 2719SOL    HW2 9057   0.542   4.775   2.083
 2720SOL     OW 9058   2.127   5.633   2.076
 2720SOL    HW1 9059   2.072   5.554   2.102
 2720SOL    HW2 9060   2.167   5.617   1.985
 2721SOL     OW 9061   2.885   6.932   3.867
 2721SOL    HW1 9062   2.913   6.896   3.778
 2721SOL    HW2 9063   2.960   6.982   3.909
 2722SOL     OW 9064   6.969   5.012   0.488
 2722SOL    HW1 9065   6.907   4.978   0.417
 2722SOL    HW2 9066   0.023   5.056   0.446
 2723SOL     OW 9067   0.324   0.085   6.472
 2723SOL    HW1 9068   0.402   0.070   6.532
 2723SOL    HW2 9069   0.355   0.130   6.388
 2724SOL     OW 9070   2.340   6.341   6.895
 2724SOL    HW1 9071   2.322   6.440   6.892
 2724SOL    HW2 9072   2.273   6.297   6.954
 2725SOL     OW 9073   5.016   4.187   4.602
 2725SOL    HW1 9074   4.925   4.179   4.561
 2725SOL    HW2 9075   5.014   4.149   4.695
 2726SOL     OW 9076   0.372   2.406   1.031
 2726SOL    HW1 9077   0.288   2.355   1.050
 2726SOL    HW2 9078   0.443   2.378   1.096
 2727SOL     OW 9079   0.572   5.305   3.649
 2727SOL    HW1 9080   0.560   5.232   3.717
 2727SOL    HW2 9081   0.485   5.321   3.602
 2728SOL     OW 9082   4.470   6.656   5.731
 2728SOL    HW1 9083   4.539   6.668   5.660
 2728SOL    HW2 9084   4.424   6.743   5.749
 2729SOL     OW 9085   0.013   6.197   0.611
 2729SOL    HW1 9086   0.084   6.243   0.558
 2729SOL    HW2 9087   7.000   6.122   0.556
 2730SOL     OW 9088   2.015   5.992   1.616
 2730SOL    HW1 9089   2.062   5.996   1.704
 2730SOL    HW2 9090   1.952   5.914   1.615
 2731SOL     OW 9091   3.425   3.932   3.113
 2731SOL    HW1 9092   3.425   3.833   3.123
 2731SOL    HW2 9093   3.519   3.965   3.102
 2732SOL     OW 9094   5.390   2.727   1.815
 2732SOL    HW1 9095   5.486   2.744   1.796
 2732SOL    HW2 9096   5.335   2.802   1.777
 2733SOL     OW 9097   6.492   2.086   4.594
 2733SOL    HW1 9098   6.517   2.024   4.669
 2733SOL    HW2 9099   6.561   2.081   4.522
 2734SOL     OW 9100   3.405   5.851   1.198
 2734SOL    HW1 9101   3.417   5.908   1.280
 2734SOL    HW2 9102   3.310   5.820   1.193
 2735SOL     OW 9103   1.201   3.107   1.457
 2735SOL    HW1 9104   1.296   3.137   1.446
 2735SOL    HW2 9105   1.192   3.052   1.539
 2736SOL     OW 9106   6.010   6.388   4.932
 2736SOL    HW1 9107   5.936   6.358   4.871
 2736SOL    HW2 9108   5.984   6.368   5.027
 2737SOL     OW 9109   2.662   3.976   5.688
 2737SOL    HW1 9110   2.609   3.898   5.721
 2737SOL    HW2 9111   2.692   3.958   5.594
 2738SOL     OW 9112   4.831   6.762   1.507
 2738SOL    HW1 9113   4.750   6.754   1.564
 2738SOL    HW2 9114   4.863   6.670   1.483
 2739SOL     OW 9115   0.818   4.501   1.480
 2739SOL    HW1 9116   0.891   4.433   1.489
 2739SOL    HW2 9117   0.857   4.593   1.485
 2740SOL     OW 9118   0.016   3.713   2.628
 2740SOL    HW1 9119   0.104   3.759   2.628
 2740SOL    HW2 9120   6.977   3.764   2.571
 2741SOL     OW 9121   6.108   0.613   5.089
 2741SOL    HW1 9122   6.016   0.633   5.122
 2741SOL    HW2 9123   6.130   0.675   5.014
 2742SOL     OW 9124   2.178   4.972   0.465
 2742SOL    HW1 9125   2.150   4.881   0.495
 2742SOL    HW2 9126   2.098   5.033   0.468
 2743SOL     OW 9127   6.109   4.946   2.283
 2743SOL    HW1 9128   6.086   4.919   2.189
 2743SOL    HW2 9129   6.054   4.893   2.347
 2744SOL     OW 9130   4.583   2.244   0.291
 2744SOL    HW1 9131   4.679   2.271   0.288
 2744SOL    HW2 9132   4.527   2.323   0.317
 2745SOL     OW 9133   6.631   0.147   5.450
 2745SOL    HW1 9134   6.608   0.082   5.377
 2745SOL    HW2 9135   6.592   0.116   5.536
 2746SOL     OW 9136   1.933   1.665   4.303
 2746SOL    HW1 9137   2.003   1.727   4.337
 2746SOL    HW2 9138   1.843   1.709   4.310
 2747SOL     OW 9139   5.658   3.996   6.852
 2747SOL    HW1 9140   5.589   4.062   6.827
 2747SOL    HW2 9141   5.709   3.967   6.770
 2748SOL     OW 9142   5.076   1.385   1.735
 2748SOL    HW1 9143   5.139   1.326   1.685
 2748SOL    HW2 9144   5.068   1.473   1.688
 2749SOL     OW 9145   0.197   4.257   2.196
 2749SOL    HW1 9146   0.149   4.178   2.234
 2749SOL    HW2 9147   0.287   4.228   2.163
 2750SOL     OW 9148   1.029   4.394   1.274
 2750SOL    HW1 9149   1.123   4.360   1.266
 2750SOL    HW2 9150   0.967   4.317   1.290
 2751SOL     OW 9151   1.205   4.254   1.508
 2751SOL    HW1 9152   1.181   4.243   1.605
 2751SOL    HW2 9153   1.246   4.344   1.494
 2752SOL     OW 9154   3.771   5.345   5.774
 2752SOL    HW1 9155   3.739   5.291   5.851
 2752SOL    HW2 9156   3.790   5.285   5.696
 2753SOL     OW 9157   0.426   6.698   5.524
 2753SOL    HW1 9158   0.336   6.739   5.539
 2753SOL    HW2 9159   0.456   6.653   5.608
 2754SOL     OW 9160   0.573   0.824   1.899
 2754SOL    HW1 9161   0.632   0.863   1.829
 2754SOL    HW2 9162   0.486   0.873   1.901
 2755SOL     OW 9163   2.391   0.025   3.010
 2755SOL    HW1 9164   2.301   0.003   3.048
 2755SOL    HW2 9165   2.387   0.017   2.910
 2756SOL     OW 9166   5.646   5.482   6.627
 2756SOL    HW1 9167   5.629   5.384   6.633
 2756SOL    HW2 9168   5.736   5.498   6.585
 2757SOL     OW 9169   2.251   0.281   6.943
 2757SOL    HW1 9170   2.204   0.193   6.947
 2757SOL    HW2 9171   2.350   0.266   6.944
 2758SOL     OW 9172   3.833   6.604   4.110
 2758SOL    HW1 9173   3.915   6.641   4.067
 2758SOL    HW2 9174   3.755   6.663   4.091
 2759SOL     OW 9175   5.522   6.863   5.818
 2759SOL    HW1 9176   5.471   6.784   5.784
 2759SOL    HW2 9177   5.616   6.858   5.785
 2760SOL     OW 9178   0.724   6.026   2.340
 2760SOL    HW1 9179   0.798   6.030   2.273
 2760SOL    HW2 9180   0.658   6.100   2.322
 2761SOL     OW 9181   1.745   5.489   5.252
 2761SOL    HW1 9182   1.817   5.423   5.230
 2761SOL    HW2 9183   1.711   5.532   5.168
 2762SOL     OW 9184   0.997   0.890   4.787
 2762SOL    HW1 9185   1.036   0.853   4.703
 2762SOL    HW2 9186   0.940   0.969   4.766
 2763SOL     OW 9187   4.780   1.647   3.453
 2763SOL    HW1 9188   4.744   1.554   3.444
 2763SOL    HW2 9189   4.753   1.701   3.373
 2764SOL     OW 9190   5.997   0.487   1.419
 2764SOL    HW1 9191   5.925   0.485   1.350
 2764SOL    HW2 9192   6.039   0.397   1.426
 2765SOL     OW 9193   6.249   0.198   0.787
 2765SOL    HW1 9194   6.219   0.279   0.837
 2765SOL    HW2 9195   6.226   0.116   0.841
 2766SOL     OW 9196   5.035   2.464   0.682
 2766SOL    HW1 9197   5.044   2.518   0.765
 2766SOL    HW2 9198   5.114   2.403   0.672
 2767SOL     OW 9199   7.016   5.455   6.941
 2767SOL    HW1 9200   6.954   5.491   6.872
 2767SOL    HW2 9201   0.064   5.522   6.957
 2768SOL     OW 9202   4.274   0.662   1.177
 2768SOL    HW1 9203   4.314   0.750   1.203
 2768SOL    HW2 9204   4.285   0.597   1.252
 2769SOL     OW 9205   2.247   4.937   4.320
 2769SOL    HW1 9206   2.256   4.987   4.234
 2769SOL    HW2 9207   2.253   5.001   4.397
 2770SOL     OW 9208   4.148   6.318   6.222
 2770SOL    HW1 9209   4.241   6.345   6.248
 2770SOL    HW2 9210   4.105   6.269   6.297
 2771SOL     OW 9211   6.690   0.978   3.790
 2771SOL    HW1 9212   6.783   0.977   3.829
 2771SOL    HW2 9213   6.652   0.886   3.792
 2772SOL     OW 9214   3.960   1.921   0.684
 2772SOL    HW1 9215   3.978   1.988   0.612
 2772SOL    HW2 9216   4.046   1.881   0.714
 2773SOL     OW 9217   6.064   2.088   5.105
 2773SOL    HW1 9218   6.005   2.158   5.146
 2773SOL    HW2 9219   6.159   2.107   5.130
 2774SOL     OW 9220   5.599   3.186   2.563
 2774SOL    HW1 9221   5.545   3.181   2.647
 2774SOL    HW2 9222   5.587   3.102   2.510
 2775SOL     OW 9223   6.339   4.960   5.640
 2775SOL    HW1 9224   6.313   5.013   5.559
 2775SOL    HW2 9225   6.323   4.863   5.622
 2776SOL     OW 9226   4.679   4.991   5.579
 2776SOL    HW1 9227   4.609   4.931   5.618
 2776SOL    HW2 9228   4.757   4.995   5.641
 2777SOL     OW 9229   3.201   1.781   2.072
 2777SOL    HW1 9230   3.229   1.748   1.983
 2777SOL    HW2 9231   3.158   1.871   2.062
 2778SOL     OW 9232   1.666   0.209   5.730
 2778SOL    HW1 9233   1.686   0.276   5.659
 2778SOL    HW2 9234   1.567   0.208   5.747
 2779SOL     OW 9235   4.626   6.519   1.278
 2779SOL    HW1 9236   4.548   6.486   1.224
 2779SOL    HW2 9237   4.684   6.577   1.220
 2780SOL     OW 9238   6.339   6.787   0.030
 2780SOL    HW1 9239   6.292   6.871   0.002
 2780SOL    HW2 9240   6.290   6.708   7.020
 2781SOL     OW 9241   5.465   6.562   1.623
 2781SOL    HW1 9242   5.394   6.585   1.557
 2781SOL    HW2 9243   5.433   6.583   1.716
 2782SOL     OW 9244   4.746   1.851   6.161
 2782SOL    HW1 9245   4.831   1.890   6.196
 2782SOL    HW2 9246   4.766   1.793   6.082
 2783SOL     OW 9247   5.245   4.285   2.978
 2783SOL    HW1 9248   5.151   4.285   2.945
 2783SOL    HW2 9249   5.283   4.193   2.973
 2784SOL     OW 9250   3.408   1.561   2.639
 2784SOL    HW1 9251   3.465   1.482   2.617
 2784SOL    HW2 9252   3.314   1.531   2.652
 2785SOL     OW 9253   5.316   2.156   0.388
 2785SOL    HW1 9254   5.322   2.185   0.292
 2785SOL    HW2 9255   5.229   2.109   0.404
 2786SOL     OW 9256   5.119   7.004   2.728
 2786SOL    HW1 9257   5.022   7.013   2.749
 2786SOL    HW2 9258   5.165   0.065   2.747
 2787SOL     OW 9259   4.564   1.036   6.137
 2787SOL    HW1 9260   4.658   1.012   6.117
 2787SOL    HW2 9261   4.559   1.133   6.161
 2788SOL     OW 9262   2.138   5.132   6.165
 2788SOL    HW1 9263   2.134   5.098   6.071
 2788SOL    HW2 9264   2.143   5.056   6.229
 2789SOL     OW 9265   1.479   2.602   3.760
 2789SOL    HW1 9266   1.395   2.650   3.738
 2789SOL    HW2 9267   1.558   2.661   3.741
 2790SOL     OW 9268   3.555   5.733   2.376
 2790SOL    HW1 9269   3.491   5.709   2.449
 2790SOL    HW2 9270   3.606   5.652   2.349
 2791SOL     OW 9271   0.241   2.965   3.593
 2791SOL    HW1 9272   0.180   2.893   3.561
 2791SOL    HW2 9273   0.226   3.048   3.540
 2792SOL     OW 9274   1.704   6.994   4.027
 2792SOL    HW1 9275   1.694   0.067   4.032
 2792SOL    HW2 9276   1.630   6.956   3.970
 2793SOL     OW 9277   5.785   4.028   1.363
 2793SOL    HW1 9278   5.783   4.119   1.322
 2793SOL    HW2 9279   5.834   3.965   1.303
 2794SOL     OW 9280   0.006   2.655   6.811
 2794SOL    HW1 9281   0.106   2.653   6.820
 2794SOL    HW2 9282   7.007   2.697   6.723
 2795SOL     OW 9283   0.946   2.962   0.347
 2795SOL    HW1 9284   0.852   2.957   0.315
 2795SOL    HW2 9285   0.962   3.050   0.391
 2796SOL     OW 9286   0.079   6.342   3.616
 2796SOL    HW1 9287   0.078   6.378   3.710
 2796SOL    HW2 9288   0.152   6.274   3.608
 2797SOL     OW 9289   5.334   5.369   4.916
 2797SOL    HW1 9290   5.302   5.280   4.883
 2797SOL    HW2 9291   5.369   5.423   4.840
 2798SOL     OW 9292   0.692   5.771   2.244
 2798SOL    HW1 9293   0.683   5.861   2.287
 2798SOL    HW2 9294   0.620   5.711   2.278
 2799SOL     OW 9295   5.922   5.048   6.554
 2799SOL    HW1 9296   6.014   5.074   6.584
 2799SOL    HW2 9297   5.901   5.093   6.468
 2800SOL     OW 9298   4.788   6.160   0.150
 2800SOL    HW1 9299   4.719   6.107   0.199
 2800SOL    HW2 9300   4.746   6.243   0.112
 2801SOL     OW 9301   6.896   5.572   6.302
 2801SOL    HW1 9302   6.874   5.481   6.268
 2801SOL    HW2 9303   6.847   5.589   6.388
 2802SOL     OW 9304   4.962   1.008   5.037
 2802SOL    HW1 9305   4.895   1.025   5.109
 2802SOL    HW2 9306   5.007   1.093   5.012
 2803SOL     OW 9307   4.125   5.686   6.502
 2803SOL    HW1 9308   4.036   5.671   6.546
 2803SOL    HW2 9309   4.188   5.613   6.531
 2804SOL     OW 9310   0.518   4.846   5.293
 2804SOL    HW1 9311   0.476   4.756   5.284
 2804SOL    HW2 9312   0.454   4.917   5.263
 2805SOL     OW 9313   6.109   2.918   1.887
 2805SOL    HW1 9314   6.171   2.955   1.818
 2805SOL    HW2 9315   6.033   2.981   1.901
 2806SOL     OW 9316   0.317   4.051   6.318
 2806SOL    HW1 9317   0.399   4.109   6.314
 2806SOL    HW2 9318   0.275   4.048   6.228
 2807SOL     OW 9319   3.716   6.442   4.317
 2807SOL    HW1 9320   3.633   6.397   4.284
 2807SOL    HW2 9321   3.770   6.474   4.238
 2808SOL     OW 9322   6.173   4.776   1.737
 2808SOL    HW1 9323   6.106   4.850   1.727
 2808SOL    HW2 9324   6.152   4.703   1.672
 2809SOL     OW 9325   5.514   2.850   1.063
 2809SOL    HW1 9326   5.585   2.918   1.079
 2809SOL    HW2 9327   5.436   2.893   1.016
 2810SOL     OW 9328   3.768   5.093   3.581
 2810SOL    HW1 9329   3.841   5.138   3.529
 2810SOL    HW2 9330   3.728   5.020   3.526
 2811SOL     OW 9331   0.898   2.319   3.423
 2811SOL    HW1 9332   0.809   2.284   3.454
 2811SOL    HW2 9333   0.963   2.314   3.499
 2812SOL     OW 9334   5.190   3.385   6.649
 2812SOL    HW1 9335   5.280   3.425   6.664
 2812SOL    HW2 9336   5.168   3.323   6.724
 2813SOL     OW 9337   0.857   0.476   6.815
 2813SOL    HW1 9338   0.837   0.574   6.816
 2813SOL    HW2 9339   0.783   0.427   6.861
 2814SOL     OW 9340   4.037   3.820   5.612
 2814SOL    HW1 9341   3.968   3.829   5.540
 2814SOL    HW2 9342   4.002   3.760   5.684
 2815SOL     OW 9343   6.573   0.030   5.959
 2815SOL    HW1 9344   6.661   0.052   6.001
 2815SOL    HW2 9345   6.530   6.981   6.009
 2816SOL     OW 9346   6.394   5.317   3.158
 2816SOL    HW1 9347   6.390   5.236   3.099
 2816SOL    HW2 9348   6.313   5.373   3.143
 2817SOL     OW 9349   3.320   6.707   1.876
 2817SOL    HW1 9350   3.254   6.671   1.810
 2817SOL    HW2 9351   3.297   6.802   1.897
 2818SOL     OW 9352   0.544   0.642   1.501
 2818SOL    HW1 9353   0.590   0.593   1.427
 2818SOL    HW2 9354   0.612   0.675   1.566
 2819SOL     OW 9355   0.675   0.917   1.647
 2819SOL    HW1 9356   0.708   1.009   1.625
 2819SOL    HW2 9357   0.736   0.849   1.606
 2820SOL     OW 9358   0.842   2.504   2.777
 2820SOL    HW1 9359   0.818   2.408   2.788
 2820SOL    HW2 9360   0.924   2.524   2.831
 2821SOL     OW 9361   4.222   4.089   6.204
 2821SOL    HW1 9362   4.276   4.159   6.249
 2821SOL    HW2 9363   4.182   4.126   6.120
 2822SOL     OW 9364   3.924   2.281   0.688
 2822SOL    HW1 9365   3.826   2.291   0.706
 2822SOL    HW2 9366   3.937   2.240   0.597
 2823SOL     OW 9367   4.387   0.755   0.623
 2823SOL    HW1 9368   4.372   0.731   0.719
 2823SOL    HW2 9369   4.333   0.693   0.565
 2824SOL     OW 9370   1.912   1.627   3.440
 2824SOL    HW1 9371   1.995   1.589   3.480
 2824SOL    HW2 9372   1.850   1.656   3.514
 2825SOL     OW 9373   5.488   6.832   6.574
 2825SOL    HW1 9374   5.539   6.780   6.506
 2825SOL    HW2 9375   5.468   6.775   6.653
 2826SOL     OW 9376   4.493   0.839   7.018
 2826SOL    HW1 9377   4.533   0.925   6.987
 2826SOL    HW2 9378   4.507   0.830   0.092
 2827SOL     OW 9379   0.590   1.326   5.862
 2827SOL    HW1 9380   0.574   1.285   5.952
 2827SOL    HW2 9381   0.664   1.393   5.869
 2828SOL     OW 9382   2.216   1.363   0.203
 2828SOL    HW1 9383   2.290   1.301   0.180
 2828SOL    HW2 9384   2.213   1.378   0.302
 2829SOL     OW 9385   3.101   3.375   5.012
 2829SOL    HW1 9386   3.075   3.278   5.006
 2829SOL    HW2 9387   3.196   3.386   4.985
 2830SOL     OW 9388   1.863   3.124   5.687
 2830SOL    HW1 9389   1.791   3.057   5.669
 2830SOL    HW2 9390   1.845   3.207   5.634
 2831SOL     OW 9391   0.782   4.561   3.760
 2831SOL    HW1 9392   0.879   4.572   3.741
 2831SOL    HW2 9393   0.762   4.593   3.852
 2832SOL     OW 9394   1.120   3.205   1.985
 2832SOL    HW1 9395   1.186   3.130   1.995
 2832SOL    HW2 9396   1.109   3.251   2.073
 2833SOL     OW 9397   2.976   1.817   2.328
 2833SOL    HW1 9398   3.012   1.900   2.287
 2833SOL    HW2 9399   2.985   1.741   2.263
 2834SOL     OW 9400   4.027   5.872   6.332
 2834SOL    HW1 9401   4.050   5.796   6.393
 2834SOL    HW2 9402   4.111   5.916   6.300
 2835SOL     OW 9403   0.590   6.229   2.220
 2835SOL    HW1 9404   0.501   6.212   2.262
 2835SOL    HW2 9405   0.577   6.257   2.125
 2836SOL     OW 9406   0.084   0.267   2.034
 2836SOL    HW1 9407   7.010   0.274   2.032
 2836SOL    HW2 9408   0.118   0.258   1.940
 2837SOL     OW 9409   4.375   5.021   2.644
 2837SOL    HW1 9410   4.312   4.977   2.580
 2837SOL    HW2 9411   4.329   5.099   2.687
 2838SOL     OW 9412   3.336   3.835   1.201
 2838SOL    HW1 9413   3.371   3.753   1.247
 2838SOL    HW2 9414   3.333   3.819   1.102
 2839SOL     OW 9415   6.631   2.498   3.058
 2839SOL    HW1 9416   6.684   2.501   2.973
 2839SOL    HW2 9417   6.669   2.563   3.124
 2840SOL     OW 9418   1.134   0.183   3.218
 2840SOL    HW1 9419   1.225   0.222   3.202
 2840SOL    HW2 9420   1.110   0.121   3.143
 2841SOL     OW 9421   0.295   1.150   6.114
 2841SOL    HW1 9422   0.227   1.151   6.187
 2841SOL    HW2 9423   0.385   1.131   6.153
 2842SOL     OW 9424   0.301   3.951   3.861
 2842SOL    HW1 9425   0.376   3.888   3.878
 2842SOL    HW2 9426   0.310   4.031   3.921
 2843SOL     OW 9427   2.426   2.527   2.392
 2843SOL    HW1 9428   2.387   2.615   2.417
 2843SOL    HW2 9429   2.445   2.525   2.294
 2844SOL     OW 9430   0.114   5.211   6.989
 2844SOL    HW1 9431   0.093   5.308   6.972
 2844SOL    HW2 9432   0.205   5.204   0.004
 2845SOL     OW 9433   5.723   3.070   1.393
 2845SOL    HW1 9434   5.631   3.033   1.409
 2845SOL    HW2 9435   5.789   2.995   1.391
 2846SOL     OW 9436   4.145   1.428   0.201
 2846SOL    HW1 9437   4.061   1.391   0.241
 2846SOL    HW2 9438   4.202   1.468   0.273
 2847SOL     OW 9439   5.114   3.877   3.349
 2847SOL    HW1 9440   5.198   3.863   3.401
 2847SOL    HW2 9441   5.125   3.958   3.290
 2848SOL     OW 9442   1.849   2.665   5.324
 2848SOL    HW1 9443   1.848   2.592   5.393
 2848SOL    HW2 9444   1.855   2.754   5.370
 2849SOL     OW 9445   4.143   0.058   0.606
 2849SOL    HW1 9446   4.192   6.997   0.614
 2849SOL    HW2 9447   4.059   0.054   0.660
 2850SOL     OW 9448   1.783   0.381   2.727
 2850SOL    HW1 9449   1.731   0.465   2.714
 2850SOL    HW2 9450   1.803   0.340   2.638
 2851SOL     OW 9451   5.851   1.601   6.238
 2851SOL    HW1 9452   5.797   1.519   6.257
 2851SOL    HW2 9453   5.866   1.609   6.140
 2852SOL     OW 9454   6.096   3.793   6.835
 2852SOL    HW1 9455   6.116   3.885   6.867
 2852SOL    HW2 9456   6.013   3.759   6.879
 2853SOL     OW 9457   1.855   1.095   6.867
 2853SOL    HW1 9458   1.820   1.147   6.789
 2853SOL    HW2 9459   1.917   1.153   6.920
 2854SOL     OW 9460   4.727   0.791   5.302
 2854SOL    HW1 9461   4.656   0.841   5.252
 2854SOL    HW2 9462   4.809   0.848   5.307
 2855SOL     OW 9463   2.191   1.756   5.932
 2855SOL    HW1 9464   2.214   1.797   6.020
 2855SOL    HW2 9465   2.097   1.721   5.935
 2856SOL     OW 9466   0.868   2.871   5.372
 2856SOL    HW1 9467   0.882   2.970   5.370
 2856SOL    HW2 9468   0.863   2.840   5.467
 2857SOL     OW 9469   2.326   2.771   2.235
 2857SOL    HW1 9470   2.388   2.713   2.183
 2857SOL    HW2 9471   2.346   2.764   2.332
 2858SOL     OW 9472   4.817   3.942   2.010
 2858SOL    HW1 9473   4.771   3.946   1.921
 2858SOL    HW2 9474   4.790   4.022   2.064
 2859SOL     OW 9475   5.579   0.523   6.804
 2859SOL    HW1 9476   5.582   0.566   6.714
 2859SOL    HW2 9477   5.570   0.594   6.875
 2860SOL     OW 9478   2.953   1.761   1.741
 2860SOL    HW1 9479   2.979   1.751   1.645
 2860SOL    HW2 9480   2.961   1.857   1.767
 2861SOL     OW 9481   3.927   5.088   5.837
 2861SOL    HW1 9482   3.877   5.078   5.751
 2861SOL    HW2 9483   3.903   5.013   5.899
 2862SOL     OW 9484   5.432   1.726   2.422
 2862SOL    HW1 9485   5.454   1.749   2.327
 2862SOL    HW2 9486   5.512   1.743   2.480
 2863SOL     OW 9487   4.738   1.356   6.573
 2863SOL    HW1 9488   4.640   1.342   6.589
 2863SOL    HW2 9489   4.784   1.268   6.575
 2864SOL     OW 9490   4.020   1.652   1.955
 2864SOL    HW1 9491   3.952   1.580   1.940
 2864SOL    HW2 9492   4.016   1.681   2.051
 2865SOL     OW 9493   3.742   5.640   6.193
 2865SOL    HW1 9494   3.760   5.583   6.113
 2865SOL    HW2 9495   3.707   5.729   6.163
 2866SOL     OW 9496   6.813   5.615   6.795
 2866SOL    HW1 9497   6.810   5.663   6.707
 2866SOL    HW2 9498   6.843   5.679   6.866
 2867SOL     OW 9499   7.007   6.222   3.194
 2867SOL    HW1 9500   6.949   6.149   3.158
 2867SOL    HW2 9501   6.956   6.274   3.263
 2868SOL     OW 9502   1.219   0.882   5.613
 2868SOL    HW1 9503   1.192   0.953   5.678
 2868SOL    HW2 9504   1.138   0.830   5.585
 2869SOL     OW 9505   6.678   1.504   3.530
 2869SOL    HW1 9506   6.770   1.471   3.508
 2869SOL    HW2 9507   6.638   1.445   3.599
 2870SOL     OW 9508   0.261   1.354   5.200
 2870SOL    HW1 9509   0.313   1.341   5.284
 2870SOL    HW2 9510   0.301   1.298   5.127
 2871SOL     OW 9511   0.185   1.773   6.283
 2871SOL    HW1 9512   0.255   1.832   6.322
 2871SOL    HW2 9513   0.114   1.828   6.239
 2872SOL     OW 9514   2.539   2.122   1.902
 2872SOL    HW1 9515   2.582   2.070   1.975
 2872SOL    HW2 9516   2.583   2.211   1.893
 2873SOL     OW 9517   6.661   5.551   2.526
 2873SOL    HW1 9518   6.665   5.541   2.427
 2873SOL    HW2 9519   6.656   5.460   2.569
 2874SOL     OW 9520   4.855   6.842   3.385
 2874SOL    HW1 9521   4.886   6.937   3.393
 2874SOL    HW2 9522   4.903   6.786   3.452
 2875SOL     OW 9523   5.141   0.459   1.092
 2875SOL    HW1 9524   5.093   0.482   1.177
 2875SOL    HW2 9525   5.092   0.498   1.014
 2876SOL     OW 9526   1.645   0.066   2.614
 2876SOL    HW1 9527   1.558   0.113   2.630
 2876SOL    HW2 9528   1.650   0.035   2.519
 2877SOL     OW 9529   2.846   2.253   5.730
 2877SOL    HW1 9530   2.765   2.195   5.725
 2877SOL    HW2 9531   2.841   2.324   5.660
 2878SOL     OW 9532   3.709   4.749   5.299
 2878SOL    HW1 9533   3.693   4.813   5.374
 2878SOL    HW2 9534   3.700   4.655   5.332
 2879SOL     OW 9535   5.087   5.052   0.153
 2879SOL    HW1 9536   5.177   5.015   0.173
 2879SOL    HW2 9537   5.021   4.978   0.143
 2880SOL     OW 9538   6.906   0.857   2.022
 2880SOL    HW1 9539   6.923   0.873   1.925
 2880SOL    HW2 9540   6.808   0.863   2.040
 2881SOL     OW 9541   5.175   5.939   6.131
 2881SOL    HW1 9542   5.201   5.892   6.047
 2881SOL    HW2 9543   5.166   5.873   6.205
 2882SOL     OW 9544   7.000   5.346   2.579
 2882SOL    HW1 9545   6.951   5.288   2.513
 2882SOL    HW2 9546   0.063   5.304   2.600
 2883SOL     OW 9547   5.766   6.877   3.268
 2883SOL    HW1 9548   5.669   6.895   3.252
 2883SOL    HW2 9549   5.809   6.848   3.183
 2884SOL     OW 9550   1.036   0.177   2.091
 2884SOL    HW1 9551   1.134   0.171   2.114
 2884SOL    HW2 9552   0.992   0.244   2.151
 2885SOL     OW 9553   1.118   4.009   3.630
 2885SOL    HW1 9554   1.126   4.072   3.552
 2885SOL    HW2 9555   1.143   4.056   3.714
 2886SOL     OW 9556   1.310   4.123   5.977
 2886SOL    HW1 9557   1.339   4.170   5.893
 2886SOL    HW2 9558   1.389   4.113   6.038
 2887SOL     OW 9559   0.488   0.630   5.546
 2887SOL    HW1 9560   0.548   0.705   5.575
 2887SOL    HW2 9561   0.432   0.660   5.469
 2888SOL     OW 9562   0.137   4.113   0.006
 2888SOL    HW1 9563   0.133   4.018   7.002
 2888SOL    HW2 9564   0.214   4.159   6.988
 2889SOL     OW 9565   2.858   5.900   2.722
 2889SOL    HW1 9566   2.855   5.822   2.659
 2889SOL    HW2 9567   2.815   5.874   2.809
 2890SOL     OW 9568   1.834   6.020   0.428
 2890SOL    HW1 9569   1.784   6.097   0.389
 2890SOL    HW2 9570   1.837   6.030   0.528
 2891SOL     OW 9571   0.974   4.689   3.392
 2891SOL    HW1 9572   0.916   4.608   3.394
 2891SOL    HW2 9573   0.918   4.770   3.374
 2892SOL     OW 9574   5.703   3.319   0.476
 2892SOL    HW1 9575   5.705   3.264   0.559
 2892SOL    HW2 9576   5.681   3.413   0.498
 2893SOL     OW 9577   0.057   5.490   4.533
 2893SOL    HW1 9578   0.002   5.490   4.450
 2893SOL    HW2 9579   0.131   5.423   4.524
 2894SOL     OW 9580   1.251   3.675   2.254
 2894SOL    HW1 9581   1.186   3.740   2.292
 2894SOL    HW2 9582   1.342   3.716   2.249
 2895SOL     OW 9583   5.131   2.604   5.379
 2895SOL    HW1 9584   5.182   2.519   5.390
 2895SOL    HW2 9585   5.169   2.656   5.302
 2896SOL     OW 9586   4.932   5.578   5.373
 2896SOL    HW1 9587   4.879   5.589   5.457
 2896SOL    HW2 9588   4.918   5.486   5.336
 2897SOL     OW 9589   4.279   5.057   3.289
 2897SOL    HW1 9590   4.317   4.998   3.219
 2897SOL    HW2 9591   4.236   5.001   3.360
 2898SOL     OW 9592   4.426   4.662   4.470
 2898SOL    HW1 9593   4.436   4.582   4.412
 2898SOL    HW2 9594   4.332   4.696   4.464
 2899SOL     OW 9595   1.196   1.681   6.931
 2899SOL    HW1 9596   1.191   1.658   0.003
 2899SOL    HW2 9597   1.263   1.621   6.887
 2900SOL     OW 9598   1.725   3.404   6.093
 2900SOL    HW1 9599   1.747   3.422   5.997
 2900SOL    HW2 9600   1.754   3.481   6.149
 2901SOL     OW 9601   3.246   5.375   3.092
 2901SOL    HW1 9602   3.226   5.446   3.160
 2901SOL    HW2 9603   3.338   5.389   3.055
 2902SOL     OW 9604   5.621   6.075   3.065
 2902SOL    HW1 9605   5.586   6.153   3.014
 2902SOL    HW2 9606   5.572   6.066   3.152
 2903SOL     OW 9607   2.976   0.331   0.467
 2903SOL    HW1 9608   2.983   0.346   0.566
 2903SOL    HW2 9609   2.898   0.271   0.448
 2904SOL     OW 9610   2.317   4.508   4.437
 2904SOL    HW1 9611   2.351   4.488   4.529
 2904SOL    HW2 9612   2.295   4.422   4.390
 2905SOL     OW 9613   1.568   2.425   4.856
 2905SOL    HW1 9614   1.475   2.433   4.819
 2905SOL    HW2 9615   1.630   2.483   4.803
 2906SOL     OW 9616   3.885   5.582   1.617
 2906SOL    HW1 9617   3.891   5.516   1.542
 2906SOL    HW2 9618   3.910   5.673   1.582
 2907SOL     OW 9619   0.993   1.124   3.278
 2907SOL    HW1 9620   0.943   1.127   3.191
 2907SOL    HW2 9621   0.931   1.094   3.351
 2908SOL     OW 9622   4.953   6.501   3.207
 2908SOL    HW1 9623   5.048   6.492   3.236
 2908SOL    HW2 9624   4.940   6.454   3.120
 2909SOL     OW 9625   1.412   5.491   4.045
 2909SOL    HW1 9626   1.377   5.500   4.138
 2909SOL    HW2 9627   1.336   5.498   3.980
 2910SOL     OW 9628   4.680   0.765   4.373
 2910SOL    HW1 9629   4.653   0.777   4.277
 2910SOL    HW2 9630   4.605   0.720   4.423
 2911SOL     OW 9631   0.972   5.639   3.430
 2911SOL    HW1 9632   0.966   5.634   3.530
 2911SOL    HW2 9633   0.916   5.568   3.389
 2912SOL     OW 9634   5.075   0.294   6.444
 2912SOL    HW1 9635   4.999   0.252   6.395
 2912SOL    HW2 9636   5.156   0.236   6.436
 2913SOL     OW 9637   3.163   5.011   2.642
 2913SOL    HW1 9638   3.124   4.945   2.707
 2913SOL    HW2 9639   3.090   5.067   2.603
 2914SOL     OW 9640   6.348   6.324   6.469
 2914SOL    HW1 9641   6.433   6.298   6.422
 2914SOL    HW2 9642   6.352   6.294   6.564
 2915SOL     OW 9643   4.884   1.781   3.731
 2915SOL    HW1 9644   4.959   1.716   3.729
 2915SOL    HW2 9645   4.809   1.747   3.675
 2916SOL     OW 9646   1.274   6.658   0.738
 2916SOL    HW1 9647   1.193   6.621   0.694
 2916SOL    HW2 9648   1.301   6.598   0.814
 2917SOL     OW 9649   2.796   0.165   3.257
 2917SOL    HW1 9650   2.775   0.169   3.159
 2917SOL    HW2 9651   2.862   0.236   3.280
 2918SOL     OW 9652   6.046   4.780   4.876
 2918SOL    HW1 9653   5.996   4.851   4.925
 2918SOL    HW2 9654   6.103   4.729   4.940
 2919SOL     OW 9655   6.447   1.123   2.348
 2919SOL    HW1 9656   6.532   1.070   2.346
 2919SOL    HW2 9657   6.369   1.061   2.346
 2920SOL     OW 9658   2.818   1.482   1.584
 2920SOL    HW1 9659   2.776   1.457   1.672
 2920SOL    HW2 9660   2.829   1.581   1.580
 2921SOL     OW 9661   0.717   0.226   4.358
 2921SOL    HW1 9662   0.686   0.223   4.263
 2921SOL    HW2 9663   0.652   0.177   4.416
 2922SOL     OW 9664   4.630   1.292   0.807
 2922SOL    HW1 9665   4.532   1.306   0.795
 2922SOL    HW2 9666   4.680   1.358   0.751
 2923SOL     OW 9667   6.407   4.904   2.288
 2923SOL    HW1 9668   6.438   4.999   2.284
 2923SOL    HW2 9669   6.311   4.901   2.316
 2924SOL     OW 9670   6.819   2.430   5.872
 2924SOL    HW1 9671   6.769   2.502   5.824
 2924SOL    HW2 9672   6.896   2.471   5.921
 2925SOL     OW 9673   5.072   1.121   2.190
 2925SOL    HW1 9674   5.095   1.204   2.241
 2925SOL    HW2 9675   5.156   1.074   2.163
 2926SOL     OW 9676   0.202   1.940   4.160
 2926SOL    HW1 9677   0.172   1.999   4.085
 2926SOL    HW2 9678   0.210   1.845   4.127
 2927SOL     OW 9679   1.127   3.471   1.434
 2927SOL    HW1 9680   1.222   3.475   1.465
 2927SOL    HW2 9681   1.090   3.380   1.452
 2928SOL     OW 9682   0.037   1.589   6.436
 2928SOL    HW1 9683   0.077   1.651   6.369
 2928SOL    HW2 9684   0.031   1.497   6.399
 2929SOL     OW 9685   0.190   2.450   0.133
 2929SOL    HW1 9686   0.127   2.513   0.088
 2929SOL    HW2 9687   0.184   2.462   0.232
 2930SOL     OW 9688   4.603   0.629   4.815
 2930SOL    HW1 9689   4.521   0.652   4.867
 2930SOL    HW2 9690   4.644   0.712   4.779
 2931SOL     OW 9691   5.605   4.979   0.083
 2931SOL    HW1 9692   5.602   4.940   0.175
 2931SOL    HW2 9693   5.512   4.986   0.047
 2932SOL     OW 9694   1.055   5.763   1.958
 2932SOL    HW1 9695   1.066   5.788   1.862
 2932SOL    HW2 9696   0.958   5.768   1.982
 2933SOL     OW 9697   0.071   5.422   3.277
 2933SOL    HW1 9698   0.024   5.335   3.263
 2933SOL    HW2 9699   0.073   5.443   3.374
 2934SOL     OW 9700   4.430   1.323   0.340
 2934SOL    HW1 9701   4.361   1.365   0.400
 2934SOL    HW2 9702   4.405   1.227   0.323
 2935SOL     OW 9703   6.125   3.345   6.682
 2935SOL    HW1 9704   6.185   3.285   6.734
 2935SOL    HW2 9705   6.036   3.350   6.727
 2936SOL     OW 9706   3.898   6.741   0.964
 2936SOL    HW1 9707   3.803   6.747   0.934
 2936SOL    HW2 9708   3.956   6.718   0.885
 2937SOL     OW 9709   5.077   4.515   0.717
 2937SOL    HW1 9710   4.991   4.539   0.671
 2937SOL    HW2 9711   5.057   4.490   0.812
 2938SOL     OW 9712   4.910   4.500   6.370
 2938SOL    HW1 9713   4.858   4.479   6.287
 2938SOL    HW2 9714   4.849   4.541   6.438
 2939SOL     OW 9715   1.501   1.061   2.930
 2939SOL    HW1 9716   1.529   1.071   2.835
 2939SOL    HW2 9717   1.453   1.143   2.960
 2940SOL     OW 9718   5.323   5.237   5.907
 2940SOL    HW1 9719   5.313   5.163   5.974
 2940SOL    HW2 9720   5.374   5.312   5.948
 2941SOL     OW 9721   1.865   1.966   4.227
 2941SOL    HW1 9722   1.805   2.042   4.206
 2941SOL    HW2 9723   1.953   1.978   4.180
 2942SOL     OW 9724   2.720   2.806   0.438
 2942SOL    HW1 9725   2.736   2.898   0.403
 2942SOL    HW2 9726   2.668   2.812   0.523
 2943SOL     OW 9727   4.625   4.345   3.577
 2943SOL    HW1 9728   4.609   4.323   3.481
 2943SOL    HW2 9729   4.554   4.407   3.609
 2944SOL     OW 9730   3.051   5.984   4.501
 2944SOL    HW1 9731   3.122   6.022   4.560
 2944SOL    HW2 9732   3.089   5.965   4.411
 2945SOL     OW 9733   3.572   4.116   3.706
 2945SOL    HW1 9734   3.490   4.137   3.759
 2945SOL    HW2 9735   3.652   4.118   3.766
 2946SOL     OW 9736   1.126   4.996   5.781
 2946SOL    HW1 9737   1.132   5.040   5.871
 2946SOL    HW2 9738   1.140   5.064   5.709
 2947SOL     OW 9739   0.393   3.545   0.647
 2947SOL    HW1 9740   0.484   3.579   0.669
 2947SOL    HW2 9741   0.329   3.622   0.641
 2948SOL     OW 9742   0.863   4.234   5.566
 2948SOL    HW1 9743   0.935   4.292   5.528
 2948SOL    HW2 9744   0.882   4.138   5.545
 2949SOL     OW 9745   2.538   5.464   0.910
 2949SOL    HW1 9746   2.510   5.392   0.847
 2949SOL    HW2 9747   2.484   5.546   0.892
 2950SOL     OW 9748   5.575   4.445   4.339
 2950SOL    HW1 9749   5.558   4.350   4.313
 2950SOL    HW2 9750   5.527   4.506   4.276
 2951SOL     OW 9751   5.837   0.707   0.664
 2951SOL    HW1 9752   5.835   0.807   0.676
 2951SOL    HW2 9753   5.870   0.665   0.748
 2952SOL     OW 9754   0.228   4.671   5.769
 2952SOL    HW1 9755   0.131   4.684   5.786
 2952SOL    HW2 9756   0.261   4.739   5.704
 2953SOL     OW 9757   4.814   2.987   2.286
 2953SOL    HW1 9758   4.789   3.009   2.191
 2953SOL    HW2 9759   4.795   3.067   2.344
 2954SOL     OW 9760   0.800   5.815   1.994
 2954SOL    HW1 9761   0.758   5.795   2.083
 2954SOL    HW2 9762   0.742   5.877   1.942
 2955SOL     OW 9763   0.636   3.879   2.119
 2955SOL    HW1 9764   0.727   3.881   2.079
 2955SOL    HW2 9765   0.573   3.930   2.060
 2956SOL     OW 9766   5.422   6.014   3.362
 2956SOL    HW1 9767   5.486   5.977   3.429
 2956SOL    HW2 9768   5.393   5.941   3.300
 2957SOL     OW 9769   6.151   3.244   1.656
 2957SOL    HW1 9770   6.143   3.342   1.674
 2957SOL    HW2 9771   6.085   3.217   1.586
 2958SOL     OW 9772   2.580   4.875   4.038
 2958SOL    HW1 9773   2.592   4.973   4.056
 2958SOL    HW2 9774   2.556   4.828   4.122
 2959SOL     OW 9775   4.677   4.255   0.376
 2959SOL    HW1 9776   4.622   4.335   0.351
 2959SOL    HW2 9777   4.695   4.256   0.474
 2960SOL     OW 9778   3.278   0.930   6.313
 2960SOL    HW1 9779   3.238   1.010   6.357
 2960SOL    HW2 9780   3.206   0.868   6.282
 2961SOL     OW 9781   5.254   3.626   2.682
 2961SOL    HW1 9782   5.179   3.690   2.668
 2961SOL    HW2 9783   5.326   3.670   2.735
 2962SOL     OW 9784   4.914   6.836   3.108
 2962SOL    HW1 9785   4.883   6.786   3.027
 2962SOL    HW2 9786   4.872   6.798   3.190
 2963SOL     OW 9787   2.081   0.531   6.060
 2963SOL    HW1 9788   2.172   0.554   6.095
 2963SOL    HW2 9789   2.012   0.560   6.125
 2964SOL     OW 9790   0.487   0.085   3.242
 2964SOL    HW1 9791   0.538   0.147   3.183
 2964SOL    HW2 9792   0.551   0.020   3.285
 2965SOL     OW 9793   6.997   1.594   4.213
 2965SOL    HW1 9794   6.942   1.602   4.130
 2965SOL    HW2 9795   6.972   1.511   4.263
 2966SOL     OW 9796   5.148   5.965   3.648
 2966SOL    HW1 9797   5.213   5.917   3.589
 2966SOL    HW2 9798   5.160   6.064   3.636
 2967SOL     OW 9799   6.595   0.592   5.066
 2967SOL    HW1 9800   6.639   0.642   4.992
 2967SOL    HW2 9801   6.656   0.591   5.146
 2968SOL     OW 9802   1.214   2.815   6.476
 2968SOL    HW1 9803   1.261   2.739   6.430
 2968SOL    HW2 9804   1.214   2.800   6.575
 2969SOL     OW 9805   4.686   1.353   4.220
 2969SOL    HW1 9806   4.761   1.392   4.273
 2969SOL    HW2 9807   4.629   1.296   4.279
 2970SOL     OW 9808   1.838   4.443   6.206
 2970SOL    HW1 9809   1.848   4.348   6.238
 2970SOL    HW2 9810   1.764   4.447   6.138
 2971SOL     OW 9811   5.097   4.119   0.419
 2971SOL    HW1 9812   5.064   4.029   0.390
 2971SOL    HW2 9813   5.175   4.145   0.364
 2972SOL     OW 9814   6.343   4.774   6.374
 2972SOL    HW1 9815   6.339   4.709   6.450
 2972SOL    HW2 9816   6.271   4.843   6.385
 2973SOL     OW 9817   5.542   6.496   2.581
 2973SOL    HW1 9818   5.630   6.476   2.537
 2973SOL    HW2 9819   5.497   6.571   2.533
 2974SOL     OW 9820   1.186   4.623   2.818
 2974SOL    HW1 9821   1.270   4.584   2.855
 2974SOL    HW2 9822   1.196   4.638   2.720
 2975SOL     OW 9823   5.420   3.563   4.250
 2975SOL    HW1 9824   5.501   3.512   4.218
 2975SOL    HW2 9825   5.349   3.558   4.180
 2976SOL     OW 9826   4.579   1.959   3.064
 2976SOL    HW1 9827   4.613   2.043   3.020
 2976SOL    HW2 9828   4.554   1.892   2.995
 2977SOL     OW 9829   2.695   6.878   2.517
 2977SOL    HW1 9830   2.690   6.849   2.421
 2977SOL    HW2 9831   2.689   6.797   2.576
 2978SOL     OW 9832   5.294   4.203   0.243
 2978SOL    HW1 9833   5.386   4.171   0.223
 2978SOL    HW2 9834   5.260   4.258   0.167
 2979SOL     OW 9835   3.652   0.794   4.118
 2979SOL    HW1 9836   3.744   0.756   4.125
 2979SOL    HW2 9837   3.635   0.854   4.196
 2980SOL     OW 9838   1.259   5.793   4.773
 2980SOL    HW1 9839   1.294   5.701   4.759
 2980SOL    HW2 9840   1.166   5.788   4.809
 2981SOL     OW 9841   2.217   1.329   5.807
 2981SOL    HW1 9842   2.221   1.290   5.714
 2981SOL    HW2 9843   2.221   1.429   5.801
 2982SOL     OW 9844   3.577   4.894   2.535
 2982SOL    HW1 9845   3.505   4.911   2.602
 2982SOL    HW2 9846   3.544   4.918   2.444
 2983SOL     OW 9847   0.529   1.744   2.648
 2983SOL    HW1 9848   0.603   1.788   2.597
 2983SOL    HW2 9849   0.523   1.648   2.621
 2984SOL     OW 9850   5.265   5.283   1.160
 2984SOL    HW1 9851   5.272   5.369   1.211
 2984SOL    HW2 9852   5.334   5.282   1.087
 2985SOL     OW 9853   1.546   2.413   5.616
 2985SOL    HW1 9854   1.473   2.396   5.682
 2985SOL    HW2 9855   1.580   2.326   5.580
 2986SOL     OW 9856   3.400   4.162   4.085
 2986SOL    HW1 9857   3.413   4.073   4.129
 2986SOL    HW2 9858   3.445   4.232   4.140
 2987SOL     OW 9859   6.303   1.642   4.689
 2987SOL    HW1 9860   6.228   1.696   4.726
 2987SOL    HW2 9861   6.275   1.600   4.602
 2988SOL     OW 9862   1.359   5.712   2.934
 2988SOL    HW1 9863   1.391   5.625   2.970
 2988SOL    HW2 9864   1.393   5.787   2.991
 2989SOL     OW 9865   6.319   5.746   6.197
 2989SOL    HW1 9866   6.382   5.696   6.257
 2989SOL    HW2 9867   6.361   5.758   6.108
 2990SOL     OW 9868   3.707   1.874   4.659
 2990SOL    HW1 9869   3.633   1.910   4.715
 2990SOL    HW2 9870   3.791   1.924   4.678
 2991SOL     OW 9871   6.637   4.471   5.167
 2991SOL    HW1 9872   6.604   4.397   5.109
 2991SOL    HW2 9873   6.695   4.433   5.239
 2992SOL     OW 9874   2.871   6.101   4.984
 2992SOL    HW1 9875   2.882   6.123   5.080
 2992SOL    HW2 9876   2.879   6.184   4.929
 2993SOL     OW 9877   0.563   5.015   1.631
 2993SOL    HW1 9878   0.657   5.016   1.595
 2993SOL    HW2 9879   0.536   4.920   1.650
 2994SOL     OW 9880   4.310   6.307   0.110
 2994SOL    HW1 9881   4.239   6.307   0.181
 2994SOL    HW2 9882   4.367   6.225   0.121
 2995SOL     OW 9883   3.070   2.008   6.265
 2995SOL    HW1 9884   3.033   1.950   6.338
 2995SOL    HW2 9885   3.125   1.952   6.203
 2996SOL     OW 9886   1.249   1.262   3.449
 2996SOL    HW1 9887   1.174   1.210   3.490
 2996SOL    HW2 9888   1.336   1.224   3.481
 2997SOL     OW 9889   6.298   0.357   2.659
 2997SOL    HW1 9890   6.366   0.285   2.649
 2997SOL    HW2 9891   6.207   0.317   2.666
 2998SOL     OW 9892   4.460   6.932   4.279
 2998SOL    HW1 9893   4.446   6.851   4.335
 2998SOL    HW2 9894   4.478   6.905   4.184
 2999SOL     OW 9895   2.652   4.958   4.967
 2999SOL    HW1 9896   2.633   4.875   5.021
 2999SOL    HW2 9897   2.740   4.996   4.996
 3000SOL     OW 9898   2.546   3.688   6.736
 3000SOL    HW1 9899   2.631   3.738   6.719
 3000SOL    HW2 9900   2.562   3.590   6.724
 3001SOL     OW 9901   5.130   0.057   6.260
 3001SOL    HW1 9902   5.166   0.126   6.198
 3001SOL    HW2 9903   5.032   0.044   6.243
 3002SOL     OW 9904   3.548   1.529   6.707
 3002SOL    HW1 9905   3.625   1.540   6.645
 3002SOL    HW2 9906   3.488   1.456   6.674
 3003SOL     OW 9907   1.864   6.373   0.102
 3003SOL    HW1 9908   1.767   6.393   0.089
 3003SOL    HW2 9909   1.913   6.458   0.123
 3004SOL     OW 9910   1.374   4.855   2.880
 3004SOL    HW1 9911   1.331   4.945   2.879
 3004SOL    HW2 9912   1.306   4.785   2.902
 3005SOL     OW 9913   3.058   1.986   0.523
 3005SOL    HW1 9914   2.964   1.951   0.516
 3005SOL    HW2 9915   3.082   2.035   0.439
 3006SOL     OW 9916   5.450   1.931   5.282
 3006SOL    HW1 9917   5.400   1.863   5.228
 3006SOL    HW2 9918   5.394   1.959   5.360
 3007SOL     OW 9919   5.386   4.889   1.034
 3007SOL    HW1 9920   5.432   4.966   0.992
 3007SOL    HW2 9921   5.434   4.863   1.118
 3008SOL     OW 9922   3.927   2.076   5.879
 3008SOL    HW1 9923   3.887   2.140   5.813
 3008SOL    HW2 9924   3.872   1.992   5.882
 3009SOL     OW 9925   0.309   1.785   2.387
 3009SOL    HW1 9926   0.328   1.881   2.407
 3009SOL    HW2 9927   0.394   1.733   2.389
 3010SOL     OW 9928   3.693   5.827   3.523
 3010SOL    HW1 9929   3.666   5.785   3.436
 3010SOL    HW2 9930   3.734   5.758   3.583
 3011SOL     OW 9931   6.375   1.360   2.050
 3011SOL    HW1 9932   6.364   1.260   2.049
 3011SOL    HW2 9933   6.285   1.403   2.049
 3012SOL     OW 9934   1.850   3.679   6.063
 3012SOL    HW1 9935   1.795   3.714   5.987
 3012SOL    HW2 9936   1.939   3.651   6.030
 3013SOL     OW 9937   6.016   5.701   4.551
 3013SOL    HW1 9938   6.111   5.699   4.520
 3013SOL    HW2 9939   5.956   5.722   4.474
 3014SOL     OW 9940   4.425   2.459   4.411
 3014SOL    HW1 9941   4.467   2.537   4.457
 3014SOL    HW2 9942   4.476   2.437   4.328
 3015SOL     OW 9943   3.432   1.651   0.489
 3015SOL    HW1 9944   3.525   1.662   0.453
 3015SOL    HW2 9945   3.366   1.692   0.427
 3016SOL     OW 9946   2.520   6.047   3.765
 3016SOL    HW1 9947   2.422   6.027   3.764
 3016SOL    HW2 9948   2.550   6.061   3.859
 3017SOL     OW 9949   6.586   4.788   2.087
 3017SOL    HW1 9950   6.528   4.771   2.007
 3017SOL    HW2 9951   6.529   4.817   2.164
 3018SOL     OW 9952   3.049   6.399   6.205
 3018SOL    HW1 9953   2.974   6.389   6.270
 3018SOL    HW2 9954   3.015   6.385   6.112
 3019SOL     OW 9955   0.670   0.325   6.535
 3019SOL    HW1 9956   0.628   0.340   6.445
 3019SOL    HW2 9957   0.655   0.230   6.563
 3020SOL     OW 9958   3.864   2.834   1.792
 3020SOL    HW1 9959   3.808   2.846   1.710
 3020SOL    HW2 9960   3.956   2.805   1.766
 3021SOL     OW 9961   2.873   7.001   6.591
 3021SOL    HW1 9962   2.967   6.982   6.618
 3021SOL    HW2 9963   2.829   0.032   6.661
 3022SOL     OW 9964   3.683   5.970   4.368
 3022SOL    HW1 9965   3.684   5.872   4.387
 3022SOL    HW2 9966   3.599   5.995   4.320
 3023SOL     OW 9967   3.757   0.483   2.593
 3023SOL    HW1 9968   3.730   0.571   2.633
 3023SOL    HW2 9969   3.816   0.434   2.657
 3024SOL     OW 9970   4.282   0.055   4.731
 3024SOL    HW1 9971   4.208   0.110   4.692
 3024SOL    HW2 9972   4.344   0.114   4.782
 3025SOL     OW 9973   3.327   0.552   0.384
 3025SOL    HW1 9974   3.313   0.558   0.285
 3025SOL    HW2 9975   3.322   0.644   0.424
 3026SOL     OW 9976   1.662   0.360   7.010
 3026SOL    HW1 9977   1.635   0.267   6.987
 3026SOL    HW2 9978   1.756   0.376   6.982
 3027SOL     OW 9979   3.920   0.604   2.983
 3027SOL    HW1 9980   3.873   0.523   3.019
 3027SOL    HW2 9981   4.015   0.604   3.014
 3028SOL     OW 9982   1.057   4.201   5.925
 3028SOL    HW1 9983   1.007   4.125   5.885
 3028SOL    HW2 9984   1.152   4.174   5.944
 3029SOL     OW 9985   7.009   2.620   5.466
 3029SOL    HW1 9986   0.022   2.550   5.406
 3029SOL    HW2 9987   7.024   2.595   5.562
 3030SOL     OW 9988   0.099   3.370   6.925
 3030SOL    HW1 9989   0.017   3.354   6.870
 3030SOL    HW2 9990   0.126   3.466   6.918
 3031SOL     OW 9991   0.445   3.977   0.273
 3031SOL    HW1 9992   0.488   4.064   0.251
 3031SOL    HW2 9993   0.500   3.929   0.342
 3032SOL     OW 9994   2.963   0.286   0.751
 3032SOL    HW1 9995   3.056   0.309   0.778
 3032SOL    HW2 9996   2.900   0.355   0.787
 3033SOL     OW 9997   6.455   2.195   1.618
 3033SOL    HW1 9998   6.416   2.153   1.537
 3033SOL    HW2 9999   6.470   2.293   1.601
 3034SOL     OW10000   1.790   5.774   3.118
 3034SOL    HW110001   1.704   5.814   3.150
 3034SOL    HW210002   1.810   5.807   3.026
 3035SOL     OW10003   0.325   3.246   6.814
 3035SOL    HW110004   0.242   3.287   6.853
 3035SOL    HW210005   0.343   3.286   6.725
 3036SOL     OW10006   2.162   1.302   6.660
 3036SOL    HW110007   2.069   1.291   6.625
 3036SOL    HW210008   2.178   1.234   6.731
 3037SOL     OW10009   6.569   6.144   5.512
 3037SOL    HW110010   6.545   6.103   5.600
 3037SOL    HW210011   6.594   6.072   5.448
 3038SOL     OW10012   5.261   6.131   5.916
 3038SOL    HW110013   5.270   6.155   6.012
 3038SOL    HW210014   5.304   6.041   5.900
 3039SOL     OW10015   6.706   3.512   0.490
 3039SOL    HW110016   6.673   3.510   0.585
 3039SOL    HW210017   6.697   3.421   0.450
 3040SOL     OW10018   3.788   4.076   6.140
 3040SOL    HW110019   3.834   4.146   6.195
 3040SOL    HW210020   3.851   4.042   6.071
 3041SOL     OW10021   2.221   2.737   4.154
 3041SOL    HW110022   2.198   2.742   4.057
 3041SOL    HW210023   2.172   2.661   4.197
 3042SOL     OW10024   4.660   5.799   1.906
 3042SOL    HW110025   4.592   5.870   1.924
 3042SOL    HW210026   4.682   5.752   1.991
 3043SOL     OW10027   2.390   4.702   1.927
 3043SOL    HW110028   2.317   4.770   1.929
 3043SOL    HW210029   2.428   4.690   2.019
 3044SOL     OW10030   3.642   4.191   5.865
 3044SOL    HW110031   3.671   4.184   5.961
 3044SOL    HW210032   3.722   4.200   5.806
 3045SOL     OW10033   4.597   0.377   2.995
 3045SOL    HW110034   4.500   0.401   2.983
 3045SOL    HW210035   4.605   0.278   3.008
 3046SOL     OW10036   2.488   0.799   6.475
 3046SOL    HW110037   2.542   0.772   6.395
 3046SOL    HW210038   2.408   0.850   6.446
 3047SOL     OW10039   6.568   0.532   2.126
 3047SOL    HW110040   6.666   0.552   2.132
 3047SOL    HW210041   6.533   0.508   2.217
 3048SOL     OW10042   3.940   2.217   1.851
 3048SOL    HW110043   3.845   2.248   1.862
 3048SOL    HW210044   4.002   2.294   1.868
 3049SOL     OW10045   1.548   6.605   2.553
 3049SOL    HW110046   1.595   6.655   2.626
 3049SOL    HW210047   1.612   6.586   2.479
 3050SOL     OW10048   3.014   1.242   1.899
 3050SOL    HW110049   2.974   1.270   1.987
 3050SOL    HW210050   2.988   1.147   1.880
 3051SOL     OW10051   2.135   4.291   0.175
 3051SOL    HW110052   2.174   4.383   0.176
 3051SOL    HW210053   2.065   4.286   0.103
 3052SOL     OW10054   5.022   6.470   1.611
 3052SOL    HW110055   4.943   6.480   1.672
 3052SOL    HW210056   5.092   6.537   1.635
 3053SOL     OW10057   0.048   1.738   6.953
 3053SOL    HW110058   0.046   1.806   0.000
 3053SOL    HW210059   0.125   1.677   6.966
 3054SOL     OW10060   6.835   1.675   0.722
 3054SOL    HW110061   6.735   1.669   0.717
 3054SOL    HW210062   6.867   1.742   0.656
 3055SOL     OW10063   5.057   0.567   4.248
 3055SOL    HW110064   5.050   0.619   4.163
 3055SOL    HW210065   5.012   0.479   4.237
 3056SOL     OW10066   6.251   0.331   4.776
 3056SOL    HW110067   6.271   0.313   4.873
 3056SOL    HW210068   6.153   0.347   4.765
 3057SOL     OW10069   4.003   6.035   2.497
 3057SOL    HW110070   3.952   5.956   2.465
 3057SOL    HW210071   4.077   6.005   2.557
 3058SOL     OW10072   0.235   4.724   1.806
 3058SOL    HW110073   0.176   4.719   1.725
 3058SOL    HW210074   0.190   4.677   1.882
 3059SOL     OW10075   2.815   2.286   4.037
 3059SOL    HW110076   2.798   2.322   4.129
 3059SOL    HW210077   2.782   2.192   4.030
 3060SOL     OW10078   0.922   5.343   0.441
 3060SOL    HW110079   0.874   5.310   0.522
 3060SOL    HW210080   0.994   5.407   0.468
 3061SOL     OW10081   0.031   6.896   4.857
 3061SOL    HW110082   0.060   6.936   4.771
 3061SOL    HW210083   6.960   6.872   4.852
 3062SOL     OW10084   1.994   0.354   0.632
 3062SOL    HW110085   1.931   0.278   0.617
 3062SOL    HW210086   2.082   0.334   0.590
 3063SOL     OW10087   2.570   4.971   2.037
 3063SOL    HW110088   2.605   4.929   1.954
 3063SOL    HW210089   2.477   4.938   2.054
 3064SOL     OW10090   5.540   4.204   2.636
 3064SOL    HW110091   5.531   4.287   2.691
 3064SOL    HW210092   5.635   4.173   2.637
 3065SOL     OW10093   2.016   0.943   0.389
 3065SOL    HW110094   2.038   0.846   0.396
 3065SOL    HW210095   2.056   0.992   0.467
 3066SOL     OW10096   4.736   5.484   1.044
 3066SOL    HW110097   4.727   5.495   0.945
 3066SOL    HW210098   4.649   5.504   1.088
 3067SOL     OW10099   3.272   2.136   5.227
 3067SOL    HW110100   3.199   2.192   5.188
 3067SOL    HW210101   3.254   2.121   5.325
 3068SOL     OW10102   6.623   6.948   0.721
 3068SOL    HW110103   6.591   0.016   0.736
 3068SOL    HW210104   6.634   6.932   0.623
 3069SOL     OW10105   6.615   6.323   1.874
 3069SOL    HW110106   6.608   6.419   1.902
 3069SOL    HW210107   6.710   6.293   1.880
 3070SOL     OW10108   2.780   1.591   0.317
 3070SOL    HW110109   2.822   1.500   0.319
 3070SOL    HW210110   2.758   1.619   0.410
 3071SOL     OW10111   6.045   6.137   3.323
 3071SOL    HW110112   6.093   6.080   3.389
 3071SOL    HW210113   5.946   6.123   3.333
 3072SOL     OW10114   2.119   6.193   6.603
 3072SOL    HW110115   2.065   6.202   6.686
 3072SOL    HW210116   2.094   6.109   6.555
 3073SOL     OW10117   5.770   3.148   4.105
 3073SOL    HW110118   5.819   3.073   4.061
 3073SOL    HW210119   5.810   3.235   4.077
 3074SOL     OW10120   5.704   4.306   0.932
 3074SOL    HW110121   5.624   4.307   0.872
 3074SOL    HW210122   5.702   4.223   0.988
 3075SOL     OW10123   2.709   6.363   1.631
 3075SOL    HW110124   2.640   6.435   1.638
 3075SOL    HW210125   2.748   6.363   1.539
 3076SOL     OW10126   6.694   0.477   4.393
 3076SOL    HW110127   6.615   0.522   4.351
 3076SOL    HW210128   6.710   0.517   4.483
 3077SOL     OW10129   5.451   5.684   1.630
 3077SOL    HW110130   5.374   5.747   1.625
 3077SOL    HW210131   5.511   5.699   1.551
 3078SOL     OW10132   6.868   2.602   2.575
 3078SOL    HW110133   6.958   2.562   2.590
 3078SOL    HW210134   6.801   2.557   2.635
 3079SOL     OW10135   2.322   2.782   2.779
 3079SOL    HW110136   2.252   2.847   2.809
 3079SOL    HW210137   2.359   2.734   2.858
 3080SOL     OW10138   4.714   4.148   2.714
 3080SOL    HW110139   4.749   4.092   2.639
 3080SOL    HW210140   4.716   4.096   2.799
 3081SOL     OW10141   1.077   2.453   5.047
 3081SOL    HW110142   1.072   2.536   4.991
 3081SOL    HW210143   1.044   2.473   5.139
 3082SOL     OW10144   3.155   6.534   4.046
 3082SOL    HW110145   3.082   6.561   3.984
 3082SOL    HW210146   3.121   6.533   4.140
 3083SOL     OW10147   3.317   6.005   4.025
 3083SOL    HW110148   3.330   6.086   3.968
 3083SOL    HW210149   3.377   6.010   4.105
 3084SOL     OW10150   6.796   4.096   4.795
 3084SOL    HW110151   6.729   4.032   4.756
 3084SOL    HW210152   6.790   4.095   4.895
 3085SOL     OW10153   6.257   4.592   0.832
 3085SOL    HW110154   6.209   4.512   0.796
 3085SOL    HW210155   6.206   4.631   0.907
 3086SOL     OW10156   4.721   1.403   1.132
 3086SOL    HW110157   4.786   1.412   1.207
 3086SOL    HW210158   4.771   1.383   1.047
 3087SOL     OW10159   0.845   4.920   4.244
 3087SOL    HW110160   0.933   4.876   4.255
 3087SOL    HW210161   0.812   4.952   4.333
 3088SOL     OW10162   2.070   5.286   4.992
 3088SOL    HW110163   2.130   5.365   4.985
 3088SOL    HW210164   2.080   5.243   5.082
 3089SOL     OW10165   1.460   2.977   6.465
 3089SOL    HW110166   1.368   2.942   6.451
 3089SOL    HW210167   1.518   2.952   6.387
 3090SOL     OW10168   2.687   2.297   1.553
 3090SOL    HW110169   2.700   2.365   1.480
 3090SOL    HW210170   2.675   2.343   1.640
 3091SOL     OW10171   1.442   0.514   1.230
 3091SOL    HW110172   1.413   0.523   1.325
 3091SOL    HW210173   1.361   0.508   1.171
 3092SOL     OW10174   4.777   1.150   0.622
 3092SOL    HW110175   4.714   1.185   0.692
 3092SOL    HW210176   4.836   1.081   0.663
 3093SOL     OW10177   5.622   6.173   5.807
 3093SOL    HW110178   5.552   6.168   5.736
 3093SOL    HW210179   5.617   6.261   5.853
 3094SOL     OW10180   1.830   6.722   4.547
 3094SOL    HW110181   1.757   6.789   4.561
 3094SOL    HW210182   1.911   6.769   4.512
 3095SOL     OW10183   2.337   5.290   5.520
 3095SOL    HW110184   2.383   5.371   5.557
 3095SOL    HW210185   2.290   5.315   5.435
 3096SOL     OW10186   1.732   6.123   5.279
 3096SOL    HW110187   1.682   6.050   5.233
 3096SOL    HW210188   1.755   6.195   5.213
 3097SOL     OW10189   6.066   2.041   0.247
 3097SOL    HW110190   6.068   2.118   0.183
 3097SOL    HW210191   6.157   2.000   0.253
 3098SOL     OW10192   2.579   3.067   1.031
 3098SOL    HW110193   2.523   3.021   1.099
 3098SOL    HW210194   2.519   3.112   0.964
 3099SOL     OW10195   0.962   6.892   3.464
 3099SOL    HW110196   1.062   6.888   3.462
 3099SOL    HW210197   0.932   6.893   3.560
 3100SOL     OW10198   6.853   5.936   4.194
 3100SOL    HW110199   6.844   6.035   4.194
 3100SOL    HW210200   6.770   5.895   4.232
 3101SOL     OW10201   5.466   6.706   6.866
 3101SOL    HW110202   5.564   6.699   6.847
 3101SOL    HW210203   5.451   6.771   6.941
 3102SOL     OW10204   6.735   5.124   1.858
 3102SOL    HW110205   6.812   5.171   1.814
 3102SOL    HW210206   6.652   5.141   1.805
 3103SOL     OW10207   4.361   0.676   2.540
 3103SOL    HW110208   4.353   0.737   2.461
 3103SOL    HW210209   4.330   0.724   2.622
 3104SOL     OW10210   5.032   0.490   4.812
 3104SOL    HW110211   5.022   0.590   4.809
 3104SOL    HW210212   5.079   0.459   4.729
 3105SOL     OW10213   6.157   4.524   1.414
 3105SOL    HW110214   6.249   4.488   1.397
 3105SOL    HW210215   6.155   4.622   1.398
 3106SOL     OW10216   5.935   1.115   3.429
 3106SOL    HW110217   5.924   1.048   3.502
 3106SOL    HW210218   5.854   1.174   3.426
 3107SOL     OW10219   4.639   1.264   4.838
 3107SOL    HW110220   4.675   1.219   4.757
 3107SOL    HW210221   4.710   1.322   4.879
 3108SOL     OW10222   1.460   6.092   4.274
 3108SOL    HW110223   1.394   6.041   4.220
 3108SOL    HW210224   1.412   6.142   4.346
 3109SOL     OW10225   5.868   6.084   2.917
 3109SOL    HW110226   5.807   6.083   2.996
 3109SOL    HW210227   5.828   6.028   2.844
 3110SOL     OW10228   1.131   2.624   2.419
 3110SOL    HW110229   1.184   2.653   2.339
 3110SOL    HW210230   1.038   2.661   2.412
 3111SOL     OW10231   6.775   5.612   3.809
 3111SOL    HW110232   6.747   5.642   3.718
 3111SOL    HW210233   6.819   5.688   3.857
 3112SOL     OW10234   4.443   2.646   6.662
 3112SOL    HW110235   4.383   2.724   6.682
 3112SOL    HW210236   4.387   2.567   6.636
 3113SOL     OW10237   3.024   5.807   3.734
 3113SOL    HW110238   3.043   5.857   3.650
 3113SOL    HW210239   3.110   5.784   3.780
 3114SOL     OW10240   4.302   1.731   1.137
 3114SOL    HW110241   4.330   1.812   1.187
 3114SOL    HW210242   4.376   1.664   1.137
 3115SOL     OW10243   3.787   3.583   6.602
 3115SOL    HW110244   3.876   3.622   6.581
 3115SOL    HW210245   3.789   3.484   6.585
 3116SOL     OW10246   0.665   2.984   6.710
 3116SOL    HW110247   0.657   2.887   6.732
 3116SOL    HW210248   0.756   3.016   6.737
 3117SOL     OW10249   4.415   3.602   5.338
 3117SOL    HW110250   4.452   3.650   5.417
 3117SOL    HW210251   4.488   3.588   5.271
 3118SOL     OW10252   1.049   5.579   2.405
 3118SOL    HW110253   1.094   5.657   2.364
 3118SOL    HW210254   0.976   5.547   2.344
 3119SOL     OW10255   2.111   3.580   6.070
 3119SOL    HW110256   2.162   3.498   6.041
 3119SOL    HW210257   2.176   3.649   6.103
 3120SOL     OW10258   2.961   0.094   4.651
 3120SOL    HW110259   2.861   0.096   4.655
 3120SOL    HW210260   2.998   0.127   4.738
 3121SOL     OW10261   0.470   0.666   3.493
 3121SOL    HW110262   0.411   0.649   3.414
 3121SOL    HW210263   0.539   0.733   3.469
 3122SOL     OW10264   4.026   6.562   6.215
 3122SOL    HW110265   4.052   6.466   6.203
 3122SOL    HW210266   3.934   6.567   6.253
 3123SOL     OW10267   2.833   1.829   3.607
 3123SOL    HW110268   2.916   1.798   3.559
 3123SOL    HW210269   2.813   1.765   3.681
 3124SOL     OW10270   4.219   6.861   4.602
 3124SOL    HW110271   4.241   6.937   4.664
 3124SOL    HW210272   4.145   6.806   4.641
 3125SOL     OW10273   0.117   2.443   5.288
 3125SOL    HW110274   0.074   2.353   5.273
 3125SOL    HW210275   0.143   2.483   5.200
 3126SOL     OW10276   5.595   4.640   5.321
 3126SOL    HW110277   5.582   4.627   5.419
 3126SOL    HW210278   5.534   4.579   5.271
 3127SOL     OW10279   1.536   3.534   5.094
 3127SOL    HW110280   1.614   3.531   5.031
 3127SOL    HW210281   1.554   3.601   5.166
 3128SOL     OW10282   2.413   0.519   6.167
 3128SOL    HW110283   2.370   0.430   6.151
 3128SOL    HW210284   2.491   0.530   6.105
 3129SOL     OW10285   6.270   3.712   6.170
 3129SOL    HW110286   6.352   3.767   6.151
 3129SOL    HW210287   6.236   3.674   6.084
 3130SOL     OW10288   1.414   4.020   1.261
 3130SOL    HW110289   1.494   3.982   1.214
 3130SOL    HW210290   1.444   4.061   1.348
 3131SOL     OW10291   0.417   2.896   1.079
 3131SOL    HW110292   0.442   2.827   1.147
 3131SOL    HW210293   0.392   2.851   0.994
 3132SOL     OW10294   3.769   5.836   5.953
 3132SOL    HW110295   3.700   5.799   5.890
 3132SOL    HW210296   3.763   5.936   5.954
 3133SOL     OW10297   3.756   1.918   3.821
 3133SOL    HW110298   3.667   1.903   3.778
 3133SOL    HW210299   3.756   1.880   3.913
 3134SOL     OW10300   4.669   4.072   1.792
 3134SOL    HW110301   4.607   4.130   1.845
 3134SOL    HW210302   4.616   4.003   1.743
 3135SOL     OW10303   4.639   1.128   5.773
 3135SOL    HW110304   4.655   1.210   5.829
 3135SOL    HW210305   4.726   1.099   5.733
 3136SOL     OW10306   5.382   0.839   1.348
 3136SOL    HW110307   5.431   0.758   1.382
 3136SOL    HW210308   5.427   0.922   1.380
 3137SOL     OW10309   6.642   0.412   2.934
 3137SOL    HW110310   6.725   0.376   2.891
 3137SOL    HW210311   6.664   0.446   3.025
 3138SOL     OW10312   5.851   4.183   3.517
 3138SOL    HW110313   5.937   4.158   3.560
 3138SOL    HW210314   5.868   4.224   3.428
 3139SOL     OW10315   5.243   6.609   0.674
 3139SOL    HW110316   5.250   6.509   0.678
 3139SOL    HW210317   5.187   6.635   0.595
 3140SOL     OW10318   6.730   0.160   0.038
 3140SOL    HW110319   6.635   0.163   0.008
 3140SOL    HW210320   6.758   0.065   0.050
 3141SOL     OW10321   0.363   6.013   6.339
 3141SOL    HW110322   0.314   6.017   6.426
 3141SOL    HW210323   0.428   6.089   6.333
 3142SOL     OW10324   3.943   6.474   2.222
 3142SOL    HW110325   3.945   6.502   2.126
 3142SOL    HW210326   3.903   6.548   2.277
 3143SOL     OW10327   6.524   1.697   6.811
 3143SOL    HW110328   6.455   1.769   6.808
 3143SOL    HW210329   6.503   1.627   6.743
 3144SOL     OW10330   4.291   4.055   1.720
 3144SOL    HW110331   4.356   4.129   1.735
 3144SOL    HW210332   4.297   4.024   1.626
 3145SOL     OW10333   1.863   5.796   0.864
 3145SOL    HW110334   1.925   5.718   0.875
 3145SOL    HW210335   1.893   5.871   0.923
 3146SOL     OW10336   1.441   0.302   3.612
 3146SOL    HW110337   1.390   0.384   3.583
 3146SOL    HW210338   1.440   0.296   3.711
 3147SOL     OW10339   3.533   5.237   1.057
 3147SOL    HW110340   3.524   5.218   1.154
 3147SOL    HW210341   3.453   5.202   1.008
 3148SOL     OW10342   5.991   6.154   4.661
 3148SOL    HW110343   5.924   6.209   4.711
 3148SOL    HW210344   6.083   6.188   4.678
 3149SOL     OW10345   2.176   1.146   5.586
 3149SOL    HW110346   2.183   1.056   5.628
 3149SOL    HW210347   2.084   1.159   5.548
 3150SOL     OW10348   6.094   5.559   4.084
 3150SOL    HW110349   5.996   5.572   4.070
 3150SOL    HW210350   6.119   5.464   4.063
 3151SOL     OW10351   5.701   1.885   5.374
 3151SOL    HW110352   5.612   1.922   5.345
 3151SOL    HW210353   5.724   1.805   5.319
 3152SOL     OW10354   1.329   5.307   0.621
 3152SOL    HW110355   1.315   5.314   0.720
 3152SOL    HW210356   1.268   5.237   0.584
 3153SOL     OW10357   5.596   4.579   1.402
 3153SOL    HW110358   5.570   4.561   1.497
 3153SOL    HW210359   5.672   4.520   1.376
 3154SOL     OW10360   5.666   1.092   6.287
 3154SOL    HW110361   5.721   1.127   6.363
 3154SOL    HW210362   5.575   1.066   6.320
 3155SOL     OW10363   6.262   4.954   0.701
 3155SOL    HW110364   6.208   4.885   0.652
 3155SOL    HW210365   6.257   5.041   0.652
 3156SOL     OW10366   2.938   3.221   3.311
 3156SOL    HW110367   2.978   3.217   3.403
 3156SOL    HW210368   2.923   3.317   3.286
 3157SOL     OW10369   2.480   2.002   4.569
 3157SOL    HW110370   2.553   2.023   4.633
 3157SOL    HW210371   2.511   1.933   4.504
 3158SOL     OW10372   4.622   0.876   3.218
 3158SOL    HW110373   4.600   0.974   3.215
 3158SOL    HW210374   4.548   0.827   3.264
 3159SOL     OW10375   5.174   1.575   6.816
 3159SOL    HW110376   5.156   1.629   6.898
 3159SOL    HW210377   5.266   1.537   6.820
 3160SOL     OW10378   0.318   6.326   5.720
 3160SOL    HW110379   0.299   6.300   5.815
 3160SOL    HW210380   0.244   6.296   5.661
 3161SOL     OW10381   1.987   1.799   3.243
 3161SOL    HW110382   1.979   1.761   3.151
 3161SOL    HW210383   1.961   1.729   3.310
 3162SOL     OW10384   1.341   6.554   2.368
 3162SOL    HW110385   1.425   6.506   2.343
 3162SOL    HW210386   1.343   6.577   2.465
 3163SOL     OW10387   4.220   2.824   6.026
 3163SOL    HW110388   4.150   2.840   6.095
 3163SOL    HW210389   4.185   2.852   5.936
 3164SOL     OW10390   4.652   4.835   1.139
 3164SOL    HW110391   4.683   4.740   1.131
 3164SOL    HW210392   4.630   4.870   1.048
 3165SOL     OW10393   0.639   6.610   1.112
 3165SOL    HW110394   0.699   6.671   1.164
 3165SOL    HW210395   0.554   6.596   1.164
 3166SOL     OW10396   4.499   1.631   4.524
 3166SOL    HW110397   4.577   1.693   4.531
 3166SOL    HW210398   4.472   1.601   4.616
 3167SOL     OW10399   6.467   3.830   0.646
 3167SOL    HW110400   6.386   3.856   0.700
 3167SOL    HW210401   6.545   3.884   0.677
 3168SOL     OW10402   4.326   2.322   6.896
 3168SOL    HW110403   4.309   2.377   6.815
 3168SOL    HW210404   4.269   2.355   6.972
 3169SOL     OW10405   2.114   3.943   4.610
 3169SOL    HW110406   2.181   3.932   4.683
 3169SOL    HW210407   2.100   4.040   4.592
 3170SOL     OW10408   4.081   0.287   1.453
 3170SOL    HW110409   4.117   0.288   1.360
 3170SOL    HW210410   4.146   0.333   1.514
 3171SOL     OW10411   0.282   0.316   1.375
 3171SOL    HW110412   0.218   0.391   1.362
 3171SOL    HW210413   0.306   0.308   1.471
 3172SOL     OW10414   0.057   4.947   0.106
 3172SOL    HW110415   0.085   4.979   0.015
 3172SOL    HW210416   0.138   4.915   0.156
 3173SOL     OW10417   2.882   2.315   0.263
 3173SOL    HW110418   2.840   2.359   0.183
 3173SOL    HW210419   2.810   2.279   0.322
 3174SOL     OW10420   3.202   2.696   6.589
 3174SOL    HW110421   3.275   2.763   6.574
 3174SOL    HW210422   3.159   2.712   6.677
 3175SOL     OW10423   6.984   0.713   0.706
 3175SOL    HW110424   0.004   0.660   0.634
 3175SOL    HW210425   7.021   0.687   0.795
 3176SOL     OW10426   1.460   4.841   4.924
 3176SOL    HW110427   1.424   4.800   4.840
 3176SOL    HW210428   1.556   4.865   4.909
 3177SOL     OW10429   4.838   4.110   4.186
 3177SOL    HW110430   4.928   4.147   4.212
 3177SOL    HW210431   4.850   4.017   4.150
 3178SOL     OW10432   6.192   1.875   0.601
 3178SOL    HW110433   6.127   1.827   0.543
 3178SOL    HW210434   6.145   1.914   0.680
 3179SOL     OW10435   1.401   3.125   1.839
 3179SOL    HW110436   1.426   3.131   1.742
 3179SOL    HW210437   1.353   3.038   1.855
 3180SOL     OW10438   4.522   1.347   0.030
 3180SOL    HW110439   4.554   1.256   0.005
 3180SOL    HW210440   4.485   1.345   0.123
 3181SOL     OW10441   6.741   1.443   3.025
 3181SOL    HW110442   6.694   1.524   2.991
 3181SOL    HW210443   6.836   1.466   3.047
 3182SOL     OW10444   2.823   1.264   5.322
 3182SOL    HW110445   2.828   1.343   5.383
 3182SOL    HW210446   2.906   1.258   5.267
 3183SOL     OW10447   4.417   4.520   1.847
 3183SOL    HW110448   4.442   4.424   1.857
 3183SOL    HW210449   4.467   4.575   1.914
 3184SOL     OW10450   0.722   2.650   2.256
 3184SOL    HW110451   0.765   2.705   2.328
 3184SOL    HW210452   0.688   2.711   2.184
 3185SOL     OW10453   6.372   5.782   0.032
 3185SOL    HW110454   6.342   5.861   7.004
 3185SOL    HW210455   6.429   5.722   7.000
 3186SOL     OW10456   3.869   1.428   1.916
 3186SOL    HW110457   3.786   1.480   1.937
 3186SOL    HW210458   3.856   1.332   1.944
 3187SOL     OW10459   4.224   4.259   0.283
 3187SOL    HW110460   4.200   4.183   0.223
 3187SOL    HW210461   4.240   4.225   0.375
 3188SOL     OW10462   2.650   0.204   4.494
 3188SOL    HW110463   2.687   0.155   4.415
 3188SOL    HW210464   2.622   0.138   4.564
 3189SOL     OW10465   1.278   1.915   1.667
 3189SOL    HW110466   1.249   1.823   1.641
 3189SOL    HW210467   1.365   1.936   1.623
 3190SOL     OW10468   6.717   6.601   0.483
 3190SOL    HW110469   6.764   6.518   0.455
 3190SOL    HW210470   6.752   6.631   0.572
 3191SOL     OW10471   4.776   0.203   1.155
 3191SOL    HW110472   4.684   0.191   1.116
 3191SOL    HW210473   4.839   0.140   1.111
 3192SOL     OW10474   0.120   2.759   0.945
 3192SOL    HW110475   0.062   2.753   1.027
 3192SOL    HW210476   0.086   2.833   0.887
 3193SOL     OW10477   3.956   1.465   6.646
 3193SOL    HW110478   4.000   1.396   6.590
 3193SOL    HW210479   3.881   1.507   6.595
 3194SOL     OW10480   1.338   3.161   5.876
 3194SOL    HW110481   1.265   3.117   5.928
 3194SOL    HW210482   1.427   3.128   5.908
 3195SOL     OW10483   2.673   2.452   3.140
 3195SOL    HW110484   2.731   2.406   3.207
 3195SOL    HW210485   2.710   2.437   3.048
 3196SOL     OW10486   0.523   1.105   5.494
 3196SOL    HW110487   0.429   1.133   5.476
 3196SOL    HW210488   0.562   1.165   5.564
 3197SOL     OW10489   1.842   6.372   3.423
 3197SOL    HW110490   1.783   6.423   3.486
 3197SOL    HW210491   1.938   6.385   3.447
 3198SOL     OW10492   5.857   2.305   5.457
 3198SOL    HW110493   5.903   2.394   5.464
 3198SOL    HW210494   5.758   2.318   5.460
 3199SOL     OW10495   4.725   2.715   2.023
 3199SOL    HW110496   4.820   2.704   2.053
 3199SOL    HW210497   4.703   2.813   2.018
 3200SOL     OW10498   0.159   3.126   1.827
 3200SOL    HW110499   0.075   3.180   1.820
 3200SOL    HW210500   0.230   3.167   1.771
 3201SOL     OW10501   5.187   4.482   4.334
 3201SOL    HW110502   5.274   4.531   4.321
 3201SOL    HW210503   5.121   4.543   4.379
 3202SOL     OW10504   1.058   4.674   1.720
 3202SOL    HW110505   1.008   4.612   1.780
 3202SOL    HW210506   0.995   4.717   1.655
 3203SOL     OW10507   6.629   2.354   6.579
 3203SOL    HW110508   6.628   2.454   6.579
 3203SOL    HW210509   6.554   2.320   6.522
 3204SOL     OW10510   4.656   6.059   1.471
 3204SOL    HW110511   4.579   6.100   1.520
 3204SOL    HW210512   4.660   6.096   1.378
 3205SOL     OW10513   6.888   3.356   6.799
 3205SOL    HW110514   6.851   3.384   6.711
 3205SOL    HW210515   6.876   3.257   6.811
 3206SOL     OW10516   0.265   6.472   6.109
 3206SOL    HW110517   0.269   6.538   6.034
 3206SOL    HW210518   0.275   6.379   6.072
 3207SOL     OW10519   0.995   0.621   5.511
 3207SOL    HW110520   0.939   0.689   5.464
 3207SOL    HW210521   0.937   0.567   5.571
 3208SOL     OW10522   4.823   6.863   5.564
 3208SOL    HW110523   4.805   6.811   5.481
 3208SOL    HW210524   4.870   6.805   5.631
 3209SOL     OW10525   4.276   5.240   2.760
 3209SOL    HW110526   4.253   5.324   2.710
 3209SOL    HW210527   4.269   5.258   2.858
 3210SOL     OW10528   0.734   3.828   1.390
 3210SOL    HW110529   0.826   3.866   1.405
 3210SOL    HW210530   0.713   3.831   1.292
 3211SOL     OW10531   1.799   3.338   1.232
 3211SOL    HW110532   1.770   3.247   1.258
 3211SOL    HW210533   1.738   3.374   1.161
 3212SOL     OW10534   2.972   0.959   0.430
 3212SOL    HW110535   3.011   0.872   0.462
 3212SOL    HW210536   3.006   1.034   0.487
 3213SOL     OW10537   6.809   6.032   2.357
 3213SOL    HW110538   6.861   5.949   2.376
 3213SOL    HW210539   6.723   6.009   2.312
 3214SOL     OW10540   4.925   5.668   0.765
 3214SOL    HW110541   4.975   5.662   0.851
 3214SOL    HW210542   4.954   5.593   0.705
 3215SOL     OW10543   0.559   3.069   0.663
 3215SOL    HW110544   0.518   3.088   0.753
 3215SOL    HW210545   0.534   3.142   0.600
 3216SOL     OW10546   5.544   5.216   1.234
 3216SOL    HW110547   5.486   5.209   1.153
 3216SOL    HW210548   5.496   5.267   1.306
 3217SOL     OW10549   6.944   5.549   2.720
 3217SOL    HW110550   6.847   5.536   2.738
 3217SOL    HW210551   6.973   5.489   2.646
 3218SOL     OW10552   4.290   0.227   3.863
 3218SOL    HW110553   4.238   0.301   3.907
 3218SOL    HW210554   4.237   0.142   3.867
 3219SOL     OW10555   0.282   2.145   3.119
 3219SOL    HW110556   0.282   2.045   3.123
 3219SOL    HW210557   0.368   2.180   3.154
 3220SOL     OW10558   6.791   5.921   6.082
 3220SOL    HW110559   6.785   5.821   6.092
 3220SOL    HW210560   6.863   5.955   6.143
 3221SOL     OW10561   3.127   0.084   1.728
 3221SOL    HW110562   3.205   0.045   1.679
 3221SOL    HW210563   3.100   0.169   1.683
 3222SOL     OW10564   4.143   1.706   2.647
 3222SOL    HW110565   4.201   1.659   2.581
 3222SOL    HW210566   4.199   1.768   2.702
 3223SOL     OW10567   1.979   5.763   6.685
 3223SOL    HW110568   2.011   5.668   6.676
 3223SOL    HW210569   1.985   5.791   6.781
 3224SOL     OW10570   4.551   3.295   0.105
 3224SOL    HW110571   4.492   3.374   0.121
 3224SOL    HW210572   4.502   3.228   0.050
 3225SOL     OW10573   4.374   3.617   6.035
 3225SOL    HW110574   4.375   3.717   6.031
 3225SOL    HW210575   4.282   3.585   6.058
 3226SOL     OW10576   1.704   1.811   4.412
 3226SOL    HW110577   1.750   1.838   4.496
 3226SOL    HW210578   1.719   1.881   4.341
 3227SOL     OW10579   3.164   1.624   6.924
 3227SOL    HW110580   3.137   1.714   6.890
 3227SOL    HW210581   3.083   1.566   6.931
 3228SOL     OW10582   5.879   4.355   2.785
 3228SOL    HW110583   5.942   4.430   2.804
 3228SOL    HW210584   5.902   4.315   2.696
 3229SOL     OW10585   3.236   1.641   5.616
 3229SOL    HW110586   3.333   1.621   5.605
 3229SOL    HW210587   3.203   1.695   5.538
 3230SOL     OW10588   1.655   3.582   3.825
 3230SOL    HW110589   1.744   3.578   3.779
 3230SOL    HW210590   1.654   3.515   3.900
 3231SOL     OW10591   2.683   0.558   1.816
 3231SOL    HW110592   2.617   0.573   1.743
 3231SOL    HW210593   2.688   0.460   1.837
 3232SOL     OW10594   3.932   4.854   5.192
 3232SOL    HW110595   3.851   4.808   5.228
 3232SOL    HW210596   3.909   4.898   5.106
 3233SOL     OW10597   0.928   2.736   1.561
 3233SOL    HW110598   1.006   2.773   1.511
 3233SOL    HW210599   0.865   2.810   1.586
 3234SOL     OW10600   0.149   1.816   0.574
 3234SOL    HW110601   0.202   1.901   0.567
 3234SOL    HW210602   0.152   1.767   0.487
 3235SOL     OW10603   4.982   0.797   1.631
 3235SOL    HW110604   4.935   0.797   1.543
 3235SOL    HW210605   5.078   0.772   1.618
 3236SOL     OW10606   1.383   3.102   0.585
 3236SOL    HW110607   1.452   3.112   0.657
 3236SOL    HW210608   1.400   3.169   0.513
 3237SOL     OW10609   5.422   1.799   3.745
 3237SOL    HW110610   5.390   1.725   3.805
 3237SOL    HW210611   5.356   1.813   3.672
 3238SOL     OW10612   0.046   4.874   0.901
 3238SOL    HW110613   6.998   4.884   0.834
 3238SOL    HW210614   0.107   4.953   0.895
 3239SOL     OW10615   6.902   1.841   1.188
 3239SOL    HW110616   6.866   1.874   1.101
 3239SOL    HW210617   6.862   1.893   1.263
 3240SOL     OW10618   1.509   6.202   5.707
 3240SOL    HW110619   1.428   6.159   5.747
 3240SOL    HW210620   1.574   6.224   5.780
 3241SOL     OW10621   4.711   1.390   5.127
 3241SOL    HW110622   4.722   1.461   5.059
 3241SOL    HW210623   4.642   1.418   5.194
 3242SOL     OW10624   3.048   4.371   1.047
 3242SOL    HW110625   3.081   4.463   1.026
 3242SOL    HW210626   3.125   4.309   1.055
 3243SOL     OW10627   5.173   4.452   0.472
 3243SOL    HW110628   5.174   4.358   0.439
 3243SOL    HW210629   5.168   4.453   0.572
 3244SOL     OW10630   4.938   6.308   0.575
 3244SOL    HW110631   4.938   6.208   0.585
 3244SOL    HW210632   4.964   6.332   0.482
 3245SOL     OW10633   4.725   2.713   5.066
 3245SOL    HW110634   4.697   2.687   5.159
 3245SOL    HW210635   4.776   2.799   5.070
 3246SOL     OW10636   5.581   0.899   3.011
 3246SOL    HW110637   5.543   0.930   3.099
 3246SOL    HW210638   5.513   0.914   2.939
 3247SOL     OW10639   6.184   4.767   3.213
 3247SOL    HW110640   6.277   4.789   3.244
 3247SOL    HW210641   6.179   4.671   3.188
 3248SOL     OW10642   6.761   3.552   2.041
 3248SOL    HW110643   6.742   3.650   2.043
 3248SOL    HW210644   6.675   3.502   2.043
 3249SOL     OW10645   3.548   4.076   4.809
 3249SOL    HW110646   3.459   4.102   4.771
 3249SOL    HW210647   3.535   4.019   4.890
 3250SOL     OW10648   5.715   0.219   2.209
 3250SOL    HW110649   5.726   0.317   2.192
 3250SOL    HW210650   5.784   0.189   2.275
 3251SOL     OW10651   3.612   0.725   2.016
 3251SOL    HW110652   3.547   0.722   1.940
 3251SOL    HW210653   3.639   0.632   2.041
 3252SOL     OW10654   2.467   2.124   2.332
 3252SOL    HW110655   2.369   2.147   2.333
 3252SOL    HW210656   2.509   2.153   2.417
 3253SOL     OW10657   5.929   3.351   2.306
 3253SOL    HW110658   5.884   3.319   2.390
 3253SOL    HW210659   5.894   3.442   2.284
 3254SOL     OW10660   5.363   5.499   5.255
 3254SOL    HW110661   5.289   5.540   5.202
 3254SOL    HW210662   5.327   5.464   5.341
 3255SOL     OW10663   5.372   6.126   1.584
 3255SOL    HW110664   5.313   6.188   1.637
 3255SOL    HW210665   5.439   6.084   1.645
 3256SOL     OW10666   4.249   0.761   0.140
 3256SOL    HW110667   4.181   0.831   0.161
 3256SOL    HW210668   4.319   0.800   0.081
 3257SOL     OW10669   1.260   2.113   1.337
 3257SOL    HW110670   1.356   2.086   1.328
 3257SOL    HW210671   1.249   2.208   1.305
 3258SOL     OW10672   4.059   4.876   1.807
 3258SOL    HW110673   4.101   4.785   1.806
 3258SOL    HW210674   4.045   4.906   1.901
 3259SOL     OW10675   4.789   5.387   3.966
 3259SOL    HW110676   4.782   5.472   3.913
 3259SOL    HW210677   4.722   5.388   4.040
 3260SOL     OW10678   1.251   1.783   0.954
 3260SOL    HW110679   1.256   1.848   1.030
 3260SOL    HW210680   1.217   1.695   0.988
 3261SOL     OW10681   4.798   6.560   0.491
 3261SOL    HW110682   4.799   6.646   0.542
 3261SOL    HW210683   4.826   6.485   0.551
 3262SOL     OW10684   3.727   2.143   2.548
 3262SOL    HW110685   3.667   2.103   2.618
 3262SOL    HW210686   3.679   2.145   2.460
 3263SOL     OW10687   3.377   1.501   3.444
 3263SOL    HW110688   3.447   1.508   3.515
 3263SOL    HW210689   3.354   1.593   3.411
 3264SOL     OW10690   1.465   4.373   1.460
 3264SOL    HW110691   1.446   4.397   1.364
 3264SOL    HW210692   1.451   4.275   1.473
 3265SOL     OW10693   4.726   1.699   5.375
 3265SOL    HW110694   4.670   1.669   5.452
 3265SOL    HW210695   4.817   1.657   5.382
 3266SOL     OW10696   0.595   2.674   0.036
 3266SOL    HW110697   0.506   2.700   0.074
 3266SOL    HW210698   0.653   2.755   0.026
 3267SOL     OW10699   3.888   1.278   0.125
 3267SOL    HW110700   3.790   1.274   0.107
 3267SOL    HW210701   3.933   1.334   0.056
 3268SOL     OW10702   1.150   4.798   0.176
 3268SOL    HW110703   1.093   4.807   0.258
 3268SOL    HW210704   1.208   4.879   0.167
 3269SOL     OW10705   4.467   4.675   2.073
 3269SOL    HW110706   4.380   4.719   2.097
 3269SOL    HW210707   4.500   4.622   2.152
 3270SOL     OW10708   1.174   4.326   4.780
 3270SOL    HW110709   1.094   4.374   4.816
 3270SOL    HW210710   1.244   4.320   4.851
 3271SOL     OW10711   5.459   3.781   2.869
 3271SOL    HW110712   5.539   3.722   2.864
 3271SOL    HW210713   5.400   3.751   2.945
 3272SOL     OW10714   3.580   3.672   6.831
 3272SOL    HW110715   3.650   3.644   6.766
 3272SOL    HW210716   3.510   3.725   6.783
 3273SOL     OW10717   0.698   6.391   1.760
 3273SOL    HW110718   0.751   6.308   1.776
 3273SOL    HW210719   0.659   6.423   1.847
 3274SOL     OW10720   4.231   1.062   1.423
 3274SOL    HW110721   4.237   1.159   1.398
 3274SOL    HW210722   4.223   1.054   1.522
 3275SOL     OW10723   0.379   0.662   6.538
 3275SOL    HW110724   0.350   0.576   6.580
 3275SOL    HW210725   0.365   0.737   6.603
 3276SOL     OW10726   3.377   6.160   0.443
 3276SOL    HW110727   3.309   6.088   0.451
 3276SOL    HW210728   3.459   6.124   0.398
 3277SOL     OW10729   5.335   0.200   0.376
 3277SOL    HW110730   5.262   0.142   0.411
 3277SOL    HW210731   5.358   0.174   0.283
 3278SOL     OW10732   0.070   1.034   5.691
 3278SOL    HW110733   0.153   1.041   5.745
 3278SOL    HW210734   0.081   0.964   5.621
 3279SOL     OW10735   6.430   1.420   0.734
 3279SOL    HW110736   6.384   1.351   0.678
 3279SOL    HW210737   6.461   1.495   0.677
 3280SOL     OW10738   3.552   5.007   5.376
 3280SOL    HW110739   3.523   4.982   5.284
 3280SOL    HW210740   3.522   5.100   5.396
 3281SOL     OW10741   2.217   4.989   0.874
 3281SOL    HW110742   2.265   4.966   0.789
 3281SOL    HW210743   2.219   5.088   0.888
 3282SOL     OW10744   1.261   5.420   4.546
 3282SOL    HW110745   1.300   5.473   4.621
 3282SOL    HW210746   1.161   5.421   4.552
 3283SOL     OW10747   3.776   1.288   0.931
 3283SOL    HW110748   3.788   1.365   0.994
 3283SOL    HW210749   3.683   1.290   0.893
 3284SOL     OW10750   6.400   6.158   6.683
 3284SOL    HW110751   6.430   6.122   6.595
 3284SOL    HW210752   6.325   6.102   6.718
 3285SOL     OW10753   5.243   2.876   3.713
 3285SOL    HW110754   5.245   2.842   3.619
 3285SOL    HW210755   5.337   2.891   3.745
 3286SOL     OW10756   4.044   3.160   2.548
 3286SOL    HW110757   3.963   3.105   2.524
 3286SOL    HW210758   4.058   3.156   2.647
 3287SOL     OW10759   1.722   6.397   6.720
 3287SOL    HW110760   1.657   6.321   6.727
 3287SOL    HW210761   1.771   6.392   6.633
 3288SOL     OW10762   0.586   5.561   6.908
 3288SOL    HW110763   0.630   5.596   6.991
 3288SOL    HW210764   0.514   5.496   6.932
 3289SOL     OW10765   2.427   6.796   5.020
 3289SOL    HW110766   2.387   6.875   5.067
 3289SOL    HW210767   2.487   6.747   5.083
 3290SOL     OW10768   0.529   0.133   1.609
 3290SOL    HW110769   0.454   0.141   1.543
 3290SOL    HW210770   0.499   0.078   1.687
 3291SOL     OW10771   1.277   6.519   0.431
 3291SOL    HW110772   1.273   6.513   0.331
 3291SOL    HW210773   1.371   6.538   0.460
 3292SOL     OW10774   0.685   0.948   0.321
 3292SOL    HW110775   0.585   0.937   0.317
 3292SOL    HW210776   0.715   0.948   0.416
 3293SOL     OW10777   6.978   3.393   3.491
 3293SOL    HW110778   6.930   3.447   3.561
 3293SOL    HW210779   6.919   3.383   3.411
 3294SOL     OW10780   0.556   1.066   6.126
 3294SOL    HW110781   0.605   1.037   6.043
 3294SOL    HW210782   0.612   1.045   6.206
 3295SOL     OW10783   1.586   2.941   1.647
 3295SOL    HW110784   1.655   3.013   1.655
 3295SOL    HW210785   1.623   2.856   1.683
 3296SOL     OW10786   2.021   6.267   2.079
 3296SOL    HW110787   1.939   6.217   2.107
 3296SOL    HW210788   2.026   6.269   1.979
 3297SOL     OW10789   2.824   0.398   4.429
 3297SOL    HW110790   2.910   0.348   4.438
 3297SOL    HW210791   2.749   0.341   4.461
 3298SOL     OW10792   5.671   2.074   4.028
 3298SOL    HW110793   5.655   2.168   3.998
 3298SOL    HW210794   5.603   2.050   4.097
 3299SOL     OW10795   1.958   6.262   4.188
 3299SOL    HW110796   1.951   6.218   4.278
 3299SOL    HW210797   1.871   6.252   4.140
 3300SOL     OW10798   0.425   0.798   5.931
 3300SOL    HW110799   0.388   0.742   5.856
 3300SOL    HW210800   0.380   0.772   6.017
 3301SOL     OW10801   2.118   3.228   2.839
 3301SOL    HW110802   2.035   3.225   2.894
 3301SOL    HW210803   2.176   3.303   2.870
 3302SOL     OW10804   1.819   5.845   5.717
 3302SOL    HW110805   1.777   5.756   5.737
 3302SOL    HW210806   1.756   5.900   5.663
 3303SOL     OW10807   3.699   2.829   2.001
 3303SOL    HW110808   3.750   2.834   1.915
 3303SOL    HW210809   3.742   2.890   2.068
 3304SOL     OW10810   1.676   5.457   4.430
 3304SOL    HW110811   1.693   5.519   4.507
 3304SOL    HW210812   1.581   5.466   4.400
 3305SOL     OW10813   2.066   1.211   3.214
 3305SOL    HW110814   2.025   1.186   3.126
 3305SOL    HW210815   2.084   1.128   3.267
 3306SOL     OW10816   2.310   5.944   4.108
 3306SOL    HW110817   2.385   6.008   4.095
 3306SOL    HW210818   2.295   5.931   4.206
 3307SOL     OW10819   6.737   6.086   6.505
 3307SOL    HW110820   6.706   6.044   6.590
 3307SOL    HW210821   6.837   6.085   6.502
 3308SOL     OW10822   4.497   5.702   6.772
 3308SOL    HW110823   4.407   5.744   6.756
 3308SOL    HW210824   4.511   5.628   6.706
 3309SOL     OW10825   0.658   5.268   2.587
 3309SOL    HW110826   0.639   5.179   2.629
 3309SOL    HW210827   0.757   5.278   2.575
 3310SOL     OW10828   6.669   3.984   5.091
 3310SOL    HW110829   6.636   3.893   5.064
 3310SOL    HW210830   6.722   3.977   5.175
 3311SOL     OW10831   2.337   3.862   1.770
 3311SOL    HW110832   2.358   3.765   1.757
 3311SOL    HW210833   2.409   3.917   1.728
 3312SOL     OW10834   3.830   4.844   5.913
 3312SOL    HW110835   3.842   4.823   6.010
 3312SOL    HW210836   3.742   4.808   5.881
 3313SOL     OW10837   6.696   5.337   2.806
 3313SOL    HW110838   6.742   5.250   2.823
 3313SOL    HW210839   6.641   5.361   2.886
 3314SOL     OW10840   2.073   1.693   3.965
 3314SOL    HW110841   2.021   1.739   3.892
 3314SOL    HW210842   2.161   1.738   3.976
 3315SOL     OW10843   6.149   3.360   4.120
 3315SOL    HW110844   6.227   3.388   4.064
 3315SOL    HW210845   6.165   3.390   4.215
 3316SOL     OW10846   4.254   1.667   6.157
 3316SOL    HW110847   4.170   1.623   6.189
 3316SOL    HW210848   4.294   1.720   6.231
 3317SOL     OW10849   4.616   3.356   1.711
 3317SOL    HW110850   4.703   3.307   1.724
 3317SOL    HW210851   4.634   3.443   1.664
 3318SOL     OW10852   3.424   0.416   0.688
 3318SOL    HW110853   3.336   0.464   0.691
 3318SOL    HW210854   3.489   0.467   0.632
 3319SOL     OW10855   6.003   0.333   4.445
 3319SOL    HW110856   6.102   0.339   4.434
 3319SOL    HW210857   5.979   0.355   4.540
 3320SOL     OW10858   5.534   0.865   5.532
 3320SOL    HW110859   5.620   0.913   5.515
 3320SOL    HW210860   5.552   0.766   5.536
 3321SOL     OW10861   3.931   2.153   1.592
 3321SOL    HW110862   3.927   2.179   1.688
 3321SOL    HW210863   3.884   2.222   1.537
 3322SOL     OW10864   5.347   3.377   1.419
 3322SOL    HW110865   5.322   3.361   1.514
 3322SOL    HW210866   5.265   3.372   1.362
 3323SOL     OW10867   2.562   4.085   6.406
 3323SOL    HW110868   2.536   4.065   6.311
 3323SOL    HW210869   2.484   4.127   6.453
 3324SOL     OW10870   0.877   3.616   6.086
 3324SOL    HW110871   0.887   3.714   6.103
 3324SOL    HW210872   0.811   3.578   6.151
 3325SOL     OW10873   2.085   2.536   6.168
 3325SOL    HW110874   2.159   2.483   6.126
 3325SOL    HW210875   2.071   2.620   6.115
 3326SOL     OW10876   6.001   1.774   2.054
 3326SOL    HW110877   5.999   1.807   1.959
 3326SOL    HW210878   6.095   1.771   2.086
 3327SOL     OW10879   3.148   6.477   1.315
 3327SOL    HW110880   3.211   6.534   1.368
 3327SOL    HW210881   3.135   6.390   1.363
 3328SOL     OW10882   4.501   1.491   1.940
 3328SOL    HW110883   4.422   1.491   2.001
 3328SOL    HW210884   4.584   1.477   1.993
 3329SOL     OW10885   5.462   0.998   4.308
 3329SOL    HW110886   5.391   1.020   4.241
 3329SOL    HW210887   5.420   0.961   4.391
 3330SOL     OW10888   5.967   6.147   1.434
 3330SOL    HW110889   5.973   6.115   1.339
 3330SOL    HW210890   6.033   6.097   1.490
 3331SOL     OW10891   0.766   3.404   2.265
 3331SOL    HW110892   0.719   3.380   2.350
 3331SOL    HW210893   0.710   3.376   2.187
 3332SOL     OW10894   6.410   4.346   0.286
 3332SOL    HW110895   6.467   4.281   0.337
 3332SOL    HW210896   6.341   4.385   0.347
 3333SOL     OW10897   2.976   4.079   6.758
 3333SOL    HW110898   3.055   4.139   6.768
 3333SOL    HW210899   2.898   4.131   6.723
 3334SOL     OW10900   2.067   4.148   2.093
 3334SOL    HW110901   2.146   4.178   2.145
 3334SOL    HW210902   2.030   4.064   2.133
 3335SOL     OW10903   4.632   6.901   6.394
 3335SOL    HW110904   4.635   6.811   6.438
 3335SOL    HW210905   4.545   6.911   6.346
 3336SOL     OW10906   1.574   6.390   4.773
 3336SOL    HW110907   1.595   6.365   4.678
 3336SOL    HW210908   1.490   6.444   4.774
 3337SOL     OW10909   2.606   3.905   1.292
 3337SOL    HW110910   2.580   4.000   1.272
 3337SOL    HW210911   2.539   3.865   1.354
 3338SOL     OW10912   0.425   3.075   0.893
 3338SOL    HW110913   0.433   3.036   0.984
 3338SOL    HW210914   0.375   3.162   0.898
 3339SOL     OW10915   1.172   6.521   6.692
 3339SOL    HW110916   1.174   6.433   6.644
 3339SOL    HW210917   1.096   6.522   6.758
 3340SOL     OW10918   3.528   1.455   3.035
 3340SOL    HW110919   3.483   1.545   3.037
 3340SOL    HW210920   3.489   1.401   2.960
 3341SOL     OW10921   1.700   4.587   3.941
 3341SOL    HW110922   1.785   4.584   3.993
 3341SOL    HW210923   1.708   4.651   3.865
 3342SOL     OW10924   1.493   6.895   3.891
 3342SOL    HW110925   1.413   6.929   3.940
 3342SOL    HW210926   1.464   6.841   3.812
 3343SOL     OW10927   5.569   4.437   6.775
 3343SOL    HW110928   5.547   4.481   6.862
 3343SOL    HW210929   5.628   4.497   6.721
 3344SOL     OW10930   5.762   3.889   3.799
 3344SOL    HW110931   5.859   3.899   3.778
 3344SOL    HW210932   5.708   3.930   3.726
 3345SOL     OW10933   1.317   3.965   6.394
 3345SOL    HW110934   1.309   4.050   6.343
 3345SOL    HW210935   1.414   3.943   6.406
 3346SOL     OW10936   1.171   1.106   6.973
 3346SOL    HW110937   1.182   1.020   6.923
 3346SOL    HW210938   1.241   1.112   0.018
 3347SOL     OW10939   1.299   2.373   5.380
 3347SOL    HW110940   1.329   2.366   5.285
 3347SOL    HW210941   1.334   2.458   5.419
 3348SOL     OW10942   4.115   3.381   4.585
 3348SOL    HW110943   4.020   3.411   4.573
 3348SOL    HW210944   4.120   3.320   4.665
 3349SOL     OW10945   2.283   5.298   3.655
 3349SOL    HW110946   2.378   5.328   3.647
 3349SOL    HW210947   2.224   5.377   3.673
 3350SOL     OW10948   0.268   2.497   5.860
 3350SOL    HW110949   0.300   2.592   5.863
 3350SOL    HW210950   0.347   2.436   5.851
 3351SOL     OW10951   4.812   0.938   2.369
 3351SOL    HW110952   4.893   0.988   2.341
 3351SOL    HW210953   4.776   0.977   2.454
 3352SOL     OW10954   6.473   2.978   1.053
 3352SOL    HW110955   6.545   2.952   1.117
 3352SOL    HW210956   6.425   3.059   1.088
 3353SOL     OW10957   3.079   5.981   1.480
 3353SOL    HW110958   3.092   5.958   1.384
 3353SOL    HW210959   2.989   5.949   1.510
 3354SOL     OW10960   3.883   2.384   5.368
 3354SOL    HW110961   3.945   2.343   5.435
 3354SOL    HW210962   3.819   2.315   5.335
 3355SOL     OW10963   1.851   1.701   6.025
 3355SOL    HW110964   1.813   1.610   6.042
 3355SOL    HW210965   1.911   1.726   6.101
 3356SOL     OW10966   0.902   5.610   6.041
 3356SOL    HW110967   0.921   5.693   5.989
 3356SOL    HW210968   0.829   5.558   5.995
 3357SOL     OW10969   2.427   3.613   1.702
 3357SOL    HW110970   2.383   3.558   1.773
 3357SOL    HW210971   2.453   3.555   1.625
 3358SOL     OW10972   4.657   1.484   2.302
 3358SOL    HW110973   4.638   1.390   2.329
 3358SOL    HW210974   4.674   1.489   2.204
 3359SOL     OW10975   0.441   6.115   3.146
 3359SOL    HW110976   0.364   6.142   3.203
 3359SOL    HW210977   0.443   6.172   3.064
 3360SOL     OW10978   1.419   1.324   6.584
 3360SOL    HW110979   1.321   1.333   6.605
 3360SOL    HW210980   1.466   1.410   6.604
 3361SOL     OW10981   6.800   5.128   4.805
 3361SOL    HW110982   6.868   5.101   4.873
 3361SOL    HW210983   6.831   5.100   4.714
 3362SOL     OW10984   3.798   1.282   2.925
 3362SOL    HW110985   3.699   1.281   2.938
 3362SOL    HW210986   3.843   1.296   3.014
 3363SOL     OW10987   6.836   2.394   1.766
 3363SOL    HW110988   6.810   2.300   1.789
 3363SOL    HW210989   6.820   2.453   1.845
 3364SOL     OW10990   2.129   4.884   3.986
 3364SOL    HW110991   2.156   4.968   4.034
 3364SOL    HW210992   2.057   4.837   4.037
 3365SOL     OW10993   0.098   2.702   4.612
 3365SOL    HW110994   0.133   2.725   4.521
 3365SOL    HW210995   0.071   2.606   4.614
 3366SOL     OW10996   5.428   4.923   4.212
 3366SOL    HW110997   5.507   4.962   4.164
 3366SOL    HW210998   5.430   4.953   4.308
 3367SOL     OW10999   4.048   3.236   2.831
 3367SOL    HW111000   3.952   3.260   2.813
 3367SOL    HW211001   4.067   3.246   2.929
 3368SOL     OW11002   0.734   5.763   6.508
 3368SOL    HW111003   0.658   5.704   6.480
 3368SOL    HW211004   0.769   5.733   6.597
 3369SOL     OW11005   3.634   1.994   0.579
 3369SOL    HW111006   3.607   2.017   0.672
 3369SOL    HW211007   3.718   1.940   0.581
 3370SOL     OW11008   6.637   6.537   1.652
 3370SOL    HW111009   6.734   6.530   1.675
 3370SOL    HW211010   6.627   6.588   1.567
 3371SOL     OW11011   2.539   3.151   1.368
 3371SOL    HW111012   2.526   3.112   1.459
 3371SOL    HW211013   2.632   3.188   1.362
 3372SOL     OW11014   6.841   1.777   6.802
 3372SOL    HW111015   6.923   1.796   6.856
 3372SOL    HW211016   6.762   1.822   6.844
 3373SOL     OW11017   0.449   2.250   4.030
 3373SOL    HW111018   0.395   2.296   4.102
 3373SOL    HW211019   0.538   2.225   4.067
 3374SOL     OW11020   1.205   6.633   3.545
 3374SOL    HW111021   1.192   6.536   3.525
 3374SOL    HW211022   1.126   6.667   3.597
 3375SOL     OW11023   6.969   4.632   0.216
 3375SOL    HW111024   6.956   4.725   0.253
 3375SOL    HW211025   6.980   4.637   0.117
 3376SOL     OW11026   3.553   2.839   4.836
 3376SOL    HW111027   3.531   2.877   4.746
 3376SOL    HW211028   3.574   2.742   4.827
 3377SOL     OW11029   6.535   4.984   5.829
 3377SOL    HW111030   6.532   5.061   5.893
 3377SOL    HW211031   6.474   5.003   5.751
 3378SOL     OW11032   1.723   6.838   0.272
 3378SOL    HW111033   1.785   6.907   0.310
 3378SOL    HW211034   1.749   6.818   0.177
 3379SOL     OW11035   0.985   1.859   4.955
 3379SOL    HW111036   0.936   1.947   4.960
 3379SOL    HW211037   1.078   1.871   4.988
 3380SOL     OW11038   4.726   6.837   4.909
 3380SOL    HW111039   4.717   6.855   4.811
 3380SOL    HW211040   4.641   6.863   4.955
 3381SOL     OW11041   0.221   3.273   1.479
 3381SOL    HW111042   0.253   3.300   1.569
 3381SOL    HW211043   0.142   3.329   1.453
 3382SOL     OW11044   0.715   2.824   6.438
 3382SOL    HW111045   0.696   2.790   6.530
 3382SOL    HW211046   0.811   2.849   6.431
 3383SOL     OW11047   3.584   5.661   1.113
 3383SOL    HW111048   3.534   5.606   1.046
 3383SOL    HW211049   3.535   5.746   1.129
 3384SOL     OW11050   1.990   2.991   0.575
 3384SOL    HW111051   2.026   3.077   0.609
 3384SOL    HW211052   2.031   2.915   0.624
 3385SOL     OW11053   6.754   3.641   5.060
 3385SOL    HW111054   6.828   3.699   5.026
 3385SOL    HW211055   6.677   3.646   4.996
 3386SOL     OW11056   5.556   4.327   0.384
 3386SOL    HW111057   5.488   4.293   0.449
 3386SOL    HW211058   5.511   4.379   0.311
 3387SOL     OW11059   4.291   0.146   3.009
 3387SOL    HW111060   4.384   0.168   3.041
 3387SOL    HW211061   4.297   0.094   2.925
 3388SOL     OW11062   5.310   2.890   2.541
 3388SOL    HW111063   5.378   2.896   2.614
 3388SOL    HW211064   5.354   2.853   2.459
 3389SOL     OW11065   6.600   5.435   6.073
 3389SOL    HW111066   6.515   5.408   6.028
 3389SOL    HW211067   6.609   5.387   6.161
 3390SOL     OW11068   4.855   6.989   6.174
 3390SOL    HW111069   4.815   6.901   6.200
 3390SOL    HW211070   4.859   6.995   6.074
 3391SOL     OW11071   4.689   2.710   4.052
 3391SOL    HW111072   4.739   2.796   4.047
 3391SOL    HW211073   4.649   2.689   3.963
 3392SOL     OW11074   3.439   6.587   4.085
 3392SOL    HW111075   3.345   6.601   4.052
 3392SOL    HW211076   3.448   6.495   4.123
 3393SOL     OW11077   6.288   6.178   0.490
 3393SOL    HW111078   6.324   6.149   0.579
 3393SOL    HW211079   6.210   6.121   0.465
 3394SOL     OW11080   5.157   3.694   1.095
 3394SOL    HW111081   5.078   3.746   1.061
 3394SOL    HW211082   5.157   3.694   1.195
 3395SOL     OW11083   5.299   2.765   3.420
 3395SOL    HW111084   5.224   2.704   3.445
 3395SOL    HW211085   5.367   2.715   3.367
 3396SOL     OW11086   5.295   1.422   3.548
 3396SOL    HW111087   5.302   1.354   3.475
 3396SOL    HW211088   5.209   1.408   3.598
 3397SOL     OW11089   3.150   5.301   6.921
 3397SOL    HW111090   3.111   5.218   6.880
 3397SOL    HW211091   3.123   5.306   7.017
 3398SOL     OW11092   0.947   0.318   4.486
 3398SOL    HW111093   0.905   0.393   4.537
 3398SOL    HW211094   0.877   0.271   4.432
 3399SOL     OW11095   5.679   5.401   3.142
 3399SOL    HW111096   5.648   5.306   3.133
 3399SOL    HW211097   5.606   5.463   3.111
 3400SOL     OW11098   5.855   3.316   6.713
 3400SOL    HW111099   5.859   3.330   6.812
 3400SOL    HW211100   5.840   3.404   6.668
 3401SOL     OW11101   6.673   3.666   6.263
 3401SOL    HW111102   6.607   3.619   6.322
 3401SOL    HW211103   6.628   3.691   6.177
 3402SOL     OW11104   5.024   5.876   6.396
 3402SOL    HW111105   5.111   5.842   6.432
 3402SOL    HW211106   4.972   5.920   6.470
 3403SOL     OW11107   4.413   5.339   6.371
 3403SOL    HW111108   4.487   5.290   6.418
 3403SOL    HW211109   4.342   5.274   6.345
 3404SOL     OW11110   5.429   2.506   0.719
 3404SOL    HW111111   5.343   2.488   0.671
 3404SOL    HW211112   5.500   2.445   0.683
 3405SOL     OW11113   6.084   4.090   6.616
 3405SOL    HW111114   6.026   4.057   6.690
 3405SOL    HW211115   6.170   4.040   6.616
 3406SOL     OW11116   1.369   3.360   2.286
 3406SOL    HW111117   1.298   3.290   2.292
 3406SOL    HW211118   1.335   3.438   2.234
 3407SOL     OW11119   1.373   4.419   6.690
 3407SOL    HW111120   1.463   4.441   6.728
 3407SOL    HW211121   1.340   4.333   6.729
 3408SOL     OW11122   5.184   2.840   4.642
 3408SOL    HW111123   5.151   2.873   4.553
 3408SOL    HW211124   5.230   2.914   4.690
 3409SOL     OW11125   4.031   6.006   0.281
 3409SOL    HW111126   3.977   5.932   0.322
 3409SOL    HW211127   4.075   5.973   0.198
 3410SOL     OW11128   6.953   6.553   1.653
 3410SOL    HW111129   6.928   6.574   1.747
 3410SOL    HW211130   6.940   6.455   1.636
 3411SOL     OW11131   0.404   2.279   0.433
 3411SOL    HW111132   0.455   2.230   0.363
 3411SOL    HW211133   0.327   2.327   0.391
 3412SOL     OW11134   4.963   3.305   1.455
 3412SOL    HW111135   4.951   3.257   1.368
 3412SOL    HW211136   4.896   3.271   1.521
 3413SOL     OW11137   6.279   1.591   1.002
 3413SOL    HW111138   6.377   1.585   0.987
 3413SOL    HW211139   6.231   1.556   0.921
 3414SOL     OW11140   3.648   1.987   5.629
 3414SOL    HW111141   3.556   1.990   5.669
 3414SOL    HW211142   3.715   1.962   5.699
 3415SOL     OW11143   1.929   2.754   3.956
 3415SOL    HW111144   1.873   2.746   4.038
 3415SOL    HW211145   1.940   2.850   3.932
 3416SOL     OW11146   5.627   6.524   0.711
 3416SOL    HW111147   5.709   6.544   0.764
 3416SOL    HW211148   5.576   6.608   0.694
 3417SOL     OW11149   0.807   6.398   4.262
 3417SOL    HW111150   0.869   6.423   4.336
 3417SOL    HW211151   0.764   6.480   4.225
 3418SOL     OW11152   3.972   5.644   3.403
 3418SOL    HW111153   3.930   5.672   3.490
 3418SOL    HW211154   4.040   5.573   3.421
 3419SOL     OW11155   3.127   5.479   6.030
 3419SOL    HW111156   3.041   5.507   5.986
 3419SOL    HW211157   3.197   5.548   6.014
 3420SOL     OW11158   5.879   3.349   3.258
 3420SOL    HW111159   5.872   3.265   3.312
 3420SOL    HW211160   5.787   3.386   3.241
 3421SOL     OW11161   5.094   1.634   3.854
 3421SOL    HW111162   5.192   1.639   3.873
 3421SOL    HW211163   5.074   1.554   3.797
 3422SOL     OW11164   3.029   0.286   6.780
 3422SOL    HW111165   3.017   0.205   6.838
 3422SOL    HW211166   3.003   0.368   6.831
 3423SOL     OW11167   6.653   4.741   5.811
 3423SOL    HW111168   6.722   4.717   5.879
 3423SOL    HW211169   6.611   4.828   5.836
 3424SOL     OW11170   2.346   6.475   1.126
 3424SOL    HW111171   2.389   6.488   1.215
 3424SOL    HW211172   2.406   6.510   1.054
 3425SOL     OW11173   4.472   4.836   2.372
 3425SOL    HW111174   4.381   4.863   2.342
 3425SOL    HW211175   4.475   4.736   2.381
 3426SOL     OW11176   4.640   2.667   1.245
 3426SOL    HW111177   4.585   2.584   1.246
 3426SOL    HW211178   4.705   2.663   1.169
 3427SOL     OW11179   0.805   1.573   1.096
 3427SOL    HW111180   0.800   1.499   1.029
 3427SOL    HW211181   0.796   1.661   1.049
 3428SOL     OW11182   3.430   5.236   0.181
 3428SOL    HW111183   3.355   5.170   0.192
 3428SOL    HW211184   3.422   5.308   0.250
 3429SOL     OW11185   0.551   2.329   1.224
 3429SOL    HW111186   0.518   2.347   1.316
 3429SOL    HW211187   0.597   2.241   1.221
 3430SOL     OW11188   2.227   5.644   5.556
 3430SOL    HW111189   2.144   5.646   5.611
 3430SOL    HW211190   2.257   5.738   5.538
 3431SOL     OW11191   1.627   5.955   1.876
 3431SOL    HW111192   1.597   6.003   1.794
 3431SOL    HW211193   1.689   5.881   1.852
 3432SOL     OW11194   2.242   4.542   5.515
 3432SOL    HW111195   2.302   4.543   5.595
 3432SOL    HW211196   2.225   4.447   5.489
 3433SOL     OW11197   0.979   0.251   5.054
 3433SOL    HW111198   1.032   0.167   5.040
 3433SOL    HW211199   1.018   0.302   5.130
 3434SOL     OW11200   3.858   1.288   2.205
 3434SOL    HW111201   3.836   1.240   2.120
 3434SOL    HW211202   3.777   1.337   2.238
 3435SOL     OW11203   2.116   1.376   1.342
 3435SOL    HW111204   2.157   1.319   1.414
 3435SOL    HW211205   2.094   1.466   1.379
 3436SOL     OW11206   3.806   6.060   0.054
 3436SOL    HW111207   3.757   6.128   7.025
 3436SOL    HW211208   3.771   6.061   0.148
 3437SOL     OW11209   2.729   6.661   5.455
 3437SOL    HW111210   2.781   6.708   5.526
 3437SOL    HW211211   2.643   6.711   5.438
 3438SOL     OW11212   0.780   3.332   0.732
 3438SOL    HW111213   0.758   3.264   0.803
 3438SOL    HW211214   0.704   3.397   0.725
 3439SOL     OW11215   3.404   6.042   4.321
 3439SOL    HW111216   3.333   6.112   4.330
 3439SOL    HW211217   3.411   5.990   4.406
 3440SOL     OW11218   3.096   2.973   2.276
 3440SOL    HW111219   2.997   2.966   2.264
 3440SOL    HW211220   3.142   2.913   2.211
 3441SOL     OW11221   6.538   6.060   6.174
 3441SOL    HW111222   6.512   6.026   6.084
 3441SOL    HW211223   6.595   6.141   6.164
 3442SOL     OW11224   1.910   3.839   1.848
 3442SOL    HW111225   1.953   3.919   1.807
 3442SOL    HW211226   1.939   3.831   1.943
 3443SOL     OW11227   4.064   6.233   2.289
 3443SOL    HW111228   4.040   6.171   2.364
 3443SOL    HW211229   3.989   6.297   2.273
 3444SOL     OW11230   4.466   5.515   7.015
 3444SOL    HW111231   4.444   5.444   0.056
 3444SOL    HW211232   4.550   5.562   0.017
 3445SOL     OW11233   5.584   5.163   2.363
 3445SOL    HW111234   5.684   5.166   2.370
 3445SOL    HW211235   5.555   5.076   2.323
 3446SOL     OW11236   6.296   0.577   1.341
 3446SOL    HW111237   6.200   0.583   1.368
 3446SOL    HW211238   6.314   0.488   1.300
 3447SOL     OW11239   4.834   6.767   0.712
 3447SOL    HW111240   4.837   6.692   0.778
 3447SOL    HW211241   4.767   6.834   0.742
 3448SOL     OW11242   3.431   0.010   6.165
 3448SOL    HW111243   3.403   0.055   6.249
 3448SOL    HW211244   3.477   0.077   6.105
 3449SOL     OW11245   6.110   5.129   4.665
 3449SOL    HW111246   6.076   5.038   4.641
 3449SOL    HW211247   6.135   5.179   4.582
 3450SOL     OW11248   0.969   1.451   6.480
 3450SOL    HW111249   0.931   1.360   6.497
 3450SOL    HW211250   1.036   1.472   6.551
 3451SOL     OW11251   2.743   6.408   6.885
 3451SOL    HW111252   2.721   6.428   6.981
 3451SOL    HW211253   2.826   6.352   6.881
 3452SOL     OW11254   5.411   0.299   6.572
 3452SOL    HW111255   5.366   0.209   6.569
 3452SOL    HW211256   5.510   0.287   6.568
 3453SOL     OW11257   5.993   5.354   6.137
 3453SOL    HW111258   6.077   5.398   6.171
 3453SOL    HW211259   5.946   5.310   6.214
 3454SOL     OW11260   1.141   3.811   5.546
 3454SOL    HW111261   1.129   3.779   5.452
 3454SOL    HW211262   1.091   3.751   5.609
 3455SOL     OW11263   2.775   1.728   4.224
 3455SOL    HW111264   2.752   1.713   4.128
 3455SOL    HW211265   2.861   1.682   4.244
 3456SOL     OW11266   5.769   4.585   1.825
 3456SOL    HW111267   5.829   4.626   1.756
 3456SOL    HW211268   5.700   4.528   1.780
 3457SOL     OW11269   4.233   5.416   4.220
 3457SOL    HW111270   4.256   5.467   4.303
 3457SOL    HW211271   4.311   5.359   4.194
 3458SOL     OW11272   4.346   0.867   2.294
 3458SOL    HW111273   4.286   0.839   2.220
 3458SOL    HW211274   4.363   0.966   2.289
 3459SOL     OW11275   5.004   2.292   2.385
 3459SOL    HW111276   4.942   2.320   2.458
 3459SOL    HW211277   5.025   2.371   2.328
 3460SOL     OW11278   3.257   2.062   0.066
 3460SOL    HW111279   3.288   1.967   0.070
 3460SOL    HW211280   3.285   2.103   7.004
 3461SOL     OW11281   4.581   3.838   0.127
 3461SOL    HW111282   4.624   3.881   0.047
 3461SOL    HW211283   4.628   3.753   0.149
 3462SOL     OW11284   0.817   3.916   5.493
 3462SOL    HW111285   0.738   3.935   5.434
 3462SOL    HW211286   0.900   3.909   5.437
 3463SOL     OW11287   0.732   4.317   1.843
 3463SOL    HW111288   0.722   4.227   1.800
 3463SOL    HW211289   0.667   4.325   1.918
 3464SOL     OW11290   0.034   4.698   6.122
 3464SOL    HW111291   6.980   4.662   6.074
 3464SOL    HW211292   0.118   4.667   6.076
 3465SOL     OW11293   1.711   2.691   2.140
 3465SOL    HW111294   1.773   2.658   2.211
 3465SOL    HW211295   1.722   2.634   2.058
 3466SOL     OW11296   6.761   5.239   5.898
 3466SOL    HW111297   6.682   5.252   5.958
 3466SOL    HW211298   6.735   5.260   5.803
 3467SOL     OW11299   1.648   2.803   6.363
 3467SOL    HW111300   1.566   2.754   6.392
 3467SOL    HW211301   1.705   2.823   6.443
 3468SOL     OW11302   4.485   6.337   2.289
 3468SOL    HW111303   4.571   6.314   2.245
 3468SOL    HW211304   4.414   6.351   2.219
 3469SOL     OW11305   6.002   0.480   3.108
 3469SOL    HW111306   5.905   0.495   3.128
 3469SOL    HW211307   6.052   0.567   3.118
 3470SOL     OW11308   6.936   3.692   0.478
 3470SOL    HW111309   6.859   3.630   0.494
 3470SOL    HW211310   7.016   3.640   0.447
 3471SOL     OW11311   4.057   5.090   4.344
 3471SOL    HW111312   4.125   5.060   4.411
 3471SOL    HW211313   3.992   5.152   4.387
 3472SOL     OW11314   1.862   0.654   2.820
 3472SOL    HW111315   1.797   0.595   2.773
 3472SOL    HW211316   1.836   0.750   2.807
 3473SOL     OW11317   6.746   1.372   6.694
 3473SOL    HW111318   6.773   1.462   6.660
 3473SOL    HW211319   6.826   1.312   6.698
 3474SOL     OW11320   2.839   5.116   1.856
 3474SOL    HW111321   2.811   5.023   1.879
 3474SOL    HW211322   2.784   5.181   1.908
 3475SOL     OW11323   0.861   6.055   4.721
 3475SOL    HW111324   0.954   6.045   4.684
 3475SOL    HW211325   0.801   5.986   4.679
 3476SOL     OW11326   3.436   1.761   3.029
 3476SOL    HW111327   3.483   1.814   3.100
 3476SOL    HW211328   3.365   1.818   2.987
 3477SOL     OW11329   3.142   5.203   1.309
 3477SOL    HW111330   3.169   5.209   1.405
 3477SOL    HW211331   3.078   5.126   1.298
 3478SOL     OW11332   2.525   5.344   4.764
 3478SOL    HW111333   2.549   5.248   4.752
 3478SOL    HW211334   2.609   5.397   4.778
 3479SOL     OW11335   1.173   1.096   2.817
 3479SOL    HW111336   1.080   1.135   2.818
 3479SOL    HW211337   1.233   1.153   2.873
 3480SOL     OW11338   6.807   6.902   4.824
 3480SOL    HW111339   6.793   6.845   4.743
 3480SOL    HW211340   6.808   6.998   4.798
 3481SOL     OW11341   4.721   0.178   6.877
 3481SOL    HW111342   4.633   0.224   6.868
 3481SOL    HW211343   4.786   0.217   6.812
 3482SOL     OW11344   5.535   1.571   1.007
 3482SOL    HW111345   5.554   1.668   0.992
 3482SOL    HW211346   5.437   1.555   1.005
 3483SOL     OW11347   3.820   1.167   1.648
 3483SOL    HW111348   3.737   1.149   1.702
 3483SOL    HW211349   3.869   1.244   1.687
 3484SOL     OW11350   2.738   3.851   1.717
 3484SOL    HW111351   2.836   3.838   1.735
 3484SOL    HW211352   2.709   3.789   1.644
 3485SOL     OW11353   1.346   6.977   4.205
 3485SOL    HW111354   1.388   6.897   4.248
 3485SOL    HW211355   1.375   0.035   4.253
 3486SOL     OW11356   2.757   1.492   2.840
 3486SOL    HW111357   2.724   1.564   2.779
 3486SOL    HW211358   2.693   1.415   2.838
 3487SOL     OW11359   5.734   2.062   5.862
 3487SOL    HW111360   5.729   2.074   5.962
 3487SOL    HW211361   5.708   1.968   5.839
 3488SOL     OW11362   5.487   2.533   4.029
 3488SOL    HW111363   5.418   2.544   3.957
 3488SOL    HW211364   5.496   2.618   4.080
 3489SOL     OW11365   2.894   6.635   0.441
 3489SOL    HW111366   2.917   6.598   0.531
 3489SOL    HW211367   2.966   6.697   0.411
 3490SOL     OW11368   4.754   4.765   6.705
 3490SOL    HW111369   4.757   4.731   6.611
 3490SOL    HW211370   4.736   4.689   6.768
 3491SOL     OW11371   5.372   2.921   4.349
 3491SOL    HW111372   5.440   2.953   4.415
 3491SOL    HW211373   5.280   2.937   4.384
 3492SOL     OW11374   0.692   5.800   1.313
 3492SOL    HW111375   0.634   5.785   1.393
 3492SOL    HW211376   0.661   5.741   1.238
 3493SOL     OW11377   6.512   5.438   6.576
 3493SOL    HW111378   6.609   5.415   6.577
 3493SOL    HW211379   6.469   5.411   6.662
 3494SOL     OW11380   3.803   0.314   1.660
 3494SOL    HW111381   3.866   0.237   1.660
 3494SOL    HW211382   3.848   0.394   1.621
 3495SOL     OW11383   4.360   5.022   2.151
 3495SOL    HW111384   4.439   4.996   2.096
 3495SOL    HW211385   4.282   4.966   2.126
 3496SOL     OW11386   0.327   3.923   0.899
 3496SOL    HW111387   0.414   3.954   0.938
 3496SOL    HW211388   0.319   3.824   0.913
 3497SOL     OW11389   4.178   6.876   3.245
 3497SOL    HW111390   4.084   6.894   3.216
 3497SOL    HW211391   4.234   6.854   3.164
 3498SOL     OW11392   2.055   2.227   0.243
 3498SOL    HW111393   2.088   2.235   0.337
 3498SOL    HW211394   2.129   2.192   0.184
 3499SOL     OW11395   4.890   2.826   4.316
 3499SOL    HW111396   4.856   2.894   4.381
 3499SOL    HW211397   4.814   2.771   4.282
 3500SOL     OW11398   0.495   4.006   5.104
 3500SOL    HW111399   0.530   4.098   5.122
 3500SOL    HW211400   0.473   3.961   5.190
 3501SOL     OW11401   1.120   5.175   3.568
 3501SOL    HW111402   1.165   5.162   3.656
 3501SOL    HW211403   1.025   5.145   3.574
 3502SOL     OW11404   6.507   2.196   2.063
 3502SOL    HW111405   6.518   2.108   2.018
 3502SOL    HW211406   6.511   2.269   1.994
 3503SOL     OW11407   5.754   6.137   5.469
 3503SOL    HW111408   5.823   6.065   5.457
 3503SOL    HW211409   5.784   6.200   5.540
 3504SOL     OW11410   2.397   2.300   1.220
 3504SOL    HW111411   2.341   2.257   1.150
 3504SOL    HW211412   2.483   2.332   1.179
 3505SOL     OW11413   5.381   4.852   5.003
 3505SOL    HW111414   5.331   4.774   4.964
 3505SOL    HW211415   5.473   4.855   4.965
 3506SOL     OW11416   4.765   6.233   5.272
 3506SOL    HW111417   4.790   6.158   5.211
 3506SOL    HW211418   4.737   6.196   5.361
 3507SOL     OW11419   2.704   0.427   0.196
 3507SOL    HW111420   2.778   0.493   0.185
 3507SOL    HW211421   2.741   0.340   0.230
 3508SOL     OW11422   3.757   2.859   6.001
 3508SOL    HW111423   3.680   2.882   5.942
 3508SOL    HW211424   3.832   2.923   5.983
 3509SOL     OW11425   4.978   6.852   6.408
 3509SOL    HW111426   4.939   6.783   6.347
 3509SOL    HW211427   4.987   6.939   6.359
 3510SOL     OW11428   2.212   2.270   1.615
 3510SOL    HW111429   2.302   2.230   1.597
 3510SOL    HW211430   2.171   2.300   1.529
 3511SOL     OW11431   1.716   4.757   6.957
 3511SOL    HW111432   1.782   4.713   7.017
 3511SOL    HW211433   1.631   4.703   6.956
 3512SOL     OW11434   6.661   4.024   0.753
 3512SOL    HW111435   6.743   4.081   0.744
 3512SOL    HW211436   6.681   3.946   0.811
 3513SOL     OW11437   5.929   4.128   0.720
 3513SOL    HW111438   5.842   4.095   0.756
 3513SOL    HW211439   5.963   4.064   0.651
 3514SOL     OW11440   0.112   0.807   2.177
 3514SOL    HW111441   0.125   0.842   2.270
 3514SOL    HW211442   0.032   0.850   2.136
 3515SOL     OW11443   4.225   6.531   2.404
 3515SOL    HW111444   4.214   6.463   2.331
 3515SOL    HW211445   4.213   6.486   2.493
 3516SOL     OW11446   4.635   0.759   0.935
 3516SOL    HW111447   4.677   0.751   1.026
 3516SOL    HW211448   4.707   0.769   0.866
 3517SOL     OW11449   0.589   2.391   7.005
 3517SOL    HW111450   0.590   2.490   7.019
 3517SOL    HW211451   0.656   2.366   6.935
 3518SOL     OW11452   5.462   4.065   4.745
 3518SOL    HW111453   5.500   4.150   4.709
 3518SOL    HW211454   5.368   4.055   4.712
 3519SOL     OW11455   2.308   0.504   6.432
 3519SOL    HW111456   2.360   0.501   6.346
 3519SOL    HW211457   2.321   0.418   6.481
 3520SOL     OW11458   3.032   4.912   1.261
 3520SOL    HW111459   3.025   4.820   1.300
 3520SOL    HW211460   2.949   4.933   1.210
 3521SOL     OW11461   5.809   3.438   1.318
 3521SOL    HW111462   5.870   3.444   1.239
 3521SOL    HW211463   5.741   3.367   1.301
 3522SOL     OW11464   4.354   5.279   2.047
 3522SOL    HW111465   4.258   5.297   2.067
 3522SOL    HW211466   4.382   5.194   2.091
 3523SOL     OW11467   2.815   4.373   5.612
 3523SOL    HW111468   2.850   4.373   5.518
 3523SOL    HW211469   2.824   4.464   5.651
 3524SOL     OW11470   2.549   1.096   1.284
 3524SOL    HW111471   2.508   1.011   1.249
 3524SOL    HW211472   2.644   1.079   1.309
 3525SOL     OW11473   0.821   3.638   2.383
 3525SOL    HW111474   0.733   3.662   2.423
 3525SOL    HW211475   0.819   3.542   2.353
 3526SOL     OW11476   1.765   6.043   3.865
 3526SOL    HW111477   1.761   6.008   3.959
 3526SOL    HW211478   1.727   6.135   3.863
 3527SOL     OW11479   6.021   3.380   5.938
 3527SOL    HW111480   6.059   3.290   5.917
 3527SOL    HW211481   6.095   3.447   5.944
 3528SOL     OW11482   0.911   5.240   3.835
 3528SOL    HW111483   0.857   5.296   3.898
 3528SOL    HW211484   0.896   5.272   3.741
 3529SOL     OW11485   4.384   6.929   5.135
 3529SOL    HW111486   4.321   6.934   5.213
 3529SOL    HW211487   4.458   6.865   5.156
 3530SOL     OW11488   2.941   4.985   3.324
 3530SOL    HW111489   3.001   5.030   3.258
 3530SOL    HW211490   2.905   5.052   3.388
 3531SOL     OW11491   4.938   4.747   1.274
 3531SOL    HW111492   4.974   4.686   1.344
 3531SOL    HW211493   4.842   4.726   1.258
 3532SOL     OW11494   3.084   0.033   0.676
 3532SOL    HW111495   3.180   0.053   0.659
 3532SOL    HW211496   3.047   0.102   0.739
 3533SOL     OW11497   1.277   2.412   3.160
 3533SOL    HW111498   1.193   2.376   3.201
 3533SOL    HW211499   1.269   2.511   3.152
 3534SOL     OW11500   6.078   1.094   5.324
 3534SOL    HW111501   6.080   1.081   5.423
 3534SOL    HW211502   6.049   1.187   5.303
 3535SOL     OW11503   6.325   5.573   0.457
 3535SOL    HW111504   6.352   5.661   0.420
 3535SOL    HW211505   6.372   5.500   0.408
 3536SOL     OW11506   2.183   2.846   3.612
 3536SOL    HW111507   2.249   2.777   3.644
 3536SOL    HW211508   2.090   2.810   3.621
 3537SOL     OW11509   2.583   4.829   0.277
 3537SOL    HW111510   2.679   4.828   0.305
 3537SOL    HW211511   2.564   4.912   0.225
 3538SOL     OW11512   2.560   1.054   4.232
 3538SOL    HW111513   2.483   0.990   4.223
 3538SOL    HW211514   2.644   1.009   4.201
 3539SOL     OW11515   5.554   3.633   6.488
 3539SOL    HW111516   5.643   3.593   6.511
 3539SOL    HW211517   5.553   3.730   6.513
 3540SOL     OW11518   2.242   1.524   5.377
 3540SOL    HW111519   2.272   1.436   5.414
 3540SOL    HW211520   2.144   1.519   5.355
 3541SOL     OW11521   2.229   2.720   6.686
 3541SOL    HW111522   2.184   2.776   6.756
 3541SOL    HW211523   2.207   2.755   6.595
 3542SOL     OW11524   6.850   3.078   1.052
 3542SOL    HW111525   6.768   3.132   1.069
 3542SOL    HW211526   6.824   2.990   1.014
 3543SOL     OW11527   1.723   3.333   4.415
 3543SOL    HW111528   1.638   3.304   4.370
 3543SOL    HW211529   1.702   3.397   4.489
 3544SOL     OW11530   2.019   4.525   6.460
 3544SOL    HW111531   1.981   4.610   6.496
 3544SOL    HW211532   1.963   4.493   6.384
 3545SOL     OW11533   3.811   4.853   6.805
 3545SOL    HW111534   3.781   4.894   6.892
 3545SOL    HW211535   3.911   4.844   6.806
 3546SOL     OW11536   6.674   4.930   3.231
 3546SOL    HW111537   6.682   5.030   3.230
 3546SOL    HW211538   6.709   4.895   3.318
 3547SOL     OW11539   0.149   4.273   5.089
 3547SOL    HW111540   0.145   4.186   5.039
 3547SOL    HW211541   0.057   4.300   5.115
 3548SOL     OW11542   5.529   0.474   5.733
 3548SOL    HW111543   5.617   0.432   5.711
 3548SOL    HW211544   5.543   0.550   5.796
 3549SOL     OW11545   2.058   4.295   5.741
 3549SOL    HW111546   2.041   4.393   5.752
 3549SOL    HW211547   2.143   4.281   5.691
 3550SOL     OW11548   5.936   2.260   4.518
 3550SOL    HW111549   5.983   2.348   4.510
 3550SOL    HW211550   5.998   2.187   4.492
 3551SOL     OW11551   3.786   1.745   4.080
 3551SOL    HW111552   3.831   1.659   4.059
 3551SOL    HW211553   3.839   1.795   4.148
 3552SOL     OW11554   6.457   6.240   2.085
 3552SOL    HW111555   6.515   6.265   2.007
 3552SOL    HW211556   6.369   6.208   2.051
 3553SOL     OW11557   3.554   5.483   0.077
 3553SOL    HW111558   3.491   5.496   0.000
 3553SOL    HW211559   3.536   5.395   0.120
 3554SOL     OW11560   4.706   2.945   0.615
 3554SOL    HW111561   4.676   3.001   0.692
 3554SOL    HW211562   4.768   2.874   0.647
 3555SOL     OW11563   1.310   2.981   4.146
 3555SOL    HW111564   1.337   3.048   4.077
 3555SOL    HW211565   1.308   2.890   4.105
 3556SOL     OW11566   3.888   1.229   3.923
 3556SOL    HW111567   3.932   1.218   4.013
 3556SOL    HW211568   3.958   1.234   3.852
 3557SOL     OW11569   1.209   6.353   3.865
 3557SOL    HW111570   1.208   6.291   3.787
 3557SOL    HW211571   1.120   6.350   3.911
 3558SOL     OW11572   2.153   4.486   1.504
 3558SOL    HW111573   2.141   4.584   1.518
 3558SOL    HW211574   2.181   4.444   1.590
 3559SOL     OW11575   0.837   6.133   4.989
 3559SOL    HW111576   0.828   6.094   4.897
 3559SOL    HW211577   0.934   6.141   5.013
 3560SOL     OW11578   2.150   4.780   3.187
 3560SOL    HW111579   2.243   4.814   3.201
 3560SOL    HW211580   2.087   4.858   3.185
 3561SOL     OW11581   5.188   3.795   5.865
 3561SOL    HW111582   5.157   3.790   5.960
 3561SOL    HW211583   5.275   3.747   5.856
 3562SOL     OW11584   3.260   1.902   3.663
 3562SOL    HW111585   3.239   1.804   3.665
 3562SOL    HW211586   3.175   1.954   3.664
 3563SOL     OW11587   6.214   1.628   6.539
 3563SOL    HW111588   6.258   1.554   6.590
 3563SOL    HW211589   6.204   1.708   6.598
 3564SOL     OW11590   0.405   4.677   3.054
 3564SOL    HW111591   0.443   4.711   3.140
 3564SOL    HW211592   0.435   4.736   2.979
 3565SOL     OW11593   3.502   5.927   3.707
 3565SOL    HW111594   3.507   5.847   3.646
 3565SOL    HW211595   3.554   5.908   3.790
 3566SOL     OW11596   6.361   1.420   6.657
 3566SOL    HW111597   6.418   1.404   6.576
 3566SOL    HW211598   6.409   1.387   6.738
 3567SOL     OW11599   0.324   2.698   6.568
 3567SOL    HW111600   0.324   2.667   6.663
 3567SOL    HW211601   0.302   2.795   6.565
 3568SOL     OW11602   5.407   4.119   5.249
 3568SOL    HW111603   5.443   4.156   5.163
 3568SOL    HW211604   5.308   4.104   5.239
 3569SOL     OW11605   3.143   2.350   6.229
 3569SOL    HW111606   3.115   2.292   6.153
 3569SOL    HW211607   3.068   2.360   6.293
 3570SOL     OW11608   4.790   0.467   6.182
 3570SOL    HW111609   4.713   0.499   6.237
 3570SOL    HW211610   4.797   0.368   6.189
 3571SOL     OW11611   0.612   5.126   0.296
 3571SOL    HW111612   0.660   5.040   0.313
 3571SOL    HW211613   0.677   5.199   0.277
 3572SOL     OW11614   5.132   4.089   3.190
 3572SOL    HW111615   5.079   4.173   3.175
 3572SOL    HW211616   5.186   4.069   3.108
 3573SOL     OW11617   0.612   4.631   3.548
 3573SOL    HW111618   0.544   4.558   3.548
 3573SOL    HW211619   0.683   4.611   3.616
 3574SOL     OW11620   0.205   4.473   0.446
 3574SOL    HW111621   0.232   4.567   0.423
 3574SOL    HW211622   0.265   4.439   0.518
 3575SOL     OW11623   5.364   4.571   2.543
 3575SOL    HW111624   5.293   4.568   2.614
 3575SOL    HW211625   5.349   4.498   2.477
 3576SOL     OW11626   2.340   1.735   5.176
 3576SOL    HW111627   2.251   1.779   5.189
 3576SOL    HW211628   2.332   1.637   5.193
 3577SOL     OW11629   1.289   2.509   5.914
 3577SOL    HW111630   1.295   2.606   5.937
 3577SOL    HW211631   1.361   2.459   5.962
 3578SOL     OW11632   3.190   2.279   0.922
 3578SOL    HW111633   3.241   2.221   0.859
 3578SOL    HW211634   3.138   2.347   0.871
 3579SOL     OW11635   6.417   3.957   4.501
 3579SOL    HW111636   6.319   3.969   4.482
 3579SOL    HW211637   6.469   3.972   4.417
 3580SOL     OW11638   6.255   2.513   1.093
 3580SOL    HW111639   6.237   2.416   1.110
 3580SOL    HW211640   6.301   2.523   1.004
 3581SOL     OW11641   0.135   6.014   3.990
 3581SOL    HW111642   0.211   6.039   3.930
 3581SOL    HW211643   0.075   6.093   4.003
 3582SOL     OW11644   0.968   2.015   5.554
 3582SOL    HW111645   1.035   2.061   5.496
 3582SOL    HW211646   0.967   1.917   5.533
 3583SOL     OW11647   1.535   3.522   6.351
 3583SOL    HW111648   1.461   3.459   6.330
 3583SOL    HW211649   1.601   3.476   6.411
 3584SOL     OW11650   6.044   5.734   6.770
 3584SOL    HW111651   5.991   5.772   6.694
 3584SOL    HW211652   6.114   5.672   6.734
 3585SOL     OW11653   4.741   5.982   5.099
 3585SOL    HW111654   4.661   5.987   5.158
 3585SOL    HW211655   4.712   5.969   5.004
 3586SOL     OW11656   0.313   2.070   5.538
 3586SOL    HW111657   0.234   2.009   5.532
 3586SOL    HW211658   0.286   2.162   5.511
 3587SOL     OW11659   3.175   5.105   6.206
 3587SOL    HW111660   3.128   5.143   6.127
 3587SOL    HW211661   3.158   5.006   6.211
 3588SOL     OW11662   1.317   2.954   4.854
 3588SOL    HW111663   1.396   3.009   4.878
 3588SOL    HW211664   1.238   2.982   4.909
 3589SOL     OW11665   4.119   2.266   4.786
 3589SOL    HW111666   4.138   2.310   4.699
 3589SOL    HW211667   4.170   2.313   4.859
 3590SOL     OW11668   1.308   2.746   6.027
 3590SOL    HW111669   1.390   2.778   6.074
 3590SOL    HW211670   1.260   2.824   5.986
 3591SOL     OW11671   4.765   3.265   6.519
 3591SOL    HW111672   4.834   3.215   6.571
 3591SOL    HW211673   4.809   3.339   6.467
 3592SOL     OW11674   6.441   4.387   1.960
 3592SOL    HW111675   6.412   4.453   1.890
 3592SOL    HW211676   6.518   4.425   2.011
 3593SOL     OW11677   2.054   5.882   4.420
 3593SOL    HW111678   2.032   5.927   4.507
 3593SOL    HW211679   2.145   5.910   4.390
 3594SOL     OW11680   4.499   0.658   3.087
 3594SOL    HW111681   4.538   0.591   3.150
 3594SOL    HW211682   4.555   0.741   3.088
 3595SOL     OW11683   2.149   5.636   6.966
 3595SOL    HW111684   2.215   5.683   6.908
 3595SOL    HW211685   2.198   5.587   0.013
 3596SOL     OW11686   6.655   2.478   3.412
 3596SOL    HW111687   6.628   2.383   3.425
 3596SOL    HW211688   6.698   2.513   3.496
 3597SOL     OW11689   2.353   1.036   5.146
 3597SOL    HW111690   2.428   1.101   5.153
 3597SOL    HW211691   2.323   1.029   5.051
 3598SOL     OW11692   1.227   5.907   6.526
 3598SOL    HW111693   1.164   5.861   6.464
 3598SOL    HW211694   1.220   5.867   6.617
 3599SOL     OW11695   0.686   1.825   5.658
 3599SOL    HW111696   0.643   1.852   5.572
 3599SOL    HW211697   0.617   1.819   5.730
 3600SOL     OW11698   1.021   3.591   0.323
 3600SOL    HW111699   1.087   3.548   0.261
 3600SOL    HW211700   0.982   3.672   0.280
 3601SOL     OW11701   5.747   5.191   7.017
 3601SOL    HW111702   5.685   5.113   0.002
 3601SOL    HW211703   5.767   5.231   0.081
 3602SOL     OW11704   1.539   2.343   0.510
 3602SOL    HW111705   1.535   2.256   0.560
 3602SOL    HW211706   1.556   2.418   0.575
 3603SOL     OW11707   3.313   0.113   3.627
 3603SOL    HW111708   3.342   0.177   3.699
 3603SOL    HW211709   3.214   0.101   3.632
 3604SOL     OW11710   0.116   5.056   3.189
 3604SOL    HW111711   0.101   5.060   3.288
 3604SOL    HW211712   0.076   5.137   3.146
 3605SOL     OW11713   5.593   4.001   4.998
 3605SOL    HW111714   5.558   4.080   4.948
 3605SOL    HW211715   5.518   3.940   5.021
 3606SOL     OW11716   0.114   6.280   5.578
 3606SOL    HW111717   0.109   6.357   5.514
 3606SOL    HW211718   0.024   6.237   5.587
 3607SOL     OW11719   5.082   5.944   0.926
 3607SOL    HW111720   5.145   6.001   0.979
 3607SOL    HW211721   5.004   5.919   0.983
 3608SOL     OW11722   5.943   2.080   3.446
 3608SOL    HW111723   5.926   1.986   3.475
 3608SOL    HW211724   5.967   2.136   3.526
 3609SOL     OW11725   0.886   0.448   4.174
 3609SOL    HW111726   0.891   0.374   4.106
 3609SOL    HW211727   0.808   0.432   4.235
 3610SOL     OW11728   1.322   6.913   6.054
 3610SOL    HW111729   1.413   6.883   6.025
 3610SOL    HW211730   1.331   6.988   6.119
 3611SOL     OW11731   4.485   6.283   5.952
 3611SOL    HW111732   4.522   6.242   5.868
 3611SOL    HW211733   4.469   6.212   6.020
 3612SOL     OW11734   5.789   0.066   6.187
 3612SOL    HW111735   5.773   0.074   6.285
 3612SOL    HW211736   5.778   6.996   6.159
 3613SOL     OW11737   4.829   5.255   1.787
 3613SOL    HW111738   4.844   5.349   1.754
 3613SOL    HW211739   4.746   5.251   1.841
 3614SOL     OW11740   4.121   3.431   2.570
 3614SOL    HW111741   4.126   3.343   2.522
 3614SOL    HW211742   4.152   3.419   2.664
 3615SOL     OW11743   5.579   5.902   6.999
 3615SOL    HW111744   5.564   5.805   6.983
 3615SOL    HW211745   5.646   5.937   6.934
 3616SOL     OW11746   0.481   3.253   5.952
 3616SOL    HW111747   0.530   3.291   5.874
 3616SOL    HW211748   0.495   3.313   6.032
 3617SOL     OW11749   4.073   1.319   6.452
 3617SOL    HW111750   4.116   1.269   6.528
 3617SOL    HW211751   4.053   1.255   6.378
 3618SOL     OW11752   2.472   2.073   5.378
 3618SOL    HW111753   2.511   2.010   5.445
 3618SOL    HW211754   2.380   2.042   5.352
 3619SOL     OW11755   5.506   2.961   3.723
 3619SOL    HW111756   5.531   3.020   3.800
 3619SOL    HW211757   5.588   2.913   3.690
 3620SOL     OW11758   6.350   6.079   5.938
 3620SOL    HW111759   6.392   6.047   5.853
 3620SOL    HW211760   6.259   6.039   5.946
 3621SOL     OW11761   3.747   2.777   5.596
 3621SOL    HW111762   3.712   2.850   5.538
 3621SOL    HW211763   3.710   2.689   5.565
 3622SOL     OW11764   1.828   1.843   4.644
 3622SOL    HW111765   1.811   1.930   4.689
 3622SOL    HW211766   1.774   1.771   4.688
 3623SOL     OW11767   6.733   5.860   4.497
 3623SOL    HW111768   6.789   5.942   4.485
 3623SOL    HW211769   6.659   5.861   4.430
 3624SOL     OW11770   2.262   6.114   2.102
 3624SOL    HW111771   2.179   6.165   2.124
 3624SOL    HW211772   2.299   6.147   2.015
 3625SOL     OW11773   5.579   3.357   6.945
 3625SOL    HW111774   5.525   3.379   6.864
 3625SOL    HW211775   5.534   3.395   0.001
 3626SOL     OW11776   1.048   3.299   6.250
 3626SOL    HW111777   1.108   3.221   6.233
 3626SOL    HW211778   1.083   3.379   6.202
 3627SOL     OW11779   3.345   2.981   3.739
 3627SOL    HW111780   3.273   3.032   3.787
 3627SOL    HW211781   3.411   2.946   3.806
 3628SOL     OW11782   1.407   1.062   1.689
 3628SOL    HW111783   1.343   1.091   1.760
 3628SOL    HW211784   1.485   1.124   1.685
 3629SOL     OW11785   6.735   2.300   4.788
 3629SOL    HW111786   6.815   2.243   4.810
 3629SOL    HW211787   6.761   2.396   4.793
 3630SOL     OW11788   4.902   2.824   3.655
 3630SOL    HW111789   4.842   2.898   3.686
 3630SOL    HW211790   4.966   2.860   3.587
 3631SOL     OW11791   1.846   6.985   3.545
 3631SOL    HW111792   1.755   0.001   3.540
 3631SOL    HW211793   1.887   7.004   3.634
 3632SOL     OW11794   4.941   6.279   1.180
 3632SOL    HW111795   4.864   6.342   1.191
 3632SOL    HW211796   4.953   6.226   1.263
 3633SOL     OW11797   3.871   1.707   5.281
 3633SOL    HW111798   3.862   1.665   5.191
 3633SOL    HW211799   3.785   1.750   5.307
 3634SOL     OW11800   0.806   4.977   4.743
 3634SOL    HW111801   0.854   4.960   4.829
 3634SOL    HW211802   0.745   4.901   4.723
 3635SOL     OW11803   2.760   6.776   6.068
 3635SOL    HW111804   2.684   6.714   6.049
 3635SOL    HW211805   2.739   6.831   6.148
 3636SOL     OW11806   0.662   5.681   0.128
 3636SOL    HW111807   0.580   5.721   0.171
 3636SOL    HW211808   0.729   5.660   0.198
 3637SOL     OW11809   6.700   2.078   1.633
 3637SOL    HW111810   6.676   1.992   1.679
 3637SOL    HW211811   6.617   2.132   1.617
 3638SOL     OW11812   0.586   4.561   4.538
 3638SOL    HW111813   0.504   4.617   4.524
 3638SOL    HW211814   0.561   4.465   4.538
 3639SOL     OW11815   3.583   3.910   1.298
 3639SOL    HW111816   3.498   3.901   1.247
 3639SOL    HW211817   3.562   3.927   1.395
 3640SOL     OW11818   3.750   0.985   0.630
 3640SOL    HW111819   3.772   0.888   0.638
 3640SOL    HW211820   3.831   1.040   0.651
 3641SOL     OW11821   5.142   3.466   3.604
 3641SOL    HW111822   5.155   3.527   3.683
 3641SOL    HW211823   5.198   3.498   3.528
 3642SOL     OW11824   4.837   0.715   0.744
 3642SOL    HW111825   4.789   0.663   0.674
 3642SOL    HW211826   4.920   0.755   0.706
 3643SOL     OW11827   2.742   5.787   5.179
 3643SOL    HW111828   2.820   5.724   5.177
 3643SOL    HW211829   2.688   5.776   5.095
 3644SOL     OW11830   0.166   1.309   2.019
 3644SOL    HW111831   0.103   1.234   2.000
 3644SOL    HW211832   0.233   1.315   1.945
 3645SOL     OW11833   0.151   3.131   3.858
 3645SOL    HW111834   0.176   3.046   3.906
 3645SOL    HW211835   0.207   3.140   3.776
 3646SOL     OW11836   6.808   4.298   6.536
 3646SOL    HW111837   6.896   4.344   6.537
 3646SOL    HW211838   6.819   4.202   6.564
 3647SOL     OW11839   2.333   4.112   6.557
 3647SOL    HW111840   2.284   4.192   6.523
 3647SOL    HW211841   2.350   4.121   6.655
 3648SOL     OW11842   3.802   5.147   2.318
 3648SOL    HW111843   3.804   5.165   2.219
 3648SOL    HW211844   3.714   5.108   2.343
 3649SOL     OW11845   4.710   2.816   1.717
 3649SOL    HW111846   4.692   2.901   1.767
 3649SOL    HW211847   4.642   2.748   1.742
 3650SOL     OW11848   0.378   5.140   1.126
 3650SOL    HW111849   0.478   5.134   1.119
 3650SOL    HW211850   0.346   5.080   1.199
 3651SOL     OW11851   0.281   6.997   4.398
 3651SOL    HW111852   0.229   0.012   4.323
 3651SOL    HW211853   0.334   0.043   4.444
 3652SOL     OW11854   5.690   6.566   3.464
 3652SOL    HW111855   5.746   6.560   3.547
 3652SOL    HW211856   5.742   6.533   3.386
 3653SOL     OW11857   7.016   1.354   4.381
 3653SOL    HW111858   6.964   1.332   4.463
 3653SOL    HW211859   0.083   1.382   4.407
 3654SOL     OW11860   2.125   4.646   0.782
 3654SOL    HW111861   2.206   4.616   0.833
 3654SOL    HW211862   2.153   4.678   0.691
 3655SOL     OW11863   1.488   6.581   3.204
 3655SOL    HW111864   1.533   6.584   3.293
 3655SOL    HW211865   1.413   6.515   3.206
 3656SOL     OW11866   0.997   3.642   2.095
 3656SOL    HW111867   0.939   3.644   2.177
 3656SOL    HW211868   1.093   3.658   2.122
 3657SOL     OW11869   4.851   5.182   6.048
 3657SOL    HW111870   4.882   5.221   6.135
 3657SOL    HW211871   4.803   5.253   5.996
 3658SOL     OW11872   1.720   5.709   5.431
 3658SOL    HW111873   1.747   5.632   5.373
 3658SOL    HW211874   1.722   5.680   5.527
 3659SOL     OW11875   1.229   3.347   4.433
 3659SOL    HW111876   1.279   3.264   4.458
 3659SOL    HW211877   1.251   3.371   4.339
 3660SOL     OW11878   5.524   0.028   3.195
 3660SOL    HW111879   5.581   0.107   3.172
 3660SOL    HW211880   5.529   6.987   3.120
 3661SOL     OW11881   5.282   2.065   5.482
 3661SOL    HW111882   5.189   2.079   5.448
 3661SOL    HW211883   5.279   2.017   5.569
 3662SOL     OW11884   4.360   6.748   3.920
 3662SOL    HW111885   4.298   6.825   3.907
 3662SOL    HW211886   4.308   6.668   3.950
 3663SOL     OW11887   1.938   1.921   0.722
 3663SOL    HW111888   1.880   1.976   0.661
 3663SOL    HW211889   1.989   1.982   0.783
 3664SOL     OW11890   5.280   1.971   1.824
 3664SOL    HW111891   5.184   1.948   1.807
 3664SOL    HW211892   5.326   1.893   1.867
 3665SOL     OW11893   2.279   6.128   5.226
 3665SOL    HW111894   2.365   6.101   5.270
 3665SOL    HW211895   2.203   6.109   5.289
 3666SOL     OW11896   1.130   4.447   3.294
 3666SOL    HW111897   1.092   4.539   3.285
 3666SOL    HW211898   1.165   4.417   3.205
 3667SOL     OW11899   0.615   0.888   2.553
 3667SOL    HW111900   0.550   0.882   2.477
 3667SOL    HW211901   0.706   0.863   2.521
 3668SOL     OW11902   1.607   0.931   2.396
 3668SOL    HW111903   1.563   1.008   2.349
 3668SOL    HW211904   1.705   0.932   2.378
 3669SOL     OW11905   4.967   0.916   3.586
 3669SOL    HW111906   5.001   0.829   3.622
 3669SOL    HW211907   4.994   0.925   3.490
 3670SOL     OW11908   2.849   5.150   0.476
 3670SOL    HW111909   2.827   5.054   0.459
 3670SOL    HW211910   2.948   5.161   0.484
 3671SOL     OW11911   5.991   1.150   4.077
 3671SOL    HW111912   6.038   1.191   4.156
 3671SOL    HW211913   5.991   1.051   4.087
 3672SOL     OW11914   5.632   1.683   1.414
 3672SOL    HW111915   5.581   1.748   1.358
 3672SOL    HW211916   5.708   1.730   1.459
 3673SOL     OW11917   4.021   6.306   6.477
 3673SOL    HW111918   4.073   6.226   6.506
 3673SOL    HW211919   3.924   6.285   6.478
 3674SOL     OW11920   0.743   6.841   5.136
 3674SOL    HW111921   0.836   6.857   5.169
 3674SOL    HW211922   0.685   6.812   5.211
 3675SOL     OW11923   1.920   3.156   4.274
 3675SOL    HW111924   1.900   3.196   4.363
 3675SOL    HW211925   1.961   3.066   4.286
 3676SOL     OW11926   5.121   4.379   3.240
 3676SOL    HW111927   5.145   4.436   3.318
 3676SOL    HW211928   5.198   4.376   3.176
 3677SOL     OW11929   1.893   6.111   3.118
 3677SOL    HW111930   1.933   6.035   3.067
 3677SOL    HW211931   1.893   6.089   3.215
 3678SOL     OW11932   0.668   2.243   5.288
 3678SOL    HW111933   0.617   2.262   5.204
 3678SOL    HW211934   0.765   2.265   5.274
 3679SOL     OW11935   1.025   0.238   3.483
 3679SOL    HW111936   1.058   0.219   3.390
 3679SOL    HW211937   1.063   0.170   3.546
 3680SOL     OW11938   5.671   2.577   3.484
 3680SOL    HW111939   5.599   2.509   3.472
 3680SOL    HW211940   5.732   2.549   3.558
 3681SOL     OW11941   0.427   0.214   6.253
 3681SOL    HW111942   0.397   0.309   6.260
 3681SOL    HW211943   0.524   0.207   6.276
 3682SOL     OW11944   5.763   2.288   6.979
 3682SOL    HW111945   5.678   2.277   6.927
 3682SOL    HW211946   5.804   2.198   6.996
 3683SOL     OW11947   6.867   0.401   2.788
 3683SOL    HW111948   6.825   0.489   2.764
 3683SOL    HW211949   6.916   0.365   2.708
 3684SOL     OW11950   1.929   4.662   0.049
 3684SOL    HW111951   2.027   4.674   0.035
 3684SOL    HW211952   1.906   4.565   0.044
 3685SOL     OW11953   6.620   6.345   6.438
 3685SOL    HW111954   6.596   6.415   6.505
 3685SOL    HW211955   6.680   6.277   6.481
 3686SOL     OW11956   5.815   5.549   4.020
 3686SOL    HW111957   5.791   5.530   4.115
 3686SOL    HW211958   5.759   5.625   3.986
 3687SOL     OW11959   3.648   5.601   5.132
 3687SOL    HW111960   3.643   5.511   5.090
 3687SOL    HW211961   3.700   5.595   5.217
 3688SOL     OW11962   6.493   3.381   6.121
 3688SOL    HW111963   6.524   3.294   6.160
 3688SOL    HW211964   6.424   3.421   6.181
 3689SOL     OW11965   2.453   0.046   6.015
 3689SOL    HW111966   2.546   0.042   5.978
 3689SOL    HW211967   2.388   0.057   5.940
 3690SOL     OW11968   5.058   5.632   0.133
 3690SOL    HW111969   5.008   5.605   0.050
 3690SOL    HW211970   5.023   5.720   0.165
 3691SOL     OW11971   2.741   2.809   6.879
 3691SOL    HW111972   2.661   2.807   6.939
 3691SOL    HW211973   2.712   2.796   6.784
 3692SOL     OW11974   0.464   5.456   5.601
 3692SOL    HW111975   0.426   5.529   5.543
 3692SOL    HW211976   0.519   5.395   5.545
 3693SOL     OW11977   1.910   3.540   2.772
 3693SOL    HW111978   1.932   3.631   2.806
 3693SOL    HW211979   1.971   3.517   2.696
 3694SOL     OW11980   1.424   6.017   2.736
 3694SOL    HW111981   1.339   6.023   2.788
 3694SOL    HW211982   1.470   6.106   2.736
 3695SOL     OW11983   6.757   2.949   1.504
 3695SOL    HW111984   6.689   2.916   1.438
 3695SOL    HW211985   6.839   2.892   1.498
 3696SOL     OW11986   3.405   5.547   5.473
 3696SOL    HW111987   3.468   5.606   5.423
 3696SOL    HW211988   3.437   5.536   5.567
 3697SOL     OW11989   7.014   6.660   2.914
 3697SOL    HW111990   0.039   6.590   2.862
 3697SOL    HW211991   6.949   6.705   2.853
 3698SOL     OW11992   2.128   0.885   4.508
 3698SOL    HW111993   2.053   0.852   4.565
 3698SOL    HW211994   2.100   0.883   4.412
 3699SOL     OW11995   0.989   2.069   3.723
 3699SOL    HW111996   0.906   2.123   3.732
 3699SOL    HW211997   1.046   2.080   3.804
 3700SOL     OW11998   0.329   6.776   5.097
 3700SOL    HW111999   0.245   6.725   5.076
 3700SOL    HW212000   0.379   6.729   5.170
 3701SOL     OW12001   1.285   0.503   3.967
 3701SOL    HW112002   1.348   0.425   3.968
 3701SOL    HW212003   1.279   0.543   4.059
 3702SOL     OW12004   5.871   6.924   2.539
 3702SOL    HW112005   5.892   6.892   2.631
 3702SOL    HW212006   5.836   6.847   2.485
 3703SOL     OW12007   5.596   1.244   5.594
 3703SOL    HW112008   5.686   1.202   5.581
 3703SOL    HW212009   5.533   1.176   5.632
 3704SOL     OW12010   3.735   2.001   1.859
 3704SOL    HW112011   3.694   2.046   1.939
 3704SOL    HW212012   3.761   2.071   1.792
 3705SOL     OW12013   4.588   5.190   3.898
 3705SOL    HW112014   4.534   5.168   3.817
 3705SOL    HW212015   4.685   5.186   3.876
 3706SOL     OW12016   1.642   2.990   6.687
 3706SOL    HW112017   1.642   3.082   6.727
 3706SOL    HW212018   1.592   2.992   6.601
 3707SOL     OW12019   5.534   4.666   4.500
 3707SOL    HW112020   5.595   4.735   4.460
 3707SOL    HW212021   5.541   4.581   4.449
 3708SOL     OW12022   0.270   0.864   6.399
 3708SOL    HW112023   0.313   0.952   6.415
 3708SOL    HW212024   0.326   0.792   6.441
 3709SOL     OW12025   3.171   0.557   0.676
 3709SOL    HW112026   3.201   0.536   0.583
 3709SOL    HW212027   3.073   0.577   0.676
 3710SOL     OW12028   6.554   5.139   6.079
 3710SOL    HW112029   6.595   5.186   6.158
 3710SOL    HW212030   6.540   5.043   6.102
 3711SOL     OW12031   0.458   0.365   4.260
 3711SOL    HW112032   0.504   0.283   4.227
 3711SOL    HW212033   0.380   0.339   4.318
 3712SOL     OW12034   0.113   5.856   6.928
 3712SOL    HW112035   0.144   5.911   6.850
 3712SOL    HW212036   0.183   5.790   6.953
 3713SOL     OW12037   1.162   6.164   5.164
 3713SOL    HW112038   1.180   6.250   5.116
 3713SOL    HW212039   1.246   6.133   5.209
 3714SOL     OW12040   5.004   5.911   5.471
 3714SOL    HW112041   5.100   5.883   5.468
 3714SOL    HW212042   4.986   5.978   5.399
 3715SOL     OW12043   6.775   4.068   2.671
 3715SOL    HW112044   6.812   4.116   2.592
 3715SOL    HW212045   6.732   3.983   2.641
 3716SOL     OW12046   6.701   0.240   5.065
 3716SOL    HW112047   6.609   0.272   5.043
 3716SOL    HW212048   6.726   0.271   5.157
 3717SOL     OW12049   6.252   6.580   6.452
 3717SOL    HW112050   6.242   6.627   6.364
 3717SOL    HW212051   6.321   6.508   6.444
 3718SOL     OW12052   1.653   0.627   0.086
 3718SOL    HW112053   1.674   0.537   0.047
 3718SOL    HW212054   1.679   0.698   0.021
 3719SOL     OW12055   5.440   4.638   0.926
 3719SOL    HW112056   5.435   4.734   0.953
 3719SOL    HW212057   5.472   4.632   0.831
 3720SOL     OW12058   5.851   2.542   6.883
 3720SOL    HW112059   5.829   2.452   6.920
 3720SOL    HW212060   5.772   2.602   6.892
 3721SOL     OW12061   5.875   4.544   1.353
 3721SOL    HW112062   5.965   4.509   1.377
 3721SOL    HW212063   5.883   4.638   1.318
 3722SOL     OW12064   6.596   5.875   0.710
 3722SOL    HW112065   6.694   5.894   0.708
 3722SOL    HW212066   6.561   5.871   0.617
 3723SOL     OW12067   6.372   5.607   1.734
 3723SOL    HW112068   6.452   5.661   1.709
 3723SOL    HW212069   6.298   5.667   1.763
 3724SOL     OW12070   1.856   4.051   4.917
 3724SOL    HW112071   1.768   4.094   4.897
 3724SOL    HW212072   1.843   3.952   4.927
 3725SOL     OW12073   5.914   5.411   0.616
 3725SOL    HW112074   5.851   5.407   0.539
 3725SOL    HW212075   5.866   5.387   0.700
 3726SOL     OW12076   5.757   3.858   0.511
 3726SOL    HW112077   5.746   3.951   0.474
 3726SOL    HW212078   5.846   3.851   0.555
 3727SOL     OW12079   6.962   1.990   5.028
 3727SOL    HW112080   0.010   1.981   5.095
 3727SOL    HW212081   6.874   2.000   5.076
 3728SOL     OW12082   1.594   3.584   6.690
 3728SOL    HW112083   1.640   3.525   6.623
 3728SOL    HW212084   1.503   3.547   6.708
 3729SOL     OW12085   1.005   2.721   3.719
 3729SOL    HW112086   0.911   2.751   3.702
 3729SOL    HW212087   1.005   2.626   3.749
 3730SOL     OW12088   2.802   5.012   5.811
 3730SOL    HW112089   2.808   5.054   5.901
 3730SOL    HW212090   2.706   4.999   5.786
 3731SOL     OW12091   6.775   1.246   0.320
 3731SOL    HW112092   6.744   1.151   0.319
 3731SOL    HW212093   6.852   1.254   0.384
 3732SOL     OW12094   2.885   1.390   6.670
 3732SOL    HW112095   2.975   1.428   6.691
 3732SOL    HW212096   2.845   1.351   6.753
 3733SOL     OW12097   1.580   4.072   2.569
 3733SOL    HW112098   1.612   4.128   2.493
 3733SOL    HW212099   1.480   4.078   2.576
 3734SOL     OW12100   5.548   1.498   2.084
 3734SOL    HW112101   5.646   1.505   2.102
 3734SOL    HW212102   5.534   1.452   1.996
 3735SOL     OW12103   2.085   1.020   3.385
 3735SOL    HW112104   2.165   0.966   3.358
 3735SOL    HW212105   2.008   0.959   3.403
 3736SOL     OW12106   0.479   2.390   0.774
 3736SOL    HW112107   0.401   2.367   0.715
 3736SOL    HW212108   0.447   2.404   0.867
 3737SOL     OW12109   5.292   0.179   3.391
 3737SOL    HW112110   5.215   0.239   3.410
 3737SOL    HW212111   5.270   0.121   3.312
 3738SOL     OW12112   6.828   6.474   2.009
 3738SOL    HW112113   6.818   6.568   2.041
 3738SOL    HW212114   6.844   6.414   2.087
 3739SOL     OW12115   2.591   4.532   1.830
 3739SOL    HW112116   2.681   4.565   1.859
 3739SOL    HW212117   2.521   4.598   1.857
 3740SOL     OW12118   5.667   0.428   0.696
 3740SOL    HW112119   5.678   0.523   0.727
 3740SOL    HW212120   5.754   0.380   0.707
 3741SOL     OW12121   4.969   3.143   0.902
 3741SOL    HW112122   5.013   3.133   0.813
 3741SOL    HW212123   4.948   3.240   0.918
 3742SOL     OW12124   3.163   1.506   6.669
 3742SOL    HW112125   3.186   1.545   6.758
 3742SOL    HW212126   3.128   1.579   6.609
 3743SOL     OW12127   5.316   3.067   1.278
 3743SOL    HW112128   5.334   3.165   1.275
 3743SOL    HW212129   5.231   3.047   1.230
 3744SOL     OW12130   1.156   5.711   2.766
 3744SOL    HW112131   1.226   5.699   2.696
 3744SOL    HW212132   1.195   5.757   2.845
 3745SOL     OW12133   3.795   4.888   1.446
 3745SOL    HW112134   3.769   4.947   1.370
 3745SOL    HW212135   3.715   4.837   1.479
 3746SOL     OW12136   5.450   1.258   3.099
 3746SOL    HW112137   5.388   1.192   3.055
 3746SOL    HW212138   5.406   1.348   3.100
 3747SOL     OW12139   2.627   6.692   5.178
 3747SOL    HW112140   2.714   6.740   5.165
 3747SOL    HW212141   2.643   6.594   5.186
 3748SOL     OW12142   5.898   0.958   0.777
 3748SOL    HW112143   5.953   1.018   0.719
 3748SOL    HW212144   5.835   1.012   0.832
 3749SOL     OW12145   1.517   5.674   3.704
 3749SOL    HW112146   1.537   5.748   3.768
 3749SOL    HW212147   1.419   5.673   3.684
 3750SOL     OW12148   1.179   3.875   0.870
 3750SOL    HW112149   1.106   3.899   0.806
 3750SOL    HW212150   1.266   3.870   0.821
 3751SOL     OW12151   0.319   3.660   1.749
 3751SOL    HW112152   0.330   3.567   1.786
 3751SOL    HW212153   0.379   3.671   1.670
 3752SOL     OW12154   5.190   0.371   6.700
 3752SOL    HW112155   5.139   0.356   6.615
 3752SOL    HW212156   5.287   0.382   6.678
 3753SOL     OW12157   6.254   6.715   4.562
 3753SOL    HW112158   6.200   6.679   4.638
 3753SOL    HW212159   6.207   6.794   4.523
 3754SOL     OW12160   2.458   0.853   1.199
 3754SOL    HW112161   2.536   0.821   1.144
 3754SOL    HW212162   2.427   0.780   1.258
 3755SOL     OW12163   5.036   4.446   4.677
 3755SOL    HW112164   5.047   4.348   4.664
 3755SOL    HW212165   4.944   4.465   4.712
 3756SOL     OW12166   3.006   5.177   5.942
 3756SOL    HW112167   2.990   5.265   5.899
 3756SOL    HW212168   2.938   5.161   6.013
 3757SOL     OW12169   6.228   5.316   0.873
 3757SOL    HW112170   6.264   5.395   0.825
 3757SOL    HW212171   6.199   5.343   0.965
 3758SOL     OW12172   2.838   1.461   4.713
 3758SOL    HW112173   2.761   1.464   4.778
 3758SOL    HW212174   2.810   1.504   4.627
 3759SOL     OW12175   4.347   6.908   6.340
 3759SOL    HW112176   4.260   6.867   6.366
 3759SOL    HW212177   4.359   6.901   6.241
 3760SOL     OW12178   1.148   1.517   4.479
 3760SOL    HW112179   1.074   1.585   4.474
 3760SOL    HW212180   1.117   1.433   4.434
 3761SOL     OW12181   0.341   1.036   5.171
 3761SOL    HW112182   0.413   1.064   5.107
 3761SOL    HW212183   0.364   0.947   5.210
 3762SOL     OW12184   1.444   4.743   0.851
 3762SOL    HW112185   1.523   4.770   0.906
 3762SOL    HW212186   1.475   4.699   0.767
 3763SOL     OW12187   0.303   3.419   0.163
 3763SOL    HW112188   0.248   3.344   0.129
 3763SOL    HW212189   0.299   3.496   0.099
 3764SOL     OW12190   1.414   0.243   2.600
 3764SOL    HW112191   1.426   0.302   2.520
 3764SOL    HW212192   1.350   0.286   2.663
 3765SOL     OW12193   5.166   1.376   1.036
 3765SOL    HW112194   5.192   1.376   1.133
 3765SOL    HW212195   5.196   1.461   0.993
 3766SOL     OW12196   2.082   1.489   4.171
 3766SOL    HW112197   2.080   1.516   4.075
 3766SOL    HW212198   2.043   1.562   4.226
 3767SOL     OW12199   2.339   4.197   0.006
 3767SOL    HW112200   2.261   4.233   0.055
 3767SOL    HW212201   2.396   4.143   0.068
 3768SOL     OW12202   0.570   6.767   4.381
 3768SOL    HW112203   0.557   6.796   4.476
 3768SOL    HW212204   0.483   6.739   4.342
 3769SOL     OW12205   6.038   5.592   5.102
 3769SOL    HW112206   5.979   5.586   5.182
 3769SOL    HW212207   5.985   5.568   5.020
 3770SOL     OW12208   1.158   0.494   6.276
 3770SOL    HW112209   1.228   0.431   6.309
 3770SOL    HW212210   1.187   0.588   6.294
 3771SOL     OW12211   5.054   3.074   0.184
 3771SOL    HW112212   5.137   3.027   0.216
 3771SOL    HW212213   5.034   3.150   0.245
 3772SOL     OW12214   0.354   0.814   0.543
 3772SOL    HW112215   0.435   0.814   0.602
 3772SOL    HW212216   0.364   0.885   0.473
 3773SOL     OW12217   5.931   3.520   5.694
 3773SOL    HW112218   5.959   3.471   5.777
 3773SOL    HW212219   5.937   3.459   5.616
 3774SOL     OW12220   5.988   5.412   1.066
 3774SOL    HW112221   6.027   5.504   1.059
 3774SOL    HW212222   5.919   5.400   0.995
 3775SOL     OW12223   4.841   5.128   2.820
 3775SOL    HW112224   4.753   5.154   2.861
 3775SOL    HW212225   4.830   5.123   2.720
 3776SOL     OW12226   4.044   1.801   6.708
 3776SOL    HW112227   3.948   1.807   6.734
 3776SOL    HW212228   4.069   1.705   6.694
 3777SOL     OW12229   3.666   5.308   3.354
 3777SOL    HW112230   3.757   5.269   3.368
 3777SOL    HW212231   3.609   5.243   3.304
 3778SOL     OW12232   2.988   5.189   2.520
 3778SOL    HW112233   2.986   5.273   2.573
 3778SOL    HW212234   2.912   5.189   2.455
 3779SOL     OW12235   0.602   4.814   0.482
 3779SOL    HW112236   0.598   4.892   0.545
 3779SOL    HW212237   0.677   4.827   0.417
 3780SOL     OW12238   5.814   4.938   4.575
 3780SOL    HW112239   5.863   4.890   4.648
 3780SOL    HW212240   5.750   5.003   4.615
 3781SOL     OW12241   0.729   6.854   4.174
 3781SOL    HW112242   0.667   6.908   4.117
 3781SOL    HW212243   0.682   6.826   4.257
 3782SOL     OW12244   2.187   0.225   2.878
 3782SOL    HW112245   2.238   0.160   2.823
 3782SOL    HW212246   2.247   0.267   2.946
 3783SOL     OW12247   6.010   5.148   4.036
 3783SOL    HW112248   6.099   5.185   4.062
 3783SOL    HW212249   5.981   5.188   3.949
 3784SOL     OW12250   5.194   2.821   2.777
 3784SOL    HW112251   5.267   2.836   2.844
 3784SOL    HW212252   5.223   2.854   2.687
 3785SOL     OW12253   1.755   3.469   5.813
 3785SOL    HW112254   1.717   3.561   5.817
 3785SOL    HW212255   1.794   3.453   5.722
 3786SOL     OW12256   2.580   4.749   3.257
 3786SOL    HW112257   2.514   4.726   3.329
 3786SOL    HW212258   2.672   4.727   3.288
 3787SOL     OW12259   6.446   1.623   2.659
 3787SOL    HW112260   6.348   1.618   2.678
 3787SOL    HW212261   6.460   1.655   2.566
 3788SOL     OW12262   0.192   4.470   4.905
 3788SOL    HW112263   0.131   4.475   4.826
 3788SOL    HW212264   0.166   4.392   4.962
 3789SOL     OW12265   0.546   3.916   4.651
 3789SOL    HW112266   0.452   3.940   4.677
 3789SOL    HW212267   0.588   3.862   4.724
 3790SOL     OW12268   1.338   4.822   5.866
 3790SOL    HW112269   1.254   4.867   5.837
 3790SOL    HW212270   1.367   4.756   5.796
 3791SOL     OW12271   5.170   0.940   6.080
 3791SOL    HW112272   5.156   0.842   6.095
 3791SOL    HW212273   5.161   0.989   6.166
 3792SOL     OW12274   1.301   2.150   3.244
 3792SOL    HW112275   1.385   2.099   3.261
 3792SOL    HW212276   1.323   2.238   3.202
 3793SOL     OW12277   4.485   6.494   1.932
 3793SOL    HW112278   4.389   6.514   1.952
 3793SOL    HW212279   4.516   6.551   1.856
 3794SOL     OW12280   2.095   2.379   1.317
 3794SOL    HW112281   2.172   2.346   1.263
 3794SOL    HW212282   2.035   2.303   1.341
 3795SOL     OW12283   4.868   6.009   1.091
 3795SOL    HW112284   4.888   5.948   1.167
 3795SOL    HW212285   4.905   6.100   1.111
 3796SOL     OW12286   3.869   1.909   2.400
 3796SOL    HW112287   3.839   2.001   2.425
 3796SOL    HW212288   3.863   1.850   2.481
 3797SOL     OW12289   1.090   3.312   2.237
 3797SOL    HW112290   1.016   3.361   2.191
 3797SOL    HW212291   1.070   3.306   2.334
 3798SOL     OW12292   2.644   5.751   3.764
 3798SOL    HW112293   2.644   5.701   3.677
 3798SOL    HW212294   2.675   5.845   3.749
 3799SOL     OW12295   6.377   2.728   3.900
 3799SOL    HW112296   6.303   2.662   3.893
 3799SOL    HW212297   6.454   2.700   3.843
 3800SOL     OW12298   5.371   2.286   3.836
 3800SOL    HW112299   5.410   2.298   3.927
 3800SOL    HW212300   5.273   2.304   3.839
 3801SOL     OW12301   6.090   6.493   1.604
 3801SOL    HW112302   6.120   6.447   1.687
 3801SOL    HW212303   6.084   6.591   1.620
 3802SOL     OW12304   1.544   2.056   1.641
 3802SOL    HW112305   1.516   2.073   1.546
 3802SOL    HW212306   1.636   2.017   1.642
 3803SOL     OW12307   4.076   3.170   2.271
 3803SOL    HW112308   4.151   3.107   2.255
 3803SOL    HW212309   4.067   3.188   2.369
 3804SOL     OW12310   4.796   1.120   3.464
 3804SOL    HW112311   4.844   1.118   3.376
 3804SOL    HW212312   4.845   1.063   3.530
 3805SOL     OW12313   1.688   2.870   1.163
 3805SOL    HW112314   1.684   2.911   1.254
 3805SOL    HW212315   1.611   2.904   1.108
 3806SOL     OW12316   3.800   3.501   5.786
 3806SOL    HW112317   3.828   3.444   5.709
 3806SOL    HW212318   3.802   3.597   5.758
 3807SOL     OW12319   1.656   5.565   2.885
 3807SOL    HW112320   1.619   5.655   2.863
 3807SOL    HW212321   1.591   5.516   2.943
 3808SOL     OW12322   4.393   1.055   0.312
 3808SOL    HW112323   4.448   0.974   0.293
 3808SOL    HW212324   4.308   1.050   0.260
 3809SOL     OW12325   5.289   2.148   1.609
 3809SOL    HW112326   5.275   2.095   1.693
 3809SOL    HW212327   5.224   2.224   1.606
 3810SOL     OW12328   4.633   2.742   3.613
 3810SOL    HW112329   4.535   2.757   3.600
 3810SOL    HW212330   4.650   2.711   3.707
 3811SOL     OW12331   0.192   6.058   4.330
 3811SOL    HW112332   0.098   6.093   4.333
 3811SOL    HW212333   0.193   5.962   4.358
 3812SOL     OW12334   4.738   4.947   5.322
 3812SOL    HW112335   4.709   4.970   5.415
 3812SOL    HW212336   4.838   4.942   5.318
 3813SOL     OW12337   4.387   3.147   0.571
 3813SOL    HW112338   4.354   3.229   0.524
 3813SOL    HW212339   4.486   3.139   0.559
 3814SOL     OW12340   6.026   0.107   6.055
 3814SOL    HW112341   5.929   0.106   6.080
 3814SOL    HW212342   6.078   0.159   6.123
 3815SOL     OW12343   3.306   1.917   1.223
 3815SOL    HW112344   3.277   1.835   1.272
 3815SOL    HW212345   3.379   1.894   1.159
 3816SOL     OW12346   1.064   5.674   6.676
 3816SOL    HW112347   0.966   5.661   6.689
 3816SOL    HW212348   1.089   5.643   6.584
 3817SOL     OW12349   5.079   3.521   2.424
 3817SOL    HW112350   5.020   3.456   2.377
 3817SOL    HW212351   5.174   3.507   2.395
 3818SOL     OW12352   6.182   0.961   6.828
 3818SOL    HW112353   6.136   0.987   6.743
 3818SOL    HW212354   6.191   1.042   6.886
 3819SOL     OW12355   5.435   5.198   1.981
 3819SOL    HW112356   5.402   5.249   1.902
 3819SOL    HW212357   5.375   5.214   2.059
 3820SOL     OW12358   5.096   0.151   3.719
 3820SOL    HW112359   5.046   0.066   3.698
 3820SOL    HW212360   5.180   0.154   3.665
 3821SOL     OW12361   2.231   1.342   2.122
 3821SOL    HW112362   2.301   1.353   2.052
 3821SOL    HW212363   2.265   1.378   2.209
 3822SOL     OW12364   2.430   0.157   0.825
 3822SOL    HW112365   2.363   0.084   0.839
 3822SOL    HW212366   2.385   0.246   0.831
 3823SOL     OW12367   2.915   3.651   6.672
 3823SOL    HW112368   2.993   3.649   6.610
 3823SOL    HW212369   2.849   3.719   6.640
 3824SOL     OW12370   0.511   3.238   0.176
 3824SOL    HW112371   0.423   3.283   0.189
 3824SOL    HW212372   0.547   3.260   0.085
 3825SOL     OW12373   0.274   5.713   0.551
 3825SOL    HW112374   0.363   5.744   0.520
 3825SOL    HW212375   0.213   5.792   0.561
 3826SOL     OW12376   1.150   3.951   0.248
 3826SOL    HW112377   1.144   4.044   0.213
 3826SOL    HW212378   1.060   3.908   0.244
 3827SOL     OW12379   2.009   1.400   1.909
 3827SOL    HW112380   1.976   1.321   1.858
 3827SOL    HW212381   2.037   1.370   2.001
 3828SOL     OW12382   3.396   3.352   3.278
 3828SOL    HW112383   3.328   3.405   3.330
 3828SOL    HW212384   3.488   3.379   3.305
 3829SOL     OW12385   1.614   5.074   2.177
 3829SOL    HW112386   1.616   5.165   2.136
 3829SOL    HW212387   1.546   5.073   2.251
 3830SOL     OW12388   0.713   0.804   5.311
 3830SOL    HW112389   0.803   0.848   5.309
 3830SOL    HW212390   0.680   0.800   5.405
 3831SOL     OW12391   4.847   2.347   2.609
 3831SOL    HW112392   4.817   2.275   2.672
 3831SOL    HW212393   4.767   2.392   2.569
 3832SOL     OW12394   6.338   0.730   2.945
 3832SOL    HW112395   6.344   0.669   2.867
 3832SOL    HW212396   6.321   0.823   2.913
 3833SOL     OW12397   0.177   6.374   6.816
 3833SOL    HW112398   0.206   6.428   6.737
 3833SOL    HW212399   0.097   6.320   6.792
 3834SOL     OW12400   3.997   4.340   1.425
 3834SOL    HW112401   3.926   4.365   1.359
 3834SOL    HW212402   4.065   4.414   1.430
 3835SOL     OW12403   3.861   5.494   4.887
 3835SOL    HW112404   3.877   5.591   4.868
 3835SOL    HW212405   3.932   5.439   4.842
 3836SOL     OW12406   1.097   4.804   6.134
 3836SOL    HW112407   1.160   4.752   6.076
 3836SOL    HW212408   1.095   4.763   6.225
 3837SOL     OW12409   4.501   4.305   5.970
 3837SOL    HW112410   4.513   4.402   5.949
 3837SOL    HW212411   4.444   4.295   6.051
 3838SOL     OW12412   0.953   3.727   4.539
 3838SOL    HW112413   0.973   3.646   4.593
 3838SOL    HW212414   1.020   3.737   4.465
 3839SOL     OW12415   5.510   1.003   3.251
 3839SOL    HW112416   5.522   0.980   3.348
 3839SOL    HW212417   5.472   1.095   3.243
 3840SOL     OW12418   2.522   1.027   6.718
 3840SOL    HW112419   2.439   1.021   6.662
 3840SOL    HW212420   2.593   0.968   6.678
 3841SOL     OW12421   0.055   3.737   4.692
 3841SOL    HW112422   0.076   3.648   4.652
 3841SOL    HW212423   0.097   3.744   4.783
 3842SOL     OW12424   2.392   2.892   1.542
 3842SOL    HW112425   2.355   2.804   1.511
 3842SOL    HW212426   2.319   2.945   1.584
 3843SOL     OW12427   5.842   5.114   2.395
 3843SOL    HW112428   5.797   5.091   2.481
 3843SOL    HW212429   5.925   5.167   2.414
 3844SOL     OW12430   0.950   3.145   5.408
 3844SOL    HW112431   1.009   3.156   5.328
 3844SOL    HW212432   1.002   3.166   5.491
 3845SOL     OW12433   2.802   3.872   5.891
 3845SOL    HW112434   2.869   3.797   5.892
 3845SOL    HW212435   2.767   3.883   5.798
 3846SOL     OW12436   6.923   5.368   3.706
 3846SOL    HW112437   6.959   5.401   3.619
 3846SOL    HW212438   6.877   5.443   3.753
 3847SOL     OW12439   5.237   1.736   4.198
 3847SOL    HW112440   5.246   1.784   4.111
 3847SOL    HW212441   5.327   1.705   4.227
 3848SOL     OW12442   4.670   5.538   2.517
 3848SOL    HW112443   4.668   5.527   2.616
 3848SOL    HW212444   4.622   5.461   2.474
 3849SOL     OW12445   1.514   0.900   6.217
 3849SOL    HW112446   1.513   0.986   6.269
 3849SOL    HW212447   1.489   0.824   6.277
 3850SOL     OW12448   2.435   3.433   1.497
 3850SOL    HW112449   2.429   3.336   1.475
 3850SOL    HW212450   2.343   3.470   1.513
 3851SOL     OW12451   0.899   4.660   2.537
 3851SOL    HW112452   0.847   4.670   2.452
 3851SOL    HW212453   0.990   4.625   2.517
 3852SOL     OW12454   3.976   6.589   3.666
 3852SOL    HW112455   3.994   6.684   3.643
 3852SOL    HW212456   4.058   6.547   3.704
 3853SOL     OW12457   1.251   4.356   3.063
 3853SOL    HW112458   1.207   4.293   2.999
 3853SOL    HW212459   1.318   4.411   3.014
 3854SOL     OW12460   1.599   2.959   2.740
 3854SOL    HW112461   1.667   2.993   2.675
 3854SOL    HW212462   1.551   2.881   2.700
 3855SOL     OW12463   5.555   6.217   6.228
 3855SOL    HW112464   5.607   6.292   6.187
 3855SOL    HW212465   5.462   6.218   6.193
 3856SOL     OW12466   6.856   0.371   5.945
 3856SOL    HW112467   6.837   0.386   5.848
 3856SOL    HW212468   6.778   0.399   6.000
 3857SOL     OW12469   6.976   6.361   0.202
 3857SOL    HW112470   6.913   6.343   0.126
 3857SOL    HW212471   0.013   6.284   0.213
 3858SOL     OW12472   1.772   0.939   5.623
 3858SOL    HW112473   1.802   0.890   5.705
 3858SOL    HW212474   1.672   0.930   5.613
 3859SOL     OW12475   6.116   1.325   2.589
 3859SOL    HW112476   6.057   1.245   2.596
 3859SOL    HW212477   6.128   1.348   2.492
 3860SOL     OW12478   2.879   0.487   5.398
 3860SOL    HW112479   2.856   0.521   5.489
 3860SOL    HW212480   2.974   0.455   5.397
 3861SOL     OW12481   4.396   4.714   3.453
 3861SOL    HW112482   4.385   4.657   3.371
 3861SOL    HW212483   4.459   4.789   3.433
 3862SOL     OW12484   0.711   0.700   5.035
 3862SOL    HW112485   0.696   0.758   5.115
 3862SOL    HW212486   0.645   0.624   5.036
 3863SOL     OW12487   5.085   2.488   6.779
 3863SOL    HW112488   5.021   2.418   6.811
 3863SOL    HW212489   5.169   2.445   6.747
 3864SOL     OW12490   2.666   0.407   5.221
 3864SOL    HW112491   2.632   0.324   5.264
 3864SOL    HW212492   2.732   0.451   5.281
 3865SOL     OW12493   3.354   0.368   6.896
 3865SOL    HW112494   3.323   0.292   6.954
 3865SOL    HW212495   3.319   0.454   6.933
 3866SOL     OW12496   3.928   0.717   1.077
 3866SOL    HW112497   3.903   0.620   1.080
 3866SOL    HW212498   3.847   0.771   1.058
 3867SOL     OW12499   1.085   4.601   3.654
 3867SOL    HW112500   1.170   4.550   3.640
 3867SOL    HW212501   1.047   4.628   3.566
 3868SOL     OW12502   3.301   7.002   0.308
 3868SOL    HW112503   3.337   6.969   0.220
 3868SOL    HW212504   3.376   0.012   0.363
 3869SOL     OW12505   5.734   3.928   4.692
 3869SOL    HW112506   5.645   3.964   4.721
 3869SOL    HW212507   5.725   3.885   4.602
 3870SOL     OW12508   5.170   6.196   6.466
 3870SOL    HW112509   5.146   6.293   6.460
 3870SOL    HW212510   5.103   6.148   6.524
 3871SOL     OW12511   3.687   0.455   3.049
 3871SOL    HW112512   3.672   0.417   3.140
 3871SOL    HW212513   3.628   0.409   2.983
 3872SOL     OW12514   3.827   2.970   3.951
 3872SOL    HW112515   3.768   2.935   4.024
 3872SOL    HW212516   3.898   3.028   3.991
 3873SOL     OW12517   6.068   3.106   1.331
 3873SOL    HW112518   6.004   3.159   1.387
 3873SOL    HW212519   6.069   3.011   1.362
 3874SOL     OW12520   4.200   5.902   0.115
 3874SOL    HW112521   4.195   5.903   0.015
 3874SOL    HW212522   4.246   5.818   0.145
 3875SOL     OW12523   1.867   2.994   1.952
 3875SOL    HW112524   1.890   2.900   1.979
 3875SOL    HW212525   1.911   3.058   2.016
 3876SOL     OW12526   4.599   5.353   0.593
 3876SOL    HW112527   4.678   5.309   0.550
 3876SOL    HW212528   4.530   5.284   0.614
 3877SOL     OW12529   6.300   3.120   0.466
 3877SOL    HW112530   6.245   3.045   0.430
 3877SOL    HW212531   6.367   3.083   0.531
 3878SOL     OW12532   3.581   7.000   4.639
 3878SOL    HW112533   3.587   6.969   4.544
 3878SOL    HW212534   3.501   6.960   4.683
 3879SOL     OW12535   4.842   5.661   2.122
 3879SOL    HW112536   4.937   5.689   2.136
 3879SOL    HW212537   4.787   5.688   2.201
 3880SOL     OW12538   5.968   4.676   3.608
 3880SOL    HW112539   5.940   4.588   3.646
 3880SOL    HW212540   6.050   4.663   3.552
 3881SOL     OW12541   0.987   3.915   1.420
 3881SOL    HW112542   1.043   3.842   1.459
 3881SOL    HW212543   1.044   3.975   1.364
 3882SOL     OW12544   0.624   1.554   5.474
 3882SOL    HW112545   0.561   1.519   5.543
 3882SOL    HW212546   0.676   1.631   5.511
 3883SOL     OW12547   4.120   1.017   3.804
 3883SOL    HW112548   4.104   1.115   3.811
 3883SOL    HW212549   4.037   0.967   3.827
 3884SOL     OW12550   0.347   5.339   3.496
 3884SOL    HW112551   0.382   5.409   3.435
 3884SOL    HW212552   0.247   5.345   3.501
 3885SOL     OW12553   6.430   0.709   2.456
 3885SOL    HW112554   6.367   0.713   2.533
 3885SOL    HW212555   6.436   0.615   2.422
 3886SOL     OW12556   6.305   6.046   5.124
 3886SOL    HW112557   6.381   6.080   5.070
 3886SOL    HW212558   6.261   5.969   5.076
 3887SOL     OW12559   0.561   0.515   6.342
 3887SOL    HW112560   0.557   0.563   6.429
 3887SOL    HW212561   0.523   0.572   6.270
 3888SOL     OW12562   6.832   6.979   5.693
 3888SOL    HW112563   6.750   6.926   5.671
 3888SOL    HW212564   6.881   7.002   5.609
 3889SOL     OW12565   6.791   3.002   6.199
 3889SOL    HW112566   6.705   3.003   6.251
 3889SOL    HW212567   6.814   2.908   6.176
 3890SOL     OW12568   5.361   5.744   2.995
 3890SOL    HW112569   5.292   5.777   2.930
 3890SOL    HW212570   5.346   5.788   3.084
 3891SOL     OW12571   5.892   4.385   4.701
 3891SOL    HW112572   5.807   4.438   4.706
 3891SOL    HW212573   5.877   4.301   4.651
 3892SOL     OW12574   0.088   2.066   1.133
 3892SOL    HW112575   0.128   1.978   1.160
 3892SOL    HW212576   0.092   2.129   1.211
 3893SOL     OW12577   3.989   4.519   1.080
 3893SOL    HW112578   4.007   4.616   1.096
 3893SOL    HW212579   3.899   4.495   1.118
 3894SOL     OW12580   2.890   2.541   1.145
 3894SOL    HW112581   2.912   2.460   1.090
 3894SOL    HW212582   2.968   2.602   1.147
 3895SOL     OW12583   1.478   0.472   5.518
 3895SOL    HW112584   1.451   0.496   5.612
 3895SOL    HW212585   1.519   0.552   5.474
 3896SOL     OW12586   6.984   1.365   5.838
 3896SOL    HW112587   0.011   1.348   5.755
 3896SOL    HW212588   7.020   1.309   5.912
 3897SOL     OW12589   3.825   5.849   2.406
 3897SOL    HW112590   3.755   5.915   2.380
 3897SOL    HW212591   3.840   5.785   2.330
 3898SOL     OW12592   3.619   3.555   4.191
 3898SOL    HW112593   3.673   3.578   4.272
 3898SOL    HW212594   3.676   3.501   4.128
 3899SOL     OW12595   5.375   0.284   3.979
 3899SOL    HW112596   5.353   0.247   3.889
 3899SOL    HW212597   5.473   0.278   3.995
 3900SOL     OW12598   5.066   2.966   3.875
 3900SOL    HW112599   5.115   2.925   3.799
 3900SOL    HW212600   5.079   2.911   3.957
 3901SOL     OW12601   3.003   6.608   4.986
 3901SOL    HW112602   2.998   6.588   5.084
 3901SOL    HW212603   2.919   6.654   4.958
 3902SOL     OW12604   6.336   3.821   1.986
 3902SOL    HW112605   6.264   3.888   1.971
 3902SOL    HW212606   6.402   3.857   2.052
 3903SOL     OW12607   4.784   5.146   0.486
 3903SOL    HW112608   4.832   5.174   0.403
 3903SOL    HW212609   4.703   5.094   0.461
 3904SOL     OW12610   1.680   6.729   5.422
 3904SOL    HW112611   1.582   6.716   5.409
 3904SOL    HW212612   1.720   6.648   5.463
 3905SOL     OW12613   5.980   0.224   5.582
 3905SOL    HW112614   5.968   0.140   5.531
 3905SOL    HW212615   6.032   0.290   5.527
 3906SOL     OW12616   3.221   5.184   5.324
 3906SOL    HW112617   3.172   5.252   5.270
 3906SOL    HW212618   3.170   5.098   5.324
 3907SOL     OW12619   6.605   6.861   5.589
 3907SOL    HW112620   6.513   6.833   5.562
 3907SOL    HW212621   6.670   6.788   5.566
 3908SOL     OW12622   1.495   0.588   0.317
 3908SOL    HW112623   1.563   0.568   0.247
 3908SOL    HW212624   1.505   0.682   0.348
 3909SOL     OW12625   0.766   5.306   5.760
 3909SOL    HW112626   0.736   5.331   5.852
 3909SOL    HW212627   0.764   5.387   5.701
 3910SOL     OW12628   3.548   4.122   2.128
 3910SOL    HW112629   3.563   4.113   2.029
 3910SOL    HW212630   3.581   4.210   2.159
 3911SOL     OW12631   4.151   1.563   6.991
 3911SOL    HW112632   4.185   1.657   6.996
 3911SOL    HW212633   4.155   1.522   0.057
 3912SOL     OW12634   3.512   0.824   6.427
 3912SOL    HW112635   3.433   0.876   6.393
 3912SOL    HW212636   3.590   0.839   6.366
 3913SOL     OW12637   2.740   5.675   6.498
 3913SOL    HW112638   2.692   5.626   6.426
 3913SOL    HW212639   2.814   5.619   6.534
 3914SOL     OW12640   4.016   1.068   1.088
 3914SOL    HW112641   3.964   1.076   1.173
 3914SOL    HW212642   4.103   1.023   1.106
 3915SOL     OW12643   4.425   6.148   1.580
 3915SOL    HW112644   4.371   6.190   1.653
 3915SOL    HW212645   4.381   6.064   1.550
 3916SOL     OW12646   1.846   6.130   2.792
 3916SOL    HW112647   1.763   6.102   2.744
 3916SOL    HW212648   1.822   6.185   2.872
 3917SOL     OW12649   0.952   5.114   0.279
 3917SOL    HW112650   0.934   5.186   0.347
 3917SOL    HW212651   0.995   5.154   0.199
 3918SOL     OW12652   4.561   6.227   1.926
 3918SOL    HW112653   4.540   6.306   1.984
 3918SOL    HW212654   4.652   6.239   1.886
 3919SOL     OW12655   3.127   6.707   6.485
 3919SOL    HW112656   3.208   6.763   6.466
 3919SOL    HW212657   3.067   6.709   6.405
 3920SOL     OW12658   2.727   1.925   6.718
 3920SOL    HW112659   2.755   2.008   6.766
 3920SOL    HW212660   2.796   1.902   6.649
 3921SOL     OW12661   0.437   3.042   0.352
 3921SOL    HW112662   0.353   3.062   0.404
 3921SOL    HW212663   0.449   3.110   0.281
 3922SOL     OW12664   5.582   4.819   0.324
 3922SOL    HW112665   5.513   4.749   0.346
 3922SOL    HW212666   5.668   4.796   0.368
 3923SOL     OW12667   6.255   1.747   0.047
 3923SOL    HW112668   6.183   1.811   0.021
 3923SOL    HW212669   6.233   1.705   0.136
 3924SOL     OW12670   0.372   5.221   3.234
 3924SOL    HW112671   0.379   5.321   3.243
 3924SOL    HW212672   0.292   5.189   3.285
 3925SOL     OW12673   4.425   4.534   0.927
 3925SOL    HW112674   4.363   4.461   0.897
 3925SOL    HW212675   4.390   4.573   1.013
 3926SOL     OW12676   6.959   6.489   3.401
 3926SOL    HW112677   6.978   6.441   3.487
 3926SOL    HW212678   0.019   6.507   3.353
 3927SOL     OW12679   6.837   3.815   4.829
 3927SOL    HW112680   6.833   3.910   4.858
 3927SOL    HW212681   6.921   3.799   4.777
 3928SOL     OW12682   3.280   5.325   4.646
 3928SOL    HW112683   3.318   5.331   4.554
 3928SOL    HW212684   3.199   5.265   4.644
 3929SOL     OW12685   0.217   2.134   6.932
 3929SOL    HW112686   0.292   2.179   6.884
 3929SOL    HW212687   0.163   2.081   6.868
 3930SOL     OW12688   1.561   2.046   3.584
 3930SOL    HW112689   1.524   1.954   3.587
 3930SOL    HW212690   1.643   2.048   3.528
 3931SOL     OW12691   2.321   2.004   2.710
 3931SOL    HW112692   2.232   2.024   2.670
 3931SOL    HW212693   2.323   1.907   2.738
 3932SOL     OW12694   1.686   4.197   3.568
 3932SOL    HW112695   1.742   4.244   3.636
 3932SOL    HW212696   1.639   4.265   3.512
 3933SOL     OW12697   2.097   6.643   6.733
 3933SOL    HW112698   2.114   6.557   6.685
 3933SOL    HW212699   2.141   6.718   6.683
 3934SOL     OW12700   0.355   1.520   1.452
 3934SOL    HW112701   0.411   1.437   1.458
 3934SOL    HW212702   0.271   1.507   1.504
 3935SOL     OW12703   1.709   0.658   5.192
 3935SOL    HW112704   1.673   0.681   5.283
 3935SOL    HW212705   1.780   0.588   5.202
 3936SOL     OW12706   0.091   5.892   5.198
 3936SOL    HW112707   0.052   5.803   5.221
 3936SOL    HW212708   0.098   5.947   5.281
 3937SOL     OW12709   0.627   6.929   2.564
 3937SOL    HW112710   0.697   6.894   2.501
 3937SOL    HW212711   0.551   6.864   2.569
 3938SOL     OW12712   6.052   3.173   3.901
 3938SOL    HW112713   6.086   3.081   3.880
 3938SOL    HW212714   6.068   3.193   3.998
 3939SOL     OW12715   3.033   1.594   3.145
 3939SOL    HW112716   3.091   1.540   3.084
 3939SOL    HW212717   3.079   1.680   3.167
 3940SOL     OW12718   3.849   4.835   2.157
 3940SOL    HW112719   3.775   4.831   2.089
 3940SOL    HW212720   3.824   4.781   2.237
 3941SOL     OW12721   6.285   1.048   5.091
 3941SOL    HW112722   6.244   1.014   5.007
 3941SOL    HW212723   6.236   1.010   5.170
 3942SOL     OW12724   0.792   6.374   5.560
 3942SOL    HW112725   0.794   6.468   5.526
 3942SOL    HW212726   0.846   6.316   5.499
 3943SOL     OW12727   0.692   3.209   2.778
 3943SOL    HW112728   0.630   3.221   2.856
 3943SOL    HW212729   0.785   3.233   2.806
 3944SOL     OW12730   5.678   3.813   5.341
 3944SOL    HW112731   5.585   3.845   5.326
 3944SOL    HW212732   5.682   3.754   5.422
 3945SOL     OW12733   0.984   2.216   2.665
 3945SOL    HW112734   0.918   2.155   2.621
 3945SOL    HW212735   0.988   2.196   2.763
 3946SOL     OW12736   6.141   4.321   6.269
 3946SOL    HW112737   6.058   4.278   6.232
 3946SOL    HW212738   6.118   4.367   6.355
 3947SOL     OW12739   6.008   5.528   1.321
 3947SOL    HW112740   6.071   5.606   1.321
 3947SOL    HW212741   5.961   5.524   1.409
 3948SOL     OW12742   0.203   4.734   0.715
 3948SOL    HW112743   0.146   4.800   0.765
 3948SOL    HW212744   0.218   4.653   0.771
 3949SOL     OW12745   5.501   6.864   2.761
 3949SOL    HW112746   5.455   6.889   2.676
 3949SOL    HW212747   5.441   6.886   2.839
 3950SOL     OW12748   2.872   4.155   1.300
 3950SOL    HW112749   2.947   4.107   1.253
 3950SOL    HW212750   2.830   4.220   1.237
 3951SOL     OW12751   0.559   0.681   6.819
 3951SOL    HW112752   0.528   0.658   6.911
 3951SOL    HW212753   0.532   0.775   6.797
 3952SOL     OW12754   5.996   3.293   4.508
 3952SOL    HW112755   6.067   3.264   4.444
 3952SOL    HW212756   5.955   3.378   4.475
 3953SOL     OW12757   3.495   4.507   0.482
 3953SOL    HW112758   3.573   4.461   0.440
 3953SOL    HW212759   3.528   4.578   0.545
 3954SOL     OW12760   6.051   5.219   5.247
 3954SOL    HW112761   5.953   5.230   5.230
 3954SOL    HW212762   6.103   5.278   5.186
 3955SOL     OW12763   4.517   6.737   0.012
 3955SOL    HW112764   4.587   6.807   0.030
 3955SOL    HW212765   4.447   6.741   0.082
 3956SOL     OW12766   1.456   2.017   4.002
 3956SOL    HW112767   1.515   2.064   3.936
 3956SOL    HW212768   1.367   1.999   3.960
 3957SOL     OW12769   4.304   0.080   3.335
 3957SOL    HW112770   4.239   0.005   3.325
 3957SOL    HW212771   4.293   0.144   3.258
 3958SOL     OW12772   5.278   0.317   6.214
 3958SOL    HW112773   5.300   0.382   6.287
 3958SOL    HW212774   5.200   0.351   6.161
 3959SOL     OW12775   3.723   6.814   0.546
 3959SOL    HW112776   3.703   6.716   0.547
 3959SOL    HW212777   3.760   6.839   0.457
 3960SOL     OW12778   5.459   1.842   5.989
 3960SOL    HW112779   5.376   1.897   5.993
 3960SOL    HW212780   5.509   1.852   6.075
 3961SOL     OW12781   5.524   2.686   2.108
 3961SOL    HW112782   5.470   2.743   2.170
 3961SOL    HW212783   5.548   2.739   2.027
 3962SOL     OW12784   1.728   5.470   6.567
 3962SOL    HW112785   1.663   5.407   6.525
 3962SOL    HW212786   1.821   5.436   6.552
 3963SOL     OW12787   4.680   4.669   3.686
 3963SOL    HW112788   4.755   4.658   3.621
 3963SOL    HW212789   4.594   4.639   3.643
 3964SOL     OW12790   4.533   4.880   4.871
 3964SOL    HW112791   4.570   4.840   4.787
 3964SOL    HW212792   4.602   4.940   4.912
 3965SOL     OW12793   4.011   3.667   6.498
 3965SOL    HW112794   4.041   3.753   6.456
 3965SOL    HW212795   4.067   3.592   6.464
 3966SOL     OW12796   6.572   4.979   0.025
 3966SOL    HW112797   6.581   4.946   6.956
 3966SOL    HW212798   6.660   5.016   0.056
 3967SOL     OW12799   1.624   4.865   2.766
 3967SOL    HW112800   1.694   4.801   2.799
 3967SOL    HW212801   1.545   4.861   2.827
 3968SOL     OW12802   0.108   0.496   0.842
 3968SOL    HW112803   0.195   0.506   0.794
 3968SOL    HW212804   0.060   0.415   0.809
 3969SOL     OW12805   0.966   3.672   2.885
 3969SOL    HW112806   0.999   3.612   2.813
 3969SOL    HW212807   1.044   3.721   2.926
 3970SOL     OW12808   5.003   5.011   3.611
 3970SOL    HW112809   4.944   5.081   3.652
 3970SOL    HW212810   5.091   5.009   3.658
 3971SOL     OW12811   2.660   5.010   2.601
 3971SOL    HW112812   2.731   4.956   2.647
 3971SOL    HW212813   2.573   4.999   2.650
 3972SOL     OW12814   1.231   5.100   1.804
 3972SOL    HW112815   1.258   5.009   1.838
 3972SOL    HW212816   1.200   5.156   1.880
 3973SOL     OW12817   2.111   4.178   5.982
 3973SOL    HW112818   2.089   4.219   5.894
 3973SOL    HW212819   2.174   4.237   6.032
 3974SOL     OW12820   1.447   0.378   5.836
 3974SOL    HW112821   1.487   0.450   5.892
 3974SOL    HW212822   1.405   0.309   5.895
 3975SOL     OW12823   5.367   0.536   6.346
 3975SOL    HW112824   5.418   0.491   6.420
 3975SOL    HW212825   5.426   0.544   6.266
 3976SOL     OW12826   1.580   5.140   1.424
 3976SOL    HW112827   1.511   5.081   1.464
 3976SOL    HW212828   1.651   5.160   1.492
 3977SOL     OW12829   3.346   4.222   5.253
 3977SOL    HW112830   3.281   4.253   5.322
 3977SOL    HW212831   3.304   4.226   5.163
 3978SOL     OW12832   5.531   0.766   4.836
 3978SOL    HW112833   5.556   0.836   4.768
 3978SOL    HW212834   5.466   0.701   4.795
 3979SOL     OW12835   2.338   6.001   1.714
 3979SOL    HW112836   2.310   5.906   1.725
 3979SOL    HW212837   2.306   6.054   1.792
 3980SOL     OW12838   6.902   4.054   6.570
 3980SOL    HW112839   6.997   4.076   6.547
 3980SOL    HW212840   6.861   4.002   6.495
 3981SOL     OW12841   1.805   1.941   6.368
 3981SOL    HW112842   1.734   2.002   6.332
 3981SOL    HW212843   1.876   1.995   6.412
 3982SOL     OW12844   1.609   0.791   4.376
 3982SOL    HW112845   1.677   0.837   4.319
 3982SOL    HW212846   1.634   0.695   4.388
 3983SOL     OW12847   4.133   5.619   4.075
 3983SOL    HW112848   4.193   5.699   4.076
 3983SOL    HW212849   4.177   5.544   4.125
 3984SOL     OW12850   1.608   0.617   2.684
 3984SOL    HW112851   1.592   0.714   2.671
 3984SOL    HW212852   1.586   0.568   2.599
 3985SOL     OW12853   3.101   4.777   6.836
 3985SOL    HW112854   3.106   4.677   6.843
 3985SOL    HW212855   3.037   4.812   6.906
 3986SOL     OW12856   0.131   2.328   2.966
 3986SOL    HW112857   0.035   2.313   2.989
 3986SOL    HW212858   0.186   2.252   3.001
 3987SOL     OW12859   2.631   6.279   4.254
 3987SOL    HW112860   2.603   6.375   4.265
 3987SOL    HW212861   2.677   6.248   4.337
 3988SOL     OW12862   3.399   2.733   5.928
 3988SOL    HW112863   3.307   2.698   5.946
 3988SOL    HW212864   3.449   2.667   5.871
 3989SOL     OW12865   6.326   1.749   0.364
 3989SOL    HW112866   6.348   1.778   0.457
 3989SOL    HW212867   6.406   1.762   0.305
 3990SOL     OW12868   5.719   1.422   3.884
 3990SOL    HW112869   5.664   1.430   3.801
 3990SOL    HW212870   5.710   1.330   3.922
 3991SOL     OW12871   6.002   1.855   1.802
 3991SOL    HW112872   6.087   1.906   1.814
 3991SOL    HW212873   6.015   1.784   1.732
 3992SOL     OW12874   3.972   2.325   6.445
 3992SOL    HW112875   3.957   2.419   6.413
 3992SOL    HW212876   3.932   2.261   6.379
 3993SOL     OW12877   0.451   2.578   3.205
 3993SOL    HW112878   0.361   2.595   3.166
 3993SOL    HW212879   0.522   2.608   3.142
 3994SOL     OW12880   0.771   2.820   5.880
 3994SOL    HW112881   0.775   2.761   5.961
 3994SOL    HW212882   0.685   2.871   5.881
 3995SOL     OW12883   2.137   3.381   4.206
 3995SOL    HW112884   2.048   3.381   4.160
 3995SOL    HW212885   2.142   3.305   4.270
 3996SOL     OW12886   1.098   0.779   4.557
 3996SOL    HW112887   1.182   0.827   4.532
 3996SOL    HW212888   1.070   0.719   4.481
 3997SOL     OW12889   4.946   2.816   2.454
 3997SOL    HW112890   4.928   2.870   2.536
 3997SOL    HW212891   4.908   2.863   2.374
 3998SOL     OW12892   4.858   1.394   2.703
 3998SOL    HW112893   4.883   1.437   2.616
 3998SOL    HW212894   4.926   1.325   2.727
 3999SOL     OW12895   5.347   3.566   3.430
 3999SOL    HW112896   5.347   3.467   3.418
 3999SOL    HW212897   5.336   3.610   3.340
 4000SOL     OW12898   3.171   5.440   2.847
 4000SOL    HW112899   3.256   5.449   2.795
 4000SOL    HW212900   3.192   5.400   2.936
 4001SOL     OW12901   1.607   2.166   4.203
 4001SOL    HW112902   1.565   2.095   4.146
 4001SOL    HW212903   1.606   2.253   4.154
 4002SOL     OW12904   2.841   3.215   0.347
 4002SOL    HW112905   2.857   3.149   0.419
 4002SOL    HW212906   2.778   3.286   0.379
 4003SOL     OW12907   2.759   0.081   5.363
 4003SOL    HW112908   2.839   0.129   5.399
 4003SOL    HW212909   2.789   7.025   5.314
 4004SOL     OW12910   6.555   2.456   4.043
 4004SOL    HW112911   6.523   2.434   3.951
 4004SOL    HW212912   6.571   2.554   4.050
 4005SOL     OW12913   5.145   5.202   0.906
 4005SOL    HW112914   5.244   5.188   0.897
 4005SOL    HW212915   5.100   5.172   0.822
 4006SOL     OW12916   4.440   4.818   1.782
 4006SOL    HW112917   4.442   4.898   1.842
 4006SOL    HW212918   4.378   4.750   1.819
 4007SOL     OW12919   0.713   3.237   1.872
 4007SOL    HW112920   0.671   3.238   1.963
 4007SOL    HW212921   0.737   3.143   1.847
 4008SOL     OW12922   3.287   1.760   4.464
 4008SOL    HW112923   3.240   1.800   4.543
 4008SOL    HW212924   3.372   1.809   4.447
 4009SOL     OW12925   4.617   3.112   0.383
 4009SOL    HW112926   4.641   3.208   0.397
 4009SOL    HW212927   4.654   3.057   0.458
 4010SOL     OW12928   1.873   3.687   1.047
 4010SOL    HW112929   1.955   3.678   0.991
 4010SOL    HW212930   1.899   3.715   1.140
 4011SOL     OW12931   1.149   0.676   1.349
 4011SOL    HW112932   1.147   0.655   1.251
 4011SOL    HW212933   1.071   0.633   1.394
 4012SOL     OW12934   4.672   4.783   1.624
 4012SOL    HW112935   4.590   4.823   1.664
 4012SOL    HW212936   4.685   4.691   1.662
 4013SOL     OW12937   2.742   0.436   0.917
 4013SOL    HW112938   2.693   0.399   0.995
 4013SOL    HW212939   2.679   0.485   0.857
 4014SOL     OW12940   4.498   5.813   3.623
 4014SOL    HW112941   4.479   5.717   3.643
 4014SOL    HW212942   4.421   5.851   3.571
 4015SOL     OW12943   4.389   5.660   6.354
 4015SOL    HW112944   4.347   5.614   6.276
 4015SOL    HW212945   4.318   5.702   6.410
 4016SOL     OW12946   1.279   5.698   6.812
 4016SOL    HW112947   1.188   5.696   6.773
 4016SOL    HW212948   1.303   5.607   6.847
 4017SOL     OW12949   0.048   6.804   6.936
 4017SOL    HW112950   6.995   6.864   6.920
 4017SOL    HW212951   0.016   6.714   6.965
 4018SOL     OW12952   5.777   6.564   2.124
 4018SOL    HW112953   5.704   6.500   2.149
 4018SOL    HW212954   5.750   6.616   2.043
 4019SOL     OW12955   5.709   3.785   2.059
 4019SOL    HW112956   5.615   3.781   2.094
 4019SOL    HW212957   5.717   3.726   1.979
 4020SOL     OW12958   5.926   2.000   6.117
 4020SOL    HW112959   5.829   2.018   6.130
 4020SOL    HW212960   5.971   2.082   6.081
 4021SOL     OW12961   3.105   3.610   5.766
 4021SOL    HW112962   3.184   3.629   5.824
 4021SOL    HW212963   3.069   3.695   5.729
 4022SOL     OW12964   3.981   0.261   0.120
 4022SOL    HW112965   4.013   0.265   0.214
 4022SOL    HW212966   4.000   0.348   0.074
 4023SOL     OW12967   6.523   0.888   4.133
 4023SOL    HW112968   6.516   0.846   4.042
 4023SOL    HW212969   6.611   0.934   4.142
 4024SOL     OW12970   2.817   5.149   4.581
 4024SOL    HW112971   2.807   5.097   4.496
 4024SOL    HW212972   2.732   5.144   4.634
 4025SOL     OW12973   0.630   5.935   5.037
 4025SOL    HW112974   0.666   6.027   5.049
 4025SOL    HW212975   0.569   5.913   5.114
 4026SOL     OW12976   6.434   6.896   3.942
 4026SOL    HW112977   6.367   6.895   3.868
 4026SOL    HW212978   6.392   6.863   4.026
 4027SOL     OW12979   3.012   3.810   1.775
 4027SOL    HW112980   3.018   3.764   1.864
 4027SOL    HW212981   3.075   3.767   1.711
 4028SOL     OW12982   2.301   2.640   3.201
 4028SOL    HW112983   2.338   2.623   3.110
 4028SOL    HW212984   2.236   2.716   3.198
 4029SOL     OW12985   2.858   4.555   6.778
 4029SOL    HW112986   2.905   4.534   6.692
 4029SOL    HW212987   2.861   4.475   6.837
 4030SOL     OW12988   1.137   1.969   0.136
 4030SOL    HW112989   1.234   1.946   0.130
 4030SOL    HW212990   1.085   1.887   0.162
 4031SOL     OW12991   4.701   6.441   3.347
 4031SOL    HW112992   4.794   6.449   3.311
 4031SOL    HW212993   4.659   6.357   3.312
 4032SOL     OW12994   6.527   6.905   2.882
 4032SOL    HW112995   6.542   6.818   2.929
 4032SOL    HW212996   6.524   6.979   2.949
 4033SOL     OW12997   3.024   3.370   2.467
 4033SOL    HW112998   2.930   3.350   2.437
 4033SOL    HW212999   3.042   3.468   2.456
 4034SOL     OW13000   6.561   1.832   5.305
 4034SOL    HW113001   6.608   1.758   5.353
 4034SOL    HW213002   6.489   1.869   5.364
 4035SOL     OW13003   0.032   2.522   0.808
 4035SOL    HW113004   0.098   2.582   0.852
 4035SOL    HW213005   7.006   2.574   0.740
 4036SOL     OW13006   4.794   6.677   2.628
 4036SOL    HW113007   4.823   6.766   2.592
 4036SOL    HW213008   4.778   6.614   2.552
 4037SOL     OW13009   2.086   1.314   0.757
 4037SOL    HW113010   2.019   1.373   0.802
 4037SOL    HW213011   2.177   1.333   0.793
 4038SOL     OW13012   4.679   4.509   1.973
 4038SOL    HW113013   4.631   4.583   2.020
 4038SOL    HW213014   4.627   4.424   1.985
 4039SOL     OW13015   5.058   4.634   1.546
 4039SOL    HW113016   5.031   4.619   1.641
 4039SOL    HW213017   5.125   4.565   1.520
 4040SOL     OW13018   2.987   0.207   5.750
 4040SOL    HW113019   3.004   0.121   5.800
 4040SOL    HW213020   3.073   0.257   5.740
 4041SOL     OW13021   2.373   5.716   1.582
 4041SOL    HW113022   2.368   5.796   1.521
 4041SOL    HW213023   2.343   5.635   1.532
 4042SOL     OW13024   6.340   5.214   2.610
 4042SOL    HW113025   6.425   5.224   2.558
 4042SOL    HW213026   6.347   5.135   2.671
 4043SOL     OW13027   5.026   2.195   3.960
 4043SOL    HW113028   4.988   2.237   4.042
 4043SOL    HW213029   4.978   2.109   3.942
 4044SOL     OW13030   5.121   0.274   3.989
 4044SOL    HW113031   5.220   0.276   4.002
 4044SOL    HW213032   5.100   0.232   3.900
 4045SOL     OW13033   2.775   4.778   6.395
 4045SOL    HW113034   2.752   4.815   6.305
 4045SOL    HW213035   2.853   4.716   6.386
 4046SOL     OW13036   0.562   1.206   4.055
 4046SOL    HW113037   0.523   1.250   3.974
 4046SOL    HW213038   0.493   1.147   4.097
 4047SOL     OW13039   2.736   2.531   0.724
 4047SOL    HW113040   2.670   2.480   0.668
 4047SOL    HW213041   2.723   2.629   0.710
 4048SOL     OW13042   5.631   1.340   2.507
 4048SOL    HW113043   5.584   1.368   2.591
 4048SOL    HW213044   5.586   1.383   2.429
 4049SOL     OW13045   6.250   6.071   0.028
 4049SOL    HW113046   6.342   6.110   0.034
 4049SOL    HW213047   6.192   6.114   0.097
 4050SOL     OW13048   2.115   6.477   0.631
 4050SOL    HW113049   2.056   6.420   0.573
 4050SOL    HW213050   2.058   6.528   0.695
 4051SOL     OW13051   3.865   2.812   0.303
 4051SOL    HW113052   3.816   2.836   0.219
 4051SOL    HW213053   3.804   2.821   0.382
 4052SOL     OW13054   6.938   0.504   2.158
 4052SOL    HW113055   6.899   0.413   2.163
 4052SOL    HW213056   6.949   0.531   2.062
 4053SOL     OW13057   3.301   5.321   4.017
 4053SOL    HW113058   3.225   5.378   4.047
 4053SOL    HW213059   3.273   5.225   4.020
 4054SOL     OW13060   0.797   2.953   1.652
 4054SOL    HW113061   0.866   2.981   1.719
 4054SOL    HW213062   0.731   3.027   1.640
 4055SOL     OW13063   3.725   3.628   6.025
 4055SOL    HW113064   3.808   3.672   6.058
 4055SOL    HW213065   3.738   3.599   5.930
 4056SOL     OW13066   3.771   3.173   0.476
 4056SOL    HW113067   3.741   3.256   0.523
 4056SOL    HW213068   3.870   3.163   0.485
 4057SOL     OW13069   5.331   2.181   1.266
 4057SOL    HW113070   5.242   2.144   1.242
 4057SOL    HW213071   5.327   2.222   1.357
 4058SOL     OW13072   1.384   0.850   4.528
 4058SOL    HW113073   1.361   0.781   4.595
 4058SOL    HW213074   1.475   0.831   4.490
 4059SOL     OW13075   1.311   2.664   3.406
 4059SOL    HW113076   1.217   2.631   3.406
 4059SOL    HW213077   1.373   2.590   3.434
 4060SOL     OW13078   4.773   5.694   4.589
 4060SOL    HW113079   4.855   5.699   4.646
 4060SOL    HW213080   4.740   5.600   4.586
 4061SOL     OW13081   3.427   4.905   1.818
 4061SOL    HW113082   3.484   4.985   1.839
 4061SOL    HW213083   3.486   4.825   1.806
 4062SOL     OW13084   3.084   1.821   2.882
 4062SOL    HW113085   3.023   1.873   2.941
 4062SOL    HW213086   3.068   1.846   2.786
 4063SOL     OW13087   5.667   6.786   5.247
 4063SOL    HW113088   5.569   6.773   5.232
 4063SOL    HW213089   5.719   6.733   5.181
 4064SOL     OW13090   1.587   6.611   3.450
 4064SOL    HW113091   1.666   6.669   3.432
 4064SOL    HW213092   1.617   6.527   3.497
 4065SOL     OW13093   0.533   6.466   0.515
 4065SOL    HW113094   0.488   6.542   0.468
 4065SOL    HW213095   0.585   6.501   0.593
 4066SOL     OW13096   5.264   5.395   2.924
 4066SOL    HW113097   5.199   5.445   2.982
 4066SOL    HW213098   5.340   5.455   2.900
 4067SOL     OW13099   5.999   2.762   2.282
 4067SOL    HW113100   6.009   2.667   2.312
 4067SOL    HW213101   5.933   2.809   2.340
 4068SOL     OW13102   3.161   1.077   4.170
 4068SOL    HW113103   3.062   1.066   4.162
 4068SOL    HW213104   3.182   1.134   4.249
 4069SOL     OW13105   3.907   4.659   6.310
 4069SOL    HW113106   3.859   4.591   6.254
 4069SOL    HW213107   3.873   4.750   6.289
 4070SOL     OW13108   1.012   3.322   2.499
 4070SOL    HW113109   1.001   3.229   2.535
 4070SOL    HW213110   0.925   3.371   2.508
 4071SOL     OW13111   1.027   0.468   5.212
 4071SOL    HW113112   1.096   0.528   5.253
 4071SOL    HW213113   0.936   0.504   5.230
 4072SOL     OW13114   1.150   6.050   4.234
 4072SOL    HW113115   1.095   6.057   4.317
 4072SOL    HW213116   1.169   6.142   4.199
 4073SOL     OW13117   2.453   5.599   6.277
 4073SOL    HW113118   2.380   5.604   6.208
 4073SOL    HW213119   2.537   5.567   6.234
 4074SOL     OW13120   0.856   2.936   2.106
 4074SOL    HW113121   0.790   2.873   2.066
 4074SOL    HW213122   0.810   2.995   2.173
 4075SOL     OW13123   4.146   2.250   2.343
 4075SOL    HW113124   4.086   2.188   2.294
 4075SOL    HW213125   4.210   2.293   2.279
 4076SOL     OW13126   2.463   3.391   5.776
 4076SOL    HW113127   2.376   3.439   5.786
 4076SOL    HW213128   2.509   3.424   5.693
 4077SOL     OW13129   3.109   6.835   6.981
 4077SOL    HW113130   3.098   6.862   6.885
 4077SOL    HW213131   3.180   6.891   7.024
 4078SOL     OW13132   6.703   5.274   1.468
 4078SOL    HW113133   6.752   5.326   1.538
 4078SOL    HW213134   6.731   5.178   1.472
 4079SOL     OW13135   0.548   2.026   3.194
 4079SOL    HW113136   0.568   1.989   3.104
 4079SOL    HW213137   0.539   2.126   3.188
 4080SOL     OW13138   2.719   3.516   0.699
 4080SOL    HW113139   2.640   3.484   0.752
 4080SOL    HW213140   2.696   3.605   0.658
 4081SOL     OW13141   1.745   1.693   3.623
 4081SOL    HW113142   1.744   1.791   3.599
 4081SOL    HW213143   1.758   1.683   3.722
 4082SOL     OW13144   1.199   2.054   0.811
 4082SOL    HW113145   1.153   2.122   0.868
 4082SOL    HW213146   1.247   1.989   0.869
 4083SOL     OW13147   5.829   3.939   2.963
 4083SOL    HW113148   5.927   3.952   2.978
 4083SOL    HW213149   5.798   3.857   3.012
 4084SOL     OW13150   4.934   2.389   3.033
 4084SOL    HW113151   4.859   2.444   2.997
 4084SOL    HW213152   4.900   2.299   3.060
 4085SOL     OW13153   2.640   5.878   0.627
 4085SOL    HW113154   2.591   5.858   0.712
 4085SOL    HW213155   2.576   5.907   0.557
 4086SOL     OW13156   6.967   4.987   1.117
 4086SOL    HW113157   7.009   4.950   1.034
 4086SOL    HW213158   7.003   5.078   1.135
 4087SOL     OW13159   2.321   1.349   2.870
 4087SOL    HW113160   2.282   1.440   2.885
 4087SOL    HW213161   2.270   1.281   2.923
 4088SOL     OW13162   6.576   1.318   6.490
 4088SOL    HW113163   6.650   1.330   6.556
 4088SOL    HW213164   6.585   1.384   6.416
 4089SOL     OW13165   6.506   5.112   4.764
 4089SOL    HW113166   6.488   5.152   4.674
 4089SOL    HW213167   6.599   5.137   4.793
 4090SOL     OW13168   2.105   5.683   5.212
 4090SOL    HW113169   2.078   5.692   5.116
 4090SOL    HW213170   2.048   5.742   5.269
 4091SOL     OW13171   0.543   6.121   6.947
 4091SOL    HW113172   0.445   6.125   6.929
 4091SOL    HW213173   0.558   6.098   0.018
 4092SOL     OW13174   5.870   2.527   3.716
 4092SOL    HW113175   5.866   2.608   3.775
 4092SOL    HW213176   5.780   2.484   3.714
 4093SOL     OW13177   5.249   6.826   1.087
 4093SOL    HW113178   5.270   6.743   1.035
 4093SOL    HW213179   5.309   6.901   1.057
 4094SOL     OW13180   1.142   4.661   6.364
 4094SOL    HW113181   1.129   4.700   6.455
 4094SOL    HW213182   1.224   4.604   6.363
 4095SOL     OW13183   0.770   3.555   0.434
 4095SOL    HW113184   0.730   3.470   0.400
 4095SOL    HW213185   0.866   3.560   0.406
 4096SOL     OW13186   3.489   0.750   5.894
 4096SOL    HW113187   3.447   0.833   5.931
 4096SOL    HW213188   3.584   0.744   5.923
 4097SOL     OW13189   5.008   4.530   4.967
 4097SOL    HW113190   4.927   4.511   4.912
 4097SOL    HW213191   5.026   4.453   5.029
 4098SOL     OW13192   1.164   2.633   1.061
 4098SOL    HW113193   1.210   2.557   1.015
 4098SOL    HW213194   1.110   2.597   1.138
 4099SOL     OW13195   3.378   5.095   0.870
 4099SOL    HW113196   3.289   5.105   0.914
 4099SOL    HW213197   3.373   5.022   0.802
 4100SOL     OW13198   0.974   6.864   4.285
 4100SOL    HW113199   1.018   6.951   4.310
 4100SOL    HW213200   0.891   6.883   4.232
 4101SOL     OW13201   0.990   1.160   6.776
 4101SOL    HW113202   1.060   1.141   6.845
 4101SOL    HW213203   1.023   1.132   6.686
 4102SOL     OW13204   1.627   0.147   0.598
 4102SOL    HW113205   1.637   0.238   0.559
 4102SOL    HW213206   1.686   0.137   0.678
 4103SOL     OW13207   0.700   0.484   1.945
 4103SOL    HW113208   0.712   0.433   2.030
 4103SOL    HW213209   0.619   0.541   1.952
 4104SOL     OW13210   0.284   4.898   3.452
 4104SOL    HW113211   0.197   4.851   3.461
 4104SOL    HW213212   0.340   4.881   3.533
 4105SOL     OW13213   6.402   0.585   2.751
 4105SOL    HW113214   6.500   0.571   2.767
 4105SOL    HW213215   6.359   0.498   2.727
 4106SOL     OW13216   0.450   2.914   3.955
 4106SOL    HW113217   0.438   2.817   3.931
 4106SOL    HW213218   0.382   2.939   4.024
 4107SOL     OW13219   0.952   5.990   0.994
 4107SOL    HW113220   0.958   5.944   1.083
 4107SOL    HW213221   0.864   6.037   0.986
 4108SOL     OW13222   6.373   4.886   4.820
 4108SOL    HW113223   6.280   4.913   4.844
 4108SOL    HW213224   6.429   4.968   4.809
 4109SOL     OW13225   5.985   6.974   5.008
 4109SOL    HW113226   5.925   6.949   5.084
 4109SOL    HW213227   6.065   7.023   5.045
 4110SOL     OW13228   3.991   3.721   6.090
 4110SOL    HW113229   4.046   3.789   6.041
 4110SOL    HW213230   4.040   3.633   6.091
 4111SOL     OW13231   5.371   5.031   6.447
 4111SOL    HW113232   5.311   5.078   6.383
 4111SOL    HW213233   5.448   4.990   6.397
 4112SOL     OW13234   4.869   6.328   4.348
 4112SOL    HW113235   4.786   6.335   4.293
 4112SOL    HW213236   4.908   6.236   4.337
 4113SOL     OW13237   5.499   6.221   4.615
 4113SOL    HW113238   5.556   6.162   4.673
 4113SOL    HW213239   5.551   6.303   4.590
 4114SOL     OW13240   5.240   1.854   3.540
 4114SOL    HW113241   5.266   1.897   3.453
 4114SOL    HW213242   5.155   1.894   3.573
 4115SOL     OW13243   3.075   4.823   2.865
 4115SOL    HW113244   3.155   4.798   2.918
 4115SOL    HW213245   2.993   4.815   2.922
 4116SOL     OW13246   4.117   1.612   3.586
 4116SOL    HW113247   4.042   1.546   3.592
 4116SOL    HW213248   4.169   1.596   3.502
 4117SOL     OW13249   0.948   3.260   2.856
 4117SOL    HW113250   1.011   3.183   2.857
 4117SOL    HW213251   0.964   3.318   2.936
 4118SOL     OW13252   5.236   6.913   0.233
 4118SOL    HW113253   5.150   6.884   0.193
 4118SOL    HW213254   5.294   6.952   0.162
 4119SOL     OW13255   3.083   1.723   3.549
 4119SOL    HW113256   3.101   1.657   3.622
 4119SOL    HW213257   3.089   1.677   3.460
 4120SOL     OW13258   2.867   1.314   5.790
 4120SOL    HW113259   2.778   1.270   5.778
 4120SOL    HW213260   2.878   1.341   5.885
 4121SOL     OW13261   6.566   0.107   3.966
 4121SOL    HW113262   6.534   0.170   3.895
 4121SOL    HW213263   6.528   0.016   3.949
 4122SOL     OW13264   1.322   6.478   4.396
 4122SOL    HW113265   1.275   6.469   4.484
 4122SOL    HW213266   1.384   6.401   4.383
 4123SOL     OW13267   4.198   4.839   5.122
 4123SOL    HW113268   4.224   4.866   5.214
 4123SOL    HW213269   4.098   4.834   5.115
 4124SOL     OW13270   6.650   6.876   1.079
 4124SOL    HW113271   6.722   6.897   1.013
 4124SOL    HW213272   6.625   6.779   1.072
 4125SOL     OW13273   4.427   2.254   3.211
 4125SOL    HW113274   4.330   2.249   3.236
 4125SOL    HW213275   4.436   2.293   3.119
 4126SOL     OW13276   1.786   3.399   3.267
 4126SOL    HW113277   1.776   3.301   3.279
 4126SOL    HW213278   1.697   3.440   3.245
 4127SOL     OW13279   5.738   3.650   4.818
 4127SOL    HW113280   5.674   3.664   4.893
 4127SOL    HW213281   5.770   3.739   4.785
 4128SOL     OW13282   0.645   3.542   1.042
 4128SOL    HW113283   0.650   3.561   1.140
 4128SOL    HW213284   0.665   3.446   1.025
 4129SOL     OW13285   3.122   1.169   0.165
 4129SOL    HW113286   3.167   1.242   0.216
 4129SOL    HW213287   3.102   1.200   0.072
 4130SOL     OW13288   6.237   2.519   0.381
 4130SOL    HW113289   6.258   2.421   0.379
 4130SOL    HW213290   6.193   2.543   0.467
 4131SOL     OW13291   0.372   1.707   3.178
 4131SOL    HW113292   0.467   1.738   3.177
 4131SOL    HW213293   0.369   1.607   3.184
 4132SOL     OW13294   4.808   4.086   3.519
 4132SOL    HW113295   4.767   3.996   3.500
 4132SOL    HW213296   4.761   4.156   3.465
 4133SOL     OW13297   3.389   5.975   1.471
 4133SOL    HW113298   3.411   5.892   1.523
 4133SOL    HW213299   3.307   6.017   1.509
 4134SOL     OW13300   1.655   3.929   1.143
 4134SOL    HW113301   1.683   3.870   1.067
 4134SOL    HW213302   1.735   3.948   1.201
 4135SOL     OW13303   0.374   2.638   1.917
 4135SOL    HW113304   0.281   2.668   1.937
 4135SOL    HW213305   0.423   2.710   1.868
 4136SOL     OW13306   1.339   3.574   3.455
 4136SOL    HW113307   1.347   3.665   3.495
 4136SOL    HW213308   1.247   3.562   3.417
 4137SOL     OW13309   1.666   3.101   0.966
 4137SOL    HW113310   1.705   3.136   0.881
 4137SOL    HW213311   1.737   3.056   1.020
 4138SOL     OW13312   3.788   5.426   2.662
 4138SOL    HW113313   3.698   5.385   2.670
 4138SOL    HW213314   3.858   5.354   2.661
 4139SOL     OW13315   1.356   1.259   5.100
 4139SOL    HW113316   1.392   1.171   5.130
 4139SOL    HW213317   1.261   1.249   5.072
 4140SOL     OW13318   3.486   0.987   4.960
 4140SOL    HW113319   3.461   1.081   4.937
 4140SOL    HW213320   3.462   0.969   5.055
 4141SOL     OW13321   5.245   6.717   1.511
 4141SOL    HW113322   5.303   6.712   1.430
 4141SOL    HW213323   5.149   6.712   1.484
 4142SOL     OW13324   6.532   4.474   0.810
 4142SOL    HW113325   6.502   4.392   0.761
 4142SOL    HW213326   6.461   4.503   0.874
 4143SOL     OW13327   5.722   3.074   1.096
 4143SOL    HW113328   5.730   3.056   1.194
 4143SOL    HW213329   5.711   3.172   1.081
 4144SOL     OW13330   4.922   1.663   0.236
 4144SOL    HW113331   5.011   1.626   0.210
 4144SOL    HW213332   4.850   1.613   0.188
 4145SOL     OW13333   0.795   6.191   1.390
 4145SOL    HW113334   0.813   6.289   1.392
 4145SOL    HW213335   0.864   6.142   1.444
 4146SOL     OW13336   6.610   0.269   3.466
 4146SOL    HW113337   6.549   0.221   3.404
 4146SOL    HW213338   6.584   0.366   3.471
 4147SOL     OW13339   4.328   4.904   5.789
 4147SOL    HW113340   4.248   4.864   5.832
 4147SOL    HW213341   4.389   4.832   5.756
 4148SOL     OW13342   2.723   0.619   4.536
 4148SOL    HW113343   2.636   0.583   4.568
 4148SOL    HW213344   2.776   0.547   4.493
 4149SOL     OW13345   0.298   4.394   1.565
 4149SOL    HW113346   0.321   4.314   1.509
 4149SOL    HW213347   0.373   4.413   1.628
 4150SOL     OW13348   0.626   0.873   5.606
 4150SOL    HW113349   0.570   0.945   5.566
 4150SOL    HW213350   0.683   0.913   5.679
 4151SOL     OW13351   2.695   6.191   5.687
 4151SOL    HW113352   2.595   6.183   5.688
 4151SOL    HW213353   2.721   6.282   5.720
 4152SOL     OW13354   4.085   5.757   1.247
 4152SOL    HW113355   4.141   5.717   1.320
 4152SOL    HW213356   4.003   5.798   1.287
 4153SOL     OW13357   5.779   5.124   1.270
 4153SOL    HW113358   5.765   5.026   1.260
 4153SOL    HW213359   5.696   5.173   1.242
 4154SOL     OW13360   6.735   5.084   4.271
 4154SOL    HW113361   6.726   5.094   4.172
 4154SOL    HW213362   6.678   5.007   4.302
 4155SOL     OW13363   0.006   0.896   1.053
 4155SOL    HW113364   0.048   0.926   0.968
 4155SOL    HW213365   0.072   0.906   1.128
 4156SOL     OW13366   6.253   5.428   5.447
 4156SOL    HW113367   6.229   5.462   5.356
 4156SOL    HW213368   6.217   5.490   5.517
 4157SOL     OW13369   5.509   5.555   3.988
 4157SOL    HW113370   5.453   5.477   4.016
 4157SOL    HW213371   5.546   5.538   3.897
 4158SOL     OW13372   0.747   3.063   2.337
 4158SOL    HW113373   0.832   3.098   2.376
 4158SOL    HW213374   0.691   3.022   2.409
 4159SOL     OW13375   1.330   3.438   2.998
 4159SOL    HW113376   1.414   3.433   2.945
 4159SOL    HW213377   1.255   3.400   2.945
 4160SOL     OW13378   5.337   0.123   0.115
 4160SOL    HW113379   5.258   0.157   0.064
 4160SOL    HW213380   5.415   0.114   0.053
 4161SOL     OW13381   0.895   1.958   0.770
 4161SOL    HW113382   0.891   1.927   0.675
 4161SOL    HW213383   0.983   2.002   0.788
 4162SOL     OW13384   5.989   6.162   0.526
 4162SOL    HW113385   5.957   6.252   0.496
 4162SOL    HW213386   5.915   6.114   0.574
 4163SOL     OW13387   5.179   0.453   3.691
 4163SOL    HW113388   5.120   0.421   3.765
 4163SOL    HW213389   5.275   0.447   3.719
 4164SOL     OW13390   1.585   6.952   4.916
 4164SOL    HW113391   1.621   0.019   4.910
 4164SOL    HW213392   1.574   6.914   4.824
 4165SOL     OW13393   4.269   0.349   5.663
 4165SOL    HW113394   4.292   0.293   5.583
 4165SOL    HW213395   4.281   0.295   5.746
 4166SOL     OW13396   5.385   1.063   0.723
 4166SOL    HW113397   5.423   0.972   0.704
 4166SOL    HW213398   5.301   1.075   0.671
 4167SOL     OW13399   3.345   3.913   0.188
 4167SOL    HW113400   3.294   3.994   0.218
 4167SOL    HW213401   3.389   3.933   0.100
 4168SOL     OW13402   0.570   4.142   1.461
 4168SOL    HW113403   0.478   4.162   1.427
 4168SOL    HW213404   0.581   4.043   1.469
 4169SOL     OW13405   6.411   5.100   4.499
 4169SOL    HW113406   6.339   5.164   4.471
 4169SOL    HW213407   6.375   5.039   4.570
 4170SOL     OW13408   4.535   3.458   6.234
 4170SOL    HW113409   4.522   3.401   6.153
 4170SOL    HW213410   4.521   3.554   6.209
 4171SOL     OW13411   6.089   5.631   0.921
 4171SOL    HW113412   6.053   5.602   0.832
 4171SOL    HW213413   6.042   5.715   0.950
 4172SOL     OW13414   2.129   1.758   6.571
 4172SOL    HW113415   2.103   1.688   6.638
 4172SOL    HW213416   2.224   1.744   6.543
 4173SOL     OW13417   5.259   3.935   4.552
 4173SOL    HW113418   5.277   4.001   4.479
 4173SOL    HW213419   5.171   3.890   4.535
 4174SOL     OW13420   4.620   1.312   2.785
 4174SOL    HW113421   4.546   1.362   2.740
 4174SOL    HW213422   4.708   1.350   2.757
 4175SOL     OW13423   1.843   4.913   4.182
 4175SOL    HW113424   1.869   4.993   4.237
 4175SOL    HW213425   1.768   4.937   4.120
 4176SOL     OW13426   4.171   6.507   1.320
 4176SOL    HW113427   4.101   6.526   1.251
 4176SOL    HW213428   4.126   6.485   1.407
 4177SOL     OW13429   5.943   4.821   5.787
 4177SOL    HW113430   5.956   4.911   5.829
 4177SOL    HW213431   6.021   4.800   5.729
 4178SOL     OW13432   4.129   6.517   4.079
 4178SOL    HW113433   4.091   6.589   4.022
 4178SOL    HW213434   4.206   6.475   4.032
 4179SOL     OW13435   5.446   3.483   3.010
 4179SOL    HW113436   5.508   3.404   3.016
 4179SOL    HW213437   5.351   3.451   3.007
 4180SOL     OW13438   4.137   3.403   0.700
 4180SOL    HW113439   4.191   3.381   0.781
 4180SOL    HW213440   4.198   3.427   0.625
 4181SOL     OW13441   3.945   0.813   6.676
 4181SOL    HW113442   3.891   0.878   6.731
 4181SOL    HW213443   3.884   0.746   6.635
 4182SOL     OW13444   0.735   5.844   3.669
 4182SOL    HW113445   0.769   5.898   3.746
 4182SOL    HW213446   0.795   5.856   3.590
 4183SOL     OW13447   2.906   1.527   6.962
 4183SOL    HW113448   2.871   1.434   6.946
 4183SOL    HW213449   2.830   1.592   6.962
 4184SOL     OW13450   3.360   6.774   2.798
 4184SOL    HW113451   3.264   6.745   2.798
 4184SOL    HW213452   3.371   6.853   2.737
 4185SOL     OW13453   1.032   4.769   3.082
 4185SOL    HW113454   1.042   4.848   3.021
 4185SOL    HW213455   0.974   4.794   3.159
 4186SOL     OW13456   2.737   4.793   6.863
 4186SOL    HW113457   2.785   4.842   6.936
 4186SOL    HW213458   2.802   4.732   6.816
 4187SOL     OW13459   3.468   3.878   5.554
 4187SOL    HW113460   3.514   3.905   5.638
 4187SOL    HW213461   3.430   3.786   5.565
 4188SOL     OW13462   5.353   0.900   5.333
 4188SOL    HW113463   5.378   0.866   5.243
 4188SOL    HW213464   5.415   0.862   5.402
 4189SOL     OW13465   3.156   4.908   4.805
 4189SOL    HW113466   3.113   4.842   4.744
 4189SOL    HW213467   3.099   4.990   4.811
 4190SOL     OW13468   0.973   0.771   0.719
 4190SOL    HW113469   0.922   0.837   0.664
 4190SOL    HW213470   0.909   0.712   0.768
 4191SOL     OW13471   4.950   4.367   3.571
 4191SOL    HW113472   4.861   4.414   3.569
 4191SOL    HW213473   5.014   4.415   3.511
 4192SOL     OW13474   0.704   1.128   3.711
 4192SOL    HW113475   0.657   1.064   3.772
 4192SOL    HW213476   0.758   1.192   3.764
 4193SOL     OW13477   6.360   0.704   0.888
 4193SOL    HW113478   6.367   0.777   0.956
 4193SOL    HW213479   6.434   0.638   0.903
 4194SOL     OW13480   5.296   0.167   4.610
 4194SOL    HW113481   5.353   0.248   4.601
 4194SOL    HW213482   5.346   0.097   4.662
 4195SOL     OW13483   3.962   6.571   1.173
 4195SOL    HW113484   3.911   6.490   1.143
 4195SOL    HW213485   3.970   6.635   1.097
 4196SOL     OW13486   5.982   2.314   2.525
 4196SOL    HW113487   5.918   2.281   2.594
 4196SOL    HW213488   5.995   2.244   2.455
 4197SOL     OW13489   4.861   5.332   5.734
 4197SOL    HW113490   4.948   5.284   5.750
 4197SOL    HW213491   4.879   5.430   5.722
 4198SOL     OW13492   6.346   2.098   0.538
 4198SOL    HW113493   6.281   2.023   0.555
 4198SOL    HW213494   6.425   2.088   0.598
 4199SOL     OW13495   2.017   2.009   5.955
 4199SOL    HW113496   1.971   1.963   6.031
 4199SOL    HW213497   2.063   2.091   5.987
 4200SOL     OW13498   3.229   0.705   5.837
 4200SOL    HW113499   3.327   0.722   5.830
 4200SOL    HW213500   3.206   0.682   5.931
 4201SOL     OW13501   5.838   6.590   3.690
 4201SOL    HW113502   5.762   6.617   3.749
 4201SOL    HW213503   5.896   6.669   3.671
 4202SOL     OW13504   3.526   5.762   5.774
 4202SOL    HW113505   3.487   5.831   5.714
 4202SOL    HW213506   3.502   5.671   5.741
 4203SOL     OW13507   3.677   4.624   6.765
 4203SOL    HW113508   3.578   4.623   6.778
 4203SOL    HW213509   3.710   4.717   6.772
 4204SOL     OW13510   4.128   3.708   3.518
 4204SOL    HW113511   4.103   3.619   3.480
 4204SOL    HW213512   4.093   3.781   3.459
 4205SOL     OW13513   4.291   5.936   3.451
 4205SOL    HW113514   4.241   6.014   3.488
 4205SOL    HW213515   4.231   5.884   3.389
 4206SOL     OW13516   6.640   0.364   5.609
 4206SOL    HW113517   6.627   0.293   5.539
 4206SOL    HW213518   6.553   0.380   5.656
 4207SOL     OW13519   1.893   1.684   1.679
 4207SOL    HW113520   1.948   1.685   1.763
 4207SOL    HW213521   1.859   1.776   1.660
 4208SOL     OW13522   0.126   3.055   5.463
 4208SOL    HW113523   0.209   3.049   5.519
 4208SOL    HW213524   0.143   3.116   5.386
 4209SOL     OW13525   6.541   0.743   3.882
 4209SOL    HW113526   6.578   0.655   3.912
 4209SOL    HW213527   6.458   0.728   3.828
 4210SOL     OW13528   3.796   3.011   2.208
 4210SOL    HW113529   3.842   3.063   2.136
 4210SOL    HW213530   3.860   2.990   2.281
 4211SOL     OW13531   4.402   6.455   6.300
 4211SOL    HW113532   4.393   6.498   6.389
 4211SOL    HW213533   4.423   6.524   6.230
 4212SOL     OW13534   6.179   1.792   2.551
 4212SOL    HW113535   6.236   1.756   2.477
 4212SOL    HW213536   6.091   1.821   2.514
 4213SOL     OW13537   1.863   0.504   1.438
 4213SOL    HW113538   1.924   0.571   1.395
 4213SOL    HW213539   1.890   0.412   1.411
 4214SOL     OW13540   1.096   5.158   5.563
 4214SOL    HW113541   1.026   5.107   5.513
 4214SOL    HW213542   1.185   5.143   5.522
 4215SOL     OW13543   5.192   0.110   5.777
 4215SOL    HW113544   5.115   0.110   5.713
 4215SOL    HW213545   5.268   0.162   5.738
 4216SOL     OW13546   1.657   1.302   2.886
 4216SOL    HW113547   1.665   1.287   2.985
 4216SOL    HW213548   1.728   1.252   2.838
 4217SOL     OW13549   1.085   0.499   2.313
 4217SOL    HW113550   1.038   0.449   2.241
 4217SOL    HW213551   1.120   0.434   2.381
 4218SOL     OW13552   4.202   1.212   1.847
 4218SOL    HW113553   4.171   1.293   1.797
 4218SOL    HW213554   4.191   1.131   1.790
 4219SOL     OW13555   3.842   6.218   3.905
 4219SOL    HW113556   3.814   6.298   3.852
 4219SOL    HW213557   3.863   6.143   3.844
 4220SOL     OW13558   6.154   3.049   3.542
 4220SOL    HW113559   6.169   2.961   3.586
 4220SOL    HW213560   6.227   3.112   3.567
 4221SOL     OW13561   5.656   5.073   6.012
 4221SOL    HW113562   5.688   5.162   5.978
 4221SOL    HW213563   5.679   5.002   5.946
 4222SOL     OW13564   0.250   2.290   2.569
 4222SOL    HW113565   0.316   2.341   2.624
 4222SOL    HW213566   0.285   2.198   2.551
 4223SOL     OW13567   3.377   3.127   6.656
 4223SOL    HW113568   3.408   3.043   6.611
 4223SOL    HW213569   3.400   3.124   6.753
 4224SOL     OW13570   4.846   4.519   4.161
 4224SOL    HW113571   4.860   4.422   4.179
 4224SOL    HW213572   4.781   4.530   4.085
 4225SOL     OW13573   3.614   1.599   5.747
 4225SOL    HW113574   3.633   1.522   5.808
 4225SOL    HW213575   3.691   1.612   5.684
 4226SOL     OW13576   1.087   0.836   2.150
 4226SOL    HW113577   1.095   0.928   2.190
 4226SOL    HW213578   1.003   0.793   2.184
 4227SOL     OW13579   4.223   4.816   1.138
 4227SOL    HW113580   4.171   4.787   1.218
 4227SOL    HW213581   4.265   4.905   1.156
 4228SOL     OW13582   0.893   4.730   5.132
 4228SOL    HW113583   0.833   4.686   5.066
 4228SOL    HW213584   0.865   4.825   5.144
 4229SOL     OW13585   4.862   5.596   5.778
 4229SOL    HW113586   4.916   5.538   5.838
 4229SOL    HW213587   4.888   5.692   5.791
 4230SOL     OW13588   0.917   6.268   3.035
 4230SOL    HW113589   1.000   6.316   3.005
 4230SOL    HW213590   0.853   6.263   2.959
 4231SOL     OW13591   5.522   0.196   5.174
 4231SOL    HW113592   5.523   0.109   5.224
 4231SOL    HW213593   5.616   0.230   5.165
 4232SOL     OW13594   0.472   5.179   2.996
 4232SOL    HW113595   0.562   5.141   3.017
 4232SOL    HW213596   0.428   5.212   3.080
 4233SOL     OW13597   0.034   0.704   6.292
 4233SOL    HW113598   0.048   0.773   6.363
 4233SOL    HW213599   6.991   0.737   6.227
 4234SOL     OW13600   2.453   6.375   4.591
 4234SOL    HW113601   2.471   6.466   4.553
 4234SOL    HW213602   2.402   6.385   4.677
 4235SOL     OW13603   5.504   3.489   5.652
 4235SOL    HW113604   5.506   3.426   5.730
 4235SOL    HW213605   5.429   3.465   5.591
 4236SOL     OW13606   6.506   3.589   2.677
 4236SOL    HW113607   6.419   3.565   2.721
 4236SOL    HW213608   6.579   3.532   2.714
 4237SOL     OW13609   5.442   6.263   2.664
 4237SOL    HW113610   5.448   6.202   2.585
 4237SOL    HW213611   5.465   6.356   2.637
 4238SOL     OW13612   2.752   5.881   2.967
 4238SOL    HW113613   2.652   5.870   2.973
 4238SOL    HW213614   2.779   5.963   3.017
 4239SOL     OW13615   6.319   2.272   2.636
 4239SOL    HW113616   6.231   2.253   2.679
 4239SOL    HW213617   6.350   2.364   2.661
 4240SOL     OW13618   2.377   6.037   0.095
 4240SOL    HW113619   2.445   6.109   0.081
 4240SOL    HW213620   2.400   5.958   0.039
 4241SOL     OW13621   6.174   0.690   0.469
 4241SOL    HW113622   6.184   0.709   0.372
 4241SOL    HW213623   6.134   0.599   0.481
 4242SOL     OW13624   2.927   1.403   3.628
 4242SOL    HW113625   2.841   1.357   3.606
 4242SOL    HW213626   2.966   1.443   3.545
 4243SOL     OW13627   6.472   3.035   3.422
 4243SOL    HW113628   6.510   2.973   3.490
 4243SOL    HW213629   6.436   2.983   3.345
 4244SOL     OW13630   4.552   4.151   1.344
 4244SOL    HW113631   4.496   4.071   1.366
 4244SOL    HW213632   4.577   4.199   1.428
 4245SOL     OW13633   0.138   1.324   6.336
 4245SOL    HW113634   0.195   1.319   6.418
 4245SOL    HW213635   0.182   1.383   6.268
 4246SOL     OW13636   6.826   4.053   3.490
 4246SOL    HW113637   6.792   4.124   3.552
 4246SOL    HW213638   6.854   3.974   3.544
 4247SOL     OW13639   3.099   5.899   3.453
 4247SOL    HW113640   3.111   5.829   3.382
 4247SOL    HW213641   3.189   5.931   3.484
 4248SOL     OW13642   2.918   1.879   3.305
 4248SOL    HW113643   2.830   1.840   3.334
 4248SOL    HW213644   2.913   1.903   3.208
 4249SOL     OW13645   5.493   2.390   3.381
 4249SOL    HW113646   5.421   2.374   3.448
 4249SOL    HW213647   5.497   2.314   3.316
 4250SOL     OW13648   6.045   4.553   2.655
 4250SOL    HW113649   6.130   4.601   2.635
 4250SOL    HW213650   5.978   4.617   2.691
 4251SOL     OW13651   5.363   4.417   1.918
 4251SOL    HW113652   5.368   4.418   2.017
 4251SOL    HW213653   5.290   4.354   1.889
 4252SOL     OW13654   5.191   6.778   6.649
 4252SOL    HW113655   5.112   6.788   6.588
 4252SOL    HW213656   5.264   6.731   6.600
 4253SOL     OW13657   3.217   0.273   0.839
 4253SOL    HW113658   3.287   0.246   0.773
 4253SOL    HW213659   3.245   0.247   0.931
 4254SOL     OW13660   0.948   3.636   1.818
 4254SOL    HW113661   0.948   3.631   1.917
 4254SOL    HW213662   0.917   3.726   1.788
 4255SOL     OW13663   6.702   4.109   4.040
 4255SOL    HW113664   6.724   4.187   4.098
 4255SOL    HW213665   6.784   4.053   4.026
 4256SOL     OW13666   1.914   6.317   0.537
 4256SOL    HW113667   1.820   6.341   0.514
 4256SOL    HW213668   1.914   6.241   0.603
 4257SOL     OW13669   2.392   0.701   4.403
 4257SOL    HW113670   2.419   0.604   4.412
 4257SOL    HW213671   2.327   0.724   4.475
 4258SOL     OW13672   4.227   6.179   0.697
 4258SOL    HW113673   4.279   6.156   0.615
 4258SOL    HW213674   4.150   6.117   0.706
 4259SOL     OW13675   2.856   0.672   0.714
 4259SOL    HW113676   2.783   0.662   0.781
 4259SOL    HW213677   2.819   0.712   0.630
 4260SOL     OW13678   5.901   0.245   1.596
 4260SOL    HW113679   5.880   0.246   1.694
 4260SOL    HW213680   5.819   0.272   1.544
 4261SOL     OW13681   2.083   0.042   2.561
 4261SOL    HW113682   2.077   6.968   2.553
 4261SOL    HW213683   2.160   0.066   2.621
 4262SOL     OW13684   0.840   4.957   6.521
 4262SOL    HW113685   0.779   4.946   6.600
 4262SOL    HW213686   0.930   4.919   6.544
 4263SOL     OW13687   3.227   6.885   3.210
 4263SOL    HW113688   3.182   6.946   3.145
 4263SOL    HW213689   3.323   6.913   3.220
 4264SOL     OW13690   6.791   2.313   2.464
 4264SOL    HW113691   6.738   2.253   2.405
 4264SOL    HW213692   6.753   2.311   2.556
 4265SOL     OW13693   4.843   1.686   1.574
 4265SOL    HW113694   4.795   1.724   1.653
 4265SOL    HW213695   4.926   1.639   1.604
 4266SOL     OW13696   2.001   5.277   0.341
 4266SOL    HW113697   1.966   5.211   0.407
 4266SOL    HW213698   1.946   5.360   0.344
 4267SOL     OW13699   1.876   3.158   3.722
 4267SOL    HW113700   1.834   3.068   3.720
 4267SOL    HW213701   1.863   3.200   3.812
 4268SOL     OW13702   1.351   6.268   7.007
 4268SOL    HW113703   1.269   6.228   6.967
 4268SOL    HW213704   1.428   6.256   6.945
 4269SOL     OW13705   2.976   0.718   2.264
 4269SOL    HW113706   2.951   0.706   2.360
 4269SOL    HW213707   3.075   0.725   2.256
 4270SOL     OW13708   4.138   3.315   3.364
 4270SOL    HW113709   4.108   3.235   3.415
 4270SOL    HW213710   4.176   3.383   3.427
 4271SOL     OW13711   6.495   0.773   6.857
 4271SOL    HW113712   6.469   0.769   6.953
 4271SOL    HW213713   6.533   0.684   6.830
 4272SOL     OW13714   6.572   2.419   4.601
 4272SOL    HW113715   6.631   2.350   4.643
 4272SOL    HW213716   6.538   2.481   4.672
 4273SOL     OW13717   4.848   6.795   4.518
 4273SOL    HW113718   4.889   6.886   4.513
 4273SOL    HW213719   4.859   6.749   4.430
 4274SOL     OW13720   1.004   6.093   2.247
 4274SOL    HW113721   1.071   6.093   2.173
 4274SOL    HW213722   1.032   6.026   2.317
 4275SOL     OW13723   6.714   1.858   4.679
 4275SOL    HW113724   6.777   1.916   4.628
 4275SOL    HW213725   6.651   1.916   4.732
 4276SOL     OW13726   1.389   4.981   3.522
 4276SOL    HW113727   1.424   5.060   3.473
 4276SOL    HW213728   1.411   4.989   3.620
 4277SOL     OW13729   6.460   4.647   3.476
 4277SOL    HW113730   6.505   4.574   3.527
 4277SOL    HW213731   6.462   4.732   3.529
 4278SOL     OW13732   6.495   0.336   4.672
 4278SOL    HW113733   6.402   0.359   4.702
 4278SOL    HW213734   6.491   0.299   4.579
 4279SOL     OW13735   3.088   0.745   3.862
 4279SOL    HW113736   3.158   0.750   3.932
 4279SOL    HW213737   3.120   0.791   3.779
 4280SOL     OW13738   4.557   0.455   5.476
 4280SOL    HW113739   4.647   0.486   5.447
 4280SOL    HW213740   4.527   0.380   5.418
 4281SOL     OW13741   0.135   4.476   3.345
 4281SOL    HW113742   0.218   4.465   3.290
 4281SOL    HW213743   0.149   4.430   3.433
 4282SOL     OW13744   3.173   4.267   6.066
 4282SOL    HW113745   3.179   4.359   6.026
 4282SOL    HW213746   3.233   4.205   6.017
 4283SOL     OW13747   0.944   0.766   3.649
 4283SOL    HW113748   1.013   0.825   3.691
 4283SOL    HW213749   0.864   0.760   3.710
 4284SOL     OW13750   3.730   5.117   1.290
 4284SOL    HW113751   3.632   5.136   1.287
 4284SOL    HW213752   3.770   5.133   1.200
 4285SOL     OW13753   1.232   0.580   5.376
 4285SOL    HW113754   1.317   0.565   5.427
 4285SOL    HW213755   1.156   0.588   5.440
 4286SOL     OW13756   4.419   6.552   5.972
 4286SOL    HW113757   4.413   6.453   5.975
 4286SOL    HW213758   4.459   6.580   5.885
 4287SOL     OW13759   5.617   1.765   6.201
 4287SOL    HW113760   5.584   1.671   6.198
 4287SOL    HW213761   5.707   1.768   6.243
 4288SOL     OW13762   0.242   5.790   4.116
 4288SOL    HW113763   0.216   5.881   4.085
 4288SOL    HW213764   0.179   5.758   4.186
 4289SOL     OW13765   6.740   3.164   6.540
 4289SOL    HW113766   6.781   3.243   6.494
 4289SOL    HW213767   6.736   3.087   6.477
 4290SOL     OW13768   1.297   6.401   3.178
 4290SOL    HW113769   1.254   6.376   3.265
 4290SOL    HW213770   1.227   6.409   3.107
 4291SOL     OW13771   4.567   3.457   0.747
 4291SOL    HW113772   4.542   3.531   0.685
 4291SOL    HW213773   4.606   3.381   0.694
 4292SOL     OW13774   5.855   3.060   0.613
 4292SOL    HW113775   5.812   2.970   0.610
 4292SOL    HW213776   5.793   3.126   0.656
 4293SOL     OW13777   2.621   3.411   0.413
 4293SOL    HW113778   2.599   3.474   0.338
 4293SOL    HW213779   2.641   3.464   0.495
 4294SOL     OW13780   2.149   2.442   6.699
 4294SOL    HW113781   2.220   2.418   6.765
 4294SOL    HW213782   2.173   2.528   6.654
 4295SOL     OW13783   3.799   5.667   4.491
 4295SOL    HW113784   3.839   5.663   4.399
 4295SOL    HW213785   3.828   5.751   4.537
 4296SOL     OW13786   3.088   6.800   0.761
 4296SOL    HW113787   3.081   6.889   0.716
 4296SOL    HW213788   3.113   6.730   0.694
 4297SOL     OW13789   4.853   0.586   6.552
 4297SOL    HW113790   4.931   0.611   6.495
 4297SOL    HW213791   4.773   0.572   6.494
 4298SOL     OW13792   3.836   5.181   0.342
 4298SOL    HW113793   3.770   5.114   0.307
 4298SOL    HW213794   3.878   5.146   0.426
 4299SOL     OW13795   0.970   2.923   6.455
 4299SOL    HW113796   1.062   2.883   6.453
 4299SOL    HW213797   0.957   2.980   6.375
 4300SOL     OW13798   3.425   6.657   0.390
 4300SOL    HW113799   3.503   6.608   0.430
 4300SOL    HW213800   3.443   6.674   0.293
 4301SOL     OW13801   3.923   1.607   1.618
 4301SOL    HW113802   3.954   1.678   1.680
 4301SOL    HW213803   3.922   1.642   1.524
 4302SOL     OW13804   1.264   6.763   6.602
 4302SOL    HW113805   1.219   6.768   6.513
 4302SOL    HW213806   1.237   6.679   6.648
 4303SOL     OW13807   0.389   4.388   4.151
 4303SOL    HW113808   0.361   4.483   4.166
 4303SOL    HW213809   0.487   4.385   4.131
 4304SOL     OW13810   3.189   3.995   2.992
 4304SOL    HW113811   3.124   3.995   3.067
 4304SOL    HW213812   3.278   3.965   3.025
 4305SOL     OW13813   0.046   0.255   5.215
 4305SOL    HW113814   0.041   0.187   5.142
 4305SOL    HW213815   0.009   0.216   5.300
 4306SOL     OW13816   5.598   4.279   5.854
 4306SOL    HW113817   5.594   4.228   5.940
 4306SOL    HW213818   5.565   4.222   5.779
 4307SOL     OW13819   4.944   4.009   5.569
 4307SOL    HW113820   4.956   3.978   5.663
 4307SOL    HW213821   4.872   3.956   5.526
 4308SOL     OW13822   6.435   4.932   0.335
 4308SOL    HW113823   6.473   4.993   0.404
 4308SOL    HW213824   6.402   4.986   0.257
 4309SOL     OW13825   1.190   1.353   0.380
 4309SOL    HW113826   1.191   1.373   0.282
 4309SOL    HW213827   1.283   1.337   0.411
 4310SOL     OW13828   1.221   2.706   2.139
 4310SOL    HW113829   1.208   2.677   2.044
 4310SOL    HW213830   1.312   2.746   2.150
 4311SOL     OW13831   1.950   5.917   2.931
 4311SOL    HW113832   1.943   5.841   2.865
 4311SOL    HW213833   1.910   5.999   2.890
 4312SOL     OW13834   2.093   5.099   1.320
 4312SOL    HW113835   2.142   5.015   1.296
 4312SOL    HW213836   2.076   5.152   1.238
 4313SOL     OW13837   4.635   1.410   1.701
 4313SOL    HW113838   4.590   1.452   1.780
 4313SOL    HW213839   4.608   1.459   1.618
 4314SOL     OW13840   6.215   1.546   4.454
 4314SOL    HW113841   6.130   1.587   4.487
 4314SOL    HW213842   6.200   1.449   4.435
 4315SOL     OW13843   2.269   6.377   2.400
 4315SOL    HW113844   2.323   6.300   2.368
 4315SOL    HW213845   2.328   6.457   2.409
 4316SOL     OW13846   5.704   0.505   2.074
 4316SOL    HW113847   5.624   0.565   2.083
 4316SOL    HW213848   5.766   0.521   2.151
 4317SOL     OW13849   5.066   2.456   4.772
 4317SOL    HW113850   4.990   2.520   4.784
 4317SOL    HW213851   5.087   2.447   4.674
 4318SOL     OW13852   0.688   3.444   4.912
 4318SOL    HW113853   0.747   3.381   4.963
 4318SOL    HW213854   0.665   3.404   4.824
 4319SOL     OW13855   2.050   1.909   1.457
 4319SOL    HW113856   2.091   1.851   1.527
 4319SOL    HW213857   2.086   1.884   1.367
 4320SOL     OW13858   5.377   5.058   0.271
 4320SOL    HW113859   5.441   5.019   0.337
 4320SOL    HW213860   5.363   5.155   0.292
 4321SOL     OW13861   0.097   6.650   4.995
 4321SOL    HW113862   0.105   6.580   4.924
 4321SOL    HW213863   0.057   6.733   4.955
 4322SOL     OW13864   6.143   2.600   6.942
 4322SOL    HW113865   6.213   2.577   6.874
 4322SOL    HW213866   6.053   2.595   6.900
 4323SOL     OW13867   4.614   3.817   1.398
 4323SOL    HW113868   4.562   3.763   1.333
 4323SOL    HW213869   4.653   3.897   1.352
 4324SOL     OW13870   5.334   4.133   6.519
 4324SOL    HW113871   5.244   4.169   6.541
 4324SOL    HW213872   5.351   4.144   6.421
 4325SOL     OW13873   2.338   0.931   1.614
 4325SOL    HW113874   2.360   0.840   1.579
 4325SOL    HW213875   2.290   0.983   1.543
 4326SOL     OW13876   5.013   4.859   4.025
 4326SOL    HW113877   4.951   4.847   4.103
 4326SOL    HW213878   4.962   4.844   3.940
 4327SOL     OW13879   5.812   5.928   1.683
 4327SOL    HW113880   5.754   6.009   1.699
 4327SOL    HW213881   5.773   5.850   1.731
 4328SOL     OW13882   4.702   3.923   5.461
 4328SOL    HW113883   4.604   3.945   5.462
 4328SOL    HW213884   4.717   3.839   5.409
 4329SOL     OW13885   4.513   1.433   5.338
 4329SOL    HW113886   4.449   1.461   5.267
 4329SOL    HW213887   4.471   1.446   5.428
 4330SOL     OW13888   2.183   6.655   4.580
 4330SOL    HW113889   2.144   6.587   4.641
 4330SOL    HW213890   2.141   6.647   4.490
 4331SOL     OW13891   5.605   1.181   1.742
 4331SOL    HW113892   5.666   1.140   1.810
 4331SOL    HW213893   5.558   1.260   1.782
 4332SOL     OW13894   5.442   3.368   1.970
 4332SOL    HW113895   5.453   3.315   2.055
 4332SOL    HW213896   5.347   3.365   1.941
 4333SOL     OW13897   3.410   0.888   5.192
 4333SOL    HW113898   3.368   0.920   5.277
 4333SOL    HW213899   3.505   0.864   5.209
 4334SOL     OW13900   1.545   2.898   2.387
 4334SOL    HW113901   1.579   2.806   2.407
 4334SOL    HW213902   1.447   2.902   2.403
 4335SOL     OW13903   3.158   3.601   2.675
 4335SOL    HW113904   3.106   3.648   2.603
 4335SOL    HW213905   3.125   3.630   2.765
 4336SOL     OW13906   3.131   6.478   6.651
 4336SOL    HW113907   3.146   6.546   6.579
 4336SOL    HW213908   3.097   6.393   6.610
 4337SOL     OW13909   0.468   4.413   1.095
 4337SOL    HW113910   0.537   4.462   1.042
 4337SOL    HW213911   0.505   4.390   1.185
 4338SOL     OW13912   6.195   0.100   5.133
 4338SOL    HW113913   6.151   0.172   5.187
 4338SOL    HW213914   6.248   0.040   5.194
 4339SOL     OW13915   5.633   3.194   5.369
 4339SOL    HW113916   5.679   3.218   5.284
 4339SOL    HW213917   5.700   3.193   5.444
 4340SOL     OW13918   6.726   2.893   1.819
 4340SOL    HW113919   6.677   2.881   1.905
 4340SOL    HW213920   6.694   2.976   1.774
 4341SOL     OW13921   0.347   5.927   2.383
 4341SOL    HW113922   0.359   6.024   2.404
 4341SOL    HW213923   0.412   5.873   2.436
 4342SOL     OW13924   5.614   3.955   3.574
 4342SOL    HW113925   5.666   4.039   3.563
 4342SOL    HW213926   5.659   3.881   3.524
 4343SOL     OW13927   2.559   6.389   5.203
 4343SOL    HW113928   2.529   6.380   5.298
 4343SOL    HW213929   2.498   6.337   5.144
 4344SOL     OW13930   0.447   4.439   1.959
 4344SOL    HW113931   0.401   4.367   2.011
 4344SOL    HW213932   0.381   4.509   1.933
 4345SOL     OW13933   3.511   3.661   5.145
 4345SOL    HW113934   3.429   3.636   5.197
 4345SOL    HW213935   3.571   3.716   5.202
 4346SOL     OW13936   2.031   3.280   2.303
 4346SOL    HW113937   2.054   3.227   2.385
 4346SOL    HW213938   2.054   3.376   2.318
 4347SOL     OW13939   6.884   6.694   2.519
 4347SOL    HW113940   6.907   6.782   2.560
 4347SOL    HW213941   6.793   6.700   2.477
 4348SOL     OW13942   0.064   4.346   3.572
 4348SOL    HW113943   0.101   4.403   3.645
 4348SOL    HW213944   6.993   4.367   3.559
 4349SOL     OW13945   6.359   2.078   2.418
 4349SOL    HW113946   6.273   2.031   2.397
 4349SOL    HW213947   6.346   2.136   2.499
 4350SOL     OW13948   3.830   1.353   4.305
 4350SOL    HW113949   3.880   1.439   4.315
 4350SOL    HW213950   3.869   1.300   4.230
 4351SOL     OW13951   1.705   4.832   0.966
 4351SOL    HW113952   1.699   4.899   1.040
 4351SOL    HW213953   1.797   4.837   0.925
 4352SOL     OW13954   6.515   3.405   2.438
 4352SOL    HW113955   6.452   3.332   2.411
 4352SOL    HW213956   6.475   3.458   2.513
 4353SOL     OW13957   4.194   2.862   6.489
 4353SOL    HW113958   4.186   2.845   6.588
 4353SOL    HW213959   4.249   2.944   6.474
 4354SOL     OW13960   2.333   6.946   5.248
 4354SOL    HW113961   2.251   6.891   5.262
 4354SOL    HW213962   2.308   0.018   5.253
 4355SOL     OW13963   1.865   0.223   2.521
 4355SOL    HW113964   1.950   0.171   2.527
 4355SOL    HW213965   1.788   0.166   2.550
 4356SOL     OW13966   5.009   3.874   0.655
 4356SOL    HW113967   4.921   3.874   0.607
 4356SOL    HW213968   5.028   3.967   0.688
 4357SOL     OW13969   6.815   1.158   1.275
 4357SOL    HW113970   6.847   1.063   1.272
 4357SOL    HW213971   6.795   1.189   1.182
 4358SOL     OW13972   0.423   6.990   0.573
 4358SOL    HW113973   0.419   6.946   0.483
 4358SOL    HW213974   0.430   6.920   0.644
 4359SOL     OW13975   2.212   1.420   6.067
 4359SOL    HW113976   2.174   1.344   6.120
 4359SOL    HW213977   2.192   1.406   5.970
 4360SOL     OW13978   1.234   3.208   3.284
 4360SOL    HW113979   1.193   3.120   3.307
 4360SOL    HW213980   1.333   3.199   3.280
 4361SOL     OW13981   2.311   3.171   1.221
 4361SOL    HW113982   2.402   3.152   1.258
 4361SOL    HW213983   2.247   3.186   1.296
 4362SOL     OW13984   5.844   5.547   3.536
 4362SOL    HW113985   5.856   5.620   3.603
 4362SOL    HW213986   5.789   5.581   3.459
 4363SOL     OW13987   5.504   2.272   1.092
 4363SOL    HW113988   5.449   2.217   1.156
 4363SOL    HW213989   5.488   2.240   0.999
 4364SOL     OW13990   2.956   3.645   4.765
 4364SOL    HW113991   3.051   3.631   4.794
 4364SOL    HW213992   2.919   3.559   4.729
 4365SOL     OW13993   2.462   1.083   2.319
 4365SOL    HW113994   2.366   1.108   2.306
 4365SOL    HW213995   2.516   1.118   2.242
 4366SOL     OW13996   5.696   7.009   6.922
 4366SOL    HW113997   5.787   6.982   6.891
 4366SOL    HW213998   5.692   0.082   6.935
 4367SOL     OW13999   2.070   4.211   4.532
 4367SOL    HW114000   1.977   4.239   4.558
 4367SOL    HW214001   2.129   4.210   4.613
 4368SOL     OW14002   3.661   4.656   0.646
 4368SOL    HW114003   3.647   4.710   0.729
 4368SOL    HW214004   3.720   4.578   0.667
 4369SOL     OW14005   4.276   5.528   2.612
 4369SOL    HW114006   4.243   5.516   2.518
 4369SOL    HW214007   4.222   5.598   2.658
 4370SOL     OW14008   4.010   5.457   1.907
 4370SOL    HW114009   4.042   5.530   1.846
 4370SOL    HW214010   4.027   5.368   1.865
 4371SOL     OW14011   1.076   1.747   2.173
 4371SOL    HW114012   1.046   1.652   2.164
 4371SOL    HW214013   1.144   1.768   2.103
 4372SOL     OW14014   2.700   1.711   2.685
 4372SOL    HW114015   2.640   1.743   2.612
 4372SOL    HW214016   2.795   1.710   2.652
 4373SOL     OW14017   6.381   2.230   0.006
 4373SOL    HW114018   6.451   2.160   7.016
 4373SOL    HW214019   6.415   2.319   7.000
 4374SOL     OW14020   1.023   1.663   0.636
 4374SOL    HW114021   1.122   1.660   0.626
 4374SOL    HW214022   0.993   1.585   0.690
 4375SOL     OW14023   4.523   6.931   2.903
 4375SOL    HW114024   4.484   6.880   2.827
 4375SOL    HW214025   4.484   6.897   2.989
 4376SOL     OW14026   0.405   6.539   1.803
 4376SOL    HW114027   0.412   6.571   1.897
 4376SOL    HW214028   0.482   6.574   1.750
 4377SOL     OW14029   5.659   4.522   0.033
 4377SOL    HW114030   5.594   4.521   0.109
 4377SOL    HW214031   5.729   4.453   0.049
 4378SOL     OW14032   1.910   2.808   2.726
 4378SOL    HW114033   1.954   2.842   2.809
 4378SOL    HW214034   1.848   2.878   2.691
 4379SOL     OW14035   1.529   2.589   2.403
 4379SOL    HW114036   1.461   2.564   2.335
 4379SOL    HW214037   1.618   2.552   2.376
 4380SOL     OW14038   1.008   6.881   2.753
 4380SOL    HW114039   1.040   6.816   2.685
 4380SOL    HW214040   1.018   6.974   2.718
 4381SOL     OW14041   1.755   4.610   5.486
 4381SOL    HW114042   1.818   4.685   5.465
 4381SOL    HW214043   1.684   4.606   5.416
 4382SOL     OW14044   6.752   3.268   5.404
 4382SOL    HW114045   6.830   3.316   5.445
 4382SOL    HW214046   6.729   3.311   5.316
 4383SOL     OW14047   0.780   2.701   6.189
 4383SOL    HW114048   0.752   2.741   6.276
 4383SOL    HW214049   0.746   2.607   6.183
 4384SOL     OW14050   6.043   1.697   5.254
 4384SOL    HW114051   6.096   1.699   5.170
 4384SOL    HW214052   6.059   1.780   5.306
 4385SOL     OW14053   6.088   2.599   4.879
 4385SOL    HW114054   6.102   2.500   4.880
 4385SOL    HW214055   5.996   2.619   4.847
 4386SOL     OW14056   2.296   3.240   6.513
 4386SOL    HW114057   2.377   3.283   6.474
 4386SOL    HW214058   2.245   3.308   6.567
 4387SOL     OW14059   6.822   1.372   1.043
 4387SOL    HW114060   6.723   1.381   1.046
 4387SOL    HW214061   6.853   1.370   0.948
 4388SOL     OW14062   5.187   2.266   6.646
 4388SOL    HW114063   5.234   2.194   6.698
 4388SOL    HW214064   5.109   2.227   6.598
 4389SOL     OW14065   6.667   3.345   0.852
 4389SOL    HW114066   6.659   3.247   0.835
 4389SOL    HW214067   6.661   3.395   0.765
 4390SOL     OW14068   3.775   0.835   1.475
 4390SOL    HW114069   3.814   0.854   1.566
 4390SOL    HW214070   3.848   0.805   1.414
 4391SOL     OW14071   1.928   5.784   6.960
 4391SOL    HW114072   1.922   5.854   0.006
 4391SOL    HW214073   2.007   5.725   6.978
 4392SOL     OW14074   6.847   3.037   4.553
 4392SOL    HW114075   6.842   3.030   4.653
 4392SOL    HW214076   6.837   3.133   4.526
 4393SOL     OW14077   5.735   0.659   2.550
 4393SOL    HW114078   5.636   0.647   2.554
 4393SOL    HW214079   5.756   0.753   2.524
 4394SOL     OW14080   6.523   5.784   2.444
 4394SOL    HW114081   6.536   5.692   2.480
 4394SOL    HW214082   6.526   5.850   2.520
 4395SOL     OW14083   2.771   6.566   2.248
 4395SOL    HW114084   2.850   6.516   2.285
 4395SOL    HW214085   2.727   6.511   2.177
 4396SOL     OW14086   2.068   1.873   3.730
 4396SOL    HW114087   2.090   1.798   3.667
 4396SOL    HW214088   2.092   1.960   3.688
 4397SOL     OW14089   7.021   1.548   4.776
 4397SOL    HW114090   6.967   1.482   4.724
 4397SOL    HW214091   7.018   1.524   4.873
 4398SOL     OW14092   0.394   3.945   5.646
 4398SOL    HW114093   0.478   4.000   5.652
 4398SOL    HW214094   0.417   3.848   5.648
 4399SOL     OW14095   2.449   0.050   1.822
 4399SOL    HW114096   2.437   0.147   1.801
 4399SOL    HW214097   2.393   0.026   1.901
 4400SOL     OW14098   3.222   6.158   5.184
 4400SOL    HW114099   3.159   6.226   5.222
 4400SOL    HW214100   3.233   6.083   5.249
 4401SOL     OW14101   3.652   6.807   6.103
 4401SOL    HW114102   3.647   6.771   6.010
 4401SOL    HW214103   3.591   6.886   6.111
 4402SOL     OW14104   2.683   0.291   1.903
 4402SOL    HW114105   2.688   0.273   1.804
 4402SOL    HW214106   2.588   0.311   1.927
 4403SOL     OW14107   1.361   0.528   1.478
 4403SOL    HW114108   1.409   0.507   1.563
 4403SOL    HW214109   1.282   0.586   1.497
 4404SOL     OW14110   1.526   4.810   5.613
 4404SOL    HW114111   1.513   4.742   5.686
 4404SOL    HW214112   1.507   4.768   5.524
 4405SOL     OW14113   1.609   3.909   0.647
 4405SOL    HW114114   1.706   3.887   0.650
 4405SOL    HW214115   1.597   4.008   0.636
 4406SOL     OW14116   0.651   3.600   0.661
 4406SOL    HW114117   0.712   3.565   0.590
 4406SOL    HW214118   0.702   3.661   0.722
 4407SOL     OW14119   6.295   5.058   0.093
 4407SOL    HW114120   6.361   5.067   0.018
 4407SOL    HW214121   6.218   5.119   0.077
 4408SOL     OW14122   3.208   0.807   1.064
 4408SOL    HW114123   3.259   0.756   0.995
 4408SOL    HW214124   3.111   0.804   1.043
 4409SOL     OW14125   5.092   1.242   2.795
 4409SOL    HW114126   5.158   1.292   2.739
 4409SOL    HW214127   5.110   1.144   2.788
 4410SOL     OW14128   1.104   5.119   7.005
 4410SOL    HW114129   1.092   5.037   6.948
 4410SOL    HW214130   1.054   5.195   6.964
 4411SOL     OW14131   3.909   4.053   4.811
 4411SOL    HW114132   3.871   3.993   4.741
 4411SOL    HW214133   4.008   4.040   4.815
 4412SOL     OW14134   4.443   6.140   4.736
 4412SOL    HW114135   4.503   6.198   4.681
 4412SOL    HW214136   4.374   6.097   4.677
 4413SOL     OW14137   6.440   4.715   4.609
 4413SOL    HW114138   6.433   4.624   4.649
 4413SOL    HW214139   6.440   4.784   4.682
 4414SOL     OW14140   3.178   5.168   1.043
 4414SOL    HW114141   3.079   5.163   1.026
 4414SOL    HW214142   3.193   5.202   1.136
 4415SOL     OW14143   4.306   2.759   0.792
 4415SOL    HW114144   4.219   2.741   0.838
 4415SOL    HW214145   4.298   2.734   0.695
 4416SOL     OW14146   3.987   1.106   4.488
 4416SOL    HW114147   4.048   1.185   4.476
 4416SOL    HW214148   3.900   1.125   4.443
 4417SOL     OW14149   5.608   4.304   3.532
 4417SOL    HW114150   5.578   4.283   3.439
 4417SOL    HW214151   5.693   4.254   3.551
 4418SOL     OW14152   6.161   1.964   2.270
 4418SOL    HW114153   6.140   2.029   2.197
 4418SOL    HW214154   6.220   1.892   2.235
 4419SOL     OW14155   5.677   6.530   6.432
 4419SOL    HW114156   5.666   6.553   6.336
 4419SOL    HW214157   5.614   6.455   6.456
 4420SOL     OW14158   5.100   0.790   1.925
 4420SOL    HW114159   5.046   0.872   1.940
 4420SOL    HW214160   5.129   0.786   1.830
 4421SOL     OW14161   2.560   1.228   5.246
 4421SOL    HW114162   2.523   1.314   5.211
 4421SOL    HW214163   2.658   1.238   5.263
 4422SOL     OW14164   2.299   3.627   0.095
 4422SOL    HW114165   2.319   3.704   0.033
 4422SOL    HW214166   2.221   3.651   0.153
 4423SOL     OW14167   0.254   3.124   5.842
 4423SOL    HW114168   0.337   3.161   5.883
 4423SOL    HW214169   0.267   3.110   5.744
 4424SOL     OW14170   5.689   1.260   4.310
 4424SOL    HW114171   5.728   1.176   4.347
 4424SOL    HW214172   5.590   1.251   4.302
 4425SOL     OW14173   2.881   4.243   0.455
 4425SOL    HW114174   2.894   4.144   0.459
 4425SOL    HW214175   2.923   4.278   0.371
 4426SOL     OW14176   0.230   1.823   3.818
 4426SOL    HW114177   0.145   1.828   3.766
 4426SOL    HW214178   0.213   1.778   3.906
 4427SOL     OW14179   0.567   6.475   2.977
 4427SOL    HW114180   0.581   6.466   2.878
 4427SOL    HW214181   0.653   6.501   3.021
 4428SOL     OW14182   3.383   0.602   3.312
 4428SOL    HW114183   3.288   0.584   3.284
 4428SOL    HW214184   3.399   0.700   3.314
 4429SOL     OW14185   2.915   6.718   3.010
 4429SOL    HW114186   2.916   6.684   2.916
 4429SOL    HW214187   3.005   6.706   3.051
 4430SOL     OW14188   4.790   4.024   4.904
 4430SOL    HW114189   4.761   3.939   4.862
 4430SOL    HW214190   4.789   4.014   5.004
 4431SOL     OW14191   2.453   1.351   1.945
 4431SOL    HW114192   2.499   1.295   2.014
 4431SOL    HW214193   2.520   1.403   1.893
 4432SOL     OW14194   2.368   3.360   6.080
 4432SOL    HW114195   2.459   3.343   6.042
 4432SOL    HW214196   2.310   3.280   6.062
 4433SOL     OW14197   5.257   2.105   4.294
 4433SOL    HW114198   5.229   2.010   4.310
 4433SOL    HW214199   5.223   2.163   4.368
 4434SOL     OW14200   5.273   1.469   3.014
 4434SOL    HW114201   5.201   1.478   3.082
 4434SOL    HW214202   5.336   1.547   3.022
 4435SOL     OW14203   5.239   2.995   1.757
 4435SOL    HW114204   5.241   3.085   1.713
 4435SOL    HW214205   5.152   2.982   1.803
 4436SOL     OW14206   4.212   1.366   1.482
 4436SOL    HW114207   4.125   1.349   1.528
 4436SOL    HW214208   4.288   1.341   1.543
 4437SOL     OW14209   7.021   2.342   2.685
 4437SOL    HW114210   0.091   2.313   2.690
 4437SOL    HW214211   6.991   2.341   2.589
 4438SOL     OW14212   5.077   6.607   6.836
 4438SOL    HW114213   5.126   6.683   6.794
 4438SOL    HW214214   5.094   6.523   6.784
 4439SOL     OW14215   0.035   4.461   1.639
 4439SOL    HW114216   7.000   4.382   1.647
 4439SOL    HW214217   0.129   4.430   1.627
 4440SOL     OW14218   2.682   4.452   0.500
 4440SOL    HW114219   2.760   4.392   0.518
 4440SOL    HW214220   2.597   4.406   0.525
 4441SOL     OW14221   0.258   1.996   2.797
 4441SOL    HW114222   0.170   2.022   2.758
 4441SOL    HW214223   0.256   2.012   2.896
 4442SOL     OW14224   2.377   5.476   4.278
 4442SOL    HW114225   2.328   5.472   4.365
 4442SOL    HW214226   2.312   5.467   4.203
 4443SOL     OW14227   0.866   3.622   6.865
 4443SOL    HW114228   0.767   3.611   6.877
 4443SOL    HW214229   0.896   3.570   6.786
 4444SOL     OW14230   3.058   4.082   5.090
 4444SOL    HW114231   2.987   4.066   5.158
 4444SOL    HW214232   3.026   4.147   5.021
 4445SOL     OW14233   1.561   6.633   0.443
 4445SOL    HW114234   1.543   6.689   0.523
 4445SOL    HW214235   1.603   6.690   0.371
 4446SOL     OW14236   5.104   1.042   1.637
 4446SOL    HW114237   5.066   0.950   1.635
 4446SOL    HW214238   5.200   1.038   1.665
 4447SOL     OW14239   5.973   4.249   5.783
 4447SOL    HW114240   6.073   4.258   5.778
 4447SOL    HW214241   5.941   4.192   5.708
 4448SOL     OW14242   2.534   4.022   1.661
 4448SOL    HW114243   2.617   3.980   1.698
 4448SOL    HW214244   2.546   4.122   1.659
 4449SOL     OW14245   4.822   0.921   6.028
 4449SOL    HW114246   4.785   0.843   5.978
 4449SOL    HW214247   4.902   0.956   5.980
 4450SOL     OW14248   3.404   3.027   5.233
 4450SOL    HW114249   3.425   2.941   5.279
 4450SOL    HW214250   3.383   3.097   5.302
 4451SOL     OW14251   6.642   4.538   2.774
 4451SOL    HW114252   6.591   4.517   2.857
 4451SOL    HW214253   6.599   4.493   2.696
 4452SOL     OW14254   5.069   6.460   4.467
 4452SOL    HW114255   5.032   6.499   4.552
 4452SOL    HW214256   4.998   6.405   4.423
 4453SOL     OW14257   1.073   2.856   1.361
 4453SOL    HW114258   1.076   2.876   1.263
 4453SOL    HW214259   1.116   2.931   1.412
 4454SOL     OW14260   1.769   1.919   0.140
 4454SOL    HW114261   1.752   1.972   0.223
 4454SOL    HW214262   1.864   1.930   0.112
 4455SOL     OW14263   4.121   6.336   5.931
 4455SOL    HW114264   4.063   6.256   5.915
 4455SOL    HW214265   4.146   6.340   6.028
 4456SOL     OW14266   3.037   6.302   2.057
 4456SOL    HW114267   2.957   6.299   1.997
 4456SOL    HW214268   3.082   6.213   2.057
 4457SOL     OW14269   4.229   1.103   2.550
 4457SOL    HW114270   4.168   1.024   2.538
 4457SOL    HW214271   4.184   1.172   2.606
 4458SOL     OW14272   1.883   2.259   0.811
 4458SOL    HW114273   1.832   2.317   0.875
 4458SOL    HW214274   1.943   2.198   0.863
 4459SOL     OW14275   4.121   1.342   4.522
 4459SOL    HW114276   4.038   1.379   4.564
 4459SOL    HW214277   4.198   1.353   4.584
 4460SOL     OW14278   2.009   2.792   6.061
 4460SOL    HW114279   2.042   2.836   6.144
 4460SOL    HW214280   2.062   2.824   5.983
 4461SOL     OW14281   1.541   0.100   1.047
 4461SOL    HW114282   1.525   0.032   0.976
 4461SOL    HW214283   1.461   0.159   1.057
 4462SOL     OW14284   5.722   5.199   1.682
 4462SOL    HW114285   5.774   5.179   1.765
 4462SOL    HW214286   5.669   5.283   1.696
 4463SOL     OW14287   4.925   1.341   0.948
 4463SOL    HW114288   5.008   1.377   0.991
 4463SOL    HW214289   4.896   1.403   0.875
 4464SOL     OW14290   0.500   5.412   0.578
 4464SOL    HW114291   0.443   5.416   0.496
 4464SOL    HW214292   0.463   5.344   0.641
 4465SOL     OW14293   3.465   5.720   1.661
 4465SOL    HW114294   3.374   5.679   1.654
 4465SOL    HW214295   3.484   5.745   1.756
 4466SOL     OW14296   1.435   1.785   3.551
 4466SOL    HW114297   1.337   1.804   3.541
 4466SOL    HW214298   1.453   1.689   3.528
 4467SOL     OW14299   1.889   5.698   2.728
 4467SOL    HW114300   1.982   5.682   2.761
 4467SOL    HW214301   1.827   5.629   2.766
 4468SOL     OW14302   1.755   3.899   0.337
 4468SOL    HW114303   1.749   3.809   0.381
 4468SOL    HW214304   1.669   3.947   0.347
 4469SOL     OW14305   3.273   0.446   1.616
 4469SOL    HW114306   3.207   0.516   1.644
 4469SOL    HW214307   3.364   0.486   1.611
 4470SOL     OW14308   6.807   2.497   2.266
 4470SOL    HW114309   6.766   2.584   2.291
 4470SOL    HW214310   6.814   2.438   2.347
 4471SOL     OW14311   0.606   2.225   6.498
 4471SOL    HW114312   0.574   2.317   6.472
 4471SOL    HW214313   0.644   2.180   6.417
 4472SOL     OW14314   1.192   3.440   1.818
 4472SOL    HW114315   1.106   3.482   1.788
 4472SOL    HW214316   1.172   3.356   1.868
 4473SOL     OW14317   5.735   2.821   4.428
 4473SOL    HW114318   5.653   2.829   4.485
 4473SOL    HW214319   5.769   2.912   4.406
 4474SOL     OW14320   1.898   0.719   2.409
 4474SOL    HW114321   1.936   0.807   2.439
 4474SOL    HW214322   1.951   0.685   2.332
 4475SOL     OW14323   1.443   4.220   2.358
 4475SOL    HW114324   1.495   4.305   2.357
 4475SOL    HW214325   1.385   4.217   2.439
 4476SOL     OW14326   5.032   0.050   3.203
 4476SOL    HW114327   5.003   0.053   3.298
 4476SOL    HW214328   4.996   6.993   3.160
 4477SOL     OW14329   2.051   6.869   5.003
 4477SOL    HW114330   1.955   6.889   5.021
 4477SOL    HW214331   2.073   6.779   5.039
 4478SOL     OW14332   3.484   0.178   2.952
 4478SOL    HW114333   3.568   0.136   2.917
 4478SOL    HW214334   3.417   0.184   2.878
 4479SOL     OW14335   0.714   1.442   0.834
 4479SOL    HW114336   0.644   1.428   0.904
 4479SOL    HW214337   0.670   1.474   0.750
 4480SOL     OW14338   1.157   4.364   5.142
 4480SOL    HW114339   1.177   4.453   5.185
 4480SOL    HW214340   1.241   4.328   5.101
 4481SOL     OW14341   3.662   5.778   4.909
 4481SOL    HW114342   3.738   5.811   4.853
 4481SOL    HW214343   3.697   5.719   4.981
 4482SOL     OW14344   1.559   3.078   4.916
 4482SOL    HW114345   1.595   3.004   4.972
 4482SOL    HW214346   1.634   3.139   4.890
 4483SOL     OW14347   5.736   2.674   2.287
 4483SOL    HW114348   5.811   2.693   2.224
 4483SOL    HW214349   5.654   2.650   2.235
 4484SOL     OW14350   3.052   2.150   6.037
 4484SOL    HW114351   3.107   2.100   5.970
 4484SOL    HW214352   3.042   2.094   6.120
 4485SOL     OW14353   5.401   1.940   4.540
 4485SOL    HW114354   5.447   1.864   4.496
 4485SOL    HW214355   5.425   2.025   4.494
 4486SOL     OW14356   5.658   4.907   5.305
 4486SOL    HW114357   5.628   4.812   5.296
 4486SOL    HW214358   5.756   4.910   5.323
 4487SOL     OW14359   2.733   2.772   6.557
 4487SOL    HW114360   2.657   2.709   6.575
 4487SOL    HW214361   2.697   2.864   6.544
 4488SOL     OW14362   0.605   3.413   5.776
 4488SOL    HW114363   0.574   3.493   5.828
 4488SOL    HW214364   0.584   3.426   5.679
 4489SOL     OW14365   5.632   5.505   5.173
 4489SOL    HW114366   5.600   5.486   5.080
 4489SOL    HW214367   5.553   5.518   5.233
 4490SOL     OW14368   6.090   2.498   1.760
 4490SOL    HW114369   6.165   2.445   1.800
 4490SOL    HW214370   6.044   2.550   1.831
 4491SOL     OW14371   6.654   3.064   3.801
 4491SOL    HW114372   6.744   3.105   3.810
 4491SOL    HW214373   6.585   3.128   3.836
 4492SOL     OW14374   5.958   4.954   1.646
 4492SOL    HW114375   6.014   5.023   1.598
 4492SOL    HW214376   5.871   4.943   1.598
 4493SOL     OW14377   4.806   5.129   4.759
 4493SOL    HW114378   4.831   5.042   4.803
 4493SOL    HW214379   4.822   5.204   4.823
 4494SOL     OW14380   0.400   0.901   6.707
 4494SOL    HW114381   0.311   0.947   6.714
 4494SOL    HW214382   0.461   0.956   6.650
 4495SOL     OW14383   3.714   6.201   4.521
 4495SOL    HW114384   3.657   6.123   4.495
 4495SOL    HW214385   3.723   6.263   4.443
 4496SOL     OW14386   5.820   6.549   1.142
 4496SOL    HW114387   5.870   6.625   1.182
 4496SOL    HW214388   5.729   6.578   1.114
 4497SOL     OW14389   5.329   1.956   6.471
 4497SOL    HW114390   5.319   2.002   6.559
 4497SOL    HW214391   5.354   1.860   6.486
 4498SOL     OW14392   0.180   3.189   0.106
 4498SOL    HW114393   0.133   3.230   0.028
 4498SOL    HW214394   0.220   3.101   0.080
 4499SOL     OW14395   5.576   3.927   3.979
 4499SOL    HW114396   5.647   3.890   3.920
 4499SOL    HW214397   5.609   4.011   4.023
 4500SOL     OW14398   3.120   3.202   4.711
 4500SOL    HW114399   3.113   3.103   4.722
 4500SOL    HW214400   3.213   3.232   4.735
 4501SOL     OW14401   6.778   3.432   3.269
 4501SOL    HW114402   6.792   3.333   3.268
 4501SOL    HW214403   6.681   3.451   3.285
 4502SOL     OW14404   0.285   2.964   6.603
 4502SOL    HW114405   0.189   2.992   6.597
 4502SOL    HW214406   0.314   2.966   6.699
 4503SOL     OW14407   3.358   6.996   1.630
 4503SOL    HW114408   3.433   0.035   1.614
 4503SOL    HW214409   3.392   6.903   1.622
 4504SOL     OW14410   6.276   1.216   4.758
 4504SOL    HW114411   6.308   1.259   4.674
 4504SOL    HW214412   6.326   1.131   4.774
 4505SOL     OW14413   5.988   5.268   1.823
 4505SOL    HW114414   6.076   5.227   1.800
 4505SOL    HW214415   5.977   5.271   1.923
 4506SOL     OW14416   4.797   2.906   3.375
 4506SOL    HW114417   4.896   2.893   3.375
 4506SOL    HW214418   4.756   2.854   3.449
 4507SOL     OW14419   5.926   4.617   3.079
 4507SOL    HW114420   5.888   4.628   3.171
 4507SOL    HW214421   5.908   4.699   3.026
 4508SOL     OW14422   1.825   5.501   0.200
 4508SOL    HW114423   1.873   5.470   0.117
 4508SOL    HW214424   1.739   5.544   0.174
 4509SOL     OW14425   4.532   2.288   2.236
 4509SOL    HW114426   4.460   2.222   2.216
 4509SOL    HW214427   4.530   2.362   2.168
 4510SOL     OW14428   3.943   1.629   4.353
 4510SOL    HW114429   4.039   1.619   4.327
 4510SOL    HW214430   3.915   1.724   4.344
 4511SOL     OW14431   5.474   3.772   6.875
 4511SOL    HW114432   5.427   3.813   6.954
 4511SOL    HW214433   5.559   3.823   6.858
 4512SOL     OW14434   2.828   1.486   5.470
 4512SOL    HW114435   2.817   1.574   5.424
 4512SOL    HW214436   2.917   1.483   5.514
 4513SOL     OW14437   0.599   4.701   6.690
 4513SOL    HW114438   0.620   4.675   6.784
 4513SOL    HW214439   0.590   4.801   6.685
 4514SOL     OW14440   3.857   2.179   6.245
 4514SOL    HW114441   3.835   2.225   6.159
 4514SOL    HW214442   3.948   2.138   6.240
 4515SOL     OW14443   0.113   1.892   5.493
 4515SOL    HW114444   0.058   1.862   5.571
 4515SOL    HW214445   0.184   1.824   5.474
 4516SOL     OW14446   2.116   0.074   0.669
 4516SOL    HW114447   2.139   0.023   0.587
 4516SOL    HW214448   2.025   0.048   0.701
 4517SOL     OW14449   4.274   0.952   6.675
 4517SOL    HW114450   4.373   0.969   6.678
 4517SOL    HW214451   4.226   1.039   6.658
 4518SOL     OW14452   0.122   0.226   2.295
 4518SOL    HW114453   0.140   0.307   2.350
 4518SOL    HW214454   0.128   0.249   2.198
 4519SOL     OW14455   6.953   6.835   1.539
 4519SOL    HW114456   6.892   6.828   1.460
 4519SOL    HW214457   6.962   6.745   1.582
 4520SOL     OW14458   4.384   6.474   5.003
 4520SOL    HW114459   4.420   6.390   5.045
 4520SOL    HW214460   4.404   6.473   4.905
 4521SOL     OW14461   6.529   1.996   4.857
 4521SOL    HW114462   6.496   1.927   4.921
 4521SOL    HW214463   6.505   2.087   4.891
 4522SOL     OW14464   5.469   5.451   3.472
 4522SOL    HW114465   5.397   5.418   3.410
 4522SOL    HW214466   5.523   5.521   3.425
 4523SOL     OW14467   0.990   4.506   0.308
 4523SOL    HW114468   1.013   4.521   0.211
 4523SOL    HW214469   0.989   4.593   0.356
 4524SOL     OW14470   6.265   2.574   2.052
 4524SOL    HW114471   6.345   2.534   2.006
 4524SOL    HW214472   6.291   2.602   2.144
 4525SOL     OW14473   4.692   2.321   5.689
 4525SOL    HW114474   4.790   2.303   5.703
 4525SOL    HW214475   4.639   2.243   5.719
 4526SOL     OW14476   0.009   0.184   0.013
 4526SOL    HW114477   6.978   0.196   6.958
 4526SOL    HW214478   0.085   0.249   0.010
 4527SOL     OW14479   6.056   1.337   3.873
 4527SOL    HW114480   6.045   1.252   3.925
 4527SOL    HW214481   5.967   1.367   3.839
 4528SOL     OW14482   4.613   0.411   0.092
 4528SOL    HW114483   4.621   0.497   0.144
 4528SOL    HW214484   4.698   0.359   0.101
 4529SOL     OW14485   1.907   0.428   4.847
 4529SOL    HW114486   1.809   0.428   4.867
 4529SOL    HW214487   1.940   0.334   4.843
 4530SOL     OW14488   1.635   5.001   4.013
 4530SOL    HW114489   1.660   5.098   4.013
 4530SOL    HW214490   1.556   4.987   3.955
 4531SOL     OW14491   0.672   2.695   5.280
 4531SOL    HW114492   0.715   2.624   5.224
 4531SOL    HW214493   0.742   2.758   5.314
 4532SOL     OW14494   6.772   1.253   2.413
 4532SOL    HW114495   6.770   1.171   2.470
 4532SOL    HW214496   6.729   1.329   2.462
 4533SOL     OW14497   1.255   1.726   1.940
 4533SOL    HW114498   1.331   1.775   1.982
 4533SOL    HW214499   1.229   1.772   1.855
 4534SOL     OW14500   4.665   4.257   4.854
 4534SOL    HW114501   4.702   4.170   4.887
 4534SOL    HW214502   4.567   4.261   4.873
 4535SOL     OW14503   3.443   0.945   2.817
 4535SOL    HW114504   3.387   0.942   2.735
 4535SOL    HW214505   3.475   1.039   2.833
 4536SOL     OW14506   4.182   1.645   4.550
 4536SOL    HW114507   4.167   1.725   4.609
 4536SOL    HW214508   4.279   1.638   4.529
 4537SOL     OW14509   4.251   3.441   0.108
 4537SOL    HW114510   4.201   3.387   0.176
 4537SOL    HW214511   4.222   3.414   0.016
 4538SOL     OW14512   1.756   0.202   2.929
 4538SOL    HW114513   1.756   0.260   2.847
 4538SOL    HW214514   1.840   0.148   2.931
 4539SOL     OW14515   3.238   6.233   4.872
 4539SOL    HW114516   3.318   6.254   4.928
 4539SOL    HW214517   3.209   6.315   4.823
 4540SOL     OW14518   2.447   2.308   6.547
 4540SOL    HW114519   2.435   2.304   6.646
 4540SOL    HW214520   2.381   2.372   6.508
 4541SOL     OW14521   5.991   1.605   0.030
 4541SOL    HW114522   6.052   1.586   6.979
 4541SOL    HW214523   5.897   1.585   0.004
 4542SOL     OW14524   0.048   1.750   1.620
 4542SOL    HW114525   0.108   1.814   1.668
 4542SOL    HW214526   6.997   1.726   1.679
 4543SOL     OW14527   4.546   2.039   1.539
 4543SOL    HW114528   4.510   2.101   1.609
 4543SOL    HW214529   4.645   2.046   1.536
 4544SOL     OW14530   3.528   5.776   6.593
 4544SOL    HW114531   3.514   5.737   6.683
 4544SOL    HW214532   3.595   5.720   6.542
 4545SOL     OW14533   5.689   3.335   4.516
 4545SOL    HW114534   5.708   3.351   4.613
 4545SOL    HW214535   5.591   3.319   4.503
 4546SOL     OW14536   1.396   1.270   4.823
 4546SOL    HW114537   1.363   1.297   4.913
 4546SOL    HW214538   1.388   1.346   4.759
 4547SOL     OW14539   6.577   2.112   1.142
 4547SOL    HW114540   6.533   2.050   1.077
 4547SOL    HW214541   6.507   2.158   1.196
 4548SOL     OW14542   1.355   3.382   3.895
 4548SOL    HW114543   1.336   3.474   3.859
 4548SOL    HW214544   1.450   3.377   3.924
 4549SOL     OW14545   6.646   4.584   1.750
 4549SOL    HW114546   6.695   4.519   1.809
 4549SOL    HW214547   6.641   4.548   1.657
 4550SOL     OW14548   0.839   5.392   3.381
 4550SOL    HW114549   0.835   5.293   3.389
 4550SOL    HW214550   0.804   5.434   3.464
 4551SOL     OW14551   0.029   3.182   4.869
 4551SOL    HW114552   6.956   3.178   4.851
 4551SOL    HW214553   0.072   3.097   4.839
 4552SOL     OW14554   6.829   2.701   1.648
 4552SOL    HW114555   6.883   2.667   1.725
 4552SOL    HW214556   6.788   2.788   1.672
 4553SOL     OW14557   3.920   4.298   6.747
 4553SOL    HW114558   3.901   4.251   6.833
 4553SOL    HW214559   3.834   4.316   6.699
 4554SOL     OW14560   6.272   6.803   1.320
 4554SOL    HW114561   6.198   6.772   1.381
 4554SOL    HW214562   6.298   6.728   1.259
 4555SOL     OW14563   2.669   2.124   5.204
 4555SOL    HW114564   2.606   2.070   5.260
 4555SOL    HW214565   2.763   2.094   5.221
 4556SOL     OW14566   5.460   3.228   4.283
 4556SOL    HW114567   5.439   3.212   4.379
 4556SOL    HW214568   5.406   3.167   4.226
 4557SOL     OW14569   5.003   6.390   5.271
 4557SOL    HW114570   4.964   6.426   5.356
 4557SOL    HW214571   4.936   6.332   5.226
 4558SOL     OW14572   6.896   4.333   5.061
 4558SOL    HW114573   6.841   4.334   5.145
 4558SOL    HW214574   6.838   4.359   4.984
 4559SOL     OW14575   0.469   3.502   1.953
 4559SOL    HW114576   0.438   3.576   2.014
 4559SOL    HW214577   0.446   3.414   1.994
 4560SOL     OW14578   5.375   4.130   1.675
 4560SOL    HW114579   5.472   4.106   1.677
 4560SOL    HW214580   5.340   4.118   1.582
 4561SOL     OW14581   2.555   2.125   2.802
 4561SOL    HW114582   2.603   2.050   2.847
 4561SOL    HW214583   2.458   2.102   2.790
 4562SOL     OW14584   2.135   6.509   6.001
 4562SOL    HW114585   2.176   6.599   5.982
 4562SOL    HW214586   2.186   6.465   6.075
 4563SOL     OW14587   0.301   2.898   0.668
 4563SOL    HW114588   0.385   2.914   0.721
 4563SOL    HW214589   0.316   2.821   0.606
 4564SOL     OW14590   6.763   5.746   2.019
 4564SOL    HW114591   6.857   5.717   2.037
 4564SOL    HW214592   6.762   5.813   1.945
 4565SOL     OW14593   0.800   1.053   5.050
 4565SOL    HW114594   0.888   1.007   5.056
 4565SOL    HW214595   0.760   1.060   5.141
 4566SOL     OW14596   6.685   2.698   0.025
 4566SOL    HW114597   6.717   2.692   0.120
 4566SOL    HW214598   6.587   2.677   0.021
 4567SOL     OW14599   6.227   1.324   5.976
 4567SOL    HW114600   6.185   1.235   5.990
 4567SOL    HW214601   6.173   1.376   5.910
 4568SOL     OW14602   1.919   3.110   6.126
 4568SOL    HW114603   1.854   3.186   6.125
 4568SOL    HW214604   1.963   3.105   6.215
 4569SOL     OW14605   1.876   1.748   2.965
 4569SOL    HW114606   1.945   1.767   2.895
 4569SOL    HW214607   1.790   1.721   2.921
 4570SOL     OW14608   0.095   6.718   2.415
 4570SOL    HW114609   0.140   6.776   2.483
 4570SOL    HW214610   7.024   6.708   2.439
 4571SOL     OW14611   4.356   4.296   6.312
 4571SOL    HW114612   4.435   4.270   6.368
 4571SOL    HW214613   4.324   4.387   6.340
 4572SOL     OW14614   2.312   0.260   6.535
 4572SOL    HW114615   2.359   0.320   6.600
 4572SOL    HW214616   2.309   0.167   6.572
 4573SOL     OW14617   6.528   0.169   0.679
 4573SOL    HW114618   6.525   0.190   0.581
 4573SOL    HW214619   6.438   0.186   0.719
 4574SOL     OW14620   5.713   3.582   0.590
 4574SOL    HW114621   5.727   3.655   0.524
 4574SOL    HW214622   5.778   3.591   0.666
 4575SOL     OW14623   5.709   1.087   5.904
 4575SOL    HW114624   5.625   1.069   5.853
 4575SOL    HW214625   5.760   1.161   5.859
 4576SOL     OW14626   2.895   6.088   5.554
 4576SOL    HW114627   2.890   5.988   5.562
 4576SOL    HW214628   2.817   6.129   5.602
 4577SOL     OW14629   1.033   2.256   4.465
 4577SOL    HW114630   0.962   2.185   4.457
 4577SOL    HW214631   1.066   2.279   4.373
 4578SOL     OW14632   0.999   2.771   5.130
 4578SOL    HW114633   1.082   2.760   5.185
 4578SOL    HW214634   0.920   2.783   5.191
 4579SOL     OW14635   3.701   0.645   3.419
 4579SOL    HW114636   3.668   0.552   3.403
 4579SOL    HW214637   3.630   0.699   3.463
 4580SOL     OW14638   5.531   4.513   0.679
 4580SOL    HW114639   5.595   4.482   0.609
 4580SOL    HW214640   5.491   4.434   0.726
 4581SOL     OW14641   2.165   5.312   2.657
 4581SOL    HW114642   2.164   5.407   2.626
 4581SOL    HW214643   2.230   5.302   2.732
 4582SOL     OW14644   4.623   0.368   4.944
 4582SOL    HW114645   4.540   0.321   4.914
 4582SOL    HW214646   4.617   0.465   4.918
 4583SOL     OW14647   2.657   2.508   6.820
 4583SOL    HW114648   2.632   2.565   6.742
 4583SOL    HW214649   2.751   2.527   6.848
 4584SOL     OW14650   0.557   4.304   5.660
 4584SOL    HW114651   0.509   4.290   5.747
 4584SOL    HW214652   0.588   4.399   5.654
 4585SOL     OW14653   2.469   5.807   3.351
 4585SOL    HW114654   2.498   5.759   3.434
 4585SOL    HW214655   2.395   5.871   3.373
 4586SOL     OW14656   3.869   4.515   0.729
 4586SOL    HW114657   3.921   4.601   0.735
 4586SOL    HW214658   3.867   4.472   0.819
 4587SOL     OW14659   3.585   3.868   3.521
 4587SOL    HW114660   3.550   3.961   3.517
 4587SOL    HW214661   3.639   3.856   3.604
 4588SOL     OW14662   2.451   3.642   5.520
 4588SOL    HW114663   2.500   3.563   5.484
 4588SOL    HW214664   2.492   3.669   5.608
 4589SOL     OW14665   6.268   1.110   2.089
 4589SOL    HW114666   6.292   1.094   1.993
 4589SOL    HW214667   6.300   1.033   2.144
 4590SOL     OW14668   4.612   5.503   0.832
 4590SOL    HW114669   4.518   5.496   0.865
 4590SOL    HW214670   4.615   5.474   0.736
 4591SOL     OW14671   1.436   0.144   4.375
 4591SOL    HW114672   1.399   0.162   4.466
 4591SOL    HW214673   1.466   0.229   4.333
 4592SOL     OW14674   2.335   1.664   2.604
 4592SOL    HW114675   2.378   1.658   2.694
 4592SOL    HW214676   2.395   1.623   2.535
 4593SOL     OW14677   5.115   5.589   2.571
 4593SOL    HW114678   5.051   5.517   2.545
 4593SOL    HW214679   5.201   5.548   2.601
 4594SOL     OW14680   2.582   1.268   2.841
 4594SOL    HW114681   2.612   1.227   2.927
 4594SOL    HW214682   2.489   1.303   2.852
 4595SOL     OW14683   4.552   3.323   5.610
 4595SOL    HW114684   4.603   3.387   5.667
 4595SOL    HW214685   4.536   3.239   5.661
 4596SOL     OW14686   6.170   0.487   2.181
 4596SOL    HW114687   6.233   0.488   2.103
 4596SOL    HW214688   6.200   0.554   2.249
 4597SOL     OW14689   4.002   5.362   6.455
 4597SOL    HW114690   4.081   5.414   6.486
 4597SOL    HW214691   3.923   5.384   6.511
 4598SOL     OW14692   1.575   5.995   0.217
 4598SOL    HW114693   1.552   5.915   0.161
 4598SOL    HW214694   1.558   5.975   0.313
 4599SOL     OW14695   1.646   4.929   0.292
 4599SOL    HW114696   1.745   4.942   0.295
 4599SOL    HW214697   1.602   4.992   0.357
 4600SOL     OW14698   1.353   5.607   5.761
 4600SOL    HW114699   1.253   5.612   5.768
 4600SOL    HW214700   1.383   5.515   5.785
 4601SOL     OW14701   2.077   1.369   5.053
 4601SOL    HW114702   1.984   1.350   5.020
 4601SOL    HW214703   2.102   1.301   5.122
 4602SOL     OW14704   2.886   6.479   1.019
 4602SOL    HW114705   2.966   6.440   1.064
 4602SOL    HW214706   2.805   6.425   1.042
 4603SOL     OW14707   3.610   6.303   0.517
 4603SOL    HW114708   3.525   6.260   0.487
 4603SOL    HW214709   3.605   6.322   0.615
 4604SOL     OW14710   4.228   0.287   6.952
 4604SOL    HW114711   4.166   0.209   6.951
 4604SOL    HW214712   4.268   0.296   0.018
 4605SOL     OW14713   1.814   6.517   2.460
 4605SOL    HW114714   1.857   6.443   2.409
 4605SOL    HW214715   1.845   6.514   2.555
 4606SOL     OW14716   0.785   6.713   2.447
 4606SOL    HW114717   0.834   6.688   2.363
 4606SOL    HW214718   0.795   6.640   2.514
 4607SOL     OW14719   1.891   3.374   1.793
 4607SOL    HW114720   1.976   3.325   1.810
 4607SOL    HW214721   1.882   3.391   1.694
 4608SOL     OW14722   0.506   5.806   3.440
 4608SOL    HW114723   0.564   5.814   3.358
 4608SOL    HW214724   0.564   5.797   3.521
 4609SOL     OW14725   4.574   5.250   6.572
 4609SOL    HW114726   4.673   5.241   6.568
 4609SOL    HW214727   4.534   5.165   6.607
 4610SOL     OW14728   5.079   1.997   0.436
 4610SOL    HW114729   5.000   2.057   0.435
 4610SOL    HW214730   5.050   1.902   0.448
 4611SOL     OW14731   0.600   6.187   6.315
 4611SOL    HW114732   0.652   6.138   6.245
 4611SOL    HW214733   0.557   6.268   6.276
 4612SOL     OW14734   1.285   6.252   0.507
 4612SOL    HW114735   1.278   6.350   0.488
 4612SOL    HW214736   1.316   6.204   0.425
 4613SOL     OW14737   1.706   5.493   2.018
 4613SOL    HW114738   1.631   5.427   2.028
 4613SOL    HW214739   1.793   5.445   2.023
 4614SOL     OW14740   6.334   3.154   2.779
 4614SOL    HW114741   6.352   3.057   2.766
 4614SOL    HW214742   6.389   3.189   2.855
 4615SOL     OW14743   1.971   0.702   6.796
 4615SOL    HW114744   2.053   0.677   6.849
 4615SOL    HW214745   1.999   0.737   6.707
 4616SOL     OW14746   6.019   1.151   4.839
 4616SOL    HW114747   5.954   1.135   4.764
 4616SOL    HW214748   6.105   1.184   4.801
 4617SOL     OW14749   0.854   2.209   2.282
 4617SOL    HW114750   0.919   2.178   2.352
 4617SOL    HW214751   0.808   2.292   2.314
 4618SOL     OW14752   2.317   2.794   5.230
 4618SOL    HW114753   2.397   2.735   5.236
 4618SOL    HW214754   2.346   2.887   5.207
 4619SOL     OW14755   3.427   6.361   3.476
 4619SOL    HW114756   3.327   6.374   3.473
 4619SOL    HW214757   3.451   6.310   3.558
 4620SOL     OW14758   2.524   4.669   0.766
 4620SOL    HW114759   2.553   4.724   0.844
 4620SOL    HW214760   2.458   4.600   0.796
 4621SOL     OW14761   4.858   0.478   2.558
 4621SOL    HW114762   4.810   0.393   2.578
 4621SOL    HW214763   4.792   0.553   2.550
 4622SOL     OW14764   3.299   4.741   0.489
 4622SOL    HW114765   3.338   4.663   0.537
 4622SOL    HW214766   3.200   4.745   0.506
 4623SOL     OW14767   5.675   6.093   1.113
 4623SOL    HW114768   5.698   6.080   1.210
 4623SOL    HW214769   5.748   6.146   1.069
 4624SOL     OW14770   3.677   6.995   2.848
 4624SOL    HW114771   3.663   6.900   2.873
 4624SOL    HW214772   3.773   7.009   2.821
 4625SOL     OW14773   1.740   4.838   1.364
 4625SOL    HW114774   1.732   4.934   1.391
 4625SOL    HW214775   1.692   4.781   1.431
 4626SOL     OW14776   5.639   4.133   2.372
 4626SOL    HW114777   5.628   4.177   2.462
 4626SOL    HW214778   5.688   4.195   2.311
 4627SOL     OW14779   2.073   4.670   5.065
 4627SOL    HW114780   2.100   4.576   5.045
 4627SOL    HW214781   2.045   4.716   4.980
 4628SOL     OW14782   5.041   4.320   4.197
 4628SOL    HW114783   5.075   4.391   4.259
 4628SOL    HW214784   5.117   4.266   4.162
 4629SOL     OW14785   2.701   4.936   5.307
 4629SOL    HW114786   2.759   4.902   5.380
 4629SOL    HW214787   2.653   4.860   5.263
 4630SOL     OW14788   2.688   6.105   2.243
 4630SOL    HW114789   2.684   6.195   2.287
 4630SOL    HW214790   2.713   6.116   2.147
 4631SOL     OW14791   1.582   5.970   3.615
 4631SOL    HW114792   1.615   5.982   3.708
 4631SOL    HW214793   1.587   6.058   3.567
 4632SOL     OW14794   2.889   4.813   2.681
 4632SOL    HW114795   2.815   4.767   2.732
 4632SOL    HW214796   2.972   4.815   2.737
 4633SOL     OW14797   5.865   0.642   5.194
 4633SOL    HW114798   5.790   0.612   5.136
 4633SOL    HW214799   5.852   0.608   5.287
 4634SOL     OW14800   2.896   4.108   5.679
 4634SOL    HW114801   2.862   4.189   5.632
 4634SOL    HW214802   2.818   4.051   5.707
 4635SOL     OW14803   5.213   3.556   1.630
 4635SOL    HW114804   5.174   3.502   1.704
 4635SOL    HW214805   5.220   3.652   1.658
 4636SOL     OW14806   1.843   4.407   0.065
 4636SOL    HW114807   1.773   4.388   0.134
 4636SOL    HW214808   1.813   4.369   7.003
 4637SOL     OW14809   0.902   6.484   1.413
 4637SOL    HW114810   0.868   6.544   1.341
 4637SOL    HW214811   0.943   6.538   1.486
 4638SOL     OW14812   4.324   4.492   6.986
 4638SOL    HW114813   4.328   4.590   7.007
 4638SOL    HW214814   4.416   4.454   6.989
 4639SOL     OW14815   3.262   3.426   6.210
 4639SOL    HW114816   3.218   3.502   6.164
 4639SOL    HW214817   3.294   3.455   6.300
 4640SOL     OW14818   4.866   3.940   3.814
 4640SOL    HW114819   4.857   3.853   3.764
 4640SOL    HW214820   4.906   3.922   3.904
 4641SOL     OW14821   2.181   0.512   4.748
 4641SOL    HW114822   2.093   0.480   4.784
 4641SOL    HW214823   2.198   0.468   4.660
 4642SOL     OW14824   0.981   6.724   3.705
 4642SOL    HW114825   1.028   6.728   3.794
 4642SOL    HW214826   0.888   6.759   3.715
 4643SOL     OW14827   6.854   2.116   0.780
 4643SOL    HW114828   6.832   2.208   0.745
 4643SOL    HW214829   6.950   2.113   0.808
 4644SOL     OW14830   0.608   5.318   5.398
 4644SOL    HW114831   0.652   5.236   5.435
 4644SOL    HW214832   0.666   5.357   5.327
 4645SOL     OW14833   0.655   0.213   4.104
 4645SOL    HW114834   0.613   0.138   4.053
 4645SOL    HW214835   0.725   0.257   4.048
 4646SOL     OW14836   2.368   5.576   3.645
 4646SOL    HW114837   2.330   5.636   3.716
 4646SOL    HW214838   2.466   5.567   3.658
 4647SOL     OW14839   1.992   0.049   3.196
 4647SOL    HW114840   1.976   0.147   3.208
 4647SOL    HW214841   2.037   0.032   3.108
 4648SOL     OW14842   3.400   0.814   3.036
 4648SOL    HW114843   3.499   0.810   3.048
 4648SOL    HW214844   3.380   0.853   2.946
 4649SOL     OW14845   5.024   0.748   0.050
 4649SOL    HW114846   5.073   0.689   0.115
 4649SOL    HW214847   4.960   0.694   7.022
 4650SOL     OW14848   4.884   5.401   2.881
 4650SOL    HW114849   4.942   5.456   2.941
 4650SOL    HW214850   4.920   5.308   2.875
 4651SOL     OW14851   6.176   3.416   0.082
 4651SOL    HW114852   6.101   3.364   0.040
 4651SOL    HW214853   6.255   3.356   0.092
 4652SOL     OW14854   5.939   6.270   4.216
 4652SOL    HW114855   6.017   6.220   4.253
 4652SOL    HW214856   5.877   6.296   4.290
 4653SOL     OW14857   4.961   5.652   1.052
 4653SOL    HW114858   4.886   5.588   1.036
 4653SOL    HW214859   5.048   5.609   1.029
 4654SOL     OW14860   0.503   6.719   0.161
 4654SOL    HW114861   0.570   6.647   0.182
 4654SOL    HW214862   0.429   6.680   0.106
 4655SOL     OW14863   6.071   4.038   0.991
 4655SOL    HW114864   6.010   4.072   0.920
 4655SOL    HW214865   6.072   4.101   1.068
 4656SOL     OW14866   1.269   0.398   1.881
 4656SOL    HW114867   1.241   0.494   1.874
 4656SOL    HW214868   1.190   0.343   1.909
 4657SOL     OW14869   4.183   5.656   1.481
 4657SOL    HW114870   4.124   5.729   1.516
 4657SOL    HW214871   4.191   5.584   1.551
 4658SOL     OW14872   3.577   0.833   3.611
 4658SOL    HW114873   3.492   0.814   3.660
 4658SOL    HW214874   3.611   0.923   3.636
 4659SOL     OW14875   3.380   4.135   5.617
 4659SOL    HW114876   3.433   4.050   5.617
 4659SOL    HW214877   3.307   4.129   5.549
 4660SOL     OW14878   0.962   4.922   5.491
 4660SOL    HW114879   0.934   4.869   5.571
 4660SOL    HW214880   0.882   4.940   5.433
 4661SOL     OW14881   3.175   4.587   6.214
 4661SOL    HW114882   3.272   4.587   6.240
 4661SOL    HW214883   3.165   4.551   6.121
 4662SOL     OW14884   3.068   6.912   5.219
 4662SOL    HW114885   3.118   6.964   5.150
 4662SOL    HW214886   2.975   6.894   5.187
 4663SOL     OW14887   0.295   1.371   1.226
 4663SOL    HW114888   0.300   1.386   1.325
 4663SOL    HW214889   0.202   1.391   1.194
 4664SOL     OW14890   1.714   1.032   0.968
 4664SOL    HW114891   1.681   0.939   0.953
 4664SOL    HW214892   1.742   1.072   0.881
 4665SOL     OW14893   3.374   6.312   6.649
 4665SOL    HW114894   3.334   6.230   6.691
 4665SOL    HW214895   3.308   6.387   6.654
 4666SOL     OW14896   2.100   2.489   0.149
 4666SOL    HW114897   2.016   2.543   0.162
 4666SOL    HW214898   2.090   2.401   0.196
 4667SOL     OW14899   6.739   3.808   2.035
 4667SOL    HW114900   6.667   3.862   2.079
 4667SOL    HW214901   6.828   3.838   2.068
 4668SOL     OW14902   4.630   2.122   3.417
 4668SOL    HW114903   4.555   2.059   3.440
 4668SOL    HW214904   4.595   2.197   3.361
 4669SOL     OW14905   4.985   6.146   6.958
 4669SOL    HW114906   4.942   6.210   7.022
 4669SOL    HW214907   4.916   6.115   6.892
 4670SOL     OW14908   1.950   2.653   5.636
 4670SOL    HW114909   1.991   2.562   5.632
 4670SOL    HW214910   1.853   2.645   5.661
 4671SOL     OW14911   6.938   3.020   0.044
 4671SOL    HW114912   6.946   3.059   0.136
 4671SOL    HW214913   6.847   3.036   0.009
 4672SOL     OW14914   2.537   4.794   5.534
 4672SOL    HW114915   2.597   4.716   5.552
 4672SOL    HW214916   2.467   4.767   5.468
 4673SOL     OW14917   4.785   6.959   2.276
 4673SOL    HW114918   4.737   0.009   2.322
 4673SOL    HW214919   4.857   6.925   2.336
 4674SOL     OW14920   5.184   0.643   6.117
 4674SOL    HW114921   5.120   0.572   6.089
 4674SOL    HW214922   5.186   0.648   6.217
 4675SOL     OW14923   2.519   1.525   6.714
 4675SOL    HW114924   2.546   1.464   6.789
 4675SOL    HW214925   2.472   1.473   6.643
 4676SOL     OW14926   6.495   6.507   4.068
 4676SOL    HW114927   6.515   6.551   4.155
 4676SOL    HW214928   6.551   6.549   3.996
 4677SOL     OW14929   2.387   1.378   6.527
 4677SOL    HW114930   2.295   1.352   6.554
 4677SOL    HW214931   2.416   1.324   6.448
 4678SOL     OW14932   2.027   4.367   2.936
 4678SOL    HW114933   2.030   4.269   2.951
 4678SOL    HW214934   2.072   4.414   3.013
 4679SOL     OW14935   3.625   1.298   0.095
 4679SOL    HW114936   3.600   1.289   0.192
 4679SOL    HW214937   3.568   1.368   0.053
 4680SOL     OW14938   2.557   1.356   0.615
 4680SOL    HW114939   2.532   1.289   0.546
 4680SOL    HW214940   2.503   1.439   0.602
 4681SOL     OW14941   4.930   6.064   6.165
 4681SOL    HW114942   4.850   6.020   6.205
 4681SOL    HW214943   5.011   6.007   6.181
 4682SOL     OW14944   4.282   4.383   5.690
 4682SOL    HW114945   4.239   4.315   5.632
 4682SOL    HW214946   4.379   4.389   5.668
 4683SOL     OW14947   4.082   4.765   2.692
 4683SOL    HW114948   4.114   4.813   2.610
 4683SOL    HW214949   3.984   4.777   2.702
 4684SOL     OW14950   6.545   2.049   5.593
 4684SOL    HW114951   6.487   2.009   5.664
 4684SOL    HW214952   6.612   1.981   5.563
 4685SOL     OW14953   0.586   6.148   5.411
 4685SOL    HW114954   0.598   6.221   5.479
 4685SOL    HW214955   0.601   6.185   5.319
 4686SOL     OW14956   4.586   4.981   0.415
 4686SOL    HW114957   4.606   4.885   0.400
 4686SOL    HW214958   4.522   5.014   0.345
 4687SOL     OW14959   6.538   4.225   5.074
 4687SOL    HW114960   6.475   4.206   4.999
 4687SOL    HW214961   6.608   4.153   5.077
 4688SOL     OW14962   6.323   3.856   4.957
 4688SOL    HW114963   6.258   3.854   5.033
 4688SOL    HW214964   6.334   3.950   4.926
 4689SOL     OW14965   6.135   0.356   0.263
 4689SOL    HW114966   6.109   0.312   0.349
 4689SOL    HW214967   6.091   0.445   0.255
 4690SOL     OW14968   1.152   0.739   0.110
 4690SOL    HW114969   1.083   0.673   0.136
 4690SOL    HW214970   1.236   0.691   0.083
 4691SOL     OW14971   2.953   4.786   2.150
 4691SOL    HW114972   2.899   4.734   2.083
 4691SOL    HW214973   2.938   4.748   2.241
 4692SOL     OW14974   5.995   5.526   1.915
 4692SOL    HW114975   5.968   5.456   1.849
 4692SOL    HW214976   5.915   5.557   1.966
 4693SOL     OW14977   1.229   1.026   3.206
 4693SOL    HW114978   1.152   1.059   3.260
 4693SOL    HW214979   1.195   0.968   3.132
 4694SOL     OW14980   2.190   0.020   0.359
 4694SOL    HW114981   2.183   0.090   0.287
 4694SOL    HW214982   2.215   6.958   0.318
 4695SOL     OW14983   2.094   3.632   1.719
 4695SOL    HW114984   2.191   3.618   1.736
 4695SOL    HW214985   2.052   3.677   1.798
 4696SOL     OW14986   0.140   4.100   6.538
 4696SOL    HW114987   0.188   4.179   6.575
 4696SOL    HW214988   0.181   4.073   6.451
 4697SOL     OW14989   2.465   3.091   0.770
 4697SOL    HW114990   2.478   3.005   0.720
 4697SOL    HW214991   2.449   3.165   0.705
 4698SOL     OW14992   4.714   5.958   3.431
 4698SOL    HW114993   4.657   5.988   3.354
 4698SOL    HW214994   4.656   5.929   3.507
 4699SOL     OW14995   1.666   6.775   1.883
 4699SOL    HW114996   1.712   6.835   1.818
 4699SOL    HW214997   1.662   6.820   1.972
 4700SOL     OW14998   6.785   1.528   2.645
 4700SOL    HW114999   6.752   1.527   2.739
 4700SOL    HW215000   6.775   1.620   2.607
 4701SOL     OW15001   2.259   2.143   0.056
 4701SOL    HW115002   2.319   2.087   0.113
 4701SOL    HW215003   2.284   2.133   6.985
 4702SOL     OW15004   5.584   4.734   6.710
 4702SOL    HW115005   5.623   4.816   6.750
 4702SOL    HW215006   5.563   4.750   6.613
 4703SOL     OW15007   0.941   1.721   1.793
 4703SOL    HW115008   0.938   1.750   1.889
 4703SOL    HW215009   0.968   1.625   1.789
 4704SOL     OW15010   1.348   6.869   0.040
 4704SOL    HW115011   1.379   6.887   0.133
 4704SOL    HW215012   1.263   6.920   0.023
 4705SOL     OW15013   3.172   3.290   2.249
 4705SOL    HW115014   3.237   3.364   2.269
 4705SOL    HW215015   3.098   3.292   2.316
 4706SOL     OW15016   3.940   6.901   6.445
 4706SOL    HW115017   3.870   6.833   6.468
 4706SOL    HW215018   3.963   6.954   6.527
 4707SOL     OW15019   2.105   6.032   1.361
 4707SOL    HW115020   2.064   6.023   1.452
 4707SOL    HW215021   2.123   5.941   1.324
 4708SOL     OW15022   1.264   2.042   6.291
 4708SOL    HW115023   1.308   2.072   6.206
 4708SOL    HW215024   1.329   2.051   6.366
 4709SOL     OW15025   4.577   5.842   5.938
 4709SOL    HW115026   4.576   5.925   5.882
 4709SOL    HW215027   4.545   5.764   5.884
 4710SOL     OW15028   3.948   1.090   5.272
 4710SOL    HW115029   3.906   1.118   5.359
 4710SOL    HW215030   3.960   1.170   5.213
 4711SOL     OW15031   5.585   0.822   1.569
 4711SOL    HW115032   5.655   0.812   1.639
 4711SOL    HW215033   5.524   0.897   1.594
 4712SOL     OW15034   3.043   4.439   0.214
 4712SOL    HW115035   2.946   4.450   0.235
 4712SOL    HW215036   3.095   4.436   0.299
 4713SOL     OW15037   3.507   3.109   0.648
 4713SOL    HW115038   3.553   3.083   0.733
 4713SOL    HW215039   3.531   3.044   0.576
 4714SOL     OW15040   1.313   2.477   6.936
 4714SOL    HW115041   1.270   2.475   6.846
 4714SOL    HW215042   1.277   2.403   6.993
 4715SOL     OW15043   6.740   2.747   2.369
 4715SOL    HW115044   6.649   2.751   2.411
 4715SOL    HW215045   6.807   2.724   2.439
 4716SOL     OW15046   4.503   6.128   6.207
 4716SOL    HW115047   4.555   6.163   6.285
 4716SOL    HW215048   4.550   6.049   6.168
 4717SOL     OW15049   0.497   6.854   3.639
 4717SOL    HW115050   0.428   6.797   3.595
 4717SOL    HW215051   0.485   6.949   3.612
 4718SOL     OW15052   5.602   2.691   0.853
 4718SOL    HW115053   5.553   2.721   0.934
 4718SOL    HW215054   5.541   2.633   0.797
 4719SOL     OW15055   5.453   3.070   2.153
 4719SOL    HW115056   5.478   3.155   2.200
 4719SOL    HW215057   5.354   3.058   2.157
 4720SOL     OW15058   2.236   5.629   6.094
 4720SOL    HW115059   2.276   5.579   6.018
 4720SOL    HW215060   2.186   5.709   6.060
 4721SOL     OW15061   6.580   2.484   1.659
 4721SOL    HW115062   6.676   2.460   1.671
 4721SOL    HW215063   6.572   2.583   1.645
 4722SOL     OW15064   0.972   6.071   6.697
 4722SOL    HW115065   0.950   6.005   6.768
 4722SOL    HW215066   0.897   6.075   6.631
 4723SOL     OW15067   1.926   4.174   6.254
 4723SOL    HW115068   1.937   4.150   6.350
 4723SOL    HW215069   2.007   4.146   6.203
 4724SOL     OW15070   5.504   6.284   2.928
 4724SOL    HW115071   5.431   6.340   2.967
 4724SOL    HW215072   5.490   6.276   2.829
 4725SOL     OW15073   6.198   6.026   2.744
 4725SOL    HW115074   6.211   6.062   2.836
 4725SOL    HW215075   6.264   5.953   2.727
 4726SOL     OW15076   1.448   2.388   6.101
 4726SOL    HW115077   1.427   2.295   6.072
 4726SOL    HW215078   1.424   2.399   6.198
 4727SOL     OW15079   1.016   6.276   0.574
 4727SOL    HW115080   1.023   6.213   0.651
 4727SOL    HW215081   1.098   6.267   0.516
 4728SOL     OW15082   5.269   0.696   1.714
 4728SOL    HW115083   5.336   0.770   1.725
 4728SOL    HW215084   5.290   0.623   1.779
 4729SOL     OW15085   2.747   1.364   1.187
 4729SOL    HW115086   2.832   1.314   1.169
 4729SOL    HW215087   2.669   1.310   1.157
 4730SOL     OW15088   3.428   5.857   4.844
 4730SOL    HW115089   3.408   5.926   4.913
 4730SOL    HW215090   3.518   5.817   4.862
 4731SOL     OW15091   4.352   0.001   6.576
 4731SOL    HW115092   4.440   7.015   6.622
 4731SOL    HW215093   4.359   6.993   6.482
 4732SOL     OW15094   0.982   3.393   5.877
 4732SOL    HW115095   0.945   3.422   5.966
 4732SOL    HW215096   0.975   3.293   5.870
 4733SOL     OW15097   1.478   4.444   4.005
 4733SOL    HW115098   1.569   4.485   4.000
 4733SOL    HW215099   1.465   4.380   3.930
 4734SOL     OW15100   4.811   2.311   0.627
 4734SOL    HW115101   4.897   2.359   0.646
 4734SOL    HW215102   4.748   2.325   0.704
 4735SOL     OW15103   0.408   5.458   4.785
 4735SOL    HW115104   0.371   5.406   4.862
 4735SOL    HW215105   0.447   5.394   4.718
 4736SOL     OW15106   0.176   2.375   6.628
 4736SOL    HW115107   0.271   2.347   6.640
 4736SOL    HW215108   0.125   2.355   6.713
 4737SOL     OW15109   2.128   4.624   2.679
 4737SOL    HW115110   2.119   4.641   2.581
 4737SOL    HW215111   2.054   4.563   2.709
 4738SOL     OW15112   0.197   6.493   3.262
 4738SOL    HW115113   0.202   6.399   3.295
 4738SOL    HW215114   0.172   6.493   3.165
 4739SOL     OW15115   4.297   6.352   3.074
 4739SOL    HW115116   4.345   6.416   3.014
 4739SOL    HW215117   4.310   6.259   3.042
 4740SOL     OW15118   1.493   1.119   1.085
 4740SOL    HW115119   1.586   1.094   1.057
 4740SOL    HW215120   1.437   1.036   1.090
 4741SOL     OW15121   3.837   3.554   1.390
 4741SOL    HW115122   3.787   3.609   1.323
 4741SOL    HW215123   3.839   3.459   1.359
 4742SOL     OW15124   3.169   6.807   5.462
 4742SOL    HW115125   3.165   6.708   5.451
 4742SOL    HW215126   3.116   6.851   5.390
 4743SOL     OW15127   1.764   3.798   3.094
 4743SOL    HW115128   1.825   3.721   3.107
 4743SOL    HW215129   1.669   3.766   3.089
 4744SOL     OW15130   1.781   4.503   0.654
 4744SOL    HW115131   1.789   4.477   0.750
 4744SOL    HW215132   1.809   4.426   0.597
 4745SOL     OW15133   2.986   3.328   5.868
 4745SOL    HW115134   2.918   3.320   5.941
 4745SOL    HW215135   3.035   3.415   5.879
 4746SOL     OW15136   5.242   6.143   3.089
 4746SOL    HW115137   5.164   6.119   3.147
 4746SOL    HW215138   5.315   6.181   3.146
 4747SOL     OW15139   1.594   3.637   0.090
 4747SOL    HW115140   1.519   3.678   0.038
 4747SOL    HW215141   1.675   3.631   0.032
 4748SOL     OW15142   2.402   5.894   1.316
 4748SOL    HW115143   2.377   5.806   1.275
 4748SOL    HW215144   2.379   5.968   1.252
 4749SOL     OW15145   2.331   6.228   5.839
 4749SOL    HW115146   2.279   6.166   5.898
 4749SOL    HW215147   2.341   6.187   5.748
 4750SOL     OW15148   0.016   4.148   4.724
 4750SOL    HW115149   0.077   4.113   4.795
 4750SOL    HW215150   6.948   4.118   4.742
 4751SOL     OW15151   4.371   2.091   2.673
 4751SOL    HW115152   4.397   2.183   2.702
 4751SOL    HW215153   4.275   2.075   2.696
 4752SOL     OW15154   4.137   1.194   6.688
 4752SOL    HW115155   4.060   1.148   6.734
 4752SOL    HW215156   4.185   1.252   6.754
 4753SOL     OW15157   6.653   0.210   4.437
 4753SOL    HW115158   6.693   0.301   4.429
 4753SOL    HW215159   6.717   0.142   4.400
 4754SOL     OW15160   5.551   4.319   4.619
 4754SOL    HW115161   5.595   4.391   4.672
 4754SOL    HW215162   5.530   4.352   4.527
 4755SOL     OW15163   3.261   0.667   0.057
 4755SOL    HW115164   3.240   0.686   6.987
 4755SOL    HW215165   3.266   0.754   0.107
 4756SOL     OW15166   5.847   2.665   6.153
 4756SOL    HW115167   5.823   2.577   6.112
 4756SOL    HW215168   5.765   2.722   6.160
 4757SOL     OW15169   2.635   1.771   1.638
 4757SOL    HW115170   2.561   1.835   1.616
 4757SOL    HW215171   2.723   1.817   1.624
 4758SOL     OW15172   1.577   6.884   3.153
 4758SOL    HW115173   1.674   6.902   3.172
 4758SOL    HW215174   1.559   6.787   3.163
 4759SOL     OW15175   6.980   4.807   5.767
 4759SOL    HW115176   0.018   4.851   5.703
 4759SOL    HW215177   6.887   4.837   5.748
 4760SOL     OW15178   2.436   1.978   0.174
 4760SOL    HW115179   2.512   2.013   0.120
 4760SOL    HW215180   2.408   1.889   0.140
 4761SOL     OW15181   1.236   6.192   1.012
 4761SOL    HW115182   1.176   6.271   1.010
 4761SOL    HW215183   1.281   6.182   0.923
 4762SOL     OW15184   1.817   5.158   1.893
 4762SOL    HW115185   1.806   5.123   1.801
 4762SOL    HW215186   1.777   5.250   1.899
 4763SOL     OW15187   6.156   0.709   2.534
 4763SOL    HW115188   6.174   0.656   2.617
 4763SOL    HW215189   6.081   0.773   2.550
 4764SOL     OW15190   4.934   3.844   5.109
 4764SOL    HW115191   4.985   3.834   5.194
 4764SOL    HW215192   4.885   3.758   5.090
 4765SOL     OW15193   3.930   0.604   5.270
 4765SOL    HW115194   3.927   0.637   5.364
 4765SOL    HW215195   3.958   0.508   5.269
 4766SOL     OW15196   5.602   5.702   3.682
 4766SOL    HW115197   5.562   5.611   3.697
 4766SOL    HW215198   5.628   5.742   3.769
 4767SOL     OW15199   2.851   5.093   5.105
 4767SOL    HW115200   2.835   5.033   5.183
 4767SOL    HW215201   2.864   5.187   5.137
 4768SOL     OW15202   4.384   1.998   6.382
 4768SOL    HW115203   4.396   1.975   6.285
 4768SOL    HW215204   4.466   1.972   6.433
 4769SOL     OW15205   4.909   5.891   0.104
 4769SOL    HW115206   4.985   5.904   0.041
 4769SOL    HW215207   4.852   5.974   0.106
 4770SOL     OW15208   6.586   1.610   4.697
 4770SOL    HW115209   6.486   1.602   4.696
 4770SOL    HW215210   6.612   1.703   4.671
 4771SOL     OW15211   3.149   6.258   5.482
 4771SOL    HW115212   3.071   6.199   5.503
 4771SOL    HW215213   3.180   6.303   5.566
 4772SOL     OW15214   3.900   4.869   0.531
 4772SOL    HW115215   3.927   4.965   0.538
 4772SOL    HW215216   3.962   4.813   0.586
 4773SOL     OW15217   6.947   5.233   5.251
 4773SOL    HW115218   6.862   5.183   5.267
 4773SOL    HW215219   6.991   5.252   5.339
 4774SOL     OW15220   1.677   3.493   1.035
 4774SOL    HW115221   1.746   3.565   1.031
 4774SOL    HW215222   1.675   3.444   0.948
 4775SOL     OW15223   5.322   6.505   3.059
 4775SOL    HW115224   5.274   6.447   3.124
 4775SOL    HW215225   5.270   6.589   3.044
 4776SOL     OW15226   1.002   0.054   5.757
 4776SOL    HW115227   0.918   0.021   5.714
 4776SOL    HW215228   0.995   0.044   5.856
 4777SOL     OW15229   1.210   5.036   1.440
 4777SOL    HW115230   1.227   4.997   1.530
 4777SOL    HW215231   1.213   5.136   1.446
 4778SOL     OW15232   6.797   3.332   3.827
 4778SOL    HW115233   6.797   3.368   3.734
 4778SOL    HW215234   6.803   3.408   3.892
 4779SOL     OW15235   5.255   0.164   2.898
 4779SOL    HW115236   5.167   0.180   2.942
 4779SOL    HW215237   5.316   0.241   2.918
 4780SOL     OW15238   6.071   2.226   7.013
 4780SOL    HW115239   6.153   2.271   0.024
 4780SOL    HW215240   6.039   2.276   6.933
 4781SOL     OW15241   2.506   5.786   3.062
 4781SOL    HW115242   2.572   5.800   3.135
 4781SOL    HW215243   2.417   5.761   3.101
 4782SOL     OW15244   6.229   5.614   6.544
 4782SOL    HW115245   6.321   5.620   6.505
 4782SOL    HW215246   6.178   5.697   6.522
 4783SOL     OW15247   4.720   3.613   0.209
 4783SOL    HW115248   4.669   3.530   0.233
 4783SOL    HW215249   4.808   3.587   0.171
 4784SOL     OW15250   6.298   2.503   6.731
 4784SOL    HW115251   6.360   2.444   6.784
 4784SOL    HW215252   6.352   2.569   6.678
 4785SOL     OW15253   0.646   6.255   3.342
 4785SOL    HW115254   0.601   6.342   3.318
 4785SOL    HW215255   0.599   6.180   3.296
 4786SOL     OW15256   2.690   0.137   0.815
 4786SOL    HW115257   2.592   0.136   0.833
 4786SOL    HW215258   2.717   0.227   0.781
 4787SOL     OW15259   4.142   1.239   2.994
 4787SOL    HW115260   4.062   1.195   3.035
 4787SOL    HW215261   4.188   1.294   3.063
 4788SOL     OW15262   6.509   6.432   6.936
 4788SOL    HW115263   6.412   6.448   6.950
 4788SOL    HW215264   6.562   6.505   6.979
 4789SOL     OW15265   5.840   1.562   2.135
 4789SOL    HW115266   5.885   1.551   2.223
 4789SOL    HW215267   5.884   1.637   2.085
 4790SOL     OW15268   5.313   1.784   5.636
 4790SOL    HW115269   5.365   1.853   5.688
 4790SOL    HW215270   5.376   1.733   5.577
 4791SOL     OW15271   0.606   2.941   1.311
 4791SOL    HW115272   0.545   2.883   1.257
 4791SOL    HW215273   0.698   2.901   1.311
 4792SOL     OW15274   2.657   4.652   3.556
 4792SOL    HW115275   2.704   4.677   3.640
 4792SOL    HW215276   2.570   4.607   3.579
 4793SOL     OW15277   1.931   2.895   5.458
 4793SOL    HW115278   1.902   2.972   5.402
 4793SOL    HW215279   1.984   2.929   5.536
 4794SOL     OW15280   5.676   6.781   4.831
 4794SOL    HW115281   5.735   6.827   4.897
 4794SOL    HW215282   5.660   6.687   4.861
 4795SOL     OW15283   6.150   2.326   4.044
 4795SOL    HW115284   6.064   2.322   4.094
 4795SOL    HW215285   6.175   2.234   4.013
 4796SOL     OW15286   4.138   0.899   4.970
 4796SOL    HW115287   4.090   0.953   4.901
 4796SOL    HW215288   4.152   0.954   5.052
 4797SOL     OW15289   0.592   6.833   5.365
 4797SOL    HW115290   0.575   6.930   5.382
 4797SOL    HW215291   0.544   6.779   5.434
 4798SOL     OW15292   0.482   4.280   5.400
 4798SOL    HW115293   0.503   4.281   5.497
 4798SOL    HW215294   0.564   4.256   5.348
 4799SOL     OW15295   3.851   1.868   0.945
 4799SOL    HW115296   3.844   1.769   0.958
 4799SOL    HW215297   3.887   1.887   0.854
 4800SOL     OW15298   2.288   2.581   6.975
 4800SOL    HW115299   2.254   2.537   0.033
 4800SOL    HW215300   2.213   2.626   6.928
 4801SOL     OW15301   3.252   2.942   6.921
 4801SOL    HW115302   3.153   2.949   6.910
 4801SOL    HW215303   3.286   3.023   6.968
 4802SOL     OW15304   0.241   6.502   2.265
 4802SOL    HW115305   0.273   6.557   2.188
 4802SOL    HW215306   0.147   6.526   2.288
 4803SOL     OW15307   0.074   4.383   6.864
 4803SOL    HW115308   0.151   4.319   6.863
 4803SOL    HW215309   0.008   4.355   6.935
 4804SOL     OW15310   6.888   6.275   1.586
 4804SOL    HW115311   6.961   6.215   1.551
 4804SOL    HW215312   6.803   6.255   1.538
 4805SOL     OW15313   5.840   0.922   2.319
 4805SOL    HW115314   5.807   0.948   2.410
 4805SOL    HW215315   5.854   1.004   2.264
 4806SOL     OW15316   1.550   4.465   2.337
 4806SOL    HW115317   1.523   4.555   2.369
 4806SOL    HW215318   1.609   4.474   2.257
 4807SOL     OW15319   0.301   4.659   0.146
 4807SOL    HW115320   0.390   4.612   0.147
 4807SOL    HW215321   0.228   4.593   0.165
 4808SOL     OW15322   4.632   5.687   0.239
 4808SOL    HW115323   4.677   5.651   0.320
 4808SOL    HW215324   4.694   5.680   0.160
 4809SOL     OW15325   3.358   4.835   0.764
 4809SOL    HW115326   3.388   4.740   0.776
 4809SOL    HW215327   3.317   4.845   0.673
 4810SOL     OW15328   1.389   4.072   2.879
 4810SOL    HW115329   1.296   4.043   2.901
 4810SOL    HW215330   1.432   4.112   2.960
 4811SOL     OW15331   3.134   4.039   2.038
 4811SOL    HW115332   3.075   4.080   1.968
 4811SOL    HW215333   3.080   3.974   2.093
 4812SOL     OW15334   0.534   6.284   2.573
 4812SOL    HW115335   0.530   6.381   2.597
 4812SOL    HW215336   0.627   6.261   2.543
 4813SOL     OW15337   5.418   1.355   6.495
 4813SOL    HW115338   5.384   1.282   6.553
 4813SOL    HW215339   5.509   1.383   6.525
 4814SOL     OW15340   0.253   3.323   0.861
 4814SOL    HW115341   0.208   3.307   0.773
 4814SOL    HW215342   0.184   3.324   0.934
 4815SOL     OW15343   5.345   3.968   2.688
 4815SOL    HW115344   5.386   3.899   2.747
 4815SOL    HW215345   5.416   4.033   2.658
 4816SOL     OW15346   2.160   4.843   1.167
 4816SOL    HW115347   2.168   4.861   1.069
 4816SOL    HW215348   2.093   4.771   1.182
 4817SOL     OW15349   2.478   1.644   0.225
 4817SOL    HW115350   2.578   1.642   0.226
 4817SOL    HW215351   2.442   1.600   0.307
 4818SOL     OW15352   0.143   0.582   4.508
 4818SOL    HW115353   0.107   0.619   4.422
 4818SOL    HW215354   0.215   0.641   4.542
 4819SOL     OW15355   2.444   2.203   1.476
 4819SOL    HW115356   2.542   2.202   1.495
 4819SOL    HW215357   2.424   2.272   1.406
 4820SOL     OW15358   6.673   2.475   1.222
 4820SOL    HW115359   6.695   2.513   1.132
 4820SOL    HW215360   6.697   2.378   1.224
 4821SOL     OW15361   0.752   6.854   1.817
 4821SOL    HW115362   0.755   6.856   1.717
 4821SOL    HW215363   0.831   6.902   1.854
 4822SOL     OW15364   1.802   3.426   4.181
 4822SOL    HW115365   1.784   3.390   4.272
 4822SOL    HW215366   1.847   3.515   4.189
 4823SOL     OW15367   0.972   0.676   4.058
 4823SOL    HW115368   1.069   0.649   4.050
 4823SOL    HW215369   0.923   0.605   4.109
 4824SOL     OW15370   5.496   2.000   4.219
 4824SOL    HW115371   5.412   2.052   4.236
 4824SOL    HW215372   5.472   1.906   4.193
 4825SOL     OW15373   2.134   1.964   4.828
 4825SOL    HW115374   2.055   1.990   4.884
 4825SOL    HW215375   2.218   1.995   4.873
 4826SOL     OW15376   0.436   1.089   6.475
 4826SOL    HW115377   0.388   1.176   6.489
 4826SOL    HW215378   0.531   1.107   6.451
 4827SOL     OW15379   6.235   2.006   1.575
 4827SOL    HW115380   6.177   1.993   1.494
 4827SOL    HW215381   6.184   1.978   1.657
 4828SOL     OW15382   5.556   3.277   1.217
 4828SOL    HW115383   5.535   3.284   1.315
 4828SOL    HW215384   5.517   3.356   1.169
 4829SOL     OW15385   3.980   6.447   7.012
 4829SOL    HW115386   4.026   6.517   6.958
 4829SOL    HW215387   4.049   6.388   0.030
 4830SOL     OW15388   4.386   6.492   3.531
 4830SOL    HW115389   4.354   6.543   3.451
 4830SOL    HW215390   4.473   6.532   3.562
 4831SOL     OW15391   0.324   4.893   6.408
 4831SOL    HW115392   0.371   4.953   6.343
 4831SOL    HW215393   0.366   4.802   6.406
 4832SOL     OW15394   3.389   3.104   5.583
 4832SOL    HW115395   3.325   3.155   5.526
 4832SOL    HW215396   3.344   3.023   5.620
 4833SOL     OW15397   5.031   2.156   3.210
 4833SOL    HW115398   4.933   2.173   3.215
 4833SOL    HW215399   5.047   2.064   3.174
 4834SOL     OW15400   4.237   6.826   1.045
 4834SOL    HW115401   4.265   6.845   1.139
 4834SOL    HW215402   4.233   6.727   1.031
 4835SOL     OW15403   6.935   1.280   6.120
 4835SOL    HW115404   6.881   1.352   6.162
 4835SOL    HW215405   6.987   1.232   6.191
 4836SOL     OW15406   4.822   3.104   4.173
 4836SOL    HW115407   4.754   3.097   4.246
 4836SOL    HW215408   4.913   3.115   4.213
 4837SOL     OW15409   6.087   4.454   1.852
 4837SOL    HW115410   6.057   4.549   1.856
 4837SOL    HW215411   6.010   4.393   1.869
 4838SOL     OW15412   0.624   4.572   0.905
 4838SOL    HW115413   0.647   4.583   0.808
 4838SOL    HW215414   0.551   4.636   0.929
 4839SOL     OW15415   1.652   2.505   5.988
 4839SOL    HW115416   1.677   2.588   6.038
 4839SOL    HW215417   1.576   2.459   6.035
 4840SOL     OW15418   0.410   5.815   5.900
 4840SOL    HW115419   0.425   5.846   5.994
 4840SOL    HW215420   0.394   5.716   5.899
 4841SOL     OW15421   3.264   6.047   1.737
 4841SOL    HW115422   3.200   6.122   1.749
 4841SOL    HW215423   3.216   5.960   1.749
 4842SOL     OW15424   3.537   5.116   2.346
 4842SOL    HW115425   3.451   5.142   2.391
 4842SOL    HW215426   3.517   5.073   2.258
 4843SOL     OW15427   6.076   3.239   0.591
 4843SOL    HW115428   6.162   3.201   0.555
 4843SOL    HW215429   6.001   3.176   0.571
 4844SOL     OW15430   6.401   3.130   5.790
 4844SOL    HW115431   6.472   3.196   5.816
 4844SOL    HW215432   6.389   3.131   5.691
 4845SOL     OW15433   5.790   5.255   5.186
 4845SOL    HW115434   5.713   5.197   5.160
 4845SOL    HW215435   5.758   5.350   5.196
 4846SOL     OW15436   0.239   2.486   3.734
 4846SOL    HW115437   0.252   2.396   3.775
 4846SOL    HW215438   0.244   2.478   3.635
 4847SOL     OW15439   2.763   1.118   6.270
 4847SOL    HW115440   2.702   1.186   6.228
 4847SOL    HW215441   2.814   1.161   6.345
 4848SOL     OW15442   1.568   0.791   4.007
 4848SOL    HW115443   1.500   0.849   4.051
 4848SOL    HW215444   1.598   0.832   3.921
 4849SOL     OW15445   1.385   6.632   6.916
 4849SOL    HW115446   1.342   6.699   6.976
 4849SOL    HW215447   1.320   6.606   6.844
 4850SOL     OW15448   4.338   1.625   2.445
 4850SOL    HW115449   4.373   1.570   2.369
 4850SOL    HW215450   4.386   1.712   2.448
 4851SOL     OW15451   4.190   5.962   6.010
 4851SOL    HW115452   4.270   5.965   5.951
 4851SOL    HW215453   4.115   5.914   5.964
 4852SOL     OW15454   1.154   6.440   5.097
 4852SOL    HW115455   1.126   6.473   5.187
 4852SOL    HW215456   1.251   6.458   5.084
 4853SOL     OW15457   2.951   1.060   3.408
 4853SOL    HW115458   2.875   1.122   3.427
 4853SOL    HW215459   3.032   1.113   3.383
 4854SOL     OW15460   4.591   0.277   1.870
 4854SOL    HW115461   4.629   0.245   1.957
 4854SOL    HW215462   4.609   0.209   1.798
 4855SOL     OW15463   6.047   2.578   2.496
 4855SOL    HW115464   6.012   2.485   2.508
 4855SOL    HW215465   6.147   2.575   2.485
 4856SOL     OW15466   1.815   3.856   2.568
 4856SOL    HW115467   1.792   3.893   2.658
 4856SOL    HW215468   1.733   3.814   2.528
 4857SOL     OW15469   2.252   2.144   5.138
 4857SOL    HW115470   2.334   2.145   5.082
 4857SOL    HW215471   2.204   2.231   5.129
 4858SOL     OW15472   0.648   0.544   4.329
 4858SOL    HW115473   0.659   0.542   4.428
 4858SOL    HW215474   0.576   0.480   4.302
 4859SOL     OW15475   6.865   0.827   4.795
 4859SOL    HW115476   6.945   0.801   4.848
 4859SOL    HW215477   6.864   0.778   4.708
 4860SOL     OW15478   4.312   4.811   1.544
 4860SOL    HW115479   4.349   4.841   1.632
 4860SOL    HW215480   4.368   4.848   1.470
 4861SOL     OW15481   5.168   4.707   0.027
 4861SOL    HW115482   5.107   4.688   6.975
 4861SOL    HW215483   5.261   4.680   0.003
 4862SOL     OW15484   2.479   4.745   4.377
 4862SOL    HW115485   2.403   4.806   4.354
 4862SOL    HW215486   2.458   4.653   4.346
 4863SOL     OW15487   6.178   4.008   1.407
 4863SOL    HW115488   6.265   3.978   1.368
 4863SOL    HW215489   6.116   3.929   1.414
 4864SOL     OW15490   4.127   1.293   2.726
 4864SOL    HW115491   4.034   1.260   2.710
 4864SOL    HW215492   4.147   1.290   2.824
 4865SOL     OW15493   1.988   0.296   4.563
 4865SOL    HW115494   1.896   0.263   4.539
 4865SOL    HW215495   2.022   0.245   4.642
 4866SOL     OW15496   6.255   2.644   1.577
 4866SOL    HW115497   6.350   2.662   1.602
 4866SOL    HW215498   6.210   2.592   1.649
 4867SOL     OW15499   3.519   5.362   2.054
 4867SOL    HW115500   3.542   5.459   2.050
 4867SOL    HW215501   3.602   5.307   2.046
 4868SOL     OW15502   6.282   5.114   2.954
 4868SOL    HW115503   6.184   5.108   2.968
 4868SOL    HW215504   6.319   5.022   2.936
 4869SOL     OW15505   1.428   1.280   1.284
 4869SOL    HW115506   1.353   1.224   1.319
 4869SOL    HW215507   1.473   1.232   1.209
 4870SOL     OW15508   0.154   5.593   1.748
 4870SOL    HW115509   0.084   5.653   1.710
 4870SOL    HW215510   0.199   5.637   1.825
 4871SOL     OW15511   1.447   1.189   3.741
 4871SOL    HW115512   1.518   1.133   3.699
 4871SOL    HW215513   1.470   1.205   3.837
 4872SOL     OW15514   6.148   6.454   3.574
 4872SOL    HW115515   6.206   6.406   3.508
 4872SOL    HW215516   6.091   6.521   3.526
 4873SOL     OW15517   6.675   5.699   3.004
 4873SOL    HW115518   6.626   5.779   3.036
 4873SOL    HW215519   6.771   5.704   3.032
 4874SOL     OW15520   6.387   3.480   3.024
 4874SOL    HW115521   6.383   3.382   3.003
 4874SOL    HW215522   6.427   3.493   3.115
 4875SOL     OW15523   6.225   2.414   1.396
 4875SOL    HW115524   6.240   2.508   1.427
 4875SOL    HW215525   6.197   2.415   1.300
 4876SOL     OW15526   5.941   1.808   3.823
 4876SOL    HW115527   5.935   1.815   3.723
 4876SOL    HW215528   6.037   1.808   3.850
 4877SOL     OW15529   1.462   2.034   6.479
 4877SOL    HW115530   1.528   2.080   6.419
 4877SOL    HW215531   1.498   2.032   6.573
 4878SOL     OW15532   6.186   1.558   2.736
 4878SOL    HW115533   6.099   1.605   2.720
 4878SOL    HW215534   6.180   1.464   2.701
 4879SOL     OW15535   3.990   7.000   2.846
 4879SOL    HW115536   3.970   6.914   2.799
 4879SOL    HW215537   4.077   0.010   2.814
 4880SOL     OW15538   5.121   3.165   0.661
 4880SOL    HW115539   5.116   3.084   0.603
 4880SOL    HW215540   5.206   3.163   0.714
 4881SOL     OW15541   1.881   0.564   0.237
 4881SOL    HW115542   1.805   0.625   0.218
 4881SOL    HW215543   1.910   0.520   0.152
 4882SOL     OW15544   5.131   1.273   5.036
 4882SOL    HW115545   5.071   1.308   5.109
 4882SOL    HW215546   5.206   1.221   5.077
 4883SOL     OW15547   4.928   4.980   1.892
 4883SOL    HW115548   5.026   4.959   1.904
 4883SOL    HW215549   4.918   5.062   1.837
 4884SOL     OW15550   2.499   6.577   1.344
 4884SOL    HW115551   2.570   6.631   1.300
 4884SOL    HW215552   2.434   6.638   1.389
 4885SOL     OW15553   2.596   5.234   1.978
 4885SOL    HW115554   2.594   5.141   2.014
 4885SOL    HW215555   2.539   5.293   2.035
 4886SOL     OW15556   0.796   5.420   1.490
 4886SOL    HW115557   0.769   5.505   1.535
 4886SOL    HW215558   0.850   5.364   1.553
 4887SOL     OW15559   0.927   0.019   2.497
 4887SOL    HW115560   0.983   0.091   2.538
 4887SOL    HW215561   0.830   0.043   2.505
 4888SOL     OW15562   2.572   0.085   3.652
 4888SOL    HW115563   2.514   0.005   3.669
 4888SOL    HW215564   2.576   0.103   3.553
 4889SOL     OW15565   6.746   1.481   5.774
 4889SOL    HW115566   6.676   1.464   5.844
 4889SOL    HW215567   6.834   1.447   5.806
 4890SOL     OW15568   0.519   1.133   6.996
 4890SOL    HW115569   0.595   1.092   6.945
 4890SOL    HW215570   0.555   1.185   0.049
 4891SOL     OW15571   1.638   4.464   6.737
 4891SOL    HW115572   1.688   4.378   6.750
 4891SOL    HW215573   1.696   4.531   6.691
 4892SOL     OW15574   3.472   6.342   1.380
 4892SOL    HW115575   3.546   6.277   1.362
 4892SOL    HW215576   3.402   6.333   1.309
 4893SOL     OW15577   6.893   3.126   1.822
 4893SOL    HW115578   6.857   3.113   1.914
 4893SOL    HW215579   6.889   3.223   1.798
 4894SOL     OW15580   2.261   1.311   3.585
 4894SOL    HW115581   2.174   1.317   3.536
 4894SOL    HW215582   2.282   1.215   3.604
 4895SOL     OW15583   0.872   4.690   3.992
 4895SOL    HW115584   0.967   4.706   3.967
 4895SOL    HW215585   0.868   4.641   4.080
 4896SOL     OW15586   1.944   4.866   1.871
 4896SOL    HW115587   1.908   4.892   1.961
 4896SOL    HW215588   1.895   4.917   1.800
 4897SOL     OW15589   2.111   3.742   5.741
 4897SOL    HW115590   2.109   3.804   5.819
 4897SOL    HW215591   2.169   3.780   5.669
 4898SOL     OW15592   4.203   0.731   4.317
 4898SOL    HW115593   4.140   0.656   4.333
 4898SOL    HW215594   4.285   0.718   4.373
 4899SOL     OW15595   5.724   5.811   3.111
 4899SOL    HW115596   5.688   5.899   3.081
 4899SOL    HW215597   5.759   5.760   3.031
 4900SOL     OW15598   3.091   6.449   4.759
 4900SOL    HW115599   3.057   6.500   4.839
 4900SOL    HW215600   3.079   6.505   4.677
 4901SOL     OW15601   3.252   0.615   5.205
 4901SOL    HW115602   3.297   0.704   5.200
 4901SOL    HW215603   3.234   0.593   5.301
 4902SOL     OW15604   2.061   1.831   4.465
 4902SOL    HW115605   1.981   1.816   4.523
 4902SOL    HW215606   2.117   1.903   4.503
 4903SOL     OW15607   3.907   5.708   6.947
 4903SOL    HW115608   3.997   5.751   6.942
 4903SOL    HW215609   3.917   5.613   6.976
 4904SOL     OW15610   1.996   7.007   4.086
 4904SOL    HW115611   1.928   0.051   4.112
 4904SOL    HW215612   2.088   0.017   4.105
 4905SOL     OW15613   3.810   6.753   2.724
 4905SOL    HW115614   3.900   6.712   2.720
 4905SOL    HW215615   3.740   6.681   2.723
 4906SOL     OW15616   5.075   2.392   6.310
 4906SOL    HW115617   5.148   2.346   6.260
 4906SOL    HW215618   5.114   2.469   6.362
 4907SOL     OW15619   4.443   5.510   2.121
 4907SOL    HW115620   4.455   5.502   2.220
 4907SOL    HW215621   4.410   5.423   2.084
 4908SOL     OW15622   5.366   5.296   0.043
 4908SOL    HW115623   5.399   5.230   0.110
 4908SOL    HW215624   5.416   5.382   0.053
 4909SOL     OW15625   6.845   0.087   4.241
 4909SOL    HW115626   6.803   0.161   4.189
 4909SOL    HW215627   6.944   0.101   4.244
 4910SOL     OW15628   5.831   0.573   4.824
 4910SOL    HW115629   5.765   0.579   4.899
 4910SOL    HW215630   5.818   0.651   4.762
 4911SOL     OW15631   1.500   4.034   3.992
 4911SOL    HW115632   1.440   4.050   4.070
 4911SOL    HW215633   1.531   3.939   3.992
 4912SOL     OW15634   5.063   1.299   6.441
 4912SOL    HW115635   5.045   1.372   6.375
 4912SOL    HW215636   5.102   1.338   6.524
 4913SOL     OW15637   3.586   2.736   5.296
 4913SOL    HW115638   3.488   2.717   5.285
 4913SOL    HW215639   3.625   2.670   5.360
 4914SOL     OW15640   3.513   0.527   4.656
 4914SOL    HW115641   3.508   0.575   4.743
 4914SOL    HW215642   3.525   0.429   4.673
 4915SOL     OW15643   3.724   6.564   5.924
 4915SOL    HW115644   3.817   6.586   5.894
 4915SOL    HW215645   3.722   6.560   6.024
 4916SOL     OW15646   1.171   0.015   3.725
 4916SOL    HW115647   1.142   0.109   3.743
 4916SOL    HW215648   1.168   6.988   3.811
 4917SOL     OW15649   2.572   5.300   1.109
 4917SOL    HW115650   2.569   5.363   1.031
 4917SOL    HW215651   2.562   5.206   1.077
 4918SOL     OW15652   4.960   5.373   2.598
 4918SOL    HW115653   4.932   5.387   2.693
 4918SOL    HW215654   4.901   5.305   2.555
 4919SOL     OW15655   2.472   3.110   0.361
 4919SOL    HW115656   2.403   3.041   0.339
 4919SOL    HW215657   2.554   3.066   0.397
 4920SOL     OW15658   6.090   0.966   4.390
 4920SOL    HW115659   6.189   0.977   4.384
 4920SOL    HW215660   6.069   0.879   4.435
 4921SOL     OW15661   1.123   5.105   0.526
 4921SOL    HW115662   1.068   5.159   0.462
 4921SOL    HW215663   1.063   5.063   0.594
 4922SOL     OW15664   2.771   2.327   4.973
 4922SOL    HW115665   2.779   2.281   5.062
 4922SOL    HW215666   2.854   2.311   4.919
 4923SOL     OW15667   4.120   2.022   2.774
 4923SOL    HW115668   4.053   2.072   2.719
 4923SOL    HW215669   4.077   1.987   2.857
 4924SOL     OW15670   3.073   1.033   4.922
 4924SOL    HW115671   3.076   1.049   4.824
 4924SOL    HW215672   2.978   1.029   4.953
 4925SOL     OW15673   6.949   0.036   2.350
 4925SOL    HW115674   6.995   0.113   2.306
 4925SOL    HW215675   6.853   0.034   2.322
 4926SOL     OW15676   4.971   1.075   0.826
 4926SOL    HW115677   4.947   0.990   0.872
 4926SOL    HW215678   4.937   1.152   0.880
 4927SOL     OW15679   3.580   3.844   4.445
 4927SOL    HW115680   3.640   3.925   4.448
 4927SOL    HW215681   3.636   3.762   4.454
 4928SOL     OW15682   1.847   6.849   6.628
 4928SOL    HW115683   1.758   6.806   6.642
 4928SOL    HW215684   1.919   6.789   6.664
 4929SOL     OW15685   0.529   5.638   4.078
 4929SOL    HW115686   0.585   5.716   4.105
 4929SOL    HW215687   0.436   5.669   4.058
 4930SOL     OW15688   5.203   1.147   3.040
 4930SOL    HW115689   5.160   1.213   2.979
 4930SOL    HW215690   5.133   1.089   3.081
 4931SOL     OW15691   0.318   6.642   0.525
 4931SOL    HW115692   0.233   6.590   0.534
 4931SOL    HW215693   0.365   6.646   0.613
 4932SOL     OW15694   2.896   3.141   1.638
 4932SOL    HW115695   2.918   3.129   1.735
 4932SOL    HW215696   2.969   3.191   1.593
 4933SOL     OW15697   2.337   0.337   3.088
 4933SOL    HW115698   2.341   0.266   3.158
 4933SOL    HW215699   2.372   0.423   3.126
 4934SOL     OW15700   3.133   6.039   2.017
 4934SOL    HW115701   3.155   5.959   2.072
 4934SOL    HW215702   3.097   6.010   1.928
 4935SOL     OW15703   2.202   1.650   6.215
 4935SOL    HW115704   2.273   1.642   6.285
 4935SOL    HW215705   2.206   1.571   6.154
 4936SOL     OW15706   2.424   4.315   1.912
 4936SOL    HW115707   2.472   4.392   1.871
 4936SOL    HW215708   2.490   4.252   1.952
 4937SOL     OW15709   6.524   2.877   5.828
 4937SOL    HW115710   6.594   2.881   5.756
 4937SOL    HW215711   6.479   2.967   5.835
 4938SOL     OW15712   2.603   5.376   5.799
 4938SOL    HW115713   2.617   5.398   5.702
 4938SOL    HW215714   2.690   5.349   5.840
 4939SOL     OW15715   6.246   2.187   4.699
 4939SOL    HW115716   6.343   2.167   4.686
 4939SOL    HW215717   6.194   2.101   4.695
 4940SOL     OW15718   7.011   1.171   4.842
 4940SOL    HW115719   6.918   1.143   4.863
 4940SOL    HW215720   0.022   1.228   4.915
 4941SOL     OW15721   5.396   2.686   5.484
 4941SOL    HW115722   5.356   2.631   5.411
 4941SOL    HW215723   5.413   2.629   5.564
 4942SOL     OW15724   5.192   2.871   6.082
 4942SOL    HW115725   5.174   2.782   6.124
 4942SOL    HW215726   5.106   2.917   6.062
 4943SOL     OW15727   4.334   3.771   0.010
 4943SOL    HW115728   4.399   3.708   6.993
 4943SOL    HW215729   4.382   3.830   0.075
 4944SOL     OW15730   2.084   4.615   1.885
 4944SOL    HW115731   2.142   4.608   1.966
 4944SOL    HW215732   2.045   4.707   1.879
 4945SOL     OW15733   1.065   0.103   4.373
 4945SOL    HW115734   1.049   0.193   4.413
 4945SOL    HW215735   1.154   0.102   4.328
 4946SOL     OW15736   1.315   4.699   6.999
 4946SOL    HW115737   1.261   4.741   0.047
 4946SOL    HW215738   1.405   4.675   0.008
 4947SOL     OW15739   2.172   0.906   1.118
 4947SOL    HW115740   2.264   0.924   1.155
 4947SOL    HW215741   2.131   0.993   1.088
 4948SOL     OW15742   1.172   2.354   2.468
 4948SOL    HW115743   1.162   2.452   2.452
 4948SOL    HW215744   1.112   2.326   2.543
 4949SOL     OW15745   5.028   6.383   6.042
 4949SOL    HW115746   4.968   6.382   6.122
 4949SOL    HW215747   5.017   6.298   5.990
 4950SOL     OW15748   2.613   6.073   4.040
 4950SOL    HW115749   2.587   6.138   4.112
 4950SOL    HW215750   2.699   6.029   4.064
 4951SOL     OW15751   5.650   1.776   4.910
 4951SOL    HW115752   5.713   1.809   4.980
 4951SOL    HW215753   5.662   1.678   4.898
 4952SOL     OW15754   0.285   0.746   6.155
 4952SOL    HW115755   0.283   0.801   6.238
 4952SOL    HW215756   0.191   0.724   6.127
 4953SOL     OW15757   2.423   6.019   2.598
 4953SOL    HW115758   2.493   6.060   2.656
 4953SOL    HW215759   2.429   6.058   2.506
 4954SOL     OW15760   3.903   3.108   6.931
 4954SOL    HW115761   3.979   3.173   6.925
 4954SOL    HW215762   3.868   3.107   7.025
 4955SOL     OW15763   2.842   6.135   6.597
 4955SOL    HW115764   2.826   6.124   6.695
 4955SOL    HW215765   2.939   6.156   6.581
 4956SOL     OW15766   2.218   6.616   5.041
 4956SOL    HW115767   2.293   6.681   5.046
 4956SOL    HW215768   2.202   6.576   5.132
 4957SOL     OW15769   6.751   2.127   1.907
 4957SOL    HW115770   6.757   2.124   1.807
 4957SOL    HW215771   6.762   2.035   1.943
 4958SOL     OW15772   7.020   5.237   5.503
 4958SOL    HW115773   6.961   5.295   5.558
 4958SOL    HW215774   0.082   5.222   5.551
 4959SOL     OW15775   6.343   1.391   6.951
 4959SOL    HW115776   6.430   1.347   6.930
 4959SOL    HW215777   6.342   1.421   0.021
 4960SOL     OW15778   3.557   4.907   3.716
 4960SOL    HW115779   3.654   4.885   3.703
 4960SOL    HW215780   3.540   4.927   3.812
 4961SOL     OW15781   4.709   1.333   5.934
 4961SOL    HW115782   4.693   1.431   5.943
 4961SOL    HW215783   4.797   1.309   5.975
 4962SOL     OW15784   6.679   1.796   0.415
 4962SOL    HW115785   6.738   1.877   0.413
 4962SOL    HW215786   6.687   1.746   0.329
 4963SOL     OW15787   6.266   5.940   6.821
 4963SOL    HW115788   6.193   5.872   6.812
 4963SOL    HW215789   6.248   5.999   6.899
 4964SOL     OW15790   2.696   0.070   4.001
 4964SOL    HW115791   2.747   0.004   3.946
 4964SOL    HW215792   2.718   0.163   3.970
 4965SOL     OW15793   6.941   0.654   3.009
 4965SOL    HW115794   6.955   0.746   2.971
 4965SOL    HW215795   6.851   0.620   2.981
 4966SOL     OW15796   2.073   0.120   5.109
 4966SOL    HW115797   1.999   0.160   5.163
 4966SOL    HW215798   2.058   0.022   5.098
 4967SOL     OW15799   4.051   4.784   6.555
 4967SOL    HW115800   3.977   4.723   6.528
 4967SOL    HW215801   4.086   4.832   6.474
 4968SOL     OW15802   6.475   2.460   3.775
 4968SOL    HW115803   6.386   2.500   3.796
 4968SOL    HW215804   6.463   2.383   3.713
 4969SOL     OW15805   2.402   0.333   2.617
 4969SOL    HW115806   2.449   0.258   2.571
 4969SOL    HW215807   2.308   0.339   2.584
 4970SOL     OW15808   1.744   2.453   3.432
 4970SOL    HW115809   1.807   2.505   3.374
 4970SOL    HW215810   1.706   2.376   3.379
 4971SOL     OW15811   6.418   6.246   4.047
 4971SOL    HW115812   6.414   6.243   3.947
 4971SOL    HW215813   6.439   6.339   4.078
 4972SOL     OW15814   2.071   3.290   0.302
 4972SOL    HW115815   2.126   3.290   0.218
 4972SOL    HW215816   2.014   3.209   0.305
 4973SOL     OW15817   1.511   0.504   2.454
 4973SOL    HW115818   1.598   0.482   2.410
 4973SOL    HW215819   1.447   0.540   2.386
 4974SOL     OW15820   5.727   4.875   1.184
 4974SOL    HW115821   5.727   4.785   1.140
 4974SOL    HW215822   5.650   4.881   1.248
 4975SOL     OW15823   5.791   4.483   5.658
 4975SOL    HW115824   5.739   4.430   5.592
 4975SOL    HW215825   5.831   4.421   5.726
 4976SOL     OW15826   2.442   0.340   4.034
 4976SOL    HW115827   2.540   0.336   4.014
 4976SOL    HW215828   2.420   0.277   4.108
 4977SOL     OW15829   3.791   4.353   0.521
 4977SOL    HW115830   3.796   4.408   0.438
 4977SOL    HW215831   3.817   4.409   0.600
 4978SOL     OW15832   0.004   4.433   4.710
 4978SOL    HW115833   6.937   4.464   4.688
 4978SOL    HW215834   0.009   4.334   4.696
 4979SOL     OW15835   0.406   0.366   5.888
 4979SOL    HW115836   0.397   0.269   5.864
 4979SOL    HW215837   0.367   0.381   5.979
 4980SOL     OW15838   4.911   6.164   3.419
 4980SOL    HW115839   4.846   6.091   3.437
 4980SOL    HW215840   4.873   6.227   3.351
 4981SOL     OW15841   5.050   6.441   6.456
 4981SOL    HW115842   4.985   6.484   6.518
 4981SOL    HW215843   5.128   6.502   6.441
 4982SOL     OW15844   2.462   1.628   6.070
 4982SOL    HW115845   2.450   1.654   6.165
 4982SOL    HW215846   2.396   1.676   6.013
 4983SOL     OW15847   5.769   2.507   4.523
 4983SOL    HW115848   5.869   2.519   4.520
 4983SOL    HW215849   5.747   2.429   4.581
 4984SOL     OW15850   5.909   4.432   3.696
 4984SOL    HW115851   5.935   4.378   3.616
 4984SOL    HW215852   5.979   4.422   3.766
 4985SOL     OW15853   6.254   6.307   3.368
 4985SOL    HW115854   6.309   6.299   3.285
 4985SOL    HW215855   6.165   6.264   3.353
 4986SOL     OW15856   5.977   4.088   2.143
 4986SOL    HW115857   5.922   4.013   2.105
 4986SOL    HW215858   5.917   4.157   2.182
 4987SOL     OW15859   1.267   0.906   1.086
 4987SOL    HW115860   1.258   0.812   1.051
 4987SOL    HW215861   1.202   0.965   1.040
 4988SOL     OW15862   5.420   0.762   3.571
 4988SOL    HW115863   5.384   0.676   3.535
 4988SOL    HW215864   5.344   0.824   3.590
 4989SOL     OW15865   5.527   0.166   1.684
 4989SOL    HW115866   5.434   0.130   1.673
 4989SOL    HW215867   5.557   0.151   1.778
 4990SOL     OW15868   2.058   1.798   5.106
 4990SOL    HW115869   2.081   1.750   5.022
 4990SOL    HW215870   2.016   1.886   5.084
 4991SOL     OW15871   6.619   4.274   4.540
 4991SOL    HW115872   6.607   4.268   4.639
 4991SOL    HW215873   6.699   4.220   4.513
 4992SOL     OW15874   4.999   0.752   4.704
 4992SOL    HW115875   4.971   0.734   4.610
 4992SOL    HW215876   5.063   0.829   4.705
 4993SOL     OW15877   3.384   5.054   4.188
 4993SOL    HW115878   3.303   5.090   4.235
 4993SOL    HW215879   3.452   5.024   4.255
 4994SOL     OW15880   2.323   0.033   2.731
 4994SOL    HW115881   2.401   0.068   2.679
 4994SOL    HW215882   2.323   6.959   2.728
 4995SOL     OW15883   0.065   2.881   5.850
 4995SOL    HW115884   6.991   2.874   5.846
 4995SOL    HW215885   0.100   2.912   5.762
 4996SOL     OW15886   1.523   1.266   2.632
 4996SOL    HW115887   1.539   1.308   2.722
 4996SOL    HW215888   1.429   1.234   2.627
 4997SOL     OW15889   5.573   1.929   3.132
 4997SOL    HW115890   5.534   1.974   3.213
 4997SOL    HW215891   5.641   1.862   3.161
 4998SOL     OW15892   2.067   4.051   5.357
 4998SOL    HW115893   2.091   3.955   5.373
 4998SOL    HW215894   2.128   4.089   5.288
 4999SOL     OW15895   6.322   4.688   1.148
 4999SOL    HW115896   6.300   4.747   1.070
 4999SOL    HW215897   6.367   4.743   1.219
 5000SOL     OW15898   2.926   6.637   3.915
 5000SOL    HW115899   2.842   6.606   3.958
 5000SOL    HW215900   2.922   6.736   3.902
 5001SOL     OW15901   0.793   4.218   0.616
 5001SOL    HW115902   0.779   4.122   0.640
 5001SOL    HW215903   0.872   4.254   0.667
 5002SOL     OW15904   1.264   3.229   3.551
 5002SOL    HW115905   1.354   3.269   3.567
 5002SOL    HW215906   1.246   3.227   3.452
 5003SOL     OW15907   2.419   6.559   2.887
 5003SOL    HW115908   2.504   6.580   2.936
 5003SOL    HW215909   2.424   6.466   2.850
 5004SOL     OW15910   3.143   4.903   5.868
 5004SOL    HW115911   3.177   4.872   5.957
 5004SOL    HW215912   3.096   4.990   5.878
 5005SOL     OW15913   3.273   2.599   0.244
 5005SOL    HW115914   3.177   2.626   0.255
 5005SOL    HW215915   3.282   2.501   0.259
 5006SOL     OW15916   4.981   6.880   0.121
 5006SOL    HW115917   4.970   6.934   0.037
 5006SOL    HW215918   4.947   6.933   0.198
 5007SOL     OW15919   1.541   0.120   6.911
 5007SOL    HW115920   1.560   0.031   6.869
 5007SOL    HW215921   1.449   0.119   6.950
 5008SOL     OW15922   6.125   6.940   3.085
 5008SOL    HW115923   6.206   6.882   3.091
 5008SOL    HW215924   6.125   7.005   3.161
 5009SOL     OW15925   1.849   6.028   1.100
 5009SOL    HW115926   1.917   6.001   1.168
 5009SOL    HW215927   1.874   6.117   1.061
 5010SOL     OW15928   3.537   3.251   2.949
 5010SOL    HW115929   3.528   3.232   2.852
 5010SOL    HW215930   3.494   3.178   3.002
 5011SOL     OW15931   1.761   4.046   2.778
 5011SOL    HW115932   1.766   4.091   2.866
 5011SOL    HW215933   1.682   4.080   2.727
 5012SOL     OW15934   4.931   4.165   6.426
 5012SOL    HW115935   4.958   4.069   6.436
 5012SOL    HW215936   4.997   4.224   6.473
 5013SOL     OW15937   4.639   1.752   6.915
 5013SOL    HW115938   4.684   1.668   6.948
 5013SOL    HW215939   4.702   1.829   6.923
 5014SOL     OW15940   5.184   4.194   0.895
 5014SOL    HW115941   5.132   4.184   0.810
 5014SOL    HW215942   5.210   4.103   0.928
 5015SOL     OW15943   4.688   2.179   3.883
 5015SOL    HW115944   4.734   2.091   3.898
 5015SOL    HW215945   4.727   2.223   3.801
 5016SOL     OW15946   2.515   2.443   0.559
 5016SOL    HW115947   2.477   2.449   0.652
 5016SOL    HW215948   2.442   2.422   0.494
 5017SOL     OW15949   1.734   1.816   6.813
 5017SOL    HW115950   1.731   1.878   6.892
 5017SOL    HW215951   1.683   1.856   6.737
 5018SOL     OW15952   0.437   4.189   2.123
 5018SOL    HW115953   0.430   4.117   2.055
 5018SOL    HW215954   0.533   4.218   2.132
 5019SOL     OW15955   1.464   4.785   6.506
 5019SOL    HW115956   1.422   4.701   6.474
 5019SOL    HW215957   1.470   4.850   6.430
 5020SOL     OW15958   4.725   6.756   6.024
 5020SOL    HW115959   4.645   6.802   6.063
 5020SOL    HW215960   4.775   6.819   5.965
 5021SOL     OW15961   1.280   2.030   5.744
 5021SOL    HW115962   1.283   2.124   5.710
 5021SOL    HW215963   1.188   2.010   5.779
 5022SOL     OW15964   1.631   0.427   0.491
 5022SOL    HW115965   1.607   0.521   0.465
 5022SOL    HW215966   1.615   0.366   0.413
 5023SOL     OW15967   6.379   2.832   0.839
 5023SOL    HW115968   6.433   2.882   0.907
 5023SOL    HW215969   6.284   2.830   0.869
 5024SOL     OW15970   6.019   5.816   2.779
 5024SOL    HW115971   6.091   5.884   2.790
 5024SOL    HW215972   6.037   5.761   2.697
 5025SOL     OW15973   3.826   1.692   2.233
 5025SOL    HW115974   3.913   1.644   2.221
 5025SOL    HW215975   3.844   1.784   2.267
 5026SOL     OW15976   6.060   6.354   6.436
 5026SOL    HW115977   6.117   6.435   6.426
 5026SOL    HW215978   5.997   6.367   6.512
 5027SOL     OW15979   0.939   6.594   2.236
 5027SOL    HW115980   0.918   6.498   2.253
 5027SOL    HW215981   0.933   6.613   2.138
 5028SOL     OW15982   0.348   6.625   3.516
 5028SOL    HW115983   0.298   6.587   3.438
 5028SOL    HW215984   0.388   6.550   3.569
 5029SOL     OW15985   0.207   3.285   3.487
 5029SOL    HW115986   0.262   3.327   3.415
 5029SOL    HW215987   0.126   3.341   3.505
 5030SOL     OW15988   6.375   0.825   6.062
 5030SOL    HW115989   6.382   0.909   6.117
 5030SOL    HW215990   6.434   0.755   6.102
 5031SOL     OW15991   5.958   0.357   4.730
 5031SOL    HW115992   5.917   0.275   4.771
 5031SOL    HW215993   5.927   0.438   4.780
 5032SOL     OW15994   1.373   3.427   0.819
 5032SOL    HW115995   1.351   3.486   0.897
 5032SOL    HW215996   1.404   3.338   0.852
 5033SOL     OW15997   2.554   5.759   6.654
 5033SOL    HW115998   2.634   5.743   6.596
 5033SOL    HW215999   2.481   5.697   6.629
 5034SOL     OW16000   6.137   1.313   3.125
 5034SOL    HW116001   6.062   1.255   3.093
 5034SOL    HW216002   6.190   1.265   3.195
 5035SOL     OW16003   6.969   4.265   0.508
 5035SOL    HW116004   6.976   4.220   0.596
 5035SOL    HW216005   6.913   4.210   0.446
 5036SOL     OW16006   0.426   4.869   6.897
 5036SOL    HW116007   0.468   4.815   6.970
 5036SOL    HW216008   0.483   4.948   6.877
 5037SOL     OW16009   5.637   2.681   2.545
 5037SOL    HW116010   5.608   2.586   2.558
 5037SOL    HW216011   5.691   2.689   2.461
 5038SOL     OW16012   2.051   3.905   5.966
 5038SOL    HW116013   1.961   3.888   6.004
 5038SOL    HW216014   2.074   4.002   5.977
 5039SOL     OW16015   3.047   3.533   5.514
 5039SOL    HW116016   3.055   3.527   5.614
 5039SOL    HW216017   2.997   3.453   5.480
 5040SOL     OW16018   1.873   4.777   6.386
 5040SOL    HW116019   1.818   4.772   6.302
 5040SOL    HW216020   1.823   4.827   6.456
 5041SOL     OW16021   1.934   2.152   1.359
 5041SOL    HW116022   1.990   2.084   1.406
 5041SOL    HW216023   1.915   2.121   1.266
 5042SOL     OW16024   5.945   3.319   0.889
 5042SOL    HW116025   5.997   3.283   0.812
 5042SOL    HW216026   5.965   3.266   0.971
 5043SOL     OW16027   2.700   1.071   5.848
 5043SOL    HW116028   2.690   0.973   5.863
 5043SOL    HW216029   2.636   1.100   5.777
 5044SOL     OW16030   6.551   6.263   2.345
 5044SOL    HW116031   6.527   6.256   2.248
 5044SOL    HW216032   6.498   6.196   2.397
 5045SOL     OW16033   5.629   3.175   0.228
 5045SOL    HW116034   5.678   3.179   0.315
 5045SOL    HW216035   5.678   3.114   0.165
 5046SOL     OW16036   3.586   4.164   4.298
 5046SOL    HW116037   3.665   4.122   4.253
 5046SOL    HW216038   3.582   4.134   4.393
 5047SOL     OW16039   0.194   3.263   2.506
 5047SOL    HW116040   0.148   3.326   2.569
 5047SOL    HW216041   0.193   3.302   2.414
 5048SOL     OW16042   0.692   1.222   1.679
 5048SOL    HW116043   0.672   1.238   1.776
 5048SOL    HW216044   0.790   1.201   1.669
 5049SOL     OW16045   6.101   2.054   4.426
 5049SOL    HW116046   6.184   2.023   4.379
 5049SOL    HW216047   6.050   1.975   4.459
 5050SOL     OW16048   1.096   1.159   1.903
 5050SOL    HW116049   1.180   1.105   1.905
 5050SOL    HW216050   1.118   1.256   1.895
 5051SOL     OW16051   4.278   3.354   0.432
 5051SOL    HW116052   4.325   3.439   0.408
 5051SOL    HW216053   4.205   3.337   0.365
 5052SOL     OW16054   2.780   5.378   6.011
 5052SOL    HW116055   2.690   5.415   6.032
 5052SOL    HW216056   2.828   5.441   5.949
 5053SOL     OW16057   2.018   3.876   3.900
 5053SOL    HW116058   1.946   3.908   3.838
 5053SOL    HW216059   1.986   3.879   3.994
 5054SOL     OW16060   3.813   5.515   5.370
 5054SOL    HW116061   3.790   5.418   5.373
 5054SOL    HW216062   3.898   5.527   5.320
 5055SOL     OW16063   1.242   6.950   5.707
 5055SOL    HW116064   1.311   7.022   5.717
 5055SOL    HW216065   1.154   6.984   5.740
 5056SOL     OW16066   6.390   3.947   0.415
 5056SOL    HW116067   6.448   3.946   0.334
 5056SOL    HW216068   6.445   3.922   0.495
 5057SOL     OW16069   0.465   5.073   4.894
 5057SOL    HW116070   0.518   5.145   4.849
 5057SOL    HW216071   0.421   5.110   4.975
 5058SOL     OW16072   2.525   3.368   5.491
 5058SOL    HW116073   2.616   3.343   5.521
 5058SOL    HW216074   2.474   3.286   5.465
 5059SOL     OW16075   5.348   3.204   3.625
 5059SOL    HW116076   5.381   3.269   3.693
 5059SOL    HW216077   5.393   3.116   3.638
 5060SOL     OW16078   0.553   2.603   5.522
 5060SOL    HW116079   0.609   2.628   5.443
 5060SOL    HW216080   0.459   2.632   5.507
 5061SOL     OW16081   3.084   3.152   3.536
 5061SOL    HW116082   3.164   3.098   3.509
 5061SOL    HW216083   3.030   3.100   3.603
 5062SOL     OW16084   5.922   1.102   3.086
 5062SOL    HW116085   5.963   1.061   3.168
 5062SOL    HW216086   5.926   1.036   3.011
 5063SOL     OW16087   1.450   6.768   2.197
 5063SOL    HW116088   1.400   6.783   2.112
 5063SOL    HW216089   1.396   6.708   2.257
 5064SOL     OW16090   4.535   4.281   1.622
 5064SOL    HW116091   4.527   4.279   1.722
 5064SOL    HW216092   4.507   4.371   1.588
 5065SOL     OW16093   1.077   1.997   3.285
 5065SOL    HW116094   1.084   1.927   3.214
 5065SOL    HW216095   1.147   2.066   3.270
 5066SOL     OW16096   3.753   4.416   1.246
 5066SOL    HW116097   3.735   4.323   1.215
 5066SOL    HW216098   3.701   4.480   1.189
 5067SOL     OW16099   2.763   1.173   2.489
 5067SOL    HW116100   2.705   1.139   2.563
 5067SOL    HW216101   2.811   1.096   2.447
 5068SOL     OW16102   3.128   4.859   0.199
 5068SOL    HW116103   3.166   4.795   0.266
 5068SOL    HW216104   3.168   4.950   0.214
 5069SOL     OW16105   1.739   2.130   5.871
 5069SOL    HW116106   1.807   2.122   5.798
 5069SOL    HW216107   1.785   2.148   5.958
 5070SOL     OW16108   5.083   4.998   4.412
 5070SOL    HW116109   5.049   4.932   4.479
 5070SOL    HW216110   5.015   5.009   4.339
 5071SOL     OW16111   3.766   2.175   3.675
 5071SOL    HW116112   3.832   2.216   3.737
 5071SOL    HW216113   3.742   2.084   3.707
 5072SOL     OW16114   1.241   1.137   1.456
 5072SOL    HW116115   1.299   1.129   1.538
 5072SOL    HW216116   1.178   1.060   1.453
 5073SOL     OW16117   1.330   4.319   0.951
 5073SOL    HW116118   1.373   4.291   0.865
 5073SOL    HW216119   1.269   4.247   0.983
 5074SOL     OW16120   3.103   2.034   2.044
 5074SOL    HW116121   3.014   2.039   1.998
 5074SOL    HW216122   3.093   2.063   2.139
 5075SOL     OW16123   1.412   2.291   6.656
 5075SOL    HW116124   1.498   2.336   6.681
 5075SOL    HW216125   1.409   2.200   6.698
 5076SOL     OW16126   5.415   0.001   1.021
 5076SOL    HW116127   5.479   6.986   0.956
 5076SOL    HW216128   5.460   0.018   1.108
 5077SOL     OW16129   1.648   4.372   5.683
 5077SOL    HW116130   1.722   4.428   5.720
 5077SOL    HW216131   1.669   4.275   5.697
 5078SOL     OW16132   0.492   0.750   4.003
 5078SOL    HW116133   0.570   0.756   3.940
 5078SOL    HW216134   0.467   0.655   4.016
 5079SOL     OW16135   2.385   2.757   4.871
 5079SOL    HW116136   2.368   2.853   4.896
 5079SOL    HW216137   2.452   2.718   4.935
 5080SOL     OW16138   6.296   6.318   5.848
 5080SOL    HW116139   6.336   6.330   5.757
 5080SOL    HW216140   6.332   6.234   5.888
 5081SOL     OW16141   2.413   4.272   5.944
 5081SOL    HW116142   2.502   4.305   5.914
 5081SOL    HW216143   2.375   4.210   5.874
 5082SOL     OW16144   4.871   6.610   1.176
 5082SOL    HW116145   4.947   6.578   1.232
 5082SOL    HW216146   4.891   6.704   1.145
 5083SOL     OW16147   2.768   0.453   2.852
 5083SOL    HW116148   2.778   0.473   2.754
 5083SOL    HW216149   2.687   0.396   2.866
 5084SOL     OW16150   0.888   4.913   3.704
 5084SOL    HW116151   0.830   4.938   3.782
 5084SOL    HW216152   0.968   4.863   3.737
 5085SOL     OW16153   6.587   2.705   5.397
 5085SOL    HW116154   6.492   2.715   5.366
 5085SOL    HW216155   6.615   2.788   5.445
 5086SOL     OW16156   1.660   5.091   3.140
 5086SOL    HW116157   1.596   5.024   3.178
 5086SOL    HW216158   1.653   5.091   3.040
 5087SOL     OW16159   1.046   5.489   2.076
 5087SOL    HW116160   1.094   5.574   2.055
 5087SOL    HW216161   0.966   5.508   2.133
 5088SOL     OW16162   6.153   6.791   3.820
 5088SOL    HW116163   6.108   6.832   3.740
 5088SOL    HW216164   6.088   6.734   3.869
 5089SOL     OW16165   6.185   4.595   3.453
 5089SOL    HW116166   6.282   4.596   3.478
 5089SOL    HW216167   6.172   4.647   3.368
 5090SOL     OW16168   1.609   3.201   2.387
 5090SOL    HW116169   1.550   3.121   2.377
 5090SOL    HW216170   1.681   3.198   2.318
 5091SOL     OW16171   0.132   1.346   1.536
 5091SOL    HW116172   0.036   1.361   1.512
 5091SOL    HW216173   0.141   1.259   1.584
 5092SOL     OW16174   3.185   3.409   3.453
 5092SOL    HW116175   3.123   3.479   3.487
 5092SOL    HW216176   3.149   3.318   3.476
 5093SOL     OW16177   3.050   1.151   0.636
 5093SOL    HW116178   3.005   1.239   0.621
 5093SOL    HW216179   3.144   1.166   0.667
 5094SOL     OW16180   2.408   5.399   6.547
 5094SOL    HW116181   2.380   5.305   6.529
 5094SOL    HW216182   2.416   5.449   6.461
 5095SOL     OW16183   6.802   2.441   2.835
 5095SOL    HW116184   6.723   2.395   2.794
 5095SOL    HW216185   6.886   2.405   2.795
 5096SOL     OW16186   4.740   4.737   6.407
 5096SOL    HW116187   4.818   4.778   6.361
 5096SOL    HW216188   4.657   4.754   6.354
 5097SOL     OW16189   0.945   0.233   6.402
 5097SOL    HW116190   1.030   0.198   6.361
 5097SOL    HW216191   0.927   0.182   6.486
 5098SOL     OW16192   2.922   0.682   1.971
 5098SOL    HW116193   2.852   0.621   1.934
 5098SOL    HW216194   2.941   0.658   2.066
 5099SOL     OW16195   0.499   7.006   1.044
 5099SOL    HW116196   0.587   6.959   1.047
 5099SOL    HW216197   0.427   6.941   1.023
 5100SOL     OW16198   3.070   5.417   4.263
 5100SOL    HW116199   2.978   5.401   4.297
 5100SOL    HW216200   3.082   5.514   4.243
 5101SOL     OW16201   3.971   6.841   6.061
 5101SOL    HW116202   3.884   6.798   6.084
 5101SOL    HW216203   3.994   6.909   6.131
 5102SOL     OW16204   5.461   6.001   4.260
 5102SOL    HW116205   5.535   5.970   4.320
 5102SOL    HW216206   5.435   6.094   4.285
 5103SOL     OW16207   0.073   1.089   4.307
 5103SOL    HW116208   0.067   1.189   4.309
 5103SOL    HW216209   0.122   1.058   4.388
 5104SOL     OW16210   1.923   6.037   2.262
 5104SOL    HW116211   1.851   6.101   2.235
 5104SOL    HW216212   1.970   6.073   2.343
 5105SOL     OW16213   2.712   2.433   0.070
 5105SOL    HW116214   2.672   2.449   7.006
 5105SOL    HW216215   2.736   2.521   0.112
 5106SOL     OW16216   4.327   1.679   0.606
 5106SOL    HW116217   4.393   1.720   0.543
 5106SOL    HW216218   4.275   1.751   0.652
 5107SOL     OW16219   4.290   2.384   1.560
 5107SOL    HW116220   4.382   2.358   1.589
 5107SOL    HW216221   4.243   2.304   1.521
 5108SOL     OW16222   3.992   3.950   5.143
 5108SOL    HW116223   4.037   3.874   5.097
 5108SOL    HW216224   3.965   4.019   5.076
 5109SOL     OW16225   0.803   2.084   6.641
 5109SOL    HW116226   0.779   1.988   6.654
 5109SOL    HW216227   0.729   2.131   6.592
 5110SOL     OW16228   0.703   0.218   6.238
 5110SOL    HW116229   0.791   0.219   6.285
 5110SOL    HW216230   0.698   0.294   6.173
 5111SOL     OW16231   1.094   0.546   4.750
 5111SOL    HW116232   1.073   0.616   4.682
 5111SOL    HW216233   1.021   0.544   4.819
 5112SOL     OW16234   1.516   0.037   2.930
 5112SOL    HW116235   1.594   0.095   2.908
 5112SOL    HW216236   1.544   6.992   2.994
 5113SOL     OW16237   1.990   6.214   0.958
 5113SOL    HW116238   2.009   6.310   0.978
 5113SOL    HW216239   2.069   6.158   0.983
 5114SOL     OW16240   3.973   0.238   6.775
 5114SOL    HW116241   4.030   0.176   6.721
 5114SOL    HW216242   3.996   0.332   6.754
 5115SOL     OW16243   1.048   5.087   3.292
 5115SOL    HW116244   1.105   5.102   3.372
 5115SOL    HW216245   1.091   5.128   3.212
 5116SOL     OW16246   0.981   6.403   6.858
 5116SOL    HW116247   0.890   6.369   6.836
 5116SOL    HW216248   1.040   6.325   6.882
 5117SOL     OW16249   1.571   4.205   4.303
 5117SOL    HW116250   1.514   4.176   4.227
 5117SOL    HW216251   1.667   4.186   4.281
 5118SOL     OW16252   5.492   0.788   6.964
 5118SOL    HW116253   5.462   0.767   0.031
 5118SOL    HW216254   5.415   0.777   6.901
 5119SOL     OW16255   5.382   0.628   2.861
 5119SOL    HW116256   5.451   0.560   2.889
 5119SOL    HW216257   5.292   0.586   2.862
 5120SOL     OW16258   4.335   0.147   4.317
 5120SOL    HW116259   4.405   0.199   4.367
 5120SOL    HW216260   4.372   0.058   4.291
 5121SOL     OW16261   2.976   2.965   6.880
 5121SOL    HW116262   2.967   3.039   6.813
 5121SOL    HW216263   2.898   2.902   6.871
 5122SOL     OW16264   3.623   6.254   3.336
 5122SOL    HW116265   3.645   6.307   3.254
 5122SOL    HW216266   3.554   6.303   3.390
 5123SOL     OW16267   4.111   2.232   4.116
 5123SOL    HW116268   4.038   2.293   4.085
 5123SOL    HW216269   4.074   2.139   4.125
 5124SOL     OW16270   2.257   5.622   4.548
 5124SOL    HW116271   2.191   5.676   4.494
 5124SOL    HW216272   2.350   5.647   4.522
 5125SOL     OW16273   6.207   3.919   3.916
 5125SOL    HW116274   6.163   3.957   3.835
 5125SOL    HW216275   6.148   3.931   3.995
 5126SOL     OW16276   6.238   5.281   5.718
 5126SOL    HW116277   6.227   5.371   5.676
 5126SOL    HW216278   6.243   5.211   5.646
 5127SOL     OW16279   0.619   3.792   0.410
 5127SOL    HW116280   0.550   3.726   0.439
 5127SOL    HW216281   0.709   3.749   0.411
 5128SOL     OW16282   0.102   0.414   6.302
 5128SOL    HW116283   0.081   0.509   6.283
 5128SOL    HW216284   0.020   0.368   6.337
 5129SOL     OW16285   6.511   0.152   2.642
 5129SOL    HW116286   6.540   0.136   2.736
 5129SOL    HW216287   6.534   0.072   2.586
 5130SOL     OW16288   0.240   5.514   3.729
 5130SOL    HW116289   0.276   5.605   3.747
 5130SOL    HW216290   0.298   5.446   3.774
 5131SOL     OW16291   2.248   5.124   4.105
 5131SOL    HW116292   2.345   5.137   4.086
 5131SOL    HW216293   2.197   5.206   4.078
 5132SOL     OW16294   3.643   2.870   0.085
 5132SOL    HW116295   3.626   2.825   7.023
 5132SOL    HW216296   3.596   2.958   0.087
 5133SOL     OW16297   2.339   5.453   0.095
 5133SOL    HW116298   2.265   5.501   0.142
 5133SOL    HW216299   2.317   5.355   0.092
 5134SOL     OW16300   0.533   3.450   3.067
 5134SOL    HW116301   0.616   3.480   3.018
 5134SOL    HW216302   0.470   3.409   3.003
 5135SOL     OW16303   5.838   3.096   4.716
 5135SOL    HW116304   5.894   3.171   4.681
 5135SOL    HW216305   5.871   3.010   4.679
 5136SOL     OW16306   4.315   0.828   5.785
 5136SOL    HW116307   4.378   0.786   5.851
 5136SOL    HW216308   4.302   0.766   5.708
 5137SOL     OW16309   5.183   3.178   5.404
 5137SOL    HW116310   5.109   3.118   5.436
 5137SOL    HW216311   5.148   3.237   5.331
 5138SOL     OW16312   3.102   2.945   5.208
 5138SOL    HW116313   3.014   2.951   5.255
 5138SOL    HW216314   3.174   2.983   5.266
 5139SOL     OW16315   1.115   0.489   3.139
 5139SOL    HW116316   1.144   0.578   3.105
 5139SOL    HW216317   1.194   0.436   3.168
 5140SOL     OW16318   4.287   2.682   0.020
 5140SOL    HW116319   4.281   2.583   0.034
 5140SOL    HW216320   4.203   2.725   0.054
 5141SOL     OW16321   7.019   3.400   0.682
 5141SOL    HW116322   0.017   3.434   0.592
 5141SOL    HW216323   7.008   3.476   0.745
 5142SOL     OW16324   5.866   0.263   3.554
 5142SOL    HW116325   5.880   0.213   3.469
 5142SOL    HW216326   5.812   0.346   3.536
 5143SOL     OW16327   6.639   4.449   3.556
 5143SOL    HW116328   6.610   4.355   3.536
 5143SOL    HW216329   6.722   4.469   3.504
 5144SOL     OW16330   0.400   4.609   6.394
 5144SOL    HW116331   0.491   4.570   6.386
 5144SOL    HW216332   0.365   4.595   6.487
 5145SOL     OW16333   2.864   4.867   5.519
 5145SOL    HW116334   2.961   4.889   5.531
 5145SOL    HW216335   2.820   4.861   5.609
 5146SOL     OW16336   3.569   4.343   5.637
 5146SOL    HW116337   3.640   4.335   5.708
 5146SOL    HW216338   3.514   4.260   5.636
 5147SOL     OW16339   6.811   5.085   2.812
 5147SOL    HW116340   6.871   5.054   2.737
 5147SOL    HW216341   6.785   5.006   2.868
 5148SOL     OW16342   6.693   6.200   1.400
 5148SOL    HW116343   6.750   6.119   1.389
 5148SOL    HW216344   6.717   6.267   1.329
 5149SOL     OW16345   6.121   5.747   3.090
 5149SOL    HW116346   6.205   5.750   3.035
 5149SOL    HW216347   6.092   5.839   3.112
 5150SOL     OW16348   2.199   5.544   3.151
 5150SOL    HW116349   2.159   5.454   3.133
 5150SOL    HW216350   2.252   5.541   3.235
 5151SOL     OW16351   6.169   2.262   1.119
 5151SOL    HW116352   6.156   2.209   1.035
 5151SOL    HW216353   6.119   2.218   1.193
 5152SOL     OW16354   2.606   4.665   0.042
 5152SOL    HW116355   2.658   4.699   6.989
 5152SOL    HW216356   2.573   4.742   0.096
 5153SOL     OW16357   1.925   0.269   0.302
 5153SOL    HW116358   2.015   0.268   0.259
 5153SOL    HW216359   1.889   0.363   0.304
 5154SOL     OW16360   0.857   3.106   6.212
 5154SOL    HW116361   0.917   3.185   6.222
 5154SOL    HW216362   0.762   3.133   6.229
 5155SOL     OW16363   4.369   6.747   2.133
 5155SOL    HW116364   4.278   6.786   2.145
 5155SOL    HW216365   4.403   6.713   2.221
 5156SOL     OW16366   5.602   3.554   6.018
 5156SOL    HW116367   5.551   3.471   5.995
 5156SOL    HW216368   5.698   3.542   5.992
 5157SOL     OW16369   3.854   2.075   3.442
 5157SOL    HW116370   3.834   2.134   3.520
 5157SOL    HW216371   3.947   2.038   3.451
 5158SOL     OW16372   3.532   1.251   1.945
 5158SOL    HW116373   3.453   1.225   2.001
 5158SOL    HW216374   3.535   1.351   1.936
 5159SOL     OW16375   6.937   3.777   4.157
 5159SOL    HW116376   7.000   3.732   4.094
 5159SOL    HW216377   6.989   3.836   4.219
 5160SOL     OW16378   6.932   5.189   3.066
 5160SOL    HW116379   6.894   5.155   2.980
 5160SOL    HW216380   6.872   5.163   3.141
 5161SOL     OW16381   1.435   3.601   5.713
 5161SOL    HW116382   1.490   3.638   5.788
 5161SOL    HW216383   1.363   3.542   5.750
 5162SOL     OW16384   0.967   5.234   2.970
 5162SOL    HW116385   1.008   5.303   3.029
 5162SOL    HW216386   0.995   5.248   2.875
 5163SOL     OW16387   3.547   6.420   0.123
 5163SOL    HW116388   3.538   6.343   0.059
 5163SOL    HW216389   3.460   6.436   0.168
 5164SOL     OW16390   4.191   2.428   0.084
 5164SOL    HW116391   4.175   2.338   0.126
 5164SOL    HW216392   4.105   2.461   0.044
 5165SOL     OW16393   6.017   4.702   6.352
 5165SOL    HW116394   6.073   4.656   6.421
 5165SOL    HW216395   6.077   4.749   6.287
 5166SOL     OW16396   0.664   5.659   2.693
 5166SOL    HW116397   0.609   5.576   2.700
 5166SOL    HW216398   0.760   5.635   2.678
 5167SOL     OW16399   6.538   6.388   6.163
 5167SOL    HW116400   6.550   6.383   6.262
 5167SOL    HW216401   6.618   6.348   6.118
 5168SOL     OW16402   5.698   4.071   2.029
 5168SOL    HW116403   5.607   4.108   2.008
 5168SOL    HW216404   5.689   3.981   2.071
 5169SOL     OW16405   3.818   1.628   4.601
 5169SOL    HW116406   3.885   1.656   4.531
 5169SOL    HW216407   3.764   1.707   4.629
 5170SOL     OW16408   0.797   4.586   5.980
 5170SOL    HW116409   0.754   4.646   5.914
 5170SOL    HW216410   0.872   4.634   6.025
 5171SOL     OW16411   1.122   5.980   4.641
 5171SOL    HW116412   1.176   5.923   4.703
 5171SOL    HW216413   1.089   5.924   4.565
 5172SOL     OW16414   1.177   2.032   2.114
 5172SOL    HW116415   1.107   2.057   2.047
 5172SOL    HW216416   1.153   1.945   2.157
 5173SOL     OW16417   5.082   4.601   5.965
 5173SOL    HW116418   5.063   4.589   6.062
 5173SOL    HW216419   5.127   4.519   5.930
 5174SOL     OW16420   2.378   4.608   3.712
 5174SOL    HW116421   2.324   4.610   3.628
 5174SOL    HW216422   2.393   4.701   3.745
 5175SOL     OW16423   2.219   3.424   6.969
 5175SOL    HW116424   2.123   3.452   6.957
 5175SOL    HW216425   2.260   3.475   0.019
 5176SOL     OW16426   4.670   2.757   6.346
 5176SOL    HW116427   4.720   2.670   6.347
 5176SOL    HW216428   4.693   2.809   6.429
 5177SOL     OW16429   5.387   0.689   0.185
 5177SOL    HW116430   5.433   0.600   0.183
 5177SOL    HW216431   5.296   0.677   0.226
 5178SOL     OW16432   0.940   4.518   2.136
 5178SOL    HW116433   0.902   4.577   2.206
 5178SOL    HW216434   1.004   4.454   2.179
 5179SOL     OW16435   3.780   6.493   3.840
 5179SOL    HW116436   3.838   6.545   3.778
 5179SOL    HW216437   3.783   6.533   3.931
 5180SOL     OW16438   3.037   3.088   0.882
 5180SOL    HW116439   3.120   3.053   0.838
 5180SOL    HW216440   3.006   3.170   0.834
 5181SOL     OW16441   6.133   1.443   1.952
 5181SOL    HW116442   6.115   1.374   1.882
 5181SOL    HW216443   6.052   1.501   1.964
 5182SOL     OW16444   3.988   4.520   1.731
 5182SOL    HW116445   3.894   4.522   1.698
 5182SOL    HW216446   4.024   4.427   1.726
 5183SOL     OW16447   4.651   1.593   3.062
 5183SOL    HW116448   4.710   1.651   3.004
 5183SOL    HW216449   4.557   1.596   3.027
 5184SOL     OW16450   0.329   2.397   4.252
 5184SOL    HW116451   0.369   2.488   4.262
 5184SOL    HW216452   0.230   2.401   4.269
 5185SOL     OW16453   5.693   1.119   2.781
 5185SOL    HW116454   5.660   1.074   2.698
 5185SOL    HW216455   5.645   1.082   2.860
 5186SOL     OW16456   6.444   3.439   1.145
 5186SOL    HW116457   6.417   3.480   1.233
 5186SOL    HW216458   6.367   3.387   1.108
 5187SOL     OW16459   0.770   6.608   4.073
 5187SOL    HW116460   0.724   6.613   3.985
 5187SOL    HW216461   0.770   6.697   4.117
 5188SOL     OW16462   0.755   5.639   0.921
 5188SOL    HW116463   0.691   5.600   0.989
 5188SOL    HW216464   0.848   5.630   0.955
 5189SOL     OW16465   4.494   4.744   0.725
 5189SOL    HW116466   4.559   4.725   0.651
 5189SOL    HW216467   4.471   4.658   0.770
 5190SOL     OW16468   0.220   2.969   4.123
 5190SOL    HW116469   0.196   3.017   4.208
 5190SOL    HW216470   0.164   2.886   4.115
 5191SOL     OW16471   4.166   0.316   1.745
 5191SOL    HW116472   4.092   0.321   1.813
 5191SOL    HW216473   4.227   0.395   1.757
 5192SOL     OW16474   2.663   5.613   2.737
 5192SOL    HW116475   2.754   5.620   2.777
 5192SOL    HW216476   2.601   5.571   2.804
 5193SOL     OW16477   4.812   4.466   4.816
 5193SOL    HW116478   4.778   4.372   4.812
 5193SOL    HW216479   4.738   4.529   4.794
 5194SOL     OW16480   4.536   1.672   0.163
 5194SOL    HW116481   4.464   1.682   0.094
 5194SOL    HW216482   4.610   1.736   0.143
 5195SOL     OW16483   6.267   6.200   4.741
 5195SOL    HW116484   6.321   6.131   4.789
 5195SOL    HW216485   6.287   6.290   4.777
 5196SOL     OW16486   3.335   4.527   0.756
 5196SOL    HW116487   3.294   4.544   0.845
 5196SOL    HW216488   3.405   4.457   0.764
 5197SOL     OW16489   2.298   5.446   4.916
 5197SOL    HW116490   2.335   5.511   4.983
 5197SOL    HW216491   2.373   5.408   4.862
 5198SOL     OW16492   3.731   6.955   3.130
 5198SOL    HW116493   3.820   6.988   3.162
 5198SOL    HW216494   3.711   6.995   3.041
 5199SOL     OW16495   1.231   5.737   0.505
 5199SOL    HW116496   1.283   5.685   0.573
 5199SOL    HW216497   1.161   5.792   0.551
 5200SOL     OW16498   1.476   2.060   5.411
 5200SOL    HW116499   1.505   2.068   5.507
 5200SOL    HW216500   1.447   1.965   5.393
 5201SOL     OW16501   6.839   6.487   4.211
 5201SOL    HW116502   6.928   6.532   4.213
 5201SOL    HW216503   6.812   6.470   4.116
 5202SOL     OW16504   6.065   4.109   5.509
 5202SOL    HW116505   6.160   4.106   5.539
 5202SOL    HW216506   6.045   4.199   5.470
 5203SOL     OW16507   2.455   1.300   6.244
 5203SOL    HW116508   2.376   1.355   6.219
 5203SOL    HW216509   2.491   1.254   6.163
 5204SOL     OW16510   4.388   6.359   6.693
 5204SOL    HW116511   4.346   6.423   6.629
 5204SOL    HW216512   4.404   6.405   6.781
 5205SOL     OW16513   6.976   6.019   0.304
 5205SOL    HW116514   6.952   5.929   0.341
 5205SOL    HW216515   6.892   6.068   0.281
 5206SOL     OW16516   0.347   5.183   0.429
 5206SOL    HW116517   0.426   5.167   0.370
 5206SOL    HW216518   0.266   5.197   0.372
 5207SOL     OW16519   1.451   6.750   3.642
 5207SOL    HW116520   1.361   6.705   3.642
 5207SOL    HW216521   1.507   6.712   3.569
 5208SOL     OW16522   5.243   1.963   0.206
 5208SOL    HW116523   5.228   1.884   0.146
 5208SOL    HW216524   5.175   1.963   0.278
 5209SOL     OW16525   5.348   0.176   1.991
 5209SOL    HW116526   5.444   0.155   2.010
 5209SOL    HW216527   5.327   0.154   1.896
 5210SOL     OW16528   4.607   2.902   0.220
 5210SOL    HW116529   4.637   2.981   0.273
 5210SOL    HW216530   4.687   2.848   0.194
 5211SOL     OW16531   4.092   2.448   5.830
 5211SOL    HW116532   4.137   2.531   5.796
 5211SOL    HW216533   4.160   2.378   5.847
 5212SOL     OW16534   0.933   2.736   0.559
 5212SOL    HW116535   0.920   2.816   0.618
 5212SOL    HW216536   1.027   2.733   0.525
 5213SOL     OW16537   4.194   3.896   0.538
 5213SOL    HW116538   4.271   3.864   0.483
 5213SOL    HW216539   4.149   3.818   0.582
 5214SOL     OW16540   4.743   2.377   6.668
 5214SOL    HW116541   4.759   2.348   6.573
 5214SOL    HW216542   4.775   2.471   6.679
 5215SOL     OW16543   1.015   4.735   4.526
 5215SOL    HW116544   0.979   4.653   4.482
 5215SOL    HW216545   1.089   4.774   4.471
 5216SOL     OW16546   4.162   4.579   1.519
 5216SOL    HW116547   4.246   4.633   1.529
 5216SOL    HW216548   4.111   4.582   1.605
 5217SOL     OW16549   3.615   5.335   4.650
 5217SOL    HW116550   3.576   5.404   4.588
 5217SOL    HW216551   3.554   5.324   4.729
 5218SOL     OW16552   0.876   0.992   1.121
 5218SOL    HW116553   0.838   1.039   1.041
 5218SOL    HW216554   0.908   1.059   1.188
 5219SOL     OW16555   3.429   1.396   4.970
 5219SOL    HW116556   3.494   1.415   5.044
 5219SOL    HW216557   3.447   1.456   4.893
 5220SOL     OW16558   1.394   5.940   2.450
 5220SOL    HW116559   1.424   5.949   2.545
 5220SOL    HW216560   1.438   6.010   2.394
 5221SOL     OW16561   6.118   1.804   3.187
 5221SOL    HW116562   6.091   1.733   3.122
 5221SOL    HW216563   6.045   1.872   3.195
 5222SOL     OW16564   3.791   6.936   2.496
 5222SOL    HW116565   3.850   7.014   2.515
 5222SOL    HW216566   3.773   6.885   2.580
 5223SOL     OW16567   6.454   2.362   0.518
 5223SOL    HW116568   6.403   2.445   0.541
 5223SOL    HW216569   6.404   2.282   0.551
 5224SOL     OW16570   6.342   2.972   4.601
 5224SOL    HW116571   6.251   2.951   4.565
 5224SOL    HW216572   6.411   2.938   4.538
 5225SOL     OW16573   0.175   0.985   3.681
 5225SOL    HW116574   0.238   0.966   3.605
 5225SOL    HW216575   0.224   0.975   3.767
 5226SOL     OW16576   6.640   6.632   4.706
 5226SOL    HW116577   6.552   6.620   4.662
 5226SOL    HW216578   6.712   6.589   4.651
 5227SOL     OW16579   0.334   3.266   5.566
 5227SOL    HW116580   0.346   3.298   5.472
 5227SOL    HW216581   0.358   3.169   5.570
 5228SOL     OW16582   0.149   2.285   0.692
 5228SOL    HW116583   0.092   2.362   0.719
 5228SOL    HW216584   0.131   2.208   0.753
 5229SOL     OW16585   2.676   6.609   0.279
 5229SOL    HW116586   2.629   6.521   0.288
 5229SOL    HW216587   2.737   6.623   0.357
 5230SOL     OW16588   0.349   5.962   2.109
 5230SOL    HW116589   0.343   6.060   2.095
 5230SOL    HW216590   0.332   5.941   2.206
 5231SOL     OW16591   4.564   2.513   4.178
 5231SOL    HW116592   4.551   2.454   4.099
 5231SOL    HW216593   4.595   2.603   4.147
 5232SOL     OW16594   1.604   3.845   6.109
 5232SOL    HW116595   1.655   3.804   6.184
 5232SOL    HW216596   1.612   3.944   6.113
 5233SOL     OW16597   4.405   1.386   2.610
 5233SOL    HW116598   4.386   1.465   2.551
 5233SOL    HW216599   4.320   1.348   2.644
 5234SOL     OW16600   2.739   1.961   5.976
 5234SOL    HW116601   2.764   1.865   5.962
 5234SOL    HW216602   2.737   1.981   6.074
 5235SOL     OW16603   1.705   2.438   0.957
 5235SOL    HW116604   1.718   2.511   0.890
 5235SOL    HW216605   1.649   2.472   1.033
 5236SOL     OW16606   4.282   5.162   1.659
 5236SOL    HW116607   4.368   5.114   1.676
 5236SOL    HW216608   4.230   5.112   1.590
 5237SOL     OW16609   0.739   0.730   4.769
 5237SOL    HW116610   0.831   0.769   4.758
 5237SOL    HW216611   0.722   0.711   4.865
 5238SOL     OW16612   0.791   4.909   0.317
 5238SOL    HW116613   0.767   4.868   0.229
 5238SOL    HW216614   0.872   4.968   0.304
 5239SOL     OW16615   3.658   3.065   5.486
 5239SOL    HW116616   3.567   3.054   5.528
 5239SOL    HW216617   3.649   3.119   5.402
 5240SOL     OW16618   3.078   2.179   5.457
 5240SOL    HW116619   3.090   2.156   5.554
 5240SOL    HW216620   3.111   2.272   5.441
 5241SOL     OW16621   0.160   5.094   4.446
 5241SOL    HW116622   0.194   5.188   4.441
 5241SOL    HW216623   0.153   5.066   4.542
 5242SOL     OW16624   6.575   6.882   6.919
 5242SOL    HW116625   6.491   6.844   6.958
 5242SOL    HW216626   6.562   6.980   6.901
 5243SOL     OW16627   1.831   5.796   1.648
 5243SOL    HW116628   1.741   5.786   1.606
 5243SOL    HW216629   1.834   5.743   1.733
 5244SOL     OW16630   3.015   5.086   6.440
 5244SOL    HW116631   3.064   5.106   6.355
 5244SOL    HW216632   3.057   5.008   6.486
 5245SOL     OW16633   4.096   4.311   0.007
 5245SOL    HW116634   4.100   4.304   0.107
 5245SOL    HW216635   4.141   4.395   7.003
 5246SOL     OW16636   6.373   3.067   1.328
 5246SOL    HW116637   6.298   3.082   1.263
 5246SOL    HW216638   6.336   3.064   1.421
 5247SOL     OW16639   2.105   0.689   6.381
 5247SOL    HW116640   2.018   0.650   6.350
 5247SOL    HW216641   2.170   0.615   6.399
 5248SOL     OW16642   6.029   2.119   2.971
 5248SOL    HW116643   6.062   2.202   3.016
 5248SOL    HW216644   6.085   2.100   2.890
 5249SOL     OW16645   0.700   5.595   6.208
 5249SOL    HW116646   0.783   5.619   6.158
 5249SOL    HW216647   0.622   5.598   6.146
 5250SOL     OW16648   2.035   5.959   6.500
 5250SOL    HW116649   2.020   5.901   6.581
 5250SOL    HW216650   2.111   5.923   6.446
 5251SOL     OW16651   0.560   3.346   6.957
 5251SOL    HW116652   0.484   3.333   6.892
 5251SOL    HW216653   0.638   3.291   6.929
 5252SOL     OW16654   2.042   6.258   0.299
 5252SOL    HW116655   1.972   6.277   0.231
 5252SOL    HW216656   2.005   6.276   0.391
 5253SOL     OW16657   6.094   4.561   4.685
 5253SOL    HW116658   6.021   4.494   4.693
 5253SOL    HW216659   6.068   4.645   4.732
 5254SOL     OW16660   4.752   0.987   2.862
 5254SOL    HW116661   4.744   0.888   2.875
 5254SOL    HW216662   4.744   1.008   2.764
 5255SOL     OW16663   5.265   2.148   5.182
 5255SOL    HW116664   5.338   2.119   5.244
 5255SOL    HW216665   5.284   2.113   5.090
 5256SOL     OW16666   4.469   2.082   3.730
 5256SOL    HW116667   4.565   2.096   3.753
 5256SOL    HW216668   4.433   2.004   3.781
 5257SOL     OW16669   5.250   0.053   1.761
 5257SOL    HW116670   5.157   0.023   1.782
 5257SOL    HW216671   5.299   7.003   1.717
 5258SOL     OW16672   6.279   3.016   1.701
 5258SOL    HW116673   6.245   3.110   1.691
 5258SOL    HW216674   6.379   3.017   1.707
 5259SOL     OW16675   4.840   6.288   1.883
 5259SOL    HW116676   4.855   6.190   1.886
 5259SOL    HW216677   4.822   6.323   1.975
 5260SOL     OW16678   4.721   3.260   0.637
 5260SOL    HW116679   4.813   3.290   0.612
 5260SOL    HW216680   4.728   3.178   0.694
 5261SOL     OW16681   0.861   3.981   6.507
 5261SOL    HW116682   0.820   3.900   6.548
 5261SOL    HW216683   0.911   4.033   6.577
 5262SOL     OW16684   2.577   1.223   3.766
 5262SOL    HW116685   2.507   1.275   3.717
 5262SOL    HW216686   2.550   1.212   3.862
 5263SOL     OW16687   2.350   1.513   3.756
 5263SOL    HW116688   2.327   1.431   3.703
 5263SOL    HW216689   2.327   1.499   3.852
 5264SOL     OW16690   0.050   2.596   1.887
 5264SOL    HW116691   0.012   2.504   1.894
 5264SOL    HW216692   0.085   2.610   1.794
 5265SOL     OW16693   6.465   3.867   4.005
 5265SOL    HW116694   6.531   3.926   3.957
 5265SOL    HW216695   6.374   3.881   3.966
 5266SOL     OW16696   2.830   5.825   0.307
 5266SOL    HW116697   2.903   5.779   0.358
 5266SOL    HW216698   2.859   5.918   0.284
 5267SOL     OW16699   5.381   3.176   5.014
 5267SOL    HW116700   5.407   3.174   4.917
 5267SOL    HW216701   5.437   3.111   5.065
 5268SOL     OW16702   5.861   1.240   0.379
 5268SOL    HW116703   5.781   1.181   0.393
 5268SOL    HW216704   5.837   1.315   0.317
 5269SOL     OW16705   1.216   6.003   2.920
 5269SOL    HW116706   1.265   6.055   2.990
 5269SOL    HW216707   1.174   5.922   2.961
 5270SOL     OW16708   6.015   0.816   0.985
 5270SOL    HW116709   5.993   0.882   0.914
 5270SOL    HW216710   5.955   0.737   0.977
 5271SOL     OW16711   6.603   5.756   5.565
 5271SOL    HW116712   6.579   5.664   5.532
 5271SOL    HW216713   6.618   5.816   5.486
 5272SOL     OW16714   3.027   5.327   1.670
 5272SOL    HW116715   3.037   5.228   1.673
 5272SOL    HW216716   2.931   5.351   1.658
 5273SOL     OW16717   6.862   2.962   4.158
 5273SOL    HW116718   6.782   2.912   4.124
 5273SOL    HW216719   6.887   2.928   4.248
 5274SOL     OW16720   6.273   6.679   2.874
 5274SOL    HW116721   6.192   6.706   2.821
 5274SOL    HW216722   6.277   6.579   2.879
 5275SOL     OW16723   3.658   1.970   1.435
 5275SOL    HW116724   3.683   1.949   1.340
 5275SOL    HW216725   3.723   2.035   1.474
 5276SOL     OW16726   2.245   6.998   0.949
 5276SOL    HW116727   2.207   6.932   0.884
 5276SOL    HW216728   2.292   6.948   1.022
 5277SOL     OW16729   1.480   1.382   2.377
 5277SOL    HW116730   1.521   1.401   2.466
 5277SOL    HW216731   1.396   1.436   2.366
 5278SOL     OW16732   5.743   7.005   3.686
 5278SOL    HW116733   5.705   6.918   3.717
 5278SOL    HW216734   5.691   0.012   3.607
 5279SOL     OW16735   2.394   5.218   6.130
 5279SOL    HW116736   2.445   5.163   6.198
 5279SOL    HW216737   2.296   5.202   6.142
 5280SOL     OW16738   2.686   6.180   4.623
 5280SOL    HW116739   2.608   6.243   4.623
 5280SOL    HW216740   2.752   6.209   4.692
 5281SOL     OW16741   0.128   2.590   2.571
 5281SOL    HW116742   0.182   2.673   2.558
 5281SOL    HW216743   0.182   2.510   2.545
 5282SOL     OW16744   2.886   1.963   3.958
 5282SOL    HW116745   2.927   1.872   3.969
 5282SOL    HW216746   2.789   1.953   3.937
 5283SOL     OW16747   4.292   6.960   1.286
 5283SOL    HW116748   4.211   6.922   1.332
 5283SOL    HW216749   4.314   0.023   1.326
 5284SOL     OW16750   4.903   3.579   3.191
 5284SOL    HW116751   4.910   3.568   3.290
 5284SOL    HW216752   4.916   3.675   3.167
 5285SOL     OW16753   2.359   4.895   3.845
 5285SOL    HW116754   2.425   4.874   3.918
 5285SOL    HW216755   2.266   4.892   3.883
 5286SOL     OW16756   1.560   4.629   0.119
 5286SOL    HW116757   1.595   4.711   0.163
 5286SOL    HW216758   1.592   4.548   0.169
 5287SOL     OW16759   2.881   6.762   0.951
 5287SOL    HW116760   2.870   6.671   0.991
 5287SOL    HW216761   2.973   6.770   0.913
 5288SOL     OW16762   3.347   0.275   1.849
 5288SOL    HW116763   3.332   0.274   1.750
 5288SOL    HW216764   3.297   0.352   1.889
 5289SOL     OW16765   1.716   4.940   6.543
 5289SOL    HW116766   1.622   4.914   6.565
 5289SOL    HW216767   1.718   5.036   6.516
 5290SOL     OW16768   1.645   5.883   5.082
 5290SOL    HW116769   1.554   5.922   5.070
 5290SOL    HW216770   1.640   5.784   5.075
 5291SOL     OW16771   2.809   5.134   6.104
 5291SOL    HW116772   2.789   5.228   6.078
 5291SOL    HW216773   2.767   5.114   6.193
 5292SOL     OW16774   6.338   3.011   6.511
 5292SOL    HW116775   6.324   2.917   6.540
 5292SOL    HW216776   6.250   3.059   6.508
 5293SOL     OW16777   0.448   0.554   4.927
 5293SOL    HW116778   0.424   0.495   5.005
 5293SOL    HW216779   0.376   0.622   4.914
 5294SOL     OW16780   4.676   3.655   5.659
 5294SOL    HW116781   4.690   3.637   5.562
 5294SOL    HW216782   4.625   3.740   5.670
 5295SOL     OW16783   5.940   0.828   2.679
 5295SOL    HW116784   5.920   0.844   2.776
 5295SOL    HW216785   5.930   0.731   2.658
 5296SOL     OW16786   1.905   5.144   0.031
 5296SOL    HW116787   1.818   5.103   0.004
 5296SOL    HW216788   1.895   5.244   0.033
 5297SOL     OW16789   2.435   1.998   1.668
 5297SOL    HW116790   2.437   2.061   1.591
 5297SOL    HW216791   2.481   2.039   1.746
 5298SOL     OW16792   0.584   5.580   1.165
 5298SOL    HW116793   0.493   5.566   1.204
 5298SOL    HW216794   0.654   5.558   1.233
 5299SOL     OW16795   2.677   2.154   0.424
 5299SOL    HW116796   2.584   2.187   0.407
 5299SOL    HW216797   2.695   2.156   0.523
 5300SOL     OW16798   0.337   5.827   2.816
 5300SOL    HW116799   0.365   5.851   2.909
 5300SOL    HW216800   0.404   5.863   2.751
 5301SOL     OW16801   4.659   1.504   0.386
 5301SOL    HW116802   4.651   1.573   0.313
 5301SOL    HW216803   4.588   1.434   0.374
 5302SOL     OW16804   5.473   4.866   3.202
 5302SOL    HW116805   5.469   4.947   3.261
 5302SOL    HW216806   5.502   4.787   3.256
 5303SOL     OW16807   6.761   6.463   3.928
 5303SOL    HW116808   6.718   6.550   3.906
 5303SOL    HW216809   6.702   6.388   3.896
 5304SOL     OW16810   6.388   1.909   5.758
 5304SOL    HW116811   6.405   1.820   5.717
 5304SOL    HW216812   6.295   1.912   5.797
 5305SOL     OW16813   1.759   6.562   4.307
 5305SOL    HW116814   1.715   6.613   4.233
 5305SOL    HW216815   1.772   6.622   4.386
 5306SOL     OW16816   1.019   5.628   5.194
 5306SOL    HW116817   1.035   5.726   5.185
 5306SOL    HW216818   1.068   5.593   5.274
 5307SOL     OW16819   4.121   6.618   6.846
 5307SOL    HW116820   4.217   6.599   6.868
 5307SOL    HW216821   4.103   6.715   6.859
 5308SOL     OW16822   0.636   6.974   4.617
 5308SOL    HW116823   0.736   6.983   4.614
 5308SOL    HW216824   0.612   6.885   4.657
 5309SOL     OW16825   3.181   4.040   2.482
 5309SOL    HW116826   3.234   4.097   2.420
 5309SOL    HW216827   3.202   4.066   2.577
 5310SOL     OW16828   5.213   2.582   2.011
 5310SOL    HW116829   5.263   2.632   1.940
 5310SOL    HW216830   5.279   2.536   2.071
 5311SOL     OW16831   0.268   5.975   0.868
 5311SOL    HW116832   0.261   6.036   0.947
 5311SOL    HW216833   0.193   5.910   0.869
 5312SOL     OW16834   6.868   3.840   2.423
 5312SOL    HW116835   6.862   3.859   2.325
 5312SOL    HW216836   6.784   3.872   2.468
 5313SOL     OW16837   1.039   5.693   0.027
 5313SOL    HW116838   1.079   5.608   0.062
 5313SOL    HW216839   1.111   5.752   7.017
 5314SOL     OW16840   3.730   4.536   0.035
 5314SOL    HW116841   3.691   4.594   6.989
 5314SOL    HW216842   3.771   4.455   7.020
 5315SOL     OW16843   4.269   4.395   1.169
 5315SOL    HW116844   4.181   4.438   1.189
 5315SOL    HW216845   4.255   4.310   1.119
 5316SOL     OW16846   6.605   5.162   5.059
 5316SOL    HW116847   6.608   5.165   5.159
 5316SOL    HW216848   6.663   5.088   5.026
 5317SOL     OW16849   5.940   1.352   4.977
 5317SOL    HW116850   5.984   1.281   4.921
 5317SOL    HW216851   5.999   1.373   5.055
 5318SOL     OW16852   0.440   1.861   5.770
 5318SOL    HW116853   0.348   1.828   5.792
 5318SOL    HW216854   0.449   1.956   5.800
 5319SOL     OW16855   4.651   6.996   0.049
 5319SOL    HW116856   4.696   0.035   7.014
 5319SOL    HW216857   4.713   6.969   0.122
 5320SOL     OW16858   5.510   5.160   6.671
 5320SOL    HW116859   5.456   5.141   6.589
 5320SOL    HW216860   5.583   5.092   6.680
 5321SOL     OW16861   0.810   5.117   2.389
 5321SOL    HW116862   0.789   5.031   2.435
 5321SOL    HW216863   0.727   5.153   2.346
 5322SOL     OW16864   4.030   6.590   5.924
 5322SOL    HW116865   4.011   6.634   6.012
 5322SOL    HW216866   4.070   6.500   5.940
 5323SOL     OW16867   3.584   3.227   1.153
 5323SOL    HW116868   3.679   3.208   1.127
 5323SOL    HW216869   3.553   3.310   1.108
 5324SOL     OW16870   3.695   2.510   1.707
 5324SOL    HW116871   3.787   2.516   1.669
 5324SOL    HW216872   3.688   2.429   1.764
 5325SOL     OW16873   6.000   6.615   3.422
 5325SOL    HW116874   5.941   6.588   3.346
 5325SOL    HW216875   5.970   6.704   3.457
 5326SOL     OW16876   6.134   5.185   2.399
 5326SOL    HW116877   6.132   5.098   2.349
 5326SOL    HW216878   6.171   5.170   2.490
 5327SOL     OW16879   0.731   5.946   5.889
 5327SOL    HW116880   0.821   5.905   5.876
 5327SOL    HW216881   0.663   5.893   5.837
 5328SOL     OW16882   3.857   2.439   5.699
 5328SOL    HW116883   3.954   2.420   5.710
 5328SOL    HW216884   3.824   2.491   5.778
 5329SOL     OW16885   0.444   3.636   6.665
 5329SOL    HW116886   0.442   3.685   6.578
 5329SOL    HW216887   0.415   3.541   6.651
 5330SOL     OW16888   3.473   4.497   0.121
 5330SOL    HW116889   3.424   4.553   0.187
 5330SOL    HW216890   3.569   4.527   0.117
 5331SOL     OW16891   5.455   0.896   1.033
 5331SOL    HW116892   5.431   0.893   1.130
 5331SOL    HW216893   5.431   0.985   0.995
 5332SOL     OW16894   6.444   4.221   6.775
 5332SOL    HW116895   6.348   4.248   6.786
 5332SOL    HW216896   6.491   4.227   6.863
 5333SOL     OW16897   1.169   0.677   3.804
 5333SOL    HW116898   1.161   0.647   3.709
 5333SOL    HW216899   1.232   0.617   3.853
 5334SOL     OW16900   4.067   5.284   5.244
 5334SOL    HW116901   4.154   5.257   5.203
 5334SOL    HW216902   4.069   5.382   5.264
 5335SOL     OW16903   0.352   4.865   2.581
 5335SOL    HW116904   0.312   4.860   2.490
 5335SOL    HW216905   0.281   4.887   2.648
 5336SOL     OW16906   2.070   2.144   3.466
 5336SOL    HW116907   2.131   2.070   3.438
 5336SOL    HW216908   2.098   2.230   3.423
 5337SOL     OW16909   5.697   4.925   1.576
 5337SOL    HW116910   5.604   4.889   1.587
 5337SOL    HW216911   5.700   5.021   1.602
 5338SOL     OW16912   5.409   1.178   0.106
 5338SOL    HW116913   5.417   1.169   0.205
 5338SOL    HW216914   5.496   1.210   0.068
 5339SOL     OW16915   5.714   1.541   2.989
 5339SOL    HW116916   5.637   1.600   3.015
 5339SOL    HW216917   5.705   1.452   3.034
 5340SOL     OW16918   5.893   3.827   1.236
 5340SOL    HW116919   5.952   3.799   1.161
 5340SOL    HW216920   5.798   3.818   1.209
 5341SOL     OW16921   3.478   4.835   5.157
 5341SOL    HW116922   3.570   4.797   5.166
 5341SOL    HW216923   3.420   4.799   5.229
 5342SOL     OW16924   4.970   6.606   4.668
 5342SOL    HW116925   4.929   6.678   4.612
 5342SOL    HW216926   4.931   6.608   4.760
 5343SOL     OW16927   3.866   3.440   4.904
 5343SOL    HW116928   3.945   3.386   4.875
 5343SOL    HW216929   3.890   3.493   4.985
 5344SOL     OW16930   0.723   1.493   0.307
 5344SOL    HW116931   0.809   1.456   0.343
 5344SOL    HW216932   0.732   1.591   0.293
 5345SOL     OW16933   4.899   0.595   6.823
 5345SOL    HW116934   4.883   0.599   6.725
 5345SOL    HW216935   4.845   0.521   6.863
 5346SOL     OW16936   2.804   5.590   4.446
 5346SOL    HW116937   2.720   5.543   4.419
 5346SOL    HW216938   2.817   5.580   4.545
 5347SOL     OW16939   6.657   3.811   3.725
 5347SOL    HW116940   6.613   3.896   3.753
 5347SOL    HW216941   6.749   3.830   3.691
 5348SOL     OW16942   6.820   0.971   5.709
 5348SOL    HW116943   6.831   0.886   5.657
 5348SOL    HW216944   6.905   0.992   5.757
 5349SOL     OW16945   2.292   3.592   0.852
 5349SOL    HW116946   2.302   3.495   0.876
 5349SOL    HW216947   2.285   3.600   0.752
 5350SOL     OW16948   2.226   6.532   5.476
 5350SOL    HW116949   2.157   6.460   5.487
 5350SOL    HW216950   2.317   6.492   5.483
 5351SOL     OW16951   0.405   5.554   2.129
 5351SOL    HW116952   0.464   5.592   2.200
 5351SOL    HW216953   0.461   5.532   2.049
 5352SOL     OW16954   2.365   4.449   2.986
 5352SOL    HW116955   2.284   4.477   3.039
 5352SOL    HW216956   2.367   4.497   2.899
 5353SOL     OW16957   4.029   5.234   3.636
 5353SOL    HW116958   3.941   5.249   3.680
 5353SOL    HW216959   4.079   5.161   3.684
 5354SOL     OW16960   2.325   4.509   0.145
 5354SOL    HW116961   2.310   4.589   0.088
 5354SOL    HW216962   2.361   4.538   0.234
 5355SOL     OW16963   6.040   4.684   4.437
 5355SOL    HW116964   5.955   4.639   4.408
 5355SOL    HW216965   6.062   4.655   4.531
 5356SOL     OW16966   6.987   3.801   2.171
 5356SOL    HW116967   0.052   3.790   2.132
 5356SOL    HW216968   6.959   3.715   2.214
 5357SOL     OW16969   4.055   4.717   1.320
 5357SOL    HW116970   3.964   4.741   1.354
 5357SOL    HW216971   4.104   4.666   1.391
 5358SOL     OW16972   4.536   1.972   0.915
 5358SOL    HW116973   4.615   1.959   0.974
 5358SOL    HW216974   4.456   1.993   0.971
 5359SOL     OW16975   2.004   2.029   6.518
 5359SOL    HW116976   2.055   1.947   6.540
 5359SOL    HW216977   1.995   2.086   6.600
 5360SOL     OW16978   5.541   5.438   3.718
 5360SOL    HW116979   5.521   5.433   3.620
 5360SOL    HW216980   5.531   5.348   3.759
 5361SOL     OW16981   1.905   6.753   3.949
 5361SOL    HW116982   1.927   6.829   4.009
 5361SOL    HW216983   1.846   6.785   3.875
 5362SOL     OW16984   6.301   6.375   2.865
 5362SOL    HW116985   6.380   6.316   2.847
 5362SOL    HW216986   6.220   6.318   2.875
 5363SOL     OW16987   5.307   6.507   5.617
 5363SOL    HW116988   5.230   6.548   5.568
 5363SOL    HW216989   5.375   6.476   5.552
 5364SOL     OW16990   6.442   6.967   1.967
 5364SOL    HW116991   6.414   0.037   1.953
 5364SOL    HW216992   6.505   6.940   1.894
 5365SOL     OW16993   3.636   2.886   2.393
 5365SOL    HW116994   3.692   2.909   2.314
 5365SOL    HW216995   3.549   2.937   2.387
 5366SOL     OW16996   6.816   0.239   2.078
 5366SOL    HW116997   6.731   0.244   2.131
 5366SOL    HW216998   6.834   0.144   2.053
 5367SOL     OW16999   6.587   6.637   1.392
 5367SOL    HW117000   6.500   6.593   1.370
 5367SOL    HW217001   6.571   6.728   1.429
 5368SOL     OW17002   6.663   6.459   2.484
 5368SOL    HW117003   6.638   6.399   2.408
 5368SOL    HW217004   6.657   6.554   2.454
 5369SOL     OW17005   2.558   5.905   0.909
 5369SOL    HW117006   2.622   5.894   0.985
 5369SOL    HW217007   2.564   5.998   0.873
 5370SOL     OW17008   4.624   3.549   1.250
 5370SOL    HW117009   4.525   3.548   1.241
 5370SOL    HW217010   4.666   3.535   1.160
 5371SOL     OW17011   6.650   4.843   5.552
 5371SOL    HW117012   6.581   4.912   5.573
 5371SOL    HW217013   6.655   4.778   5.628
 5372SOL     OW17014   1.400   6.458   2.725
 5372SOL    HW117015   1.409   6.514   2.807
 5372SOL    HW217016   1.437   6.508   2.646
 5373SOL     OW17017   3.821   6.946   5.682
 5373SOL    HW117018   3.746   6.887   5.711
 5373SOL    HW217019   3.787   0.013   5.667
 5374SOL     OW17020   2.636   4.147   0.737
 5374SOL    HW117021   2.569   4.167   0.665
 5374SOL    HW217022   2.714   4.209   0.727
 5375SOL     OW17023   0.671   5.576   5.905
 5375SOL    HW117024   0.701   5.613   5.817
 5375SOL    HW217025   0.576   5.546   5.898
 5376SOL     OW17026   1.414   2.448   1.828
 5376SOL    HW117027   1.487   2.511   1.855
 5376SOL    HW217028   1.435   2.357   1.864
 5377SOL     OW17029   1.078   0.135   2.717
 5377SOL    HW117030   1.149   0.109   2.783
 5377SOL    HW217031   1.003   0.180   2.766
 5378SOL     OW17032   6.608   0.294   1.683
 5378SOL    HW117033   6.694   0.245   1.674
 5378SOL    HW217034   6.537   0.245   1.631
 5379SOL     OW17035   1.275   3.358   5.052
 5379SOL    HW117036   1.299   3.268   5.087
 5379SOL    HW217037   1.354   3.419   5.061
 5380SOL     OW17038   2.788   6.963   1.093
 5380SOL    HW117039   2.843   6.892   1.048
 5380SOL    HW217040   2.751   7.025   1.024
 5381SOL     OW17041   6.202   5.930   2.289
 5381SOL    HW117042   6.286   5.970   2.327
 5381SOL    HW217043   6.220   5.836   2.261
 5382SOL     OW17044   3.212   2.144   2.531
 5382SOL    HW117045   3.250   2.203   2.603
 5382SOL    HW217046   3.286   2.092   2.489
 5383SOL     OW17047   1.598   2.658   4.629
 5383SOL    HW117048   1.654   2.740   4.617
 5383SOL    HW217049   1.578   2.619   4.539
 5384SOL     OW17050   4.710   5.408   4.591
 5384SOL    HW117051   4.739   5.363   4.676
 5384SOL    HW217052   4.691   5.339   4.522
 5385SOL     OW17053   5.767   3.451   5.276
 5385SOL    HW117054   5.677   3.436   5.235
 5385SOL    HW217055   5.814   3.524   5.228
 5386SOL     OW17056   5.929   1.415   4.253
 5386SOL    HW117057   5.839   1.372   4.245
 5386SOL    HW217058   5.927   1.507   4.213
 5387SOL     OW17059   2.684   6.727   3.550
 5387SOL    HW117060   2.676   6.627   3.558
 5387SOL    HW217061   2.780   6.754   3.559
 5388SOL     OW17062   1.700   6.688   2.738
 5388SOL    HW117063   1.736   6.778   2.762
 5388SOL    HW217064   1.760   6.617   2.774
 5389SOL     OW17065   4.108   1.631   4.908
 5389SOL    HW117066   4.146   1.553   4.859
 5389SOL    HW217067   4.113   1.712   4.851
 5390SOL     OW17068   5.100   4.028   3.583
 5390SOL    HW117069   5.193   4.001   3.559
 5390SOL    HW217070   5.041   4.019   3.503
 5391SOL     OW17071   3.103   1.875   6.816
 5391SOL    HW117072   3.032   1.936   6.781
 5391SOL    HW217073   3.193   1.914   6.795
 5392SOL     OW17074   5.280   3.889   1.931
 5392SOL    HW117075   5.258   3.883   1.834
 5392SOL    HW217076   5.341   3.967   1.947
 5393SOL     OW17077   4.364   0.732   4.946
 5393SOL    HW117078   4.380   0.705   5.041
 5393SOL    HW217079   4.292   0.800   4.941
 5394SOL     OW17080   0.718   6.122   1.127
 5394SOL    HW117081   0.756   6.133   1.218
 5394SOL    HW217082   0.620   6.101   1.134
 5395SOL     OW17083   5.008   0.828   1.014
 5395SOL    HW117084   5.070   0.807   1.090
 5395SOL    HW217085   4.925   0.872   1.050
 5396SOL     OW17086   5.407   5.375   1.445
 5396SOL    HW117087   5.364   5.293   1.483
 5396SOL    HW217088   5.336   5.442   1.423
 5397SOL     OW17089   0.213   2.235   1.808
 5397SOL    HW117090   0.271   2.309   1.843
 5397SOL    HW217091   0.131   2.228   1.865
 5398SOL     OW17092   3.306   2.058   3.888
 5398SOL    HW117093   3.245   2.136   3.907
 5398SOL    HW217094   3.269   2.005   3.812
 5399SOL     OW17095   2.768   7.024   5.969
 5399SOL    HW117096   2.782   6.929   5.998
 5399SOL    HW217097   2.727   7.024   5.878
 5400SOL     OW17098   3.153   3.314   0.641
 5400SOL    HW117099   3.160   3.297   0.543
 5400SOL    HW217100   3.057   3.302   0.670
 5401SOL     OW17101   5.700   3.873   2.466
 5401SOL    HW117102   5.767   3.867   2.540
 5401SOL    HW217103   5.689   3.969   2.439
 5402SOL     OW17104   2.938   6.471   0.698
 5402SOL    HW117105   2.918   6.432   0.788
 5402SOL    HW217106   3.037   6.481   0.689
 5403SOL     OW17107   4.999   3.495   6.494
 5403SOL    HW117108   5.037   3.492   6.402
 5403SOL    HW217109   5.059   3.444   6.556
 5404SOL     OW17110   1.155   0.608   1.066
 5404SOL    HW117111   1.078   0.551   1.038
 5404SOL    HW217112   1.225   0.606   0.995
 5405SOL     OW17113   5.836   5.558   6.866
 5405SOL    HW117114   5.905   5.622   6.833
 5405SOL    HW217115   5.858   5.466   6.834
 5406SOL     OW17116   2.069   1.001   4.870
 5406SOL    HW117117   2.158   1.047   4.876
 5406SOL    HW217118   2.080   0.904   4.889
 5407SOL     OW17119   3.250   1.439   0.579
 5407SOL    HW117120   3.327   1.503   0.569
 5407SOL    HW217121   3.171   1.488   0.616
 5408SOL     OW17122   3.335   1.277   4.739
 5408SOL    HW117123   3.367   1.304   4.830
 5408SOL    HW217124   3.284   1.353   4.698
 5409SOL     OW17125   6.873   1.594   2.359
 5409SOL    HW117126   6.869   1.507   2.408
 5409SOL    HW217127   6.951   1.648   2.392
 5410SOL     OW17128   0.629   2.700   6.719
 5410SOL    HW117129   0.555   2.688   6.786
 5410SOL    HW217130   0.704   2.637   6.741
 5411SOL     OW17131   5.110   4.767   6.495
 5411SOL    HW117132   5.024   4.788   6.540
 5411SOL    HW217133   5.186   4.790   6.556
 5412SOL     OW17134   2.582   1.449   5.899
 5412SOL    HW117135   2.498   1.444   5.845
 5412SOL    HW217136   2.564   1.499   5.984
 5413SOL     OW17137   0.641   6.826   6.651
 5413SOL    HW117138   0.629   6.767   6.731
 5413SOL    HW217139   0.729   6.806   6.608
 5414SOL     OW17140   6.072   4.670   5.195
 5414SOL    HW117141   6.071   4.769   5.207
 5414SOL    HW217142   5.978   4.637   5.186
 5415SOL     OW17143   2.880   6.139   0.559
 5415SOL    HW117144   2.876   6.070   0.631
 5415SOL    HW217145   2.974   6.173   0.551
 5416SOL     OW17146   2.632   4.710   5.127
 5416SOL    HW117147   2.568   4.647   5.171
 5416SOL    HW217148   2.722   4.667   5.119
 5417SOL     OW17149   3.780   0.163   4.696
 5417SOL    HW117150   3.780   0.182   4.598
 5417SOL    HW217151   3.705   0.101   4.719
 5418SOL     OW17152   5.489   5.714   4.784
 5418SOL    HW117153   5.436   5.736   4.866
 5418SOL    HW217154   5.535   5.626   4.796
 5419SOL     OW17155   4.058   6.278   0.231
 5419SOL    HW117156   4.058   6.330   0.316
 5419SOL    HW217157   4.041   6.181   0.251
 5420SOL     OW17158   2.447   1.583   0.508
 5420SOL    HW117159   2.533   1.631   0.492
 5420SOL    HW217160   2.375   1.650   0.530
 5421SOL     OW17161   3.566   5.157   1.770
 5421SOL    HW117162   3.519   5.238   1.804
 5421SOL    HW217163   3.642   5.185   1.711
 5422SOL     OW17164   2.082   5.491   4.751
 5422SOL    HW117165   2.111   5.507   4.657
 5422SOL    HW217166   2.152   5.437   4.798
 5423SOL     OW17167   5.692   5.362   0.423
 5423SOL    HW117168   5.629   5.439   0.428
 5423SOL    HW217169   5.645   5.278   0.449
 5424SOL     OW17170   5.247   4.144   4.150
 5424SOL    HW117171   5.296   4.127   4.064
 5424SOL    HW217172   5.218   4.057   4.190
 5425SOL     OW17173   6.520   2.707   4.698
 5425SOL    HW117174   6.524   2.804   4.725
 5425SOL    HW217175   6.425   2.683   4.678
 5426SOL     OW17176   4.282   5.397   2.349
 5426SOL    HW117177   4.214   5.323   2.357
 5426SOL    HW217178   4.234   5.483   2.335
 5427SOL     OW17179   5.228   2.690   0.348
 5427SOL    HW117180   5.311   2.642   0.317
 5427SOL    HW217181   5.167   2.625   0.393
 5428SOL     OW17182   4.774   6.553   2.383
 5428SOL    HW117183   4.832   6.473   2.398
 5428SOL    HW217184   4.796   6.596   2.296
 5429SOL     OW17185   1.708   0.171   4.934
 5429SOL    HW117186   1.790   0.152   4.881
 5429SOL    HW217187   1.722   0.142   5.029
 5430SOL     OW17188   1.967   2.880   4.931
 5430SOL    HW117189   2.030   2.951   4.899
 5430SOL    HW217190   1.933   2.905   5.022
 5431SOL     OW17191   3.264   4.047   6.404
 5431SOL    HW117192   3.236   3.989   6.480
 5431SOL    HW217193   3.249   4.143   6.428
 5432SOL     OW17194   4.983   5.525   6.492
 5432SOL    HW117195   5.018   5.572   6.412
 5432SOL    HW217196   4.907   5.577   6.532
 5433SOL     OW17197   1.278   0.231   1.094
 5433SOL    HW117198   1.263   0.282   1.179
 5433SOL    HW217199   1.230   0.144   1.098
 5434SOL     OW17200   4.821   1.026   4.776
 5434SOL    HW117201   4.865   0.973   4.848
 5434SOL    HW217202   4.807   0.967   4.696
 5435SOL     OW17203   6.316   3.958   0.889
 5435SOL    HW117204   6.318   3.864   0.923
 5435SOL    HW217205   6.227   3.999   0.912
 5436SOL     OW17206   6.592   4.937   3.858
 5436SOL    HW117207   6.544   4.901   3.938
 5436SOL    HW217208   6.545   4.906   3.775
 5437SOL     OW17209   3.790   5.111   5.561
 5437SOL    HW117210   3.765   5.165   5.480
 5437SOL    HW217211   3.833   5.026   5.533
 5438SOL     OW17212   4.898   5.066   2.258
 5438SOL    HW117213   4.864   5.158   2.235
 5438SOL    HW217214   4.821   5.003   2.267
 5439SOL     OW17215   0.926   3.813   0.186
 5439SOL    HW117216   0.838   3.842   0.148
 5439SOL    HW217217   0.989   3.792   0.110
 5440SOL     OW17218   5.994   6.662   3.963
 5440SOL    HW117219   6.019   6.600   4.037
 5440SOL    HW217220   5.899   6.692   3.975
 5441SOL     OW17221   5.201   3.388   3.044
 5441SOL    HW117222   5.155   3.365   2.958
 5441SOL    HW217223   5.151   3.347   3.120
 5442SOL     OW17224   4.094   0.145   3.523
 5442SOL    HW117225   4.183   0.101   3.510
 5442SOL    HW217226   4.058   0.122   3.613
 5443SOL     OW17227   4.670   6.426   3.924
 5443SOL    HW117228   4.734   6.358   3.889
 5443SOL    HW217229   4.717   6.514   3.934
 5444SOL     OW17230   6.771   1.258   4.315
 5444SOL    HW117231   6.712   1.325   4.360
 5444SOL    HW217232   6.867   1.288   4.321
 5445SOL     OW17233   5.525   4.638   3.408
 5445SOL    HW117234   5.500   4.571   3.339
 5445SOL    HW217235   5.515   4.597   3.499
 5446SOL     OW17236   6.030   4.980   4.406
 5446SOL    HW117237   6.066   4.892   4.376
 5446SOL    HW217238   5.953   4.964   4.468
 5447SOL     OW17239   1.711   1.649   1.268
 5447SOL    HW117240   1.730   1.592   1.348
 5447SOL    HW217241   1.797   1.668   1.219
 5448SOL     OW17242   4.724   5.012   4.083
 5448SOL    HW117243   4.687   5.074   4.013
 5448SOL    HW217244   4.769   4.935   4.039
 5449SOL     OW17245   2.324   1.183   1.425
 5449SOL    HW117246   2.407   1.153   1.378
 5449SOL    HW217247   2.349   1.232   1.508
 5450SOL     OW17248   3.429   6.843   1.365
 5450SOL    HW117249   3.529   6.842   1.355
 5450SOL    HW217250   3.387   6.878   1.281
 5451SOL     OW17251   1.492   5.917   3.900
 5451SOL    HW117252   1.516   6.008   3.935
 5451SOL    HW217253   1.393   5.910   3.891
 5452SOL     OW17254   2.463   4.411   1.299
 5452SOL    HW117255   2.420   4.336   1.349
 5452SOL    HW217256   2.395   4.481   1.279
 5453SOL     OW17257   5.428   4.121   1.968
 5453SOL    HW117258   5.357   4.170   2.018
 5453SOL    HW217259   5.417   4.136   1.870
 5454SOL     OW17260   5.712   6.082   1.387
 5454SOL    HW117261   5.809   6.102   1.404
 5454SOL    HW217262   5.655   6.145   1.440
 5455SOL     OW17263   0.427   1.948   3.680
 5455SOL    HW117264   0.449   1.920   3.587
 5455SOL    HW217265   0.370   1.878   3.723
 5456SOL     OW17266   3.521   1.528   6.236
 5456SOL    HW117267   3.604   1.550   6.185
 5456SOL    HW217268   3.540   1.455   6.301
 5457SOL     OW17269   6.540   1.961   0.925
 5457SOL    HW117270   6.489   1.908   0.857
 5457SOL    HW217271   6.616   1.906   0.960
 5458SOL     OW17272   6.750   4.604   1.256
 5458SOL    HW117273   6.673   4.558   1.211
 5458SOL    HW217274   6.825   4.539   1.269
 5459SOL     OW17275   2.212   5.060   4.864
 5459SOL    HW117276   2.144   5.125   4.899
 5459SOL    HW217277   2.294   5.064   4.921
 5460SOL     OW17278   2.770   0.265   2.372
 5460SOL    HW117279   2.819   0.184   2.404
 5460SOL    HW217280   2.790   0.342   2.432
 5461SOL     OW17281   0.871   1.315   4.666
 5461SOL    HW117282   0.872   1.239   4.731
 5461SOL    HW217283   0.869   1.280   4.573
 5462SOL     OW17284   5.262   6.176   6.212
 5462SOL    HW117285   5.230   6.086   6.181
 5462SOL    HW217286   5.234   6.190   6.307
 5463SOL     OW17287   0.213   1.570   6.653
 5463SOL    HW117288   0.206   1.472   6.669
 5463SOL    HW217289   0.163   1.594   6.570
 5464SOL     OW17290   6.214   6.050   5.417
 5464SOL    HW117291   6.264   6.056   5.331
 5464SOL    HW217292   6.158   6.132   5.428
 5465SOL     OW17293   6.970   0.227   3.248
 5465SOL    HW117294   0.027   0.177   3.224
 5465SOL    HW217295   6.942   0.205   3.341
 5466SOL     OW17296   6.363   2.659   5.867
 5466SOL    HW117297   6.374   2.628   5.961
 5466SOL    HW217298   6.416   2.743   5.854
 5467SOL     OW17299   5.763   3.671   3.053
 5467SOL    HW117300   5.738   3.639   2.962
 5467SOL    HW217301   5.726   3.609   3.122
 5468SOL     OW17302   0.039   2.406   4.264
 5468SOL    HW117303   6.993   2.454   4.315
 5468SOL    HW217304   0.035   2.308   4.285
 5469SOL     OW17305   3.265   5.724   5.932
 5469SOL    HW117306   3.269   5.751   6.028
 5469SOL    HW217307   3.353   5.742   5.888
 5470SOL     OW17308   3.604   5.329   3.897
 5470SOL    HW117309   3.611   5.318   3.798
 5470SOL    HW217310   3.541   5.404   3.918
 5471SOL     OW17311   5.429   0.678   2.059
 5471SOL    HW117312   5.494   0.748   2.090
 5471SOL    HW217313   5.343   0.687   2.109
 5472SOL     OW17314   2.995   3.966   6.988
 5472SOL    HW117315   3.082   3.990   0.006
 5472SOL    HW217316   2.986   4.015   6.901
 5473SOL     OW17317   1.868   3.469   0.237
 5473SOL    HW117318   1.937   3.416   0.287
 5473SOL    HW217319   1.792   3.491   0.298
 5474SOL     OW17320   0.763   5.779   4.403
 5474SOL    HW117321   0.767   5.832   4.488
 5474SOL    HW217322   0.669   5.778   4.368
 5475SOL     OW17323   1.678   1.795   0.719
 5475SOL    HW117324   1.776   1.809   0.704
 5475SOL    HW217325   1.628   1.879   0.698
 5476SOL     OW17326   2.265   4.914   5.232
 5476SOL    HW117327   2.191   4.877   5.175
 5476SOL    HW217328   2.333   4.957   5.174
 5477SOL     OW17329   1.928   3.608   3.164
 5477SOL    HW117330   1.996   3.669   3.205
 5477SOL    HW217331   1.899   3.540   3.232
 5478SOL     OW17332   4.564   6.492   5.379
 5478SOL    HW117333   4.596   6.568   5.435
 5478SOL    HW217334   4.628   6.415   5.386
 5479SOL     OW17335   4.394   1.513   4.750
 5479SOL    HW117336   4.297   1.492   4.766
 5479SOL    HW217337   4.450   1.464   4.817
 5480SOL     OW17338   5.589   4.912   4.844
 5480SOL    HW117339   5.625   4.979   4.779
 5480SOL    HW217340   5.665   4.868   4.893
 5481SOL     OW17341   5.071   1.161   4.771
 5481SOL    HW117342   5.093   1.230   4.840
 5481SOL    HW217343   4.973   1.141   4.774
 5482SOL     OW17344   3.692   4.121   2.586
 5482SOL    HW117345   3.642   4.166   2.512
 5482SOL    HW217346   3.634   4.051   2.628
 5483SOL     OW17347   0.158   1.957   5.230
 5483SOL    HW117348   0.161   1.933   5.327
 5483SOL    HW217349   0.217   1.894   5.178
 5484SOL     OW17350   6.103   0.817   3.688
 5484SOL    HW117351   6.112   0.723   3.656
 5484SOL    HW217352   6.108   0.819   3.788
 5485SOL     OW17353   3.013   6.651   4.570
 5485SOL    HW117354   2.915   6.641   4.556
 5485SOL    HW217355   3.031   6.734   4.623
 5486SOL     OW17356   1.580   5.933   4.561
 5486SOL    HW117357   1.572   5.887   4.472
 5486SOL    HW217358   1.620   5.869   4.627
 5487SOL     OW17359   5.312   3.192   6.471
 5487SOL    HW117360   5.265   3.253   6.535
 5487SOL    HW217361   5.244   3.137   6.422
 5488SOL     OW17362   5.428   1.122   1.309
 5488SOL    HW117363   5.505   1.149   1.367
 5488SOL    HW217364   5.420   1.187   1.233
 5489SOL     OW17365   0.957   4.646   0.908
 5489SOL    HW117366   1.040   4.590   0.898
 5489SOL    HW217367   0.877   4.586   0.906
 5490SOL     OW17368   3.491   0.635   1.024
 5490SOL    HW117369   3.443   0.676   0.946
 5490SOL    HW217370   3.566   0.694   1.052
 5491SOL     OW17371   1.969   3.664   6.522
 5491SOL    HW117372   1.980   3.565   6.526
 5491SOL    HW217373   2.049   3.705   6.478
 5492SOL     OW17374   0.722   1.826   6.687
 5492SOL    HW117375   0.795   1.798   6.625
 5492SOL    HW217376   0.750   1.811   6.782
 5493SOL     OW17377   4.075   3.675   4.130
 5493SOL    HW117378   4.102   3.645   4.038
 5493SOL    HW217379   4.092   3.602   4.196
 5494SOL     OW17380   6.406   2.516   0.082
 5494SOL    HW117381   6.383   2.466   0.166
 5494SOL    HW217382   6.326   2.568   0.052
 5495SOL     OW17383   3.796   2.324   1.419
 5495SOL    HW117384   3.827   2.255   1.354
 5495SOL    HW217385   3.696   2.321   1.427
 5496SOL     OW17386   2.581   0.160   3.409
 5496SOL    HW117387   2.669   0.156   3.361
 5496SOL    HW217388   2.572   0.250   3.453
 5497SOL     OW17389   0.137   2.136   3.948
 5497SOL    HW117390   0.217   2.147   3.889
 5497SOL    HW217391   0.087   2.223   3.953
 5498SOL     OW17392   5.039   6.938   1.596
 5498SOL    HW117393   4.951   6.921   1.550
 5498SOL    HW217394   5.081   7.021   1.559
 5499SOL     OW17395   0.639   0.841   3.370
 5499SOL    HW117396   0.706   0.906   3.405
 5499SOL    HW217397   0.590   0.882   3.293
 5500SOL     OW17398   1.779   6.783   0.007
 5500SOL    HW117399   1.815   6.699   6.992
 5500SOL    HW217400   1.706   6.819   6.976
 5501SOL     OW17401   3.669   0.226   1.043
 5501SOL    HW117402   3.603   0.220   1.118
 5501SOL    HW217403   3.728   0.306   1.058
 5502SOL     OW17404   5.583   4.053   0.091
 5502SOL    HW117405   5.610   4.024   7.025
 5502SOL    HW217406   5.484   4.042   0.101
 5503SOL     OW17407   0.045   5.521   3.524
 5503SOL    HW117408   0.065   5.603   3.470
 5503SOL    HW217409   0.098   5.523   3.608
 5504SOL     OW17410   4.160   1.372   4.848
 5504SOL    HW117411   4.073   1.360   4.802
 5504SOL    HW217412   4.208   1.285   4.853
 5505SOL     OW17413   1.895   5.321   4.561
 5505SOL    HW117414   1.847   5.405   4.533
 5505SOL    HW217415   1.932   5.334   4.653
 5506SOL     OW17416   1.057   1.408   6.027
 5506SOL    HW117417   1.078   1.500   6.061
 5506SOL    HW217418   1.140   1.352   6.027
 5507SOL     OW17419   2.329   0.140   3.286
 5507SOL    HW117420   2.280   0.057   3.313
 5507SOL    HW217421   2.425   0.132   3.310
 5508SOL     OW17422   2.249   1.103   6.878
 5508SOL    HW117423   2.264   1.076   6.783
 5508SOL    HW217424   2.256   1.023   6.937
 5509SOL     OW17425   1.108   6.426   1.044
 5509SOL    HW117426   1.010   6.414   1.054
 5509SOL    HW217427   1.153   6.414   1.133
 5510SOL     OW17428   5.214   6.294   0.701
 5510SOL    HW117429   5.124   6.283   0.660
 5510SOL    HW217430   5.265   6.208   0.694
 5511SOL     OW17431   2.616   0.580   4.212
 5511SOL    HW117432   2.583   0.648   4.277
 5511SOL    HW217433   2.687   0.523   4.255
 5512SOL     OW17434   5.716   2.000   1.627
 5512SOL    HW117435   5.747   1.974   1.718
 5512SOL    HW217436   5.693   2.098   1.626
 5513SOL     OW17437   4.111   4.226   6.009
 5513SOL    HW117438   4.159   4.307   5.975
 5513SOL    HW217439   4.014   4.246   6.021
 5514SOL     OW17440   4.853   6.008   2.145
 5514SOL    HW117441   4.864   6.029   2.048
 5514SOL    HW217442   4.931   5.953   2.175
 5515SOL     OW17443   0.239   4.751   1.491
 5515SOL    HW117444   0.146   4.731   1.521
 5515SOL    HW217445   0.268   4.681   1.425
 5516SOL     OW17446   1.180   3.792   6.578
 5516SOL    HW117447   1.140   3.786   6.487
 5516SOL    HW217448   1.249   3.864   6.580
 5517SOL     OW17449   2.166   2.985   2.096
 5517SOL    HW117450   2.244   2.957   2.153
 5517SOL    HW217451   2.143   2.911   2.033
 5518SOL     OW17452   6.192   6.675   6.200
 5518SOL    HW117453   6.192   6.594   6.141
 5518SOL    HW217454   6.175   6.757   6.145
 5519SOL     OW17455   5.470   3.206   2.802
 5519SOL    HW117456   5.450   3.126   2.858
 5519SOL    HW217457   5.385   3.244   2.765
 5520SOL     OW17458   6.870   5.131   2.436
 5520SOL    HW117459   6.830   5.071   2.367
 5520SOL    HW217460   6.909   5.074   2.509
 5521SOL     OW17461   4.462   6.905   1.903
 5521SOL    HW117462   4.403   6.868   1.975
 5521SOL    HW217463   4.416   6.981   1.858
 5522SOL     OW17464   0.178   5.114   0.905
 5522SOL    HW117465   0.211   5.163   0.824
 5522SOL    HW217466   0.251   5.113   0.974
 5523SOL     OW17467   3.712   6.984   2.005
 5523SOL    HW117468   3.619   7.023   2.002
 5523SOL    HW217469   3.768   0.015   2.066
 5524SOL     OW17470   5.104   5.195   4.806
 5524SOL    HW117471   5.102   5.139   4.889
 5524SOL    HW217472   5.060   5.146   4.731
 5525SOL     OW17473   6.812   3.075   6.792
 5525SOL    HW117474   6.784   2.982   6.815
 5525SOL    HW217475   6.784   3.097   6.699
 5526SOL     OW17476   5.324   4.610   4.655
 5526SOL    HW117477   5.404   4.635   4.600
 5526SOL    HW217478   5.241   4.621   4.600
 5527SOL     OW17479   6.772   3.835   4.358
 5527SOL    HW117480   6.815   3.794   4.277
 5527SOL    HW217481   6.825   3.915   4.387
 5528SOL     OW17482   1.256   2.081   6.798
 5528SOL    HW117483   1.238   2.150   6.868
 5528SOL    HW217484   1.196   2.095   6.720
 5529SOL     OW17485   1.830   0.551   4.367
 5529SOL    HW117486   1.782   0.470   4.334
 5529SOL    HW217487   1.888   0.588   4.294
 5530SOL     OW17488   0.027   2.426   2.133
 5530SOL    HW117489   6.980   2.469   2.186
 5530SOL    HW217490   0.066   2.492   2.069
 5531SOL     OW17491   3.816   3.030   2.553
 5531SOL    HW117492   3.804   3.015   2.651
 5531SOL    HW217493   3.752   2.973   2.502
 5532SOL     OW17494   1.130   2.129   0.460
 5532SOL    HW117495   1.068   2.052   0.476
 5532SOL    HW217496   1.107   2.174   0.374
 5533SOL     OW17497   3.307   0.862   3.306
 5533SOL    HW117498   3.311   0.943   3.365
 5533SOL    HW217499   3.322   0.888   3.211
 5534SOL     OW17500   0.456   1.478   5.674
 5534SOL    HW117501   0.401   1.542   5.727
 5534SOL    HW217502   0.497   1.410   5.734
 5535SOL     OW17503   0.361   3.453   4.600
 5535SOL    HW117504   0.389   3.358   4.587
 5535SOL    HW217505   0.381   3.504   4.516
 5536SOL     OW17506   2.630   0.863   4.446
 5536SOL    HW117507   2.533   0.863   4.467
 5536SOL    HW217508   2.669   0.773   4.464
 5537SOL     OW17509   2.818   0.831   3.890
 5537SOL    HW117510   2.747   0.770   3.853
 5537SOL    HW217511   2.903   0.780   3.900
 5538SOL     OW17512   3.189   0.063   5.032
 5538SOL    HW117513   3.284   0.056   5.002
 5538SOL    HW217514   3.146   0.144   4.990
 5539SOL     OW17515   1.633   3.061   0.345
 5539SOL    HW117516   1.638   3.068   0.246
 5539SOL    HW217517   1.625   2.965   0.372
 5540SOL     OW17518   6.050   3.947   3.348
 5540SOL    HW117519   6.071   3.941   3.445
 5540SOL    HW217520   6.110   4.015   3.305
 5541SOL     OW17521   5.589   0.765   6.281
 5541SOL    HW117522   5.547   0.826   6.214
 5541SOL    HW217523   5.617   0.680   6.237
 5542SOL     OW17524   6.470   5.579   6.358
 5542SOL    HW117525   6.482   5.515   6.434
 5542SOL    HW217526   6.553   5.633   6.346
 5543SOL     OW17527   3.290   5.327   5.763
 5543SOL    HW117528   3.246   5.251   5.713
 5543SOL    HW217529   3.219   5.388   5.799
 5544SOL     OW17530   5.608   6.421   5.890
 5544SOL    HW117531   5.690   6.462   5.849
 5544SOL    HW217532   5.530   6.482   5.876
 5545SOL     OW17533   4.263   1.626   3.357
 5545SOL    HW117534   4.261   1.712   3.305
 5545SOL    HW217535   4.331   1.632   3.429
 5546SOL     OW17536   1.198   6.392   4.617
 5546SOL    HW117537   1.110   6.392   4.569
 5546SOL    HW217538   1.251   6.312   4.590
 5547SOL     OW17539   3.524   0.889   4.358
 5547SOL    HW117540   3.557   0.884   4.452
 5547SOL    HW217541   3.428   0.863   4.354
 5548SOL     OW17542   5.855   3.663   5.109
 5548SOL    HW117543   5.765   3.695   5.137
 5548SOL    HW217544   5.895   3.728   5.045
 5549SOL     OW17545   4.517   4.009   0.522
 5549SOL    HW117546   4.552   4.097   0.490
 5549SOL    HW217547   4.527   4.003   0.621
 5550SOL     OW17548   2.652   4.781   2.359
 5550SOL    HW117549   2.622   4.862   2.410
 5550SOL    HW217550   2.747   4.762   2.380
 5551SOL     OW17551   2.059   5.445   3.572
 5551SOL    HW117552   2.099   5.392   3.497
 5551SOL    HW217553   1.982   5.498   3.538
 5552SOL     OW17554   6.574   0.310   6.472
 5552SOL    HW117555   6.634   0.360   6.535
 5552SOL    HW217556   6.479   0.320   6.500
 5553SOL     OW17557   5.062   6.698   0.471
 5553SOL    HW117558   4.986   6.641   0.439
 5553SOL    HW217559   5.027   6.767   0.535
 5554SOL     OW17560   4.518   1.660   5.835
 5554SOL    HW117561   4.560   1.677   5.925
 5554SOL    HW217562   4.506   1.747   5.788
 5555SOL     OW17563   1.525   4.242   3.806
 5555SOL    HW117564   1.602   4.220   3.746
 5555SOL    HW217565   1.513   4.168   3.872
 5556SOL     OW17566   6.567   1.439   3.258
 5556SOL    HW117567   6.638   1.416   3.191
 5556SOL    HW217568   6.604   1.499   3.328
 5557SOL     OW17569   3.584   6.718   2.990
 5557SOL    HW117570   3.512   6.718   2.921
 5557SOL    HW217571   3.559   6.654   3.064
 5558SOL     OW17572   3.986   3.418   5.590
 5558SOL    HW117573   4.077   3.449   5.616
 5558SOL    HW217574   3.987   3.320   5.573
 5559SOL     OW17575   1.692   0.505   1.967
 5559SOL    HW117576   1.689   0.516   1.867
 5559SOL    HW217577   1.736   0.586   2.007
 5560SOL     OW17578   0.804   6.227   2.567
 5560SOL    HW117579   0.856   6.299   2.522
 5560SOL    HW217580   0.860   6.144   2.570
 5561SOL     OW17581   0.799   1.683   4.011
 5561SOL    HW117582   0.786   1.707   3.914
 5561SOL    HW217583   0.831   1.588   4.017
 5562SOL     OW17584   3.971   2.270   6.713
 5562SOL    HW117585   3.958   2.309   6.622
 5562SOL    HW217586   4.057   2.219   6.715
 5563SOL     OW17587   4.064   5.324   2.133
 5563SOL    HW117588   4.058   5.386   2.212
 5563SOL    HW217589   4.039   5.374   2.050
 5564SOL     OW17590   4.685   0.748   1.203
 5564SOL    HW117591   4.633   0.670   1.238
 5564SOL    HW217592   4.731   0.794   1.279
 5565SOL     OW17593   4.626   1.585   6.272
 5565SOL    HW117594   4.565   1.657   6.304
 5565SOL    HW217595   4.583   1.496   6.287
 5566SOL     OW17596   1.418   4.957   0.127
 5566SOL    HW117597   1.469   5.005   0.056
 5566SOL    HW217598   1.480   4.926   0.199
 5567SOL     OW17599   0.247   3.027   1.327
 5567SOL    HW117600   0.244   3.119   1.366
 5567SOL    HW217601   0.154   2.989   1.324
 5568SOL     OW17602   4.195   1.942   4.169
 5568SOL    HW117603   4.231   2.018   4.115
 5568SOL    HW217604   4.269   1.899   4.220
 5569SOL     OW17605   1.501   1.517   3.037
 5569SOL    HW117606   1.565   1.445   3.013
 5569SOL    HW217607   1.498   1.528   3.137
 5570SOL     OW17608   6.335   4.548   4.812
 5570SOL    HW117609   6.320   4.551   4.911
 5570SOL    HW217610   6.248   4.557   4.765
 5571SOL     OW17611   6.874   5.750   0.475
 5571SOL    HW117612   6.828   5.667   0.505
 5571SOL    HW217613   6.856   5.824   0.540
 5572SOL     OW17614   1.150   2.160   5.397
 5572SOL    HW117615   1.206   2.086   5.361
 5572SOL    HW217616   1.208   2.237   5.424
 5573SOL     OW17617   2.225   4.261   5.491
 5573SOL    HW117618   2.289   4.237   5.418
 5573SOL    HW217619   2.136   4.219   5.473
 5574SOL     OW17620   6.791   2.007   2.689
 5574SOL    HW117621   6.716   1.948   2.660
 5574SOL    HW217622   6.866   2.000   2.623
 5575SOL     OW17623   6.959   1.162   0.836
 5575SOL    HW117624   6.888   1.130   0.899
 5575SOL    HW217625   6.968   1.261   0.843
 5576SOL     OW17626   1.510   5.295   2.040
 5576SOL    HW117627   1.418   5.270   2.012
 5576SOL    HW217628   1.509   5.332   2.133
 5577SOL     OW17629   2.929   3.304   5.247
 5577SOL    HW117630   2.839   3.261   5.252
 5577SOL    HW217631   2.953   3.319   5.152
 5578SOL     OW17632   3.307   3.856   0.607
 5578SOL    HW117633   3.312   3.756   0.608
 5578SOL    HW217634   3.364   3.891   0.532
 5579SOL     OW17635   1.133   3.499   6.113
 5579SOL    HW117636   1.049   3.552   6.102
 5579SOL    HW217637   1.181   3.493   6.025
 5580SOL     OW17638   5.194   2.819   5.810
 5580SOL    HW117639   5.202   2.803   5.908
 5580SOL    HW217640   5.279   2.859   5.775
 5581SOL     OW17641   1.520   0.018   1.916
 5581SOL    HW117642   1.435   6.998   1.945
 5581SOL    HW217643   1.598   6.995   1.955
 5582SOL     OW17644   3.226   3.698   4.851
 5582SOL    HW117645   3.213   3.772   4.916
 5582SOL    HW217646   3.276   3.732   4.771
 5583SOL     OW17647   4.164   0.475   2.519
 5583SOL    HW117648   4.188   0.420   2.440
 5583SOL    HW217649   4.235   0.543   2.536
 5584SOL     OW17650   5.902   4.414   4.013
 5584SOL    HW117651   5.854   4.497   3.985
 5584SOL    HW217652   5.998   4.420   3.985
 5585SOL     OW17653   4.866   6.220   3.846
 5585SOL    HW117654   4.915   6.241   3.930
 5585SOL    HW217655   4.824   6.129   3.853
 5586SOL     OW17656   0.078   2.373   6.881
 5586SOL    HW117657   0.045   2.449   6.936
 5586SOL    HW217658   0.143   2.319   6.934
 5587SOL     OW17659   3.950   5.636   2.550
 5587SOL    HW117660   3.863   5.685   2.540
 5587SOL    HW217661   3.935   5.552   2.602
 5588SOL     OW17662   2.183   6.320   2.656
 5588SOL    HW117663   2.168   6.224   2.681
 5588SOL    HW217664   2.219   6.325   2.563
 5589SOL     OW17665   6.159   3.865   5.688
 5589SOL    HW117666   6.193   3.772   5.671
 5589SOL    HW217667   6.202   3.927   5.622
 5590SOL     OW17668   6.217   5.512   4.360
 5590SOL    HW117669   6.180   5.547   4.274
 5590SOL    HW217670   6.266   5.585   4.408
 5591SOL     OW17671   5.446   1.476   0.310
 5591SOL    HW117672   5.538   1.508   0.332
 5591SOL    HW217673   5.380   1.522   0.368
 5592SOL     OW17674   6.806   4.876   2.962
 5592SOL    HW117675   6.835   4.853   3.055
 5592SOL    HW217676   6.834   4.804   2.899
 5593SOL     OW17677   0.032   3.087   6.580
 5593SOL    HW117678   0.013   3.185   6.585
 5593SOL    HW217679   0.020   3.046   6.670
 5594SOL     OW17680   3.459   1.158   6.462
 5594SOL    HW117681   3.401   1.234   6.492
 5594SOL    HW217682   3.532   1.143   6.529
 5595SOL     OW17683   6.029   0.361   5.231
 5595SOL    HW117684   6.078   0.413   5.162
 5595SOL    HW217685   6.069   0.378   5.321
 5596SOL     OW17686   4.887   0.747   3.176
 5596SOL    HW117687   4.953   0.817   3.148
 5596SOL    HW217688   4.798   0.789   3.192
 5597SOL     OW17689   6.005   2.519   5.541
 5597SOL    HW117690   6.079   2.523   5.608
 5597SOL    HW217691   6.016   2.594   5.475
 5598SOL     OW17692   6.050   3.458   3.832
 5598SOL    HW117693   6.069   3.360   3.834
 5598SOL    HW217694   6.135   3.508   3.814
 5599SOL     OW17695   0.977   3.001   1.861
 5599SOL    HW117696   0.944   2.967   1.949
 5599SOL    HW217697   1.050   3.068   1.877
 5600SOL     OW17698   1.786   0.448   2.384
 5600SOL    HW117699   1.841   0.380   2.432
 5600SOL    HW217700   1.818   0.540   2.406
 5601SOL     OW17701   2.666   1.258   6.058
 5601SOL    HW117702   2.654   1.343   6.007
 5601SOL    HW217703   2.676   1.181   5.995
 5602SOL     OW17704   0.233   0.791   1.686
 5602SOL    HW117705   0.137   0.813   1.705
 5602SOL    HW217706   0.283   0.782   1.773
 5603SOL     OW17707   5.371   2.203   0.111
 5603SOL    HW117708   5.438   2.210   0.037
 5603SOL    HW217709   5.313   2.123   0.096
 5604SOL     OW17710   6.518   2.569   4.968
 5604SOL    HW117711   6.602   2.517   4.982
 5604SOL    HW217712   6.512   2.596   4.872
 5605SOL     OW17713   0.585   0.853   4.560
 5605SOL    HW117714   0.678   0.856   4.523
 5605SOL    HW217715   0.589   0.826   4.656
 5606SOL     OW17716   5.221   0.114   0.853
 5606SOL    HW117717   5.272   0.172   0.790
 5606SOL    HW217718   5.284   0.068   0.915
 5607SOL     OW17719   5.746   1.194   4.010
 5607SOL    HW117720   5.836   1.154   4.028
 5607SOL    HW217721   5.700   1.213   4.097
 5608SOL     OW17722   6.784   0.882   3.249
 5608SOL    HW117723   6.703   0.868   3.193
 5608SOL    HW217724   6.792   0.978   3.274
 5609SOL     OW17725   4.068   5.803   2.022
 5609SOL    HW117726   4.133   5.751   1.967
 5609SOL    HW217727   3.984   5.818   1.970
 5610SOL     OW17728   4.826   4.779   1.996
 5610SOL    HW117729   4.812   4.719   1.916
 5610SOL    HW217730   4.867   4.865   1.966
 5611SOL     OW17731   0.636   5.108   3.348
 5611SOL    HW117732   0.648   5.139   3.254
 5611SOL    HW217733   0.538   5.106   3.370
 5612SOL     OW17734   4.398   2.678   6.332
 5612SOL    HW117735   4.484   2.711   6.373
 5612SOL    HW217736   4.321   2.728   6.372
 5613SOL     OW17737   5.487   5.942   5.181
 5613SOL    HW117738   5.417   5.903   5.121
 5613SOL    HW217739   5.541   5.868   5.221
 5614SOL     OW17740   5.460   2.594   4.615
 5614SOL    HW117741   5.403   2.668   4.579
 5614SOL    HW217742   5.556   2.612   4.592
 5615SOL     OW17743   6.456   1.697   4.003
 5615SOL    HW117744   6.370   1.699   4.056
 5615SOL    HW217745   6.450   1.763   3.928
 5616SOL     OW17746   2.244   2.533   5.446
 5616SOL    HW117747   2.320   2.583   5.486
 5616SOL    HW217748   2.224   2.569   5.354
 5617SOL     OW17749   2.375   5.211   5.793
 5617SOL    HW117750   2.456   5.257   5.829
 5617SOL    HW217751   2.366   5.230   5.695
 5618SOL     OW17752   6.804   4.730   3.999
 5618SOL    HW117753   6.730   4.711   4.064
 5618SOL    HW217754   6.832   4.644   3.955
 5619SOL     OW17755   4.009   3.714   4.476
 5619SOL    HW117756   4.058   3.633   4.443
 5619SOL    HW217757   4.029   3.791   4.416
 5620SOL     OW17758   4.049   3.753   6.967
 5620SOL    HW117759   4.031   3.768   0.039
 5620SOL    HW217760   4.146   3.738   6.953
 5621SOL     OW17761   2.042   2.885   0.120
 5621SOL    HW117762   2.005   2.797   0.150
 5621SOL    HW217763   2.015   2.957   0.184
 5622SOL     OW17764   3.935   0.210   6.057
 5622SOL    HW117765   3.931   0.137   6.126
 5622SOL    HW217766   4.017   0.197   6.001
 5623SOL     OW17767   4.996   6.331   4.843
 5623SOL    HW117768   4.938   6.409   4.823
 5623SOL    HW217769   4.976   6.257   4.778
 5624SOL     OW17770   0.659   4.272   3.774
 5624SOL    HW117771   0.742   4.321   3.750
 5624SOL    HW217772   0.581   4.335   3.771
 5625SOL     OW17773   0.078   6.755   5.701
 5625SOL    HW117774   0.047   6.760   5.607
 5625SOL    HW217775   0.089   6.848   5.738
 5626SOL     OW17776   2.666   6.609   4.040
 5626SOL    HW117777   2.669   6.530   3.979
 5626SOL    HW217778   2.593   6.671   4.011
 5627SOL     OW17779   0.811   5.335   6.660
 5627SOL    HW117780   0.783   5.249   6.618
 5627SOL    HW217781   0.812   5.407   6.590
 5628SOL     OW17782   2.214   2.807   1.849
 5628SOL    HW117783   2.136   2.781   1.905
 5628SOL    HW217784   2.197   2.782   1.754
 5629SOL     OW17785   4.443   3.035   1.676
 5629SOL    HW117786   4.527   3.029   1.730
 5629SOL    HW217787   4.405   3.127   1.684
 5630SOL     OW17788   1.930   3.889   6.682
 5630SOL    HW117789   1.935   3.809   6.622
 5630SOL    HW217790   1.841   3.891   6.727
 5631SOL     OW17791   4.750   1.460   2.048
 5631SOL    HW117792   4.827   1.512   2.012
 5631SOL    HW217793   4.782   1.368   2.073
 5632SOL     OW17794   2.906   2.463   5.522
 5632SOL    HW117795   2.993   2.511   5.516
 5632SOL    HW217796   2.873   2.443   5.429
 5633SOL     OW17797   5.924   5.241   4.316
 5633SOL    HW117798   5.950   5.243   4.219
 5633SOL    HW217799   5.944   5.150   4.354
 5634SOL     OW17800   1.707   4.808   3.793
 5634SOL    HW117801   1.776   4.880   3.789
 5634SOL    HW217802   1.631   4.838   3.851
 5635SOL     OW17803   1.724   6.082   6.943
 5635SOL    HW117804   1.809   6.115   6.901
 5635SOL    HW217805   1.745   6.024   7.021
 5636SOL     OW17806   5.454   6.991   4.764
 5636SOL    HW117807   5.367   6.941   4.770
 5636SOL    HW217808   5.528   6.927   4.746
 5637SOL     OW17809   4.629   6.708   3.263
 5637SOL    HW117810   4.698   6.757   3.317
 5637SOL    HW217811   4.649   6.610   3.265
 5638SOL     OW17812   0.079   3.668   0.904
 5638SOL    HW117813   0.171   3.628   0.905
 5638SOL    HW217814   0.037   3.655   0.994
 5639SOL     OW17815   2.113   0.062   2.245
 5639SOL    HW117816   2.023   0.097   2.222
 5639SOL    HW217817   2.165   0.131   2.295
 5640SOL     OW17818   3.256   0.786   2.497
 5640SOL    HW117819   3.263   0.885   2.495
 5640SOL    HW217820   3.346   0.746   2.514
 5641SOL     OW17821   0.574   4.553   5.530
 5641SOL    HW117822   0.648   4.579   5.469
 5641SOL    HW217823   0.491   4.537   5.476
 5642SOL     OW17824   0.692   5.700   5.323
 5642SOL    HW117825   0.741   5.630   5.374
 5642SOL    HW217826   0.593   5.689   5.336
 5643SOL     OW17827   3.668   1.165   3.573
 5643SOL    HW117828   3.692   1.247   3.624
 5643SOL    HW217829   3.751   1.111   3.555
 5644SOL     OW17830   3.379   6.794   5.238
 5644SOL    HW117831   3.335   6.710   5.204
 5644SOL    HW217832   3.324   6.833   5.312
 5645SOL     OW17833   5.879   4.752   2.680
 5645SOL    HW117834   5.897   4.827   2.744
 5645SOL    HW217835   5.781   4.741   2.668
 5646SOL     OW17836   0.895   6.022   3.998
 5646SOL    HW117837   0.961   6.065   4.059
 5646SOL    HW217838   0.921   6.039   3.903
 5647SOL     OW17839   4.661   0.194   0.766
 5647SOL    HW117840   4.748   0.212   0.720
 5647SOL    HW217841   4.653   0.097   0.788
 5648SOL     OW17842   1.602   0.094   3.553
 5648SOL    HW117843   1.541   0.170   3.575
 5648SOL    HW217844   1.564   0.042   3.476
 5649SOL     OW17845   0.312   0.772   4.602
 5649SOL    HW117846   0.412   0.773   4.599
 5649SOL    HW217847   0.278   0.861   4.572
 5650SOL     OW17848   0.869   4.981   0.664
 5650SOL    HW117849   0.895   4.917   0.736
 5650SOL    HW217850   0.770   4.994   0.665
 5651SOL     OW17851   1.306   1.609   1.649
 5651SOL    HW117852   1.393   1.578   1.611
 5651SOL    HW217853   1.231   1.567   1.598
 5652SOL     OW17854   6.675   0.063   2.277
 5652SOL    HW117855   6.605   0.133   2.268
 5652SOL    HW217856   6.644   7.004   2.232
 5653SOL     OW17857   6.642   6.322   6.718
 5653SOL    HW117858   6.646   6.222   6.717
 5653SOL    HW217859   6.571   6.352   6.782
 5654SOL     OW17860   6.363   6.974   5.269
 5654SOL    HW117861   6.461   6.975   5.253
 5654SOL    HW217862   6.339   6.897   5.328
 5655SOL     OW17863   1.546   3.899   4.873
 5655SOL    HW117864   1.557   3.997   4.891
 5655SOL    HW217865   1.451   3.881   4.846
 5656SOL     OW17866   6.975   3.704   6.588
 5656SOL    HW117867   7.011   3.763   6.661
 5656SOL    HW217868   0.025   3.673   6.530
 5657SOL     OW17869   5.578   1.827   0.555
 5657SOL    HW117870   5.522   1.781   0.624
 5657SOL    HW217871   5.570   1.779   0.468
 5658SOL     OW17872   3.699   4.006   6.421
 5658SOL    HW117873   3.779   3.993   6.480
 5658SOL    HW217874   3.727   3.997   6.326
 5659SOL     OW17875   3.796   3.146   4.984
 5659SOL    HW117876   3.770   3.131   5.079
 5659SOL    HW217877   3.798   3.244   4.964
 5660SOL     OW17878   4.969   0.027   0.795
 5660SOL    HW117879   5.061   0.057   0.822
 5660SOL    HW217880   4.946   6.968   0.844
 5661SOL     OW17881   1.421   5.555   5.253
 5661SOL    HW117882   1.401   5.635   5.310
 5661SOL    HW217883   1.439   5.476   5.312
 5662SOL     OW17884   2.920   6.100   3.431
 5662SOL    HW117885   2.990   6.030   3.440
 5662SOL    HW217886   2.841   6.077   3.488
 5663SOL     OW17887   1.659   3.248   6.777
 5663SOL    HW117888   1.579   3.303   6.801
 5663SOL    HW217889   1.724   3.304   6.727
 5664SOL     OW17890   6.518   3.950   4.259
 5664SOL    HW117891   6.605   3.905   4.278
 5664SOL    HW217892   6.486   3.925   4.167
 5665SOL     OW17893   2.128   1.065   0.151
 5665SOL    HW117894   2.078   1.026   0.229
 5665SOL    HW217895   2.085   1.151   0.123
 5666SOL     OW17896   5.939   6.568   2.977
 5666SOL    HW117897   5.915   6.613   2.891
 5666SOL    HW217898   5.984   6.481   2.958
 5667SOL     OW17899   1.435   5.250   4.658
 5667SOL    HW117900   1.476   5.202   4.581
 5667SOL    HW217901   1.382   5.328   4.625
 5668SOL     OW17902   5.119   2.407   3.827
 5668SOL    HW117903   5.040   2.450   3.783
 5668SOL    HW217904   5.089   2.325   3.876
 5669SOL     OW17905   6.683   3.767   6.610
 5669SOL    HW117906   6.771   3.720   6.607
 5669SOL    HW217907   6.660   3.787   6.705
 5670SOL     OW17908   0.006   2.597   3.811
 5670SOL    HW117909   6.976   2.530   3.860
 5670SOL    HW217910   0.096   2.557   3.791
 5671SOL     OW17911   6.476   6.054   6.441
 5671SOL    HW117912   6.573   6.051   6.464
 5671SOL    HW217913   6.464   6.092   6.349
 5672SOL     OW17914   4.130   4.232   6.601
 5672SOL    HW117915   4.077   4.264   6.680
 5672SOL    HW217916   4.135   4.305   6.532
 5673SOL     OW17917   0.943   0.513   1.826
 5673SOL    HW117918   0.975   0.419   1.841
 5673SOL    HW217919   0.848   0.521   1.855
 5674SOL     OW17920   0.353   4.823   4.789
 5674SOL    HW117921   0.391   4.906   4.829
 5674SOL    HW217922   0.266   4.802   4.834
 5675SOL     OW17923   3.879   2.284   0.344
 5675SOL    HW117924   3.858   2.381   0.354
 5675SOL    HW217925   3.942   2.272   0.267
 5676SOL     OW17926   2.469   2.729   1.880
 5676SOL    HW117927   2.525   2.779   1.814
 5676SOL    HW217928   2.373   2.757   1.869
 5677SOL     OW17929   0.923   1.455   0.474
 5677SOL    HW117930   0.955   1.528   0.534
 5677SOL    HW217931   0.988   1.379   0.476
 5678SOL     OW17932   4.133   6.789   2.342
 5678SOL    HW117933   4.171   6.704   2.378
 5678SOL    HW217934   4.038   6.774   2.314
 5679SOL     OW17935   0.420   1.190   3.804
 5679SOL    HW117936   0.377   1.280   3.803
 5679SOL    HW217937   0.491   1.187   3.734
 5680SOL     OW17938   1.937   5.093   5.718
 5680SOL    HW117939   1.877   5.014   5.735
 5680SOL    HW217940   1.930   5.120   5.622
 5681SOL     OW17941   0.182   4.305   1.189
 5681SOL    HW117942   0.196   4.262   1.100
 5681SOL    HW217943   0.122   4.248   1.245
 5682SOL     OW17944   2.424   4.501   5.142
 5682SOL    HW117945   2.430   4.408   5.178
 5682SOL    HW217946   2.375   4.559   5.207
 5683SOL     OW17947   4.578   1.131   6.477
 5683SOL    HW117948   4.486   1.150   6.443
 5683SOL    HW217949   4.646   1.178   6.420
 5684SOL     OW17950   2.759   3.604   5.624
 5684SOL    HW117951   2.778   3.509   5.597
 5684SOL    HW217952   2.821   3.665   5.575
 5685SOL     OW17953   2.076   2.683   2.285
 5685SOL    HW117954   2.158   2.738   2.267
 5685SOL    HW217955   2.090   2.630   2.368
 5686SOL     OW17956   3.093   1.371   6.054
 5686SOL    HW117957   3.125   1.434   5.983
 5686SOL    HW217958   3.084   1.279   6.014
 5687SOL     OW17959   0.714   5.301   7.002
 5687SOL    HW117960   0.717   5.343   0.067
 5687SOL    HW217961   0.806   5.300   6.963
 5688SOL     OW17962   0.453   2.702   1.268
 5688SOL    HW117963   0.462   2.676   1.364
 5688SOL    HW217964   0.434   2.620   1.213
 5689SOL     OW17965   3.756   1.286   0.472
 5689SOL    HW117966   3.811   1.204   0.489
 5689SOL    HW217967   3.815   1.359   0.440
 5690SOL     OW17968   2.315   5.709   0.448
 5690SOL    HW117969   2.388   5.715   0.379
 5690SOL    HW217970   2.300   5.800   0.487
 5691SOL     OW17971   3.450   0.676   1.795
 5691SOL    HW117972   3.510   0.607   1.757
 5691SOL    HW217973   3.367   0.633   1.829
 5692SOL     OW17974   5.389   3.168   0.751
 5692SOL    HW117975   5.419   3.244   0.808
 5692SOL    HW217976   5.467   3.110   0.729
 5693SOL     OW17977   5.439   2.500   2.612
 5693SOL    HW117978   5.427   2.401   2.603
 5693SOL    HW217979   5.350   2.544   2.617
 5694SOL     OW17980   0.961   1.666   3.242
 5694SOL    HW117981   1.002   1.578   3.265
 5694SOL    HW217982   0.996   1.697   3.153
 5695SOL     OW17983   1.544   2.627   3.176
 5695SOL    HW117984   1.528   2.594   3.083
 5695SOL    HW217985   1.493   2.570   3.241
 5696SOL     OW17986   1.118   1.387   3.212
 5696SOL    HW117987   1.099   1.289   3.221
 5696SOL    HW217988   1.145   1.424   3.300
 5697SOL     OW17989   5.754   2.312   0.987
 5697SOL    HW117990   5.678   2.309   1.051
 5697SOL    HW217991   5.745   2.239   0.920
 5698SOL     OW17992   1.107   4.086   3.956
 5698SOL    HW117993   1.127   4.183   3.951
 5698SOL    HW217994   1.009   4.071   3.942
 5699SOL     OW17995   0.287   2.882   3.185
 5699SOL    HW117996   0.199   2.885   3.232
 5699SOL    HW217997   0.273   2.857   3.089
 5700SOL     OW17998   6.902   6.896   3.192
 5700SOL    HW117999   6.850   6.812   3.174
 5700SOL    HW218000   6.867   6.970   3.135
 5701SOL     OW18001   1.302   0.938   1.999
 5701SOL    HW118002   1.391   0.916   2.038
 5701SOL    HW218003   1.230   0.916   2.065
 5702SOL     OW18004   2.782   5.968   4.462
 5702SOL    HW118005   2.881   5.967   4.477
 5702SOL    HW218006   2.741   6.042   4.515
 5703SOL     OW18007   6.828   4.895   1.770
 5703SOL    HW118008   6.792   4.986   1.790
 5703SOL    HW218009   6.855   4.850   1.855
 5704SOL     OW18010   4.681   4.614   2.636
 5704SOL    HW118011   4.742   4.546   2.595
 5704SOL    HW218012   4.734   4.696   2.660
 5705SOL     OW18013   4.892   0.269   0.086
 5705SOL    HW118014   4.844   0.206   0.026
 5705SOL    HW218015   4.990   0.269   0.063
 5706SOL     OW18016   6.968   4.114   1.218
 5706SOL    HW118017   6.879   4.143   1.183
 5706SOL    HW218018   7.023   4.078   1.143
 5707SOL     OW18019   0.119   6.591   0.314
 5707SOL    HW118020   0.023   6.564   0.305
 5707SOL    HW218021   0.177   6.523   0.268
 5708SOL     OW18022   5.076   5.763   2.195
 5708SOL    HW118023   5.020   5.795   2.272
 5708SOL    HW218024   5.173   5.769   2.220
 5709SOL     OW18025   0.997   0.709   2.524
 5709SOL    HW118026   1.004   0.671   2.432
 5709SOL    HW218027   0.937   0.653   2.580
 5710SOL     OW18028   2.517   2.809   0.616
 5710SOL    HW118029   2.487   2.763   0.700
 5710SOL    HW218030   2.463   2.776   0.539
 5711SOL     OW18031   5.547   0.893   2.582
 5711SOL    HW118032   5.539   0.972   2.522
 5711SOL    HW218033   5.516   0.811   2.534
 5712SOL     OW18034   6.328   0.636   6.292
 5712SOL    HW118035   6.255   0.703   6.303
 5712SOL    HW218036   6.405   0.661   6.351
 5713SOL     OW18037   3.583   3.046   1.762
 5713SOL    HW118038   3.510   3.024   1.697
 5713SOL    HW218039   3.584   2.978   1.835
 5714SOL     OW18040   0.385   5.835   0.235
 5714SOL    HW118041   0.453   5.806   0.302
 5714SOL    HW218042   0.332   5.912   0.272
 5715SOL     OW18043   0.763   0.601   2.659
 5715SOL    HW118044   0.817   0.607   2.743
 5715SOL    HW218045   0.666   0.610   2.681
 5716SOL     OW18046   1.815   4.218   6.754
 5716SOL    HW118047   1.897   4.206   6.810
 5716SOL    HW218048   1.761   4.134   6.755
 5717SOL     OW18049   1.405   4.936   1.228
 5717SOL    HW118050   1.493   4.983   1.217
 5717SOL    HW218051   1.344   4.993   1.282
 5718SOL     OW18052   7.010   2.819   5.026
 5718SOL    HW118053   7.023   2.859   5.117
 5718SOL    HW218054   6.918   2.841   4.994
 5719SOL     OW18055   2.670   2.115   6.474
 5719SOL    HW118056   2.636   2.045   6.536
 5719SOL    HW218057   2.627   2.203   6.495
 5720SOL     OW18058   1.592   5.628   5.048
 5720SOL    HW118059   1.618   5.572   4.968
 5720SOL    HW218060   1.535   5.574   5.109
 5721SOL     OW18061   0.008   3.612   1.170
 5721SOL    HW118062   0.108   3.611   1.170
 5721SOL    HW218063   7.000   3.563   1.250
 5722SOL     OW18064   6.676   1.410   4.850
 5722SOL    HW118065   6.583   1.389   4.881
 5722SOL    HW218066   6.673   1.486   4.784
 5723SOL     OW18067   4.288   2.923   1.008
 5723SOL    HW118068   4.317   2.868   0.929
 5723SOL    HW218069   4.295   3.020   0.985
 5724SOL     OW18070   5.930   2.843   4.649
 5724SOL    HW118071   5.933   2.777   4.724
 5724SOL    HW218072   5.861   2.815   4.582
 5725SOL     OW18073   5.195   5.735   4.430
 5725SOL    HW118074   5.201   5.817   4.488
 5725SOL    HW218075   5.165   5.658   4.486
 5726SOL     OW18076   0.129   5.001   4.749
 5726SOL    HW118077   0.087   5.084   4.786
 5726SOL    HW218078   0.120   4.926   4.815
 5727SOL     OW18079   6.803   1.645   4.027
 5727SOL    HW118080   6.797   1.719   3.961
 5727SOL    HW218081   6.712   1.622   4.060
 5728SOL     OW18082   3.693   0.155   6.406
 5728SOL    HW118083   3.668   0.234   6.350
 5728SOL    HW218084   3.611   0.117   6.449
 5729SOL     OW18085   1.307   1.443   0.700
 5729SOL    HW118086   1.328   1.395   0.614
 5729SOL    HW218087   1.302   1.542   0.682
 5730SOL     OW18088   5.035   4.766   6.213
 5730SOL    HW118089   5.076   4.776   6.304
 5730SOL    HW218090   4.965   4.837   6.201
 5731SOL     OW18091   7.012   6.831   3.916
 5731SOL    HW118092   0.050   6.870   3.851
 5731SOL    HW218093   6.931   6.889   3.923
 5732SOL     OW18094   6.872   5.469   4.761
 5732SOL    HW118095   6.884   5.552   4.816
 5732SOL    HW218096   6.938   5.470   4.685
 5733SOL     OW18097   4.467   6.656   5.192
 5733SOL    HW118098   4.427   6.600   5.119
 5733SOL    HW218099   4.511   6.595   5.259
 5734SOL     OW18100   0.896   6.723   5.740
 5734SOL    HW118101   0.838   6.680   5.810
 5734SOL    HW218102   0.854   6.808   5.709
 5735SOL     OW18103   4.244   2.293   2.090
 5735SOL    HW118104   4.284   2.365   2.034
 5735SOL    HW218105   4.193   2.230   2.031
 5736SOL     OW18106   6.363   4.301   0.008
 5736SOL    HW118107   6.369   4.326   0.105
 5736SOL    HW218108   6.273   4.327   6.999
 5737SOL     OW18109   5.916   6.961   1.060
 5737SOL    HW118110   6.002   6.968   1.008
 5737SOL    HW218111   5.918   0.000   1.136
 5738SOL     OW18112   2.203   3.156   5.993
 5738SOL    HW118113   2.254   3.092   5.935
 5738SOL    HW218114   2.127   3.195   5.942
 5739SOL     OW18115   1.530   0.626   5.963
 5739SOL    HW118116   1.441   0.670   5.948
 5739SOL    HW218117   1.554   0.632   6.060
 5740SOL     OW18118   4.269   3.503   1.454
 5740SOL    HW118119   4.310   3.527   1.543
 5740SOL    HW218120   4.170   3.515   1.459
 5741SOL     OW18121   0.502   4.315   4.425
 5741SOL    HW118122   0.542   4.226   4.448
 5741SOL    HW218123   0.438   4.303   4.349
 5742SOL     OW18124   5.330   6.976   2.165
 5742SOL    HW118125   5.274   0.023   2.125
 5742SOL    HW218126   5.369   7.009   2.251
 5743SOL     OW18127   2.412   5.055   5.037
 5743SOL    HW118128   2.433   5.142   5.081
 5743SOL    HW218129   2.494   5.020   4.991
 5744SOL     OW18130   4.701   0.750   2.183
 5744SOL    HW118131   4.758   0.799   2.249
 5744SOL    HW218132   4.691   0.805   2.100
 5745SOL     OW18133   1.966   0.994   3.709
 5745SOL    HW118134   1.874   0.985   3.671
 5745SOL    HW218135   2.025   1.041   3.644
 5746SOL     OW18136   5.990   6.735   1.797
 5746SOL    HW118137   6.063   6.706   1.859
 5746SOL    HW218138   5.901   6.718   1.841
 5747SOL     OW18139   6.860   4.385   2.933
 5747SOL    HW118140   6.802   4.452   2.886
 5747SOL    HW218141   6.913   4.432   3.005
 5748SOL     OW18142   1.485   5.938   0.469
 5748SOL    HW118143   1.542   5.910   0.545
 5748SOL    HW218144   1.404   5.879   0.463
 5749SOL     OW18145   1.363   0.192   4.628
 5749SOL    HW118146   1.270   0.215   4.657
 5749SOL    HW218147   1.406   0.135   4.698
 5750SOL     OW18148   5.410   6.535   4.660
 5750SOL    HW118149   5.340   6.599   4.692
 5750SOL    HW218150   5.384   6.500   4.570
 5751SOL     OW18151   2.478   2.597   4.660
 5751SOL    HW118152   2.449   2.615   4.566
 5751SOL    HW218153   2.442   2.668   4.721
 5752SOL     OW18154   6.055   0.617   0.219
 5752SOL    HW118155   5.973   0.650   0.266
 5752SOL    HW218156   6.073   0.674   0.139
 5753SOL     OW18157   3.636   3.755   5.365
 5753SOL    HW118158   3.685   3.687   5.419
 5753SOL    HW218159   3.570   3.802   5.422
 5754SOL     OW18160   6.309   4.395   1.158
 5754SOL    HW118161   6.313   4.492   1.134
 5754SOL    HW218162   6.354   4.381   1.247
 5755SOL     OW18163   2.312   2.970   6.553
 5755SOL    HW118164   2.287   3.063   6.526
 5755SOL    HW218165   2.280   2.905   6.485
 5756SOL     OW18166   5.986   6.339   3.783
 5756SOL    HW118167   6.050   6.368   3.713
 5756SOL    HW218168   5.913   6.406   3.792
 5757SOL     OW18169   6.777   6.434   2.761
 5757SOL    HW118170   6.780   6.524   2.805
 5757SOL    HW218171   6.760   6.445   2.664
 5758SOL     OW18172   2.408   0.839   4.900
 5758SOL    HW118173   2.493   0.795   4.929
 5758SOL    HW218174   2.418   0.873   4.807
 5759SOL     OW18175   4.977   0.868   6.534
 5759SOL    HW118176   5.061   0.814   6.534
 5759SOL    HW218177   4.918   0.838   6.459
 5760SOL     OW18178   0.432   4.757   1.051
 5760SOL    HW118179   0.450   4.781   1.147
 5760SOL    HW218180   0.336   4.732   1.040
 5761SOL     OW18181   5.811   6.774   6.355
 5761SOL    HW118182   5.768   6.698   6.404
 5761SOL    HW218183   5.739   6.830   6.313
 5762SOL     OW18184   4.640   5.975   0.309
 5762SOL    HW118185   4.651   6.005   0.404
 5762SOL    HW218186   4.637   5.875   0.305
 5763SOL     OW18187   6.896   0.995   6.483
 5763SOL    HW118188   6.818   1.011   6.422
 5763SOL    HW218189   6.921   1.081   6.527
 5764SOL     OW18190   4.528   4.697   5.733
 5764SOL    HW118191   4.532   4.607   5.690
 5764SOL    HW218192   4.604   4.706   5.798
 5765SOL     OW18193   6.632   3.781   6.878
 5765SOL    HW118194   6.540   3.783   6.918
 5765SOL    HW218195   6.694   3.834   6.936
 5766SOL     OW18196   2.494   2.313   0.252
 5766SOL    HW118197   2.593   2.329   0.250
 5766SOL    HW218198   2.466   2.267   0.168
 5767SOL     OW18199   2.366   0.187   0.501
 5767SOL    HW118200   2.307   0.149   0.430
 5767SOL    HW218201   2.394   0.114   0.563
 5768SOL     OW18202   0.175   6.801   2.745
 5768SOL    HW118203   0.194   6.887   2.793
 5768SOL    HW218204   0.131   6.737   2.807
 5769SOL     OW18205   2.361   6.325   4.126
 5769SOL    HW118206   2.417   6.392   4.175
 5769SOL    HW218207   2.299   6.280   4.190
 5770SOL     OW18208   5.924   0.296   0.021
 5770SOL    HW118209   5.829   0.314   0.044
 5770SOL    HW218210   5.969   0.249   0.098
 5771SOL     OW18211   1.444   6.261   2.998
 5771SOL    HW118212   1.388   6.318   3.058
 5771SOL    HW218213   1.466   6.312   2.915
 5772SOL     OW18214   6.314   2.552   0.652
 5772SOL    HW118215   6.275   2.480   0.709
 5772SOL    HW218216   6.372   2.611   0.708
 5773SOL     OW18217   4.737   1.041   4.253
 5773SOL    HW118218   4.828   1.062   4.288
 5773SOL    HW218219   4.740   1.037   4.154
 5774SOL     OW18220   3.071   5.467   3.681
 5774SOL    HW118221   3.164   5.458   3.646
 5774SOL    HW218222   3.073   5.483   3.780
 5775SOL     OW18223   1.544   0.831   2.145
 5775SOL    HW118224   1.627   0.792   2.106
 5775SOL    HW218225   1.564   0.871   2.235
 5776SOL     OW18226   6.390   1.149   6.117
 5776SOL    HW118227   6.410   1.145   6.215
 5776SOL    HW218228   6.328   1.225   6.099
 5777SOL     OW18229   6.720   0.156   4.767
 5777SOL    HW118230   6.671   0.128   4.850
 5777SOL    HW218231   6.669   0.229   4.721
 5778SOL     OW18232   1.702   0.555   1.677
 5778SOL    HW118233   1.767   0.543   1.602
 5778SOL    HW218234   1.609   0.534   1.645
 5779SOL     OW18235   4.002   1.385   0.622
 5779SOL    HW118236   4.042   1.364   0.711
 5779SOL    HW218237   4.000   1.302   0.566
 5780SOL     OW18238   5.802   5.662   2.884
 5780SOL    HW118239   5.876   5.598   2.902
 5780SOL    HW218240   5.839   5.744   2.839
 5781SOL     OW18241   0.935   4.152   4.562
 5781SOL    HW118242   0.955   4.076   4.624
 5781SOL    HW218243   0.884   4.223   4.611
 5782SOL     OW18244   1.574   0.780   0.994
 5782SOL    HW118245   1.595   0.707   0.929
 5782SOL    HW218246   1.620   0.762   1.081
 5783SOL     OW18247   1.871   1.042   1.259
 5783SOL    HW118248   1.833   1.021   1.168
 5783SOL    HW218249   1.842   0.972   1.324
 5784SOL     OW18250   6.667   6.643   0.009
 5784SOL    HW118251   6.635   6.729   6.995
 5784SOL    HW218252   6.693   6.659   0.105
 5785SOL     OW18253   1.788   1.486   1.521
 5785SOL    HW118254   1.833   1.398   1.540
 5785SOL    HW218255   1.837   1.559   1.569
 5786SOL     OW18256   0.750   4.420   0.412
 5786SOL    HW118257   0.833   4.463   0.378
 5786SOL    HW218258   0.773   4.343   0.471
 5787SOL     OW18259   4.605   2.628   4.537
 5787SOL    HW118260   4.582   2.623   4.635
 5787SOL    HW218261   4.670   2.556   4.514
 5788SOL     OW18262   3.411   0.832   1.296
 5788SOL    HW118263   3.442   0.924   1.274
 5788SOL    HW218264   3.354   0.797   1.222
 5789SOL     OW18265   3.096   3.231   6.190
 5789SOL    HW118266   3.026   3.246   6.120
 5789SOL    HW218267   3.145   3.317   6.207
 5790SOL     OW18268   0.611   4.772   4.715
 5790SOL    HW118269   0.609   4.691   4.656
 5790SOL    HW218270   0.518   4.802   4.734
 5791SOL     OW18271   2.831   2.244   2.257
 5791SOL    HW118272   2.859   2.273   2.166
 5791SOL    HW218273   2.779   2.317   2.301
 5792SOL     OW18274   5.705   3.449   2.069
 5792SOL    HW118275   5.637   3.435   1.997
 5792SOL    HW218276   5.787   3.395   2.050
 5793SOL     OW18277   5.983   0.749   4.532
 5793SOL    HW118278   5.922   0.799   4.593
 5793SOL    HW218279   5.931   0.680   4.482
 5794SOL     OW18280   3.049   0.008   6.367
 5794SOL    HW118281   2.986   0.000   6.444
 5794SOL    HW218282   3.024   0.088   6.312
 5795SOL     OW18283   6.796   6.899   1.319
 5795SOL    HW118284   6.878   6.925   1.269
 5795SOL    HW218285   6.722   6.881   1.254
 5796SOL     OW18286   4.295   0.503   6.579
 5796SOL    HW118287   4.385   0.543   6.594
 5796SOL    HW218288   4.237   0.568   6.530
 5797SOL     OW18289   5.104   1.173   0.346
 5797SOL    HW118290   5.039   1.246   0.366
 5797SOL    HW218291   5.068   1.116   0.272
 5798SOL     OW18292   6.810   4.472   4.571
 5798SOL    HW118293   6.773   4.436   4.485
 5798SOL    HW218294   6.874   4.547   4.551
 5799SOL     OW18295   0.001   0.556   3.777
 5799SOL    HW118296   0.099   0.564   3.758
 5799SOL    HW218297   6.993   0.470   3.740
 5800SOL     OW18298   1.024   6.663   1.579
 5800SOL    HW118299   1.017   6.610   1.664
 5800SOL    HW218300   1.120   6.675   1.556
 5801SOL     OW18301   2.180   2.438   3.361
 5801SOL    HW118302   2.241   2.498   3.309
 5801SOL    HW218303   2.219   2.421   3.452
 5802SOL     OW18304   6.293   3.126   2.496
 5802SOL    HW118305   6.260   3.035   2.472
 5802SOL    HW218306   6.313   3.130   2.594
 5803SOL     OW18307   1.742   5.371   3.484
 5803SOL    HW118308   1.767   5.454   3.535
 5803SOL    HW218309   1.771   5.290   3.536
 5804SOL     OW18310   0.023   5.708   2.925
 5804SOL    HW118311   7.004   5.674   2.843
 5804SOL    HW218312   0.063   5.798   2.906
 5805SOL     OW18313   1.892   2.502   0.486
 5805SOL    HW118314   1.936   2.501   0.576
 5805SOL    HW218315   1.815   2.438   0.486
 5806SOL     OW18316   0.098   4.752   4.885
 5806SOL    HW118317   0.156   4.672   4.895
 5806SOL    HW218318   0.009   4.725   4.848
 5807SOL     OW18319   0.967   5.548   1.036
 5807SOL    HW118320   0.997   5.593   1.121
 5807SOL    HW218321   0.974   5.449   1.048
 5808SOL     OW18322   6.759   6.481   4.523
 5808SOL    HW118323   6.831   6.489   4.454
 5808SOL    HW218324   6.686   6.422   4.489
 5809SOL     OW18325   6.329   2.051   5.369
 5809SOL    HW118326   6.365   2.097   5.287
 5809SOL    HW218327   6.369   2.091   5.451
 5810SOL     OW18328   4.701   1.331   5.525
 5810SOL    HW118329   4.637   1.358   5.453
 5810SOL    HW218330   4.672   1.243   5.564
 5811SOL     OW18331   3.606   1.460   5.153
 5811SOL    HW118332   3.618   1.382   5.214
 5811SOL    HW218333   3.693   1.483   5.111
 5812SOL     OW18334   4.859   3.499   5.917
 5812SOL    HW118335   4.889   3.419   5.864
 5812SOL    HW218336   4.760   3.508   5.910
 5813SOL     OW18337   2.505   0.523   0.789
 5813SOL    HW118338   2.505   0.517   0.689
 5813SOL    HW218339   2.431   0.468   0.826
 5814SOL     OW18340   0.190   3.089   2.116
 5814SOL    HW118341   0.148   3.085   2.026
 5814SOL    HW218342   0.137   3.151   2.175
 5815SOL     OW18343   4.757   1.850   4.180
 5815SOL    HW118344   4.711   1.919   4.236
 5815SOL    HW218345   4.852   1.841   4.210
 5816SOL     OW18346   6.108   4.938   0.234
 5816SOL    HW118347   6.103   4.985   0.321
 5816SOL    HW218348   6.176   4.982   0.175
 5817SOL     OW18349   6.157   4.924   5.312
 5817SOL    HW118350   6.062   4.941   5.337
 5817SOL    HW218351   6.193   4.849   5.366
 5818SOL     OW18352   0.126   5.494   5.291
 5818SOL    HW118353   0.118   5.405   5.335
 5818SOL    HW218354   0.074   5.495   5.206
 5819SOL     OW18355   3.274   5.717   0.123
 5819SOL    HW118356   3.186   5.731   0.078
 5819SOL    HW218357   3.323   5.641   0.078
 5820SOL     OW18358   4.444   4.510   2.715
 5820SOL    HW118359   4.444   4.461   2.803
 5820SOL    HW218360   4.535   4.546   2.697
 5821SOL     OW18361   6.533   0.705   1.348
 5821SOL    HW118362   6.534   0.804   1.338
 5821SOL    HW218363   6.439   0.672   1.350
 5822SOL     OW18364   1.825   2.324   1.846
 5822SOL    HW118365   1.783   2.241   1.882
 5822SOL    HW218366   1.843   2.313   1.748
 5823SOL     OW18367   2.695   0.090   4.777
 5823SOL    HW118368   2.700   7.022   4.810
 5823SOL    HW218369   2.717   0.153   4.852
 5824SOL     OW18370   0.372   6.124   3.847
 5824SOL    HW118371   0.425   6.186   3.905
 5824SOL    HW218372   0.419   6.035   3.843
 5825SOL     OW18373   0.431   5.832   4.804
 5825SOL    HW118374   0.465   5.853   4.895
 5825SOL    HW218375   0.384   5.744   4.805
 5826SOL     OW18376   0.520   6.151   5.854
 5826SOL    HW118377   0.595   6.090   5.880
 5826SOL    HW218378   0.464   6.106   5.785
 5827SOL     OW18379   1.230   3.519   4.762
 5827SOL    HW118380   1.247   3.441   4.822
 5827SOL    HW218381   1.144   3.504   4.712
 5828SOL     OW18382   5.128   1.581   2.766
 5828SOL    HW118383   5.049   1.552   2.821
 5828SOL    HW218384   5.210   1.534   2.798
 5829SOL     OW18385   1.352   0.665   4.728
 5829SOL    HW118386   1.357   0.701   4.822
 5829SOL    HW218387   1.264   0.619   4.715
 5830SOL     OW18388   5.012   0.352   5.447
 5830SOL    HW118389   4.929   0.406   5.464
 5830SOL    HW218390   5.036   0.300   5.529
 5831SOL     OW18391   1.294   1.275   6.018
 5831SOL    HW118392   1.315   1.179   5.995
 5831SOL    HW218393   1.379   1.324   6.035
 5832SOL     OW18394   3.737   4.530   0.326
 5832SOL    HW118395   3.733   4.504   0.230
 5832SOL    HW218396   3.760   4.627   0.334
 5833SOL     OW18397   4.161   3.495   5.113
 5833SOL    HW118398   4.236   3.530   5.168
 5833SOL    HW218399   4.098   3.444   5.172
 5834SOL     OW18400   6.160   4.299   6.759
 5834SOL    HW118401   6.118   4.215   6.726
 5834SOL    HW218402   6.102   4.377   6.736
 5835SOL     OW18403   5.637   1.816   2.595
 5835SOL    HW118404   5.680   1.889   2.543
 5835SOL    HW218405   5.697   1.789   2.670
 5836SOL     OW18406   3.050   0.046   2.158
 5836SOL    HW118407   3.139   0.066   2.117
 5836SOL    HW218408   2.981   0.108   2.120
 5837SOL     OW18409   3.531   3.124   0.096
 5837SOL    HW118410   3.459   3.159   0.037
 5837SOL    HW218411   3.607   3.190   0.098
 5838SOL     OW18412   3.185   1.976   1.694
 5838SOL    HW118413   3.249   1.979   1.617
 5838SOL    HW218414   3.171   2.068   1.730
 5839SOL     OW18415   0.639   2.108   0.786
 5839SOL    HW118416   0.738   2.120   0.789
 5839SOL    HW218417   0.593   2.195   0.801
 5840SOL     OW18418   0.730   4.057   0.373
 5840SOL    HW118419   0.723   4.103   0.462
 5840SOL    HW218420   0.707   3.961   0.384
 5841SOL     OW18421   5.779   0.798   1.784
 5841SOL    HW118422   5.784   0.765   1.878
 5841SOL    HW218423   5.841   0.745   1.726
 5842SOL     OW18424   5.034   2.719   1.851
 5842SOL    HW118425   4.995   2.664   1.776
 5842SOL    HW218426   5.104   2.666   1.898
 5843SOL     OW18427   0.895   4.513   1.868
 5843SOL    HW118428   0.817   4.453   1.850
 5843SOL    HW218429   0.895   4.539   1.965
 5844SOL     OW18430   1.493   5.856   5.813
 5844SOL    HW118431   1.495   5.901   5.902
 5844SOL    HW218432   1.422   5.785   5.813
 5845SOL     OW18433   0.982   0.242   1.823
 5845SOL    HW118434   0.980   0.195   1.911
 5845SOL    HW218435   0.896   0.227   1.775
 5846SOL     OW18436   6.008   3.395   5.434
 5846SOL    HW118437   6.065   3.315   5.454
 5846SOL    HW218438   5.913   3.366   5.425
 5847SOL     OW18439   2.748   2.557   1.686
 5847SOL    HW118440   2.687   2.624   1.729
 5847SOL    HW218441   2.811   2.520   1.755
 5848SOL     OW18442   1.559   5.680   3.426
 5848SOL    HW118443   1.537   5.599   3.371
 5848SOL    HW218444   1.564   5.654   3.523
 5849SOL     OW18445   1.802   6.995   5.137
 5849SOL    HW118446   1.729   6.958   5.080
 5849SOL    HW218447   1.765   7.023   5.225
 5850SOL     OW18448   0.170   3.422   2.274
 5850SOL    HW118449   0.223   3.504   2.294
 5850SOL    HW218450   0.076   3.447   2.253
 5851SOL     OW18451   5.126   3.714   3.847
 5851SOL    HW118452   5.127   3.810   3.875
 5851SOL    HW218453   5.204   3.697   3.786
 5852SOL     OW18454   5.178   6.129   2.827
 5852SOL    HW118455   5.204   6.140   2.923
 5852SOL    HW218456   5.224   6.199   2.772
 5853SOL     OW18457   4.408   5.217   5.414
 5853SOL    HW118458   4.381   5.179   5.325
 5853SOL    HW218459   4.386   5.151   5.486
 5854SOL     OW18460   4.161   4.160   5.588
 5854SOL    HW118461   4.136   4.096   5.515
 5854SOL    HW218462   4.214   4.112   5.657
 5855SOL     OW18463   1.326   1.118   4.499
 5855SOL    HW118464   1.338   1.019   4.497
 5855SOL    HW218465   1.383   1.157   4.572
 5856SOL     OW18466   0.983   6.042   3.744
 5856SOL    HW118467   0.976   5.984   3.663
 5856SOL    HW218468   1.055   6.110   3.730
 5857SOL     OW18469   6.507   3.269   5.033
 5857SOL    HW118470   6.435   3.232   5.092
 5857SOL    HW218471   6.473   3.278   4.940
 5858SOL     OW18472   2.311   2.325   2.841
 5858SOL    HW118473   2.377   2.267   2.794
 5858SOL    HW218474   2.250   2.268   2.897
 5859SOL     OW18475   6.463   6.001   1.393
 5859SOL    HW118476   6.528   6.069   1.429
 5859SOL    HW218477   6.506   5.951   1.317
 5860SOL     OW18478   6.711   5.201   3.272
 5860SOL    HW118479   6.745   5.215   3.365
 5860SOL    HW218480   6.670   5.286   3.239
 5861SOL     OW18481   5.169   1.270   3.913
 5861SOL    HW118482   5.095   1.213   3.879
 5861SOL    HW218483   5.256   1.238   3.875
 5862SOL     OW18484   6.018   5.117   1.153
 5862SOL    HW118485   6.012   5.123   1.053
 5862SOL    HW218486   5.926   5.114   1.191
 5863SOL     OW18487   2.694   2.056   4.729
 5863SOL    HW118488   2.776   2.030   4.780
 5863SOL    HW218489   2.696   2.153   4.708
 5864SOL     OW18490   2.986   3.625   2.376
 5864SOL    HW118491   2.940   3.708   2.407
 5864SOL    HW218492   2.926   3.576   2.312
 5865SOL     OW18493   5.613   0.550   5.046
 5865SOL    HW118494   5.553   0.481   5.006
 5865SOL    HW218495   5.574   0.641   5.030
 5866SOL     OW18496   3.649   3.428   1.569
 5866SOL    HW118497   3.647   3.349   1.508
 5866SOL    HW218498   3.711   3.498   1.532
 5867SOL     OW18499   2.098   3.187   1.405
 5867SOL    HW118500   2.051   3.170   1.492
 5867SOL    HW218501   2.075   3.279   1.373
 5868SOL     OW18502   1.783   1.401   6.094
 5868SOL    HW118503   1.787   1.351   6.008
 5868SOL    HW218504   1.849   1.363   6.158
 5869SOL     OW18505   1.932   5.444   3.006
 5869SOL    HW118506   1.913   5.428   3.103
 5869SOL    HW218507   1.872   5.517   2.972
 5870SOL     OW18508   5.589   6.118   4.882
 5870SOL    HW118509   5.612   6.090   4.975
 5870SOL    HW218510   5.490   6.124   4.873
 5871SOL     OW18511   3.747   3.267   1.762
 5871SOL    HW118512   3.700   3.182   1.740
 5871SOL    HW218513   3.710   3.341   1.705
 5872SOL     OW18514   4.109   6.776   1.407
 5872SOL    HW118515   4.020   6.807   1.376
 5872SOL    HW218516   4.132   6.689   1.362
 5873SOL     OW18517   3.284   6.544   2.260
 5873SOL    HW118518   3.369   6.493   2.249
 5873SOL    HW218519   3.300   6.641   2.243
 5874SOL     OW18520   2.271   4.182   4.713
 5874SOL    HW118521   2.304   4.159   4.805
 5874SOL    HW218522   2.319   4.263   4.680
 5875SOL     OW18523   3.879   1.601   0.497
 5875SOL    HW118524   3.958   1.653   0.467
 5875SOL    HW218525   3.910   1.524   0.554
 5876SOL     OW18526   3.974   3.507   1.783
 5876SOL    HW118527   3.996   3.529   1.878
 5876SOL    HW218528   4.016   3.573   1.722
 5877SOL     OW18529   6.384   6.323   1.056
 5877SOL    HW118530   6.421   6.355   0.969
 5877SOL    HW218531   6.314   6.254   1.039
 5878SOL     OW18532   0.375   5.405   4.185
 5878SOL    HW118533   0.318   5.353   4.121
 5878SOL    HW218534   0.435   5.466   4.134
 5879SOL     OW18535   1.225   4.231   0.182
 5879SOL    HW118536   1.235   4.314   0.238
 5879SOL    HW218537   1.183   4.256   0.095
 5880SOL     OW18538   4.397   4.165   6.914
 5880SOL    HW118539   4.299   4.184   6.927
 5880SOL    HW218540   4.414   4.149   6.817
 5881SOL     OW18541   0.103   5.966   2.916
 5881SOL    HW118542   0.180   6.017   2.878
 5881SOL    HW218543   0.105   5.972   3.016
 5882SOL     OW18544   0.244   6.186   1.058
 5882SOL    HW118545   0.228   6.260   1.124
 5882SOL    HW218546   0.177   6.193   0.984
 5883SOL     OW18547   1.230   0.776   6.356
 5883SOL    HW118548   1.257   0.868   6.330
 5883SOL    HW218549   1.308   0.729   6.398
 5884SOL     OW18550   3.204   1.917   4.703
 5884SOL    HW118551   3.164   2.008   4.688
 5884SOL    HW218552   3.131   1.848   4.704
 5885SOL     OW18553   0.626   0.290   3.123
 5885SOL    HW118554   0.576   0.375   3.139
 5885SOL    HW218555   0.718   0.298   3.160
 5886SOL     OW18556   0.428   1.994   4.864
 5886SOL    HW118557   0.385   2.045   4.790
 5886SOL    HW218558   0.378   1.908   4.878
 5887SOL     OW18559   2.850   1.349   3.226
 5887SOL    HW118560   2.896   1.431   3.195
 5887SOL    HW218561   2.871   1.334   3.323
 5888SOL     OW18562   3.088   1.011   2.130
 5888SOL    HW118563   3.134   0.924   2.151
 5888SOL    HW218564   3.019   0.996   2.059
 5889SOL     OW18565   1.503   6.356   1.282
 5889SOL    HW118566   1.547   6.383   1.196
 5889SOL    HW218567   1.568   6.366   1.357
 5890SOL     OW18568   1.967   0.847   4.289
 5890SOL    HW118569   1.993   0.755   4.260
 5890SOL    HW218570   1.881   0.872   4.244
 5891SOL     OW18571   3.447   3.298   6.028
 5891SOL    HW118572   3.416   3.370   6.089
 5891SOL    HW218573   3.374   3.275   5.963
 5892SOL     OW18574   0.421   5.212   1.744
 5892SOL    HW118575   0.323   5.197   1.737
 5892SOL    HW218576   0.470   5.134   1.704
 5893SOL     OW18577   1.638   4.153   4.562
 5893SOL    HW118578   1.618   4.191   4.472
 5893SOL    HW218579   1.690   4.068   4.551
 5894SOL     OW18580   6.594   4.900   4.415
 5894SOL    HW118581   6.564   4.826   4.475
 5894SOL    HW218582   6.537   4.981   4.431
 5895SOL     OW18583   5.190   3.529   4.069
 5895SOL    HW118584   5.203   3.435   4.037
 5895SOL    HW218585   5.158   3.586   3.994
 5896SOL     OW18586   4.584   0.603   6.887
 5896SOL    HW118587   4.584   0.524   6.950
 5896SOL    HW218588   4.532   0.678   6.929
 5897SOL     OW18589   4.339   0.479   1.439
 5897SOL    HW118590   4.398   0.410   1.397
 5897SOL    HW218591   4.391   0.563   1.454
 5898SOL     OW18592   2.150   6.531   3.227
 5898SOL    HW118593   2.207   6.612   3.214
 5898SOL    HW218594   2.054   6.558   3.233
 5899SOL     OW18595   4.977   6.127   5.898
 5899SOL    HW118596   4.941   6.103   5.988
 5899SOL    HW218597   5.077   6.121   5.898
 5900SOL     OW18598   5.058   4.866   3.196
 5900SOL    HW118599   5.024   4.802   3.127
 5900SOL    HW218600   5.128   4.925   3.155
 5901SOL     OW18601   2.591   0.339   0.532
 5901SOL    HW118602   2.663   0.299   0.476
 5901SOL    HW218603   2.511   0.279   0.532
 5902SOL     OW18604   6.936   2.455   6.182
 5902SOL    HW118605   6.971   2.472   6.274
 5902SOL    HW218606   7.011   2.427   6.122
 5903SOL     OW18607   3.881   3.943   6.870
 5903SOL    HW118608   3.800   3.961   6.925
 5903SOL    HW218609   3.930   3.864   6.908
 5904SOL     OW18610   0.886   3.885   2.003
 5904SOL    HW118611   0.945   3.905   1.924
 5904SOL    HW218612   0.907   3.793   2.037
 5905SOL     OW18613   6.386   5.824   2.727
 5905SOL    HW118614   6.465   5.834   2.789
 5905SOL    HW218615   6.393   5.736   2.680
 5906SOL     OW18616   4.275   2.255   3.815
 5906SOL    HW118617   4.323   2.339   3.840
 5906SOL    HW218618   4.339   2.192   3.772
 5907SOL     OW18619   0.598   4.709   1.324
 5907SOL    HW118620   0.567   4.614   1.322
 5907SOL    HW218621   0.548   4.760   1.395
 5908SOL     OW18622   0.273   2.518   6.329
 5908SOL    HW118623   0.281   2.561   6.419
 5908SOL    HW218624   0.315   2.577   6.261
 5909SOL     OW18625   6.675   5.575   0.632
 5909SOL    HW118626   6.590   5.524   0.639
 5909SOL    HW218627   6.656   5.673   0.642
 5910SOL     OW18628   0.371   3.351   4.151
 5910SOL    HW118629   0.305   3.278   4.132
 5910SOL    HW218630   0.384   3.406   4.068
 5911SOL     OW18631   6.717   6.632   6.165
 5911SOL    HW118632   6.687   6.537   6.160
 5911SOL    HW218633   6.636   6.692   6.161
 5912SOL     OW18634   6.673   0.704   5.784
 5912SOL    HW118635   6.607   0.644   5.739
 5912SOL    HW218636   6.638   0.798   5.785
 5913SOL     OW18637   4.655   3.002   6.171
 5913SOL    HW118638   4.648   2.909   6.208
 5913SOL    HW218639   4.626   3.068   6.240
 5914SOL     OW18640   1.630   5.007   6.909
 5914SOL    HW118641   1.564   5.016   6.834
 5914SOL    HW218642   1.681   4.922   6.898
 5915SOL     OW18643   4.880   5.772   1.286
 5915SOL    HW118644   4.894   5.738   1.193
 5915SOL    HW218645   4.959   5.748   1.342
 5916SOL     OW18646   6.003   6.047   3.685
 5916SOL    HW118647   6.077   5.999   3.638
 5916SOL    HW218648   6.034   6.138   3.711
 5917SOL     OW18649   3.377   3.916   4.253
 5917SOL    HW118650   3.449   3.879   4.313
 5917SOL    HW218651   3.310   3.844   4.235
 5918SOL     OW18652   2.345   4.230   5.239
 5918SOL    HW118653   2.364   4.134   5.216
 5918SOL    HW218654   2.283   4.269   5.171
 5919SOL     OW18655   3.823   2.957   3.464
 5919SOL    HW118656   3.776   2.941   3.550
 5919SOL    HW218657   3.762   2.935   3.388
 5920SOL     OW18658   4.569   0.986   6.699
 5920SOL    HW118659   4.648   0.934   6.730
 5920SOL    HW218660   4.588   1.024   6.608
 5921SOL     OW18661   3.838   5.018   6.574
 5921SOL    HW118662   3.895   4.966   6.510
 5921SOL    HW218663   3.836   4.971   6.663
 5922SOL     OW18664   5.804   3.803   3.452
 5922SOL    HW118665   5.873   3.758   3.509
 5922SOL    HW218666   5.848   3.842   3.371
 5923SOL     OW18667   0.087   1.798   1.919
 5923SOL    HW118668   0.073   1.720   1.859
 5923SOL    HW218669   0.180   1.834   1.907
 5924SOL     OW18670   6.925   6.970   2.618
 5924SOL    HW118671   6.933   6.997   2.522
 5924SOL    HW218672   6.996   7.015   2.671
 5925SOL     OW18673   3.935   6.571   1.948
 5925SOL    HW118674   3.883   6.656   1.942
 5925SOL    HW218675   4.029   6.588   1.920
 5926SOL     OW18676   3.812   5.428   2.280
 5926SOL    HW118677   3.822   5.355   2.347
 5926SOL    HW218678   3.774   5.391   2.195
 5927SOL     OW18679   1.334   4.706   2.301
 5927SOL    HW118680   1.274   4.784   2.283
 5927SOL    HW218681   1.427   4.729   2.275
 5928SOL     OW18682   3.440   6.582   0.843
 5928SOL    HW118683   3.505   6.509   0.822
 5928SOL    HW218684   3.490   6.668   0.860
 5929SOL     OW18685   6.394   0.475   6.088
 5929SOL    HW118686   6.352   0.531   6.160
 5929SOL    HW218687   6.331   0.470   6.010
 5930SOL     OW18688   6.620   4.112   3.161
 5930SOL    HW118689   6.640   4.104   3.063
 5930SOL    HW218690   6.654   4.031   3.208
 5931SOL     OW18691   6.361   6.071   2.500
 5931SOL    HW118692   6.436   6.038   2.557
 5931SOL    HW218693   6.275   6.061   2.550
 5932SOL     OW18694   2.911   0.041   1.340
 5932SOL    HW118695   2.893   0.010   1.247
 5932SOL    HW218696   2.998   0.090   1.342
 5933SOL     OW18697   6.777   4.761   3.693
 5933SOL    HW118698   6.737   4.673   3.719
 5933SOL    HW218699   6.741   4.833   3.752
 5934SOL     OW18700   3.444   3.049   4.957
 5934SOL    HW118701   3.501   2.972   4.930
 5934SOL    HW218702   3.397   3.028   5.043
 5935SOL     OW18703   6.620   5.309   6.316
 5935SOL    HW118704   6.693   5.288   6.381
 5935SOL    HW218705   6.531   5.295   6.360
 5936SOL     OW18706   3.293   3.085   1.495
 5936SOL    HW118707   3.306   3.019   1.569
 5936SOL    HW218708   3.276   3.037   1.409
 5937SOL     OW18709   6.261   3.233   2.078
 5937SOL    HW118710   6.235   3.329   2.080
 5937SOL    HW218711   6.183   3.176   2.107
 5938SOL     OW18712   6.509   5.702   3.367
 5938SOL    HW118713   6.479   5.758   3.444
 5938SOL    HW218714   6.526   5.609   3.398
 5939SOL     OW18715   2.480   6.453   3.298
 5939SOL    HW118716   2.452   6.489   3.387
 5939SOL    HW218717   2.547   6.515   3.257
 5940SOL     OW18718   4.545   5.333   2.373
 5940SOL    HW118719   4.564   5.243   2.411
 5940SOL    HW218720   4.446   5.348   2.371
 5941SOL     OW18721   6.153   4.032   1.938
 5941SOL    HW118722   6.083   4.002   1.873
 5941SOL    HW218723   6.110   4.078   2.016
 5942SOL     OW18724   5.343   3.932   0.044
 5942SOL    HW118725   5.272   3.918   0.113
 5942SOL    HW218726   5.309   3.993   6.999
 5943SOL     OW18727   3.316   4.431   5.849
 5943SOL    HW118728   3.321   4.333   5.865
 5943SOL    HW218729   3.392   4.476   5.896
 5944SOL     OW18730   0.158   2.427   0.420
 5944SOL    HW118731   0.161   2.362   0.496
 5944SOL    HW218732   0.089   2.497   0.440
 5945SOL     OW18733   6.682   4.735   5.271
 5945SOL    HW118734   6.676   4.640   5.241
 5945SOL    HW218735   6.642   4.744   5.363
 5946SOL     OW18736   3.480   3.763   5.995
 5946SOL    HW118737   3.458   3.794   6.087
 5946SOL    HW218738   3.563   3.707   5.997
 5947SOL     OW18739   3.439   3.092   2.389
 5947SOL    HW118740   3.420   3.120   2.295
 5947SOL    HW218741   3.354   3.070   2.436
 5948SOL     OW18742   4.189   4.942   2.458
 5948SOL    HW118743   4.167   4.900   2.370
 5948SOL    HW218744   4.145   5.032   2.463
 5949SOL     OW18745   5.441   3.843   1.549
 5949SOL    HW118746   5.454   3.918   1.484
 5949SOL    HW218747   5.492   3.763   1.519
 5950SOL     OW18748   5.354   1.741   5.122
 5950SOL    HW118749   5.293   1.675   5.079
 5950SOL    HW218750   5.445   1.735   5.080
 5951SOL     OW18751   1.422   5.047   3.825
 5951SOL    HW118752   1.432   5.139   3.786
 5951SOL    HW218753   1.325   5.025   3.834
 5952SOL     OW18754   5.240   5.001   3.062
 5952SOL    HW118755   5.226   5.023   2.965
 5952SOL    HW218756   5.317   4.937   3.071
 5953SOL     OW18757   6.556   3.804   5.471
 5953SOL    HW118758   6.552   3.715   5.425
 5953SOL    HW218759   6.468   3.850   5.462
 5954SOL     OW18760   6.448   5.956   5.707
 5954SOL    HW118761   6.363   5.904   5.702
 5954SOL    HW218762   6.523   5.902   5.669
 5955SOL     OW18763   4.756   5.367   2.175
 5955SOL    HW118764   4.668   5.380   2.220
 5955SOL    HW218765   4.799   5.455   2.157
 5956SOL     OW18766   4.697   2.046   4.376
 5956SOL    HW118767   4.610   2.078   4.413
 5956SOL    HW218768   4.772   2.097   4.417
 5957SOL     OW18769   2.940   1.211   4.335
 5957SOL    HW118770   2.928   1.299   4.289
 5957SOL    HW218771   2.919   1.221   4.432
 5958SOL     OW18772   4.363   6.547   2.761
 5958SOL    HW118773   4.458   6.527   2.735
 5958SOL    HW218774   4.302   6.483   2.715
 5959SOL     OW18775   4.228   2.990   5.398
 5959SOL    HW118776   4.131   2.979   5.420
 5959SOL    HW218777   4.240   3.064   5.332
 5960SOL     OW18778   4.065   5.609   5.230
 5960SOL    HW118779   4.058   5.621   5.131
 5960SOL    HW218780   4.139   5.666   5.266
 5961SOL     OW18781   4.417   2.427   2.990
 5961SOL    HW118782   4.500   2.482   2.981
 5961SOL    HW218783   4.404   2.373   2.907
 5962SOL     OW18784   6.145   6.662   6.694
 5962SOL    HW118785   6.205   6.653   6.614
 5962SOL    HW218786   6.067   6.601   6.684
 5963SOL     OW18787   3.427   3.872   6.246
 5963SOL    HW118788   3.340   3.915   6.271
 5963SOL    HW218789   3.480   3.854   6.328
 5964SOL     OW18790   1.448   6.482   5.151
 5964SOL    HW118791   1.529   6.527   5.113
 5964SOL    HW218792   1.417   6.531   5.232
 5965SOL     OW18793   2.033   1.731   0.389
 5965SOL    HW118794   1.936   1.705   0.400
 5965SOL    HW218795   2.039   1.815   0.336
 5966SOL     OW18796   2.323   5.828   5.772
 5966SOL    HW118797   2.300   5.733   5.751
 5966SOL    HW218798   2.389   5.830   5.847
 5967SOL     OW18799   2.804   0.266   6.007
 5967SOL    HW118800   2.798   0.166   6.009
 5967SOL    HW218801   2.835   0.295   5.916
 5968SOL     OW18802   5.532   1.959   0.280
 5968SOL    HW118803   5.439   1.978   0.248
 5968SOL    HW218804   5.590   2.039   0.263
 5969SOL     OW18805   5.900   0.595   6.621
 5969SOL    HW118806   5.934   0.567   6.711
 5969SOL    HW218807   5.926   0.528   6.552
 5970SOL     OW18808   0.084   3.942   2.875
 5970SOL    HW118809   0.011   3.892   2.920
 5970SOL    HW218810   0.054   3.972   2.785
 5971SOL     OW18811   0.325   1.534   2.099
 5971SOL    HW118812   0.263   1.462   2.067
 5971SOL    HW218813   0.272   1.614   2.126
 5972SOL     OW18814   5.476   5.692   5.861
 5972SOL    HW118815   5.478   5.754   5.782
 5972SOL    HW218816   5.526   5.734   5.937
 5973SOL     OW18817   1.714   3.174   1.620
 5973SOL    HW118818   1.790   3.182   1.684
 5973SOL    HW218819   1.646   3.245   1.638
 5974SOL     OW18820   5.721   5.994   6.661
 5974SOL    HW118821   5.689   5.912   6.614
 5974SOL    HW218822   5.730   6.069   6.595
 5975SOL     OW18823   4.408   0.246   1.284
 5975SOL    HW118824   4.485   0.254   1.220
 5975SOL    HW218825   4.322   0.241   1.233
 5976SOL     OW18826   4.077   2.579   6.160
 5976SOL    HW118827   4.104   2.558   6.066
 5976SOL    HW218828   4.052   2.675   6.168
 5977SOL     OW18829   1.353   6.177   0.760
 5977SOL    HW118830   1.322   6.207   0.670
 5977SOL    HW218831   1.452   6.185   0.766
 5978SOL     OW18832   4.002   5.331   1.468
 5978SOL    HW118833   4.006   5.372   1.377
 5978SOL    HW218834   4.078   5.365   1.524
 5979SOL     OW18835   6.078   0.570   2.812
 5979SOL    HW118836   6.094   0.640   2.882
 5979SOL    HW218837   6.036   0.490   2.854
 5980SOL     OW18838   3.609   4.047   1.860
 5980SOL    HW118839   3.513   4.028   1.878
 5980SOL    HW218840   3.621   4.074   1.765
 5981SOL     OW18841   5.901   2.172   1.239
 5981SOL    HW118842   5.823   2.109   1.229
 5981SOL    HW218843   5.869   2.266   1.233
 5982SOL     OW18844   6.267   2.265   1.844
 5982SOL    HW118845   6.327   2.304   1.913
 5982SOL    HW218846   6.320   2.207   1.782
 5983SOL     OW18847   1.174   1.316   3.720
 5983SOL    HW118848   1.271   1.289   3.718
 5983SOL    HW218849   1.130   1.276   3.800
 5984SOL     OW18850   5.833   5.928   3.341
 5984SOL    HW118851   5.751   5.937   3.397
 5984SOL    HW218852   5.807   5.895   3.250
 5985SOL     OW18853   0.057   3.303   4.265
 5985SOL    HW118854   0.083   3.318   4.169
 5985SOL    HW218855   0.004   3.381   4.297
 5986SOL     OW18856   3.352   4.169   4.551
 5986SOL    HW118857   3.421   4.234   4.520
 5986SOL    HW218858   3.295   4.141   4.474
 5987SOL     OW18859   5.662   0.189   3.880
 5987SOL    HW118860   5.725   0.263   3.903
 5987SOL    HW218861   5.707   0.125   3.817
 5988SOL     OW18862   4.020   0.697   5.612
 5988SOL    HW118863   4.116   0.673   5.621
 5988SOL    HW218864   3.969   0.661   5.690
 5989SOL     OW18865   2.260   5.815   6.387
 5989SOL    HW118866   2.267   5.867   6.302
 5989SOL    HW218867   2.298   5.723   6.372
 5990SOL     OW18868   3.306   3.208   0.839
 5990SOL    HW118869   3.350   3.128   0.799
 5990SOL    HW218870   3.243   3.247   0.772
 5991SOL     OW18871   3.821   5.477   0.101
 5991SOL    HW118872   3.724   5.457   0.083
 5991SOL    HW218873   3.829   5.556   0.161
 5992SOL     OW18874   3.494   0.103   1.980
 5992SOL    HW118875   3.507   0.154   2.066
 5992SOL    HW218876   3.445   0.161   1.915
 5993SOL     OW18877   3.539   4.561   5.956
 5993SOL    HW118878   3.535   4.646   6.009
 5993SOL    HW218879   3.541   4.583   5.858
 5994SOL     OW18880   6.860   2.499   1.008
 5994SOL    HW118881   6.839   2.403   1.028
 5994SOL    HW218882   6.944   2.504   0.954
 5995SOL     OW18883   4.913   3.346   2.194
 5995SOL    HW118884   4.858   3.423   2.163
 5995SOL    HW218885   4.970   3.312   2.119
 5996SOL     OW18886   0.621   6.460   0.822
 5996SOL    HW118887   0.697   6.520   0.845
 5996SOL    HW218888   0.585   6.418   0.905
 5997SOL     OW18889   0.319   5.262   2.602
 5997SOL    HW118890   0.297   5.223   2.692
 5997SOL    HW218891   0.350   5.190   2.541
 5998SOL     OW18892   5.997   1.555   3.094
 5998SOL    HW118893   6.063   1.481   3.086
 5998SOL    HW218894   5.910   1.527   3.052
 5999SOL     OW18895   2.830   2.827   1.547
 5999SOL    HW118896   2.872   2.737   1.542
 5999SOL    HW218897   2.899   2.895   1.572
 6000SOL     OW18898   2.570   6.747   0.533
 6000SOL    HW118899   2.644   6.679   0.535
 6000SOL    HW218900   2.545   6.766   0.438
 6001SOL     OW18901   0.114   4.818   6.576
 6001SOL    HW118902   0.106   4.869   6.662
 6001SOL    HW218903   0.172   4.869   6.512
 6002SOL     OW18904   5.991   0.503   0.531
 6002SOL    HW118905   5.913   0.559   0.562
 6002SOL    HW218906   5.970   0.406   0.547
 6003SOL     OW18907   5.512   2.214   4.468
 6003SOL    HW118908   5.473   2.275   4.537
 6003SOL    HW218909   5.492   2.250   4.377
 6004SOL     OW18910   6.885   3.874   2.987
 6004SOL    HW118911   6.870   3.837   3.079
 6004SOL    HW218912   6.831   3.958   2.976
 6005SOL     OW18913   5.145   5.319   4.473
 6005SOL    HW118914   5.092   5.382   4.416
 6005SOL    HW218915   5.089   5.240   4.497
 6006SOL     OW18916   2.466   0.586   5.097
 6006SOL    HW118917   2.530   0.662   5.087
 6006SOL    HW218918   2.514   0.507   5.133
 6007SOL     OW18919   5.433   3.693   5.832
 6007SOL    HW118920   5.505   3.657   5.891
 6007SOL    HW218921   5.427   3.638   5.749
 6008SOL     OW18922   2.740   4.612   5.413
 6008SOL    HW118923   2.812   4.667   5.455
 6008SOL    HW218924   2.774   4.573   5.327
 6009SOL     OW18925   2.299   0.820   3.361
 6009SOL    HW118926   2.327   0.763   3.284
 6009SOL    HW218927   2.380   0.851   3.411
 6010SOL     OW18928   1.213   5.246   4.122
 6010SOL    HW118929   1.300   5.199   4.142
 6010SOL    HW218930   1.137   5.183   4.136
 6011SOL     OW18931   5.500   3.078   3.252
 6011SOL    HW118932   5.422   3.034   3.207
 6011SOL    HW218933   5.550   3.011   3.307
 6012SOL     OW18934   5.825   0.611   0.967
 6012SOL    HW118935   5.821   0.598   1.066
 6012SOL    HW218936   5.734   0.631   0.932
 6013SOL     OW18937   5.322   1.236   2.628
 6013SOL    HW118938   5.371   1.179   2.562
 6013SOL    HW218939   5.387   1.283   2.688
 6014SOL     OW18940   3.712   3.497   3.253
 6014SOL    HW118941   3.737   3.524   3.161
 6014SOL    HW218942   3.711   3.397   3.259
 6015SOL     OW18943   6.328   3.693   4.181
 6015SOL    HW118944   6.389   3.743   4.119
 6015SOL    HW218945   6.243   3.745   4.192
 6016SOL     OW18946   6.185   2.222   5.567
 6016SOL    HW118947   6.127   2.213   5.485
 6016SOL    HW218948   6.131   2.202   5.648
 6017SOL     OW18949   5.957   4.933   3.297
 6017SOL    HW118950   5.993   5.013   3.346
 6017SOL    HW218951   6.028   4.863   3.291
 6018SOL     OW18952   3.990   0.422   6.214
 6018SOL    HW118953   3.973   0.369   6.297
 6018SOL    HW218954   3.951   0.375   6.136
 6019SOL     OW18955   0.988   2.784   4.459
 6019SOL    HW118956   1.012   2.687   4.450
 6019SOL    HW218957   1.036   2.822   4.538
 6020SOL     OW18958   0.774   4.827   1.147
 6020SOL    HW118959   0.821   4.754   1.098
 6020SOL    HW218960   0.713   4.787   1.216
 6021SOL     OW18961   4.417   0.323   2.709
 6021SOL    HW118962   4.386   0.394   2.772
 6021SOL    HW218963   4.395   0.233   2.747
 6022SOL     OW18964   5.471   2.005   3.385
 6022SOL    HW118965   5.494   1.908   3.396
 6022SOL    HW218966   5.489   2.053   3.471
 6023SOL     OW18967   5.770   0.847   1.350
 6023SOL    HW118968   5.722   0.833   1.437
 6023SOL    HW218969   5.725   0.920   1.299
 6024SOL     OW18970   1.975   4.889   2.453
 6024SOL    HW118971   2.029   4.971   2.469
 6024SOL    HW218972   2.035   4.815   2.421
 6025SOL     OW18973   3.611   1.777   3.301
 6025SOL    HW118974   3.676   1.761   3.376
 6025SOL    HW218975   3.520   1.793   3.339
 6026SOL     OW18976   7.010   4.452   5.843
 6026SOL    HW118977   0.025   4.412   5.925
 6026SOL    HW218978   0.048   4.440   5.766
 6027SOL     OW18979   0.797   3.205   5.046
 6027SOL    HW118980   0.764   3.123   5.000
 6027SOL    HW218981   0.873   3.181   5.106
 6028SOL     OW18982   6.596   4.712   0.141
 6028SOL    HW118983   6.594   4.800   0.094
 6028SOL    HW218984   6.521   4.708   0.207
 6029SOL     OW18985   1.980   0.122   4.826
 6029SOL    HW118986   2.041   0.062   4.774
 6029SOL    HW218987   2.013   0.131   4.920
 6030SOL     OW18988   3.788   5.135   2.842
 6030SOL    HW118989   3.741   5.061   2.890
 6030SOL    HW218990   3.784   5.218   2.897
 6031SOL     OW18991   3.326   5.579   4.765
 6031SOL    HW118992   3.295   5.494   4.723
 6031SOL    HW218993   3.253   5.648   4.757
 6032SOL     OW18994   2.382   4.630   2.751
 6032SOL    HW118995   2.402   4.728   2.762
 6032SOL    HW218996   2.285   4.619   2.729
 6033SOL     OW18997   2.387   2.576   2.956
 6033SOL    HW118998   2.477   2.539   2.933
 6033SOL    HW218999   2.316   2.520   2.912
 6034SOL     OW19000   1.409   6.994   5.323
 6034SOL    HW119001   1.421   6.912   5.379
 6034SOL    HW219002   1.418   0.050   5.381
 6035SOL     OW19003   0.860   1.526   2.074
 6035SOL    HW119004   0.796   1.457   2.039
 6035SOL    HW219005   0.808   1.604   2.108
 6036SOL     OW19006   4.943   4.775   2.906
 6036SOL    HW119007   4.852   4.805   2.935
 6036SOL    HW219008   4.985   4.846   2.850
 6037SOL     OW19009   4.030   6.626   0.272
 6037SOL    HW119010   4.055   6.600   0.365
 6037SOL    HW219011   3.935   6.600   0.254
 6038SOL     OW19012   1.689   2.634   5.749
 6038SOL    HW119013   1.706   2.602   5.843
 6038SOL    HW219014   1.644   2.562   5.697
 6039SOL     OW19015   3.257   2.981   2.992
 6039SOL    HW119016   3.345   3.019   3.021
 6039SOL    HW219017   3.192   2.984   3.068
 6040SOL     OW19018   1.628   1.518   0.881
 6040SOL    HW119019   1.564   1.510   0.957
 6040SOL    HW219020   1.614   1.605   0.834
 6041SOL     OW19021   2.947   0.889   5.464
 6041SOL    HW119022   2.995   0.906   5.379
 6041SOL    HW219023   2.848   0.893   5.448
 6042SOL     OW19024   4.224   6.994   2.486
 6042SOL    HW119025   4.196   6.923   2.421
 6042SOL    HW219026   4.311   0.008   2.457
 6043SOL     OW19027   1.072   5.634   5.758
 6043SOL    HW119028   1.017   5.686   5.693
 6043SOL    HW219029   1.078   5.539   5.728
 6044SOL     OW19030   1.750   2.686   1.651
 6044SOL    HW119031   1.762   2.635   1.566
 6044SOL    HW219032   1.809   2.767   1.649
 6045SOL     OW19033   6.428   4.177   2.145
 6045SOL    HW119034   6.423   4.265   2.097
 6045SOL    HW219035   6.336   4.151   2.174
 6046SOL     OW19036   3.410   2.426   0.984
 6046SOL    HW119037   3.463   2.380   1.055
 6046SOL    HW219038   3.320   2.385   0.976
 6047SOL     OW19039   5.634   1.613   1.752
 6047SOL    HW119040   5.578   1.532   1.741
 6047SOL    HW219041   5.702   1.618   1.679
 6048SOL     OW19042   4.721   5.052   5.056
 6048SOL    HW119043   4.708   4.996   5.137
 6048SOL    HW219044   4.671   5.138   5.066
 6049SOL     OW19045   4.825   3.064   0.028
 6049SOL    HW119046   4.911   3.047   0.076
 6049SOL    HW219047   4.799   3.160   0.039
 6050SOL     OW19048   3.376   5.328   6.040
 6050SOL    HW119049   3.289   5.370   6.066
 6050SOL    HW219050   3.381   5.319   5.941
 6051SOL     OW19051   1.735   0.268   3.900
 6051SOL    HW119052   1.712   0.365   3.912
 6051SOL    HW219053   1.816   0.261   3.841
 6052SOL     OW19054   5.497   1.292   0.773
 6052SOL    HW119055   5.588   1.281   0.733
 6052SOL    HW219056   5.439   1.214   0.746
 6053SOL     OW19057   4.834   1.240   6.236
 6053SOL    HW119058   4.878   1.251   6.147
 6053SOL    HW219059   4.894   1.185   6.295
 6054SOL     OW19060   2.729   3.008   0.210
 6054SOL    HW119061   2.738   3.098   0.253
 6054SOL    HW219062   2.683   3.017   0.122
 6055SOL     OW19063   5.054   6.686   5.643
 6055SOL    HW119064   5.066   6.678   5.741
 6055SOL    HW219065   5.122   6.750   5.605
 6056SOL     OW19066   4.851   3.635   4.549
 6056SOL    HW119067   4.889   3.629   4.641
 6056SOL    HW219068   4.752   3.631   4.553
 6057SOL     OW19069   6.781   1.797   3.043
 6057SOL    HW119070   6.714   1.732   3.007
 6057SOL    HW219071   6.787   1.876   2.982
 6058SOL     OW19072   4.562   3.827   1.674
 6058SOL    HW119073   4.580   3.841   1.576
 6058SOL    HW219074   4.486   3.764   1.685
 6059SOL     OW19075   5.114   5.212   5.714
 6059SOL    HW119076   5.183   5.196   5.784
 6059SOL    HW219077   5.125   5.304   5.677
 6060SOL     OW19078   2.777   3.465   6.489
 6060SOL    HW119079   2.856   3.414   6.457
 6060SOL    HW219080   2.803   3.522   6.568
 6061SOL     OW19081   3.917   3.017   1.113
 6061SOL    HW119082   3.989   2.959   1.152
 6061SOL    HW219083   3.833   2.964   1.102
 6062SOL     OW19084   2.953   1.551   5.190
 6062SOL    HW119085   2.877   1.614   5.179
 6062SOL    HW219086   2.971   1.505   5.103
 6063SOL     OW19087   4.456   2.373   5.998
 6063SOL    HW119088   4.441   2.466   6.031
 6063SOL    HW219089   4.550   2.345   6.019
 6064SOL     OW19090   1.247   6.408   1.282
 6064SOL    HW119091   1.184   6.334   1.303
 6064SOL    HW219092   1.341   6.375   1.290
 6065SOL     OW19093   0.650   6.610   2.728
 6065SOL    HW119094   0.591   6.632   2.651
 6065SOL    HW219095   0.695   6.693   2.762
 6066SOL     OW19096   4.680   1.590   5.624
 6066SOL    HW119097   4.647   1.590   5.718
 6066SOL    HW219098   4.685   1.496   5.590
 6067SOL     OW19099   5.840   0.990   5.555
 6067SOL    HW119100   5.938   0.972   5.543
 6067SOL    HW219101   5.811   0.958   5.645
 6068SOL     OW19102   4.816   2.971   4.816
 6068SOL    HW119103   4.880   3.048   4.819
 6068SOL    HW219104   4.772   2.961   4.905
 6069SOL     OW19105   6.222   3.084   4.859
 6069SOL    HW119106   6.274   3.066   4.775
 6069SOL    HW219107   6.169   3.168   4.848
 6070SOL     OW19108   2.871   1.890   1.051
 6070SOL    HW119109   2.843   1.818   1.114
 6070SOL    HW219110   2.887   1.975   1.102
 6071SOL     OW19111   5.941   5.872   4.745
 6071SOL    HW119112   5.962   5.968   4.730
 6071SOL    HW219113   5.991   5.816   4.678
 6072SOL     OW19114   6.472   6.840   1.526
 6072SOL    HW119115   6.392   6.825   1.468
 6072SOL    HW219116   6.446   6.896   1.605
 6073SOL     OW19117   5.608   3.001   0.781
 6073SOL    HW119118   5.631   2.924   0.722
 6073SOL    HW219119   5.677   3.010   0.853
 6074SOL     OW19120   1.005   6.438   2.497
 6074SOL    HW119121   1.008   6.499   2.418
 6074SOL    HW219122   1.096   6.400   2.513
 6075SOL     OW19123   5.095   0.648   5.689
 6075SOL    HW119124   5.050   0.670   5.602
 6075SOL    HW219125   5.149   0.727   5.719
 6076SOL     OW19126   3.502   5.398   4.188
 6076SOL    HW119127   3.589   5.352   4.171
 6076SOL    HW219128   3.433   5.364   4.124
 6077SOL     OW19129   6.428   5.442   0.659
 6077SOL    HW119130   6.394   5.350   0.639
 6077SOL    HW219131   6.393   5.506   0.591
 6078SOL     OW19132   4.805   5.653   0.471
 6078SOL    HW119133   4.844   5.580   0.527
 6078SOL    HW219134   4.850   5.739   0.492
 6079SOL     OW19135   4.427   3.888   6.091
 6079SOL    HW119136   4.515   3.930   6.116
 6079SOL    HW219137   4.352   3.942   6.129
 6080SOL     OW19138   0.048   6.246   0.882
 6080SOL    HW119139   0.033   6.245   0.783
 6080SOL    HW219140   7.006   6.306   0.925
 6081SOL     OW19141   6.720   2.879   5.217
 6081SOL    HW119142   6.680   2.800   5.264
 6081SOL    HW219143   6.819   2.867   5.212
 6082SOL     OW19144   2.000   1.294   3.488
 6082SOL    HW119145   2.003   1.269   3.391
 6082SOL    HW219146   1.905   1.307   3.516
 6083SOL     OW19147   6.147   6.228   0.234
 6083SOL    HW119148   6.203   6.310   0.222
 6083SOL    HW219149   6.064   6.250   0.284
 6084SOL     OW19150   0.733   6.747   3.377
 6084SOL    HW119151   0.798   6.816   3.409
 6084SOL    HW219152   0.640   6.783   3.387
 6085SOL     OW19153   6.844   6.355   0.456
 6085SOL    HW119154   6.913   6.309   0.512
 6085SOL    HW219155   6.877   6.364   0.362
 6086SOL     OW19156   3.027   1.109   5.581
 6086SOL    HW119157   2.984   1.195   5.555
 6086SOL    HW219158   2.997   1.037   5.518
 6087SOL     OW19159   3.848   5.869   1.350
 6087SOL    HW119160   3.783   5.795   1.371
 6087SOL    HW219161   3.798   5.947   1.313
 6088SOL     OW19162   5.680   6.477   4.602
 6088SOL    HW119163   5.593   6.516   4.632
 6088SOL    HW219164   5.706   6.519   4.514
 6089SOL     OW19165   5.122   2.940   2.199
 6089SOL    HW119166   5.053   2.931   2.126
 6089SOL    HW219167   5.079   2.977   2.281
 6090SOL     OW19168   2.578   6.008   5.016
 6090SOL    HW119169   2.668   6.041   4.988
 6090SOL    HW219170   2.559   6.039   5.109
 6091SOL     OW19171   1.791   1.413   0.222
 6091SOL    HW119172   1.777   1.482   0.293
 6091SOL    HW219173   1.883   1.423   0.183
 6092SOL     OW19174   4.131   6.867   1.975
 6092SOL    HW119175   4.183   6.925   1.913
 6092SOL    HW219176   4.059   6.820   1.924
 6093SOL     OW19177   2.084   3.254   2.004
 6093SOL    HW119178   2.164   3.194   2.005
 6093SOL    HW219179   2.044   3.258   2.096
 6094SOL     OW19180   1.895   6.593   2.060
 6094SOL    HW119181   1.812   6.546   2.029
 6094SOL    HW219182   1.878   6.638   2.147
 6095SOL     OW19183   5.395   4.347   0.842
 6095SOL    HW119184   5.386   4.434   0.890
 6095SOL    HW219185   5.320   4.286   0.870
 6096SOL     OW19186   5.493   7.018   4.037
 6096SOL    HW119187   5.553   0.033   3.968
 6096SOL    HW219188   5.515   0.031   4.127
 6097SOL     OW19189   2.373   5.726   2.174
 6097SOL    HW119190   2.289   5.682   2.141
 6097SOL    HW219191   2.372   5.728   2.274
 6098SOL     OW19192   0.593   1.457   4.890
 6098SOL    HW119193   0.581   1.530   4.957
 6098SOL    HW219194   0.673   1.476   4.834
 6099SOL     OW19195   5.286   6.270   6.949
 6099SOL    HW119196   5.349   6.203   6.989
 6099SOL    HW219197   5.268   6.343   7.015
 6100SOL     OW19198   5.468   6.259   0.969
 6100SOL    HW119199   5.526   6.209   1.033
 6100SOL    HW219200   5.513   6.265   0.880
 6101SOL     OW19201   6.321   3.677   3.506
 6101SOL    HW119202   6.367   3.753   3.461
 6101SOL    HW219203   6.272   3.622   3.438
 6102SOL     OW19204   3.665   6.396   3.120
 6102SOL    HW119205   3.642   6.397   3.023
 6102SOL    HW219206   3.731   6.469   3.140
 6103SOL     OW19207   6.112   1.806   1.112
 6103SOL    HW119208   6.182   1.755   1.062
 6103SOL    HW219209   6.032   1.747   1.127
 6104SOL     OW19210   5.663   0.639   5.919
 6104SOL    HW119211   5.724   0.560   5.908
 6104SOL    HW219212   5.702   0.718   5.872
 6105SOL     OW19213   3.188   6.169   0.174
 6105SOL    HW119214   3.169   6.135   0.082
 6105SOL    HW219215   3.238   6.255   0.168
 6106SOL     OW19216   1.070   3.953   6.789
 6106SOL    HW119217   1.068   3.899   6.872
 6106SOL    HW219218   1.096   3.895   6.712
 6107SOL     OW19219   4.101   5.285   4.747
 6107SOL    HW119220   4.186   5.338   4.746
 6107SOL    HW219221   4.031   5.333   4.695
 6108SOL     OW19222   2.213   3.056   1.722
 6108SOL    HW119223   2.242   3.152   1.730
 6108SOL    HW219224   2.235   3.007   1.806
 6109SOL     OW19225   5.715   2.058   4.789
 6109SOL    HW119226   5.686   1.974   4.835
 6109SOL    HW219227   5.725   2.040   4.691
 6110SOL     OW19228   3.977   3.927   0.841
 6110SOL    HW119229   3.917   4.001   0.872
 6110SOL    HW219230   3.945   3.893   0.753
 6111SOL     OW19231   1.343   4.170   2.608
 6111SOL    HW119232   1.244   4.173   2.620
 6111SOL    HW219233   1.387   4.152   2.696
 6112SOL     OW19234   3.496   0.397   2.557
 6112SOL    HW119235   3.586   0.413   2.598
 6112SOL    HW219236   3.428   0.384   2.630
 6113SOL     OW19237   2.971   1.853   6.445
 6113SOL    HW119238   3.036   1.780   6.466
 6113SOL    HW219239   2.878   1.820   6.458
 6114SOL     OW19240   5.089   4.605   2.056
 6114SOL    HW119241   5.170   4.575   2.106
 6114SOL    HW219242   5.065   4.698   2.082
 6115SOL     OW19243   5.707   0.363   4.132
 6115SOL    HW119244   5.706   0.264   4.122
 6115SOL    HW219245   5.782   0.401   4.077
 6116SOL     OW19246   4.458   1.493   6.049
 6116SOL    HW119247   4.451   1.523   5.954
 6116SOL    HW219248   4.402   1.553   6.106
 6117SOL     OW19249   1.492   1.114   3.320
 6117SOL    HW119250   1.550   1.054   3.375
 6117SOL    HW219251   1.403   1.070   3.304
 6118SOL     OW19252   0.321   0.963   1.933
 6118SOL    HW119253   0.247   0.958   2.000
 6118SOL    HW219254   0.369   1.051   1.943
 6119SOL     OW19255   0.773   3.907   6.834
 6119SOL    HW119256   0.745   3.886   6.928
 6119SOL    HW219257   0.814   3.826   6.792
 6120SOL     OW19258   4.040   6.278   5.119
 6120SOL    HW119259   4.116   6.256   5.059
 6120SOL    HW219260   3.994   6.194   5.147
 6121SOL     OW19261   0.697   3.244   5.380
 6121SOL    HW119262   0.790   3.205   5.381
 6121SOL    HW219263   0.633   3.174   5.348
 6122SOL     OW19264   4.444   5.573   0.561
 6122SOL    HW119265   4.417   5.598   0.468
 6122SOL    HW219266   4.511   5.499   0.557
 6123SOL     OW19267   5.317   6.559   6.437
 6123SOL    HW119268   5.397   6.520   6.484
 6123SOL    HW219269   5.326   6.542   6.339
 6124SOL     OW19270   1.636   6.719   5.892
 6124SOL    HW119271   1.568   6.703   5.820
 6124SOL    HW219272   1.727   6.719   5.853
 6125SOL     OW19273   2.027   4.376   0.847
 6125SOL    HW119274   2.052   4.463   0.804
 6125SOL    HW219275   2.093   4.355   0.920
 6126SOL     OW19276   1.416   6.777   4.634
 6126SOL    HW119277   1.333   6.832   4.634
 6126SOL    HW219278   1.441   6.755   4.539
 6127SOL     OW19279   3.296   0.480   1.118
 6127SOL    HW119280   3.204   0.481   1.078
 6127SOL    HW219281   3.354   0.545   1.070
 6128SOL     OW19282   6.064   3.948   0.549
 6128SOL    HW119283   6.147   3.977   0.502
 6128SOL    HW219284   6.065   3.849   0.561
 6129SOL     OW19285   6.774   3.200   2.651
 6129SOL    HW119286   6.729   3.140   2.584
 6129SOL    HW219287   6.845   3.148   2.699
 6130SOL     OW19288   5.756   2.730   2.849
 6130SOL    HW119289   5.705   2.648   2.823
 6130SOL    HW219290   5.802   2.767   2.768
 6131SOL     OW19291   0.618   1.799   4.714
 6131SOL    HW119292   0.568   1.860   4.775
 6131SOL    HW219293   0.693   1.755   4.764
 6132SOL     OW19294   4.758   1.879   0.122
 6132SOL    HW119295   4.820   1.815   0.168
 6132SOL    HW219296   4.793   1.972   0.133
 6133SOL     OW19297   1.832   3.141   2.204
 6133SOL    HW119298   1.789   3.180   2.123
 6133SOL    HW219299   1.900   3.205   2.240
 6134SOL     OW19300   4.266   4.617   6.681
 6134SOL    HW119301   4.273   4.536   6.740
 6134SOL    HW219302   4.171   4.649   6.679
 6135SOL     OW19303   0.409   0.573   0.853
 6135SOL    HW119304   0.406   0.673   0.852
 6135SOL    HW219305   0.493   0.544   0.900
 6136SOL     OW19306   1.456   2.812   2.152
 6136SOL    HW119307   1.534   2.765   2.113
 6136SOL    HW219308   1.486   2.871   2.228
 6137SOL     OW19309   6.658   3.436   2.820
 6137SOL    HW119310   6.704   3.354   2.786
 6137SOL    HW219311   6.724   3.511   2.828
 6138SOL     OW19312   4.158   6.388   2.640
 6138SOL    HW119313   4.068   6.362   2.604
 6138SOL    HW219314   4.216   6.307   2.646
 6139SOL     OW19315   1.891   6.492   6.103
 6139SOL    HW119316   1.983   6.510   6.068
 6139SOL    HW219317   1.872   6.394   6.099
 6140SOL     OW19318   0.958   6.451   1.756
 6140SOL    HW119319   0.978   6.390   1.832
 6140SOL    HW219320   0.876   6.420   1.709
 6141SOL     OW19321   0.239   6.824   6.522
 6141SOL    HW119322   0.263   6.914   6.485
 6141SOL    HW219323   0.241   6.756   6.449
 6142SOL     OW19324   0.846   6.850   0.098
 6142SOL    HW119325   0.805   6.850   0.189
 6142SOL    HW219326   0.889   6.761   0.081
 6143SOL     OW19327   0.000   3.423   1.387
 6143SOL    HW119328   6.952   3.356   1.387
 6143SOL    HW219329   0.014   3.456   1.481
 6144SOL     OW19330   5.184   4.546   3.430
 6144SOL    HW119331   5.247   4.535   3.507
 6144SOL    HW219332   5.142   4.636   3.434
 6145SOL     OW19333   5.134   5.393   3.483
 6145SOL    HW119334   5.170   5.315   3.431
 6145SOL    HW219335   5.155   5.381   3.580
 6146SOL     OW19336   3.326   5.719   3.626
 6146SOL    HW119337   3.336   5.734   3.528
 6146SOL    HW219338   3.337   5.622   3.646
 6147SOL     OW19339   2.357   1.486   4.254
 6147SOL    HW119340   2.259   1.481   4.237
 6147SOL    HW219341   2.403   1.410   4.209
 6148SOL     OW19342   4.993   6.964   5.339
 6148SOL    HW119343   5.078   6.932   5.380
 6148SOL    HW219344   4.926   6.890   5.339
 6149SOL     OW19345   2.513   6.289   1.390
 6149SOL    HW119346   2.546   6.375   1.428
 6149SOL    HW219347   2.421   6.270   1.425
 6150SOL     OW19348   4.765   5.360   0.128
 6150SOL    HW119349   4.751   5.419   0.049
 6150SOL    HW219350   4.682   5.360   0.184
 6151SOL     OW19351   6.142   4.967   6.369
 6151SOL    HW119352   6.073   4.977   6.440
 6151SOL    HW219353   6.098   4.946   6.282
 6152SOL     OW19354   6.192   5.263   4.446
 6152SOL    HW119355   6.201   5.352   4.401
 6152SOL    HW219356   6.117   5.212   4.405
 6153SOL     OW19357   5.343   4.425   1.164
 6153SOL    HW119358   5.375   4.515   1.132
 6153SOL    HW219359   5.415   4.357   1.148
 6154SOL     OW19360   5.819   2.427   2.993
 6154SOL    HW119361   5.753   2.444   3.066
 6154SOL    HW219362   5.863   2.338   3.008
 6155SOL     OW19363   1.516   1.532   3.610
 6155SOL    HW119364   1.461   1.516   3.692
 6155SOL    HW219365   1.593   1.592   3.632
 6156SOL     OW19366   4.474   4.550   1.564
 6156SOL    HW119367   4.445   4.532   1.658
 6156SOL    HW219368   4.422   4.627   1.527
 6157SOL     OW19369   6.892   1.334   4.645
 6157SOL    HW119370   6.941   1.261   4.693
 6157SOL    HW219371   6.794   1.321   4.657
 6158SOL     OW19372   3.947   2.293   6.031
 6158SOL    HW119373   3.986   2.371   5.982
 6158SOL    HW219374   3.953   2.211   5.974
 6159SOL     OW19375   5.030   2.060   2.525
 6159SOL    HW119376   5.019   2.126   2.451
 6159SOL    HW219377   4.981   1.975   2.501
 6160SOL     OW19378   5.321   1.089   6.577
 6160SOL    HW119379   5.277   1.102   6.488
 6160SOL    HW219380   5.394   1.022   6.568
 6161SOL     OW19381   4.903   1.944   5.186
 6161SOL    HW119382   4.959   1.945   5.269
 6161SOL    HW219383   4.815   1.901   5.205
 6162SOL     OW19384   0.279   6.145   3.591
 6162SOL    HW119385   0.322   6.167   3.679
 6162SOL    HW219386   0.283   6.046   3.576
 6163SOL     OW19387   6.399   6.969   1.112
 6163SOL    HW119388   6.358   6.918   1.188
 6163SOL    HW219389   6.491   6.935   1.095
 6164SOL     OW19390   3.740   4.067   3.010
 6164SOL    HW119391   3.758   4.055   3.108
 6164SOL    HW219392   3.749   3.980   2.963
 6165SOL     OW19393   4.995   1.837   6.920
 6165SOL    HW119394   4.970   1.893   6.999
 6165SOL    HW219395   4.970   1.885   6.836
 6166SOL     OW19396   5.450   1.507   6.787
 6166SOL    HW119397   5.407   1.420   6.762
 6166SOL    HW219398   5.482   1.502   6.881
 6167SOL     OW19399   1.043   4.970   2.889
 6167SOL    HW119400   1.007   5.053   2.934
 6167SOL    HW219401   0.986   4.948   2.810
 6168SOL     OW19402   1.698   3.612   2.064
 6168SOL    HW119403   1.793   3.604   2.035
 6168SOL    HW219404   1.656   3.521   2.066
 6169SOL     OW19405   1.239   2.248   0.039
 6169SOL    HW119406   1.185   2.303   0.103
 6169SOL    HW219407   1.206   2.153   0.042
 6170SOL     OW19408   1.564   4.211   5.194
 6170SOL    HW119409   1.662   4.193   5.200
 6170SOL    HW219410   1.530   4.241   5.283
 6171SOL     OW19411   1.060   3.225   1.108
 6171SOL    HW119412   0.996   3.196   1.037
 6171SOL    HW219413   1.105   3.310   1.079
 6172SOL     OW19414   1.226   2.709   2.676
 6172SOL    HW119415   1.325   2.700   2.682
 6172SOL    HW219416   1.197   2.697   2.581
 6173SOL     OW19417   6.524   5.447   1.888
 6173SOL    HW119418   6.452   5.491   1.834
 6173SOL    HW219419   6.488   5.363   1.928
 6174SOL     OW19420   5.401   4.463   3.592
 6174SOL    HW119421   5.473   4.394   3.590
 6174SOL    HW219422   5.413   4.522   3.672
 6175SOL     OW19423   5.093   0.364   3.426
 6175SOL    HW119424   5.099   0.423   3.507
 6175SOL    HW219425   5.046   0.413   3.352
 6176SOL     OW19426   5.018   3.904   6.462
 6176SOL    HW119427   5.097   3.843   6.474
 6176SOL    HW219428   4.934   3.854   6.482
 6177SOL     OW19429   5.771   0.568   1.250
 6177SOL    HW119430   5.764   0.656   1.296
 6177SOL    HW219431   5.690   0.513   1.273
 6178SOL     OW19432   5.172   4.967   2.799
 6178SOL    HW119433   5.186   5.060   2.763
 6178SOL    HW219434   5.185   4.901   2.725
 6179SOL     OW19435   0.202   4.648   3.708
 6179SOL    HW119436   0.154   4.696   3.635
 6179SOL    HW219437   0.299   4.672   3.704
 6180SOL     OW19438   3.755   4.024   0.114
 6180SOL    HW119439   3.685   3.957   0.136
 6180SOL    HW219440   3.844   3.991   0.147
 6181SOL     OW19441   3.971   7.006   0.806
 6181SOL    HW119442   4.017   0.012   0.889
 6181SOL    HW219443   3.976   6.906   0.801
 6182SOL     OW19444   5.564   2.820   4.873
 6182SOL    HW119445   5.518   2.739   4.910
 6182SOL    HW219446   5.572   2.889   4.945
 6183SOL     OW19447   1.660   2.248   3.242
 6183SOL    HW119448   1.704   2.159   3.226
 6183SOL    HW219449   1.612   2.277   3.160
 6184SOL     OW19450   2.268   6.467   6.251
 6184SOL    HW119451   2.359   6.488   6.288
 6184SOL    HW219452   2.202   6.533   6.286
 6185SOL     OW19453   0.617   3.857   6.140
 6185SOL    HW119454   0.697   3.826   6.190
 6185SOL    HW219455   0.643   3.929   6.076
 6186SOL     OW19456   0.254   0.308   0.021
 6186SOL    HW119457   0.302   0.251   0.087
 6186SOL    HW219458   0.288   0.289   6.954
 6187SOL     OW19459   4.568   5.143   3.199
 6187SOL    HW119460   4.573   5.087   3.281
 6187SOL    HW219461   4.634   5.218   3.206
 6188SOL     OW19462   2.283   0.383   0.891
 6188SOL    HW119463   2.249   0.465   0.936
 6188SOL    HW219464   2.215   0.310   0.898
 6189SOL     OW19465   4.853   4.414   3.203
 6189SOL    HW119466   4.947   4.409   3.234
 6189SOL    HW219467   4.850   4.450   3.109
 6190SOL     OW19468   0.685   4.038   5.720
 6190SOL    HW119469   0.745   3.989   5.656
 6190SOL    HW219470   0.686   4.135   5.698
 6191SOL     OW19471   3.081   2.146   0.296
 6191SOL    HW119472   3.003   2.206   0.277
 6191SOL    HW219473   3.134   2.133   0.212
 6192SOL     OW19474   3.408   2.429   5.904
 6192SOL    HW119475   3.311   2.412   5.887
 6192SOL    HW219476   3.452   2.458   5.820
 6193SOL     OW19477   5.290   0.964   2.220
 6193SOL    HW119478   5.362   0.965   2.151
 6193SOL    HW219479   5.246   0.874   2.221
 6194SOL     OW19480   1.432   0.107   1.662
 6194SOL    HW119481   1.336   0.080   1.666
 6194SOL    HW219482   1.480   0.071   1.741
 6195SOL     OW19483   3.737   6.212   6.462
 6195SOL    HW119484   3.753   6.146   6.389
 6195SOL    HW219485   3.680   6.170   6.532
 6196SOL     OW19486   5.792   2.864   1.629
 6196SOL    HW119487   5.879   2.823   1.602
 6196SOL    HW219488   5.722   2.842   1.560
 6197SOL     OW19489   4.202   4.537   0.256
 6197SOL    HW119490   4.186   4.553   0.158
 6197SOL    HW219491   4.184   4.441   0.278
 6198SOL     OW19492   3.824   6.742   2.306
 6198SOL    HW119493   3.812   6.823   2.364
 6198SOL    HW219494   3.738   6.721   2.260
 6199SOL     OW19495   1.219   0.937   0.249
 6199SOL    HW119496   1.176   0.869   0.189
 6199SOL    HW219497   1.148   0.985   0.300
 6200SOL     OW19498   1.494   1.491   5.694
 6200SOL    HW119499   1.495   1.534   5.785
 6200SOL    HW219500   1.587   1.468   5.667
 6201SOL     OW19501   0.869   3.642   5.008
 6201SOL    HW119502   0.936   3.570   4.988
 6201SOL    HW219503   0.780   3.615   4.973
 6202SOL     OW19504   4.027   1.467   2.403
 6202SOL    HW119505   4.009   1.471   2.501
 6202SOL    HW219506   3.952   1.420   2.357
 6203SOL     OW19507   0.024   6.508   2.589
 6203SOL    HW119508   6.964   6.559   2.580
 6203SOL    HW219509   0.101   6.567   2.565
 6204SOL     OW19510   0.528   5.037   4.557
 6204SOL    HW119511   0.489   4.948   4.531
 6204SOL    HW219512   0.546   5.038   4.655
 6205SOL     OW19513   6.312   6.085   0.743
 6205SOL    HW119514   6.394   6.051   0.789
 6205SOL    HW219515   6.237   6.022   0.759
 6206SOL     OW19516   6.577   1.467   3.824
 6206SOL    HW119517   6.651   1.525   3.860
 6206SOL    HW219518   6.490   1.516   3.832
 6207SOL     OW19519   0.991   4.928   4.946
 6207SOL    HW119520   1.015   4.891   5.036
 6207SOL    HW219521   1.072   4.970   4.905
 6208SOL     OW19522   5.436   2.539   5.703
 6208SOL    HW119523   5.418   2.461   5.643
 6208SOL    HW219524   5.510   2.595   5.665
 6209SOL     OW19525   4.244   5.456   6.575
 6209SOL    HW119526   4.239   5.473   6.673
 6209SOL    HW219527   4.337   5.431   6.550
 6210SOL     OW19528   4.910   3.220   3.322
 6210SOL    HW119529   4.836   3.155   3.340
 6210SOL    HW219530   4.978   3.214   3.395
 6211SOL     OW19531   2.887   6.831   5.615
 6211SOL    HW119532   2.978   6.854   5.579
 6211SOL    HW219533   2.897   6.778   5.699
 6212SOL     OW19534   2.060   5.433   4.304
 6212SOL    HW119535   2.014   5.376   4.372
 6212SOL    HW219536   2.025   5.527   4.310
 6213SOL     OW19537   6.179   0.159   0.457
 6213SOL    HW119538   6.213   0.122   0.370
 6213SOL    HW219539   6.192   0.091   0.529
 6214SOL     OW19540   5.243   5.067   4.028
 6214SOL    HW119541   5.308   5.142   4.040
 6214SOL    HW219542   5.273   4.988   4.081
 6215SOL     OW19543   4.237   1.437   0.488
 6215SOL    HW119544   4.277   1.526   0.512
 6215SOL    HW219545   4.145   1.430   0.527
 6216SOL     OW19546   6.577   1.590   2.391
 6216SOL    HW119547   6.668   1.609   2.428
 6216SOL    HW219548   6.579   1.506   2.337
 6217SOL     OW19549   0.325   3.954   3.003
 6217SOL    HW119550   0.363   4.044   2.984
 6217SOL    HW219551   0.235   3.946   2.960
 6218SOL     OW19552   4.045   6.090   6.944
 6218SOL    HW119553   3.960   6.066   6.990
 6218SOL    HW219554   4.111   6.123   7.012
 6219SOL     OW19555   1.766   2.097   4.713
 6219SOL    HW119556   1.785   2.146   4.628
 6219SOL    HW219557   1.668   2.101   4.734
 6220SOL     OW19558   1.896   1.511   4.766
 6220SOL    HW119559   1.971   1.536   4.828
 6220SOL    HW219560   1.815   1.566   4.787
 6221SOL     OW19561   5.392   6.024   6.502
 6221SOL    HW119562   5.428   6.050   6.592
 6221SOL    HW219563   5.328   6.094   6.471
 6222SOL     OW19564   1.219   6.360   1.667
 6222SOL    HW119565   1.212   6.283   1.731
 6222SOL    HW219566   1.127   6.397   1.649
 6223SOL     OW19567   0.959   5.154   4.121
 6223SOL    HW119568   0.946   5.145   4.022
 6223SOL    HW219569   0.922   5.072   4.166
 6224SOL     OW19570   2.773   1.675   5.929
 6224SOL    HW119571   2.781   1.659   6.028
 6224SOL    HW219572   2.690   1.631   5.894
 6225SOL     OW19573   3.847   3.570   6.952
 6225SOL    HW119574   3.933   3.621   6.954
 6225SOL    HW219575   3.816   3.561   6.857
 6226SOL     OW19576   6.963   1.588   5.322
 6226SOL    HW119577   6.889   1.645   5.357
 6226SOL    HW219578   6.976   1.605   5.225
 6227SOL     OW19579   3.409   6.025   5.058
 6227SOL    HW119580   3.327   6.075   5.083
 6227SOL    HW219581   3.439   5.967   5.134
 6228SOL     OW19582   0.890   2.774   2.450
 6228SOL    HW119583   0.944   2.858   2.439
 6228SOL    HW219584   0.836   2.781   2.534
 6229SOL     OW19585   0.506   2.305   3.213
 6229SOL    HW119586   0.551   2.320   3.302
 6229SOL    HW219587   0.473   2.392   3.177
 6230SOL     OW19588   0.561   1.412   3.602
 6230SOL    HW119589   0.515   1.491   3.561
 6230SOL    HW219590   0.569   1.339   3.533
 6231SOL     OW19591   6.200   5.969   1.011
 6231SOL    HW119592   6.155   5.900   0.955
 6231SOL    HW219593   6.296   5.978   0.983
 6232SOL     OW19594   6.723   0.790   0.741
 6232SOL    HW119595   6.803   0.762   0.688
 6232SOL    HW219596   6.656   0.716   0.740
 6233SOL     OW19597   0.038   1.462   1.156
 6233SOL    HW119598   6.980   1.450   1.103
 6233SOL    HW219599   0.023   1.530   1.228
 6234SOL     OW19600   6.701   1.612   5.513
 6234SOL    HW119601   6.664   1.559   5.437
 6234SOL    HW219602   6.721   1.551   5.590
 6235SOL     OW19603   0.744   6.952   0.937
 6235SOL    HW119604   0.791   6.864   0.936
 6235SOL    HW219605   0.723   6.980   0.844
 6236SOL     OW19606   0.802   3.757   0.854
 6236SOL    HW119607   0.743   3.714   0.922
 6236SOL    HW219608   0.896   3.757   0.887
 6237SOL     OW19609   3.511   0.577   6.293
 6237SOL    HW119610   3.433   0.541   6.343
 6237SOL    HW219611   3.543   0.661   6.337
 6238SOL     OW19612   3.824   4.898   2.691
 6238SOL    HW119613   3.748   4.875   2.629
 6238SOL    HW219614   3.806   4.986   2.735
 6239SOL     OW19615   3.013   0.567   1.696
 6239SOL    HW119616   3.011   0.662   1.666
 6239SOL    HW219617   2.924   0.542   1.735
 6240SOL     OW19618   1.916   3.135   5.293
 6240SOL    HW119619   1.870   3.217   5.327
 6240SOL    HW219620   1.995   3.162   5.237
 6241SOL     OW19621   3.221   0.037   1.369
 6241SOL    HW119622   3.243   6.995   1.440
 6241SOL    HW219623   3.238   0.129   1.404
 6242SOL     OW19624   4.676   0.383   4.010
 6242SOL    HW119625   4.602   0.438   4.049
 6242SOL    HW219626   4.642   0.292   3.988
 6243SOL     OW19627   6.047   6.635   4.297
 6243SOL    HW119628   6.123   6.573   4.316
 6243SOL    HW219629   6.051   6.712   4.361
 6244SOL     OW19630   6.755   2.520   2.001
 6244SOL    HW119631   6.767   2.481   2.092
 6244SOL    HW219632   6.728   2.616   2.008
 6245SOL     OW19633   1.890   4.117   0.474
 6245SOL    HW119634   1.862   4.052   0.403
 6245SOL    HW219635   1.969   4.081   0.523
 6246SOL     OW19636   1.830   1.830   5.519
 6246SOL    HW119637   1.907   1.837   5.583
 6246SOL    HW219638   1.821   1.916   5.469
 6247SOL     OW19639   6.914   5.058   4.552
 6247SOL    HW119640   6.834   5.085   4.499
 6247SOL    HW219641   6.979   5.010   4.494
 6248SOL     OW19642   3.412   3.395   0.379
 6248SOL    HW119643   3.412   3.458   0.302
 6248SOL    HW219644   3.357   3.315   0.358
 6249SOL     OW19645   0.272   3.797   0.636
 6249SOL    HW119646   0.305   3.855   0.710
 6249SOL    HW219647   0.205   3.846   0.581
 6250SOL     OW19648   6.603   0.527   6.646
 6250SOL    HW119649   6.557   0.556   6.562
 6250SOL    HW219650   6.694   0.569   6.650
 6251SOL     OW19651   3.919   5.690   6.688
 6251SOL    HW119652   3.830   5.692   6.643
 6251SOL    HW219653   3.908   5.708   6.785
 6252SOL     OW19654   2.432   5.884   5.492
 6252SOL    HW119655   2.401   5.883   5.587
 6252SOL    HW219656   2.516   5.830   5.483
 6253SOL     OW19657   2.266   4.571   3.969
 6253SOL    HW119658   2.332   4.572   4.044
 6253SOL    HW219659   2.314   4.590   3.883
 6254SOL     OW19660   5.729   1.070   1.200
 6254SOL    HW119661   5.821   1.085   1.163
 6254SOL    HW219662   5.661   1.108   1.137
 6255SOL     OW19663   3.325   0.732   0.811
 6255SOL    HW119664   3.255   0.677   0.766
 6255SOL    HW219665   3.372   0.788   0.742
 6256SOL     OW19666   3.730   5.413   1.763
 6256SOL    HW119667   3.764   5.490   1.710
 6256SOL    HW219668   3.703   5.443   1.854
 6257SOL     OW19669   5.370   1.998   0.950
 6257SOL    HW119670   5.329   1.916   0.990
 6257SOL    HW219671   5.297   2.059   0.918
 6258SOL     OW19672   3.260   0.888   3.643
 6258SOL    HW119673   3.277   0.798   3.683
 6258SOL    HW219674   3.162   0.904   3.638
 6259SOL     OW19675   1.933   2.488   6.873
 6259SOL    HW119676   1.943   2.412   6.937
 6259SOL    HW219677   1.994   2.477   6.796
 6260SOL     OW19678   3.305   5.790   0.392
 6260SOL    HW119679   3.239   5.866   0.393
 6260SOL    HW219680   3.317   5.757   0.299
 6261SOL     OW19681   3.937   1.398   6.912
 6261SOL    HW119682   4.013   1.459   6.933
 6261SOL    HW219683   3.904   1.417   6.820
 6262SOL     OW19684   2.509   6.542   1.662
 6262SOL    HW119685   2.451   6.584   1.592
 6262SOL    HW219686   2.485   6.580   1.752
 6263SOL     OW19687   6.908   0.752   5.569
 6263SOL    HW119688   6.868   0.661   5.583
 6263SOL    HW219689   6.990   0.745   5.513
 6264SOL     OW19690   1.463   0.383   1.697
 6264SOL    HW119691   1.395   0.383   1.770
 6264SOL    HW219692   1.472   0.291   1.659
 6265SOL     OW19693   4.085   3.299   0.255
 6265SOL    HW119694   3.986   3.306   0.253
 6265SOL    HW219695   4.114   3.215   0.208
 6266SOL     OW19696   3.871   0.996   4.147
 6266SOL    HW119697   3.934   0.931   4.190
 6266SOL    HW219698   3.805   1.027   4.215
 6267SOL     OW19699   2.502   6.625   6.030
 6267SOL    HW119700   2.503   6.537   6.078
 6267SOL    HW219701   2.420   6.631   5.972
 6268SOL     OW19702   2.652   0.107   2.979
 6268SOL    HW119703   2.570   0.052   2.989
 6268SOL    HW219704   2.627   0.198   2.944
 6269SOL     OW19705   0.323   6.333   1.584
 6269SOL    HW119706   0.403   6.301   1.534
 6269SOL    HW219707   0.335   6.430   1.606
 6270SOL     OW19708   1.596   6.996   5.964
 6270SOL    HW119709   1.609   6.900   5.941
 6270SOL    HW219710   1.685   0.014   5.979
 6271SOL     OW19711   6.854   2.221   6.484
 6271SOL    HW119712   6.767   2.262   6.511
 6271SOL    HW219713   6.920   2.293   6.465
 6272SOL     OW19714   0.333   2.739   0.118
 6272SOL    HW119715   0.310   2.662   0.178
 6272SOL    HW219716   0.276   2.818   0.141
 6273SOL     OW19717   0.734   6.255   2.833
 6273SOL    HW119718   0.654   6.200   2.855
 6273SOL    HW219719   0.753   6.249   2.735
 6274SOL     OW19720   3.351   5.964   5.653
 6274SOL    HW119721   3.419   6.023   5.696
 6274SOL    HW219722   3.275   5.950   5.716
 6275SOL     OW19723   2.856   6.349   6.400
 6275SOL    HW119724   2.811   6.260   6.408
 6275SOL    HW219725   2.806   6.417   6.453
 6276SOL     OW19726   1.853   3.985   3.710
 6276SOL    HW119727   1.838   3.903   3.654
 6276SOL    HW219728   1.856   4.066   3.650
 6277SOL     OW19729   5.214   3.231   1.633
 6277SOL    HW119730   5.132   3.274   1.597
 6277SOL    HW219731   5.242   3.276   1.717
 6278SOL     OW19732   5.213   6.401   4.994
 6278SOL    HW119733   5.128   6.392   4.942
 6278SOL    HW219734   5.278   6.456   4.941
 6279SOL     OW19735   3.610   6.546   6.903
 6279SOL    HW119736   3.555   6.508   6.978
 6279SOL    HW219737   3.606   6.485   6.824
 6280SOL     OW19738   1.160   2.220   4.696
 6280SOL    HW119739   1.112   2.236   4.610
 6280SOL    HW219740   1.183   2.123   4.704
 6281SOL     OW19741   0.434   4.782   3.951
 6281SOL    HW119742   0.358   4.745   4.004
 6281SOL    HW219743   0.497   4.830   4.013
 6282SOL     OW19744   0.547   5.790   5.663
 6282SOL    HW119745   0.489   5.769   5.584
 6282SOL    HW219746   0.489   5.807   5.743
 6283SOL     OW19747   6.665   3.416   5.192
 6283SOL    HW119748   6.599   3.373   5.131
 6283SOL    HW219749   6.688   3.508   5.159
 6284SOL     OW19750   1.024   5.545   4.735
 6284SOL    HW119751   1.002   5.453   4.767
 6284SOL    HW219752   0.973   5.612   4.789
 6285SOL     OW19753   0.176   4.050   4.940
 6285SOL    HW119754   0.164   4.001   5.026
 6285SOL    HW219755   0.267   4.030   4.903
 6286SOL     OW19756   5.894   1.858   4.463
 6286SOL    HW119757   5.906   1.789   4.392
 6286SOL    HW219758   5.829   1.928   4.432
 6287SOL     OW19759   3.620   5.015   4.692
 6287SOL    HW119760   3.607   5.111   4.669
 6287SOL    HW219761   3.557   4.989   4.765
 6288SOL     OW19762   4.767   4.390   2.431
 6288SOL    HW119763   4.739   4.298   2.461
 6288SOL    HW219764   4.866   4.393   2.423
 6289SOL     OW19765   1.693   5.043   1.137
 6289SOL    HW119766   1.692   5.119   1.072
 6289SOL    HW219767   1.708   5.077   1.230
 6290SOL     OW19768   6.529   5.128   5.510
 6290SOL    HW119769   6.527   5.207   5.572
 6290SOL    HW219770   6.438   5.115   5.471
 6291SOL     OW19771   3.999   3.107   4.495
 6291SOL    HW119772   4.007   3.132   4.591
 6291SOL    HW219773   4.075   3.047   4.470
 6292SOL     OW19774   1.277   1.991   4.776
 6292SOL    HW119775   1.232   1.990   4.865
 6292SOL    HW219776   1.354   2.055   4.778
 6293SOL     OW19777   3.950   1.117   0.821
 6293SOL    HW119778   3.889   1.196   0.827
 6293SOL    HW219779   3.975   1.086   0.913
 6294SOL     OW19780   3.492   7.013   4.127
 6294SOL    HW119781   3.543   0.041   4.059
 6294SOL    HW219782   3.431   0.049   4.178
 6295SOL     OW19783   5.621   4.543   5.943
 6295SOL    HW119784   5.681   4.545   6.023
 6295SOL    HW219785   5.618   4.450   5.906
 6296SOL     OW19786   0.709   6.620   5.945
 6296SOL    HW119787   0.674   6.656   6.031
 6296SOL    HW219788   0.686   6.523   5.938
 6297SOL     OW19789   5.388   1.049   4.019
 6297SOL    HW119790   5.385   0.951   4.034
 6297SOL    HW219791   5.397   1.067   3.921
 6298SOL     OW19792   1.686   2.856   0.120
 6298SOL    HW119793   1.731   2.791   0.059
 6298SOL    HW219794   1.591   2.828   0.133
 6299SOL     OW19795   5.791   2.069   0.833
 6299SOL    HW119796   5.696   2.100   0.824
 6299SOL    HW219797   5.796   1.971   0.813
 6300SOL     OW19798   6.387   0.706   0.068
 6300SOL    HW119799   6.302   0.682   0.114
 6300SOL    HW219800   6.464   0.664   0.116
 6301SOL     OW19801   3.955   6.816   0.091
 6301SOL    HW119802   3.959   6.752   0.168
 6301SOL    HW219803   3.874   6.796   0.036
 6302SOL     OW19804   1.545   0.283   3.332
 6302SOL    HW119805   1.526   0.185   3.326
 6302SOL    HW219806   1.547   0.310   3.428
 6303SOL     OW19807   2.014   1.347   3.849
 6303SOL    HW119808   2.048   1.340   3.755
 6303SOL    HW219809   2.082   1.306   3.911
 6304SOL     OW19810   2.459   0.695   1.513
 6304SOL    HW119811   2.444   0.649   1.425
 6304SOL    HW219812   2.486   0.627   1.581
 6305SOL     OW19813   6.233   6.804   0.696
 6305SOL    HW119814   6.176   6.722   0.686
 6305SOL    HW219815   6.247   6.847   0.607
 6306SOL     OW19816   0.686   4.080   3.549
 6306SOL    HW119817   0.600   4.106   3.506
 6306SOL    HW219818   0.705   4.142   3.625
 6307SOL     OW19819   3.215   3.847   5.064
 6307SOL    HW119820   3.186   3.787   5.139
 6307SOL    HW219821   3.162   3.932   5.067
 6308SOL     OW19822   2.206   2.020   4.571
 6308SOL    HW119823   2.305   2.022   4.559
 6308SOL    HW219824   2.184   1.987   4.663
 6309SOL     OW19825   5.539   4.601   4.979
 6309SOL    HW119826   5.593   4.672   5.024
 6309SOL    HW219827   5.503   4.538   5.048
 6310SOL     OW19828   2.149   6.049   2.719
 6310SOL    HW119829   2.126   5.978   2.786
 6310SOL    HW219830   2.231   6.021   2.669
 6311SOL     OW19831   5.191   1.423   6.004
 6311SOL    HW119832   5.147   1.491   6.063
 6311SOL    HW219833   5.254   1.469   5.941
 6312SOL     OW19834   6.867   6.085   5.334
 6312SOL    HW119835   6.955   6.093   5.288
 6312SOL    HW219836   6.878   6.111   5.430
 6313SOL     OW19837   6.784   6.140   4.510
 6313SOL    HW119838   6.701   6.163   4.460
 6313SOL    HW219839   6.804   6.212   4.576
 6314SOL     OW19840   3.825   6.798   1.392
 6314SOL    HW119841   3.821   6.871   1.460
 6314SOL    HW219842   3.822   6.838   1.300
 6315SOL     OW19843   2.103   2.606   5.188
 6315SOL    HW119844   2.154   2.692   5.198
 6315SOL    HW219845   2.008   2.620   5.214
 6316SOL     OW19846   5.109   2.144   6.909
 6316SOL    HW119847   5.068   2.109   6.825
 6316SOL    HW219848   5.090   2.242   6.918
 6317SOL     OW19849   4.749   5.158   1.391
 6317SOL    HW119850   4.668   5.099   1.382
 6317SOL    HW219851   4.831   5.104   1.376
 6318SOL     OW19852   3.286   1.095   5.682
 6318SOL    HW119853   3.228   1.079   5.602
 6318SOL    HW219854   3.229   1.125   5.759
 6319SOL     OW19855   6.241   1.662   5.066
 6319SOL    HW119856   6.293   1.577   5.063
 6319SOL    HW219857   6.165   1.658   5.001
 6320SOL     OW19858   6.042   6.289   5.376
 6320SOL    HW119859   6.011   6.377   5.413
 6320SOL    HW219860   6.089   6.304   5.289
 6321SOL     OW19861   4.257   3.886   0.860
 6321SOL    HW119862   4.292   3.957   0.921
 6321SOL    HW219863   4.160   3.901   0.843
 6322SOL     OW19864   2.426   1.952   1.158
 6322SOL    HW119865   2.476   1.907   1.084
 6322SOL    HW219866   2.486   1.960   1.238
 6323SOL     OW19867   3.088   2.726   1.528
 6323SOL    HW119868   3.126   2.660   1.463
 6323SOL    HW219869   3.161   2.785   1.563
 6324SOL     OW19870   5.669   0.307   0.137
 6324SOL    HW119871   5.606   0.353   0.200
 6324SOL    HW219872   5.618   0.274   0.057
 6325SOL     OW19873   1.787   3.029   2.566
 6325SOL    HW119874   1.804   2.962   2.494
 6325SOL    HW219875   1.767   3.118   2.525
 6326SOL     OW19876   4.999   5.128   1.569
 6326SOL    HW119877   4.927   5.181   1.615
 6326SOL    HW219878   4.971   5.032   1.565
 6327SOL     OW19879   0.031   0.704   4.936
 6327SOL    HW119880   0.124   0.738   4.921
 6327SOL    HW219881   7.015   0.755   5.011
 6328SOL     OW19882   3.348   3.570   0.588
 6328SOL    HW119883   3.370   3.498   0.523
 6328SOL    HW219884   3.286   3.534   0.658
 6329SOL     OW19885   2.116   2.174   2.997
 6329SOL    HW119886   2.057   2.122   2.935
 6329SOL    HW219887   2.169   2.111   3.054
 6330SOL     OW19888   5.267   0.487   1.486
 6330SOL    HW119889   5.241   0.418   1.553
 6330SOL    HW219890   5.333   0.550   1.526
 6331SOL     OW19891   6.345   2.525   5.637
 6331SOL    HW119892   6.388   2.434   5.634
 6331SOL    HW219893   6.376   2.573   5.720
 6332SOL     OW19894   0.404   3.299   0.546
 6332SOL    HW119895   0.323   3.265   0.499
 6332SOL    HW219896   0.379   3.377   0.605
 6333SOL     OW19897   4.350   5.654   4.805
 6333SOL    HW119898   4.360   5.565   4.760
 6333SOL    HW219899   4.402   5.723   4.754
 6334SOL     OW19900   2.664   0.632   2.507
 6334SOL    HW119901   2.738   0.582   2.553
 6334SOL    HW219902   2.680   0.730   2.517
 6335SOL     OW19903   3.870   0.610   0.274
 6335SOL    HW119904   3.905   0.577   0.187
 6335SOL    HW219905   3.770   0.612   0.272
 6336SOL     OW19906   1.049   2.308   5.938
 6336SOL    HW119907   1.057   2.217   5.899
 6336SOL    HW219908   1.134   2.358   5.922
 6337SOL     OW19909   5.060   4.957   5.415
 6337SOL    HW119910   5.068   4.916   5.324
 6337SOL    HW219911   5.147   5.000   5.440
 6338SOL     OW19912   3.296   1.906   4.122
 6338SOL    HW119913   3.301   1.957   4.036
 6338SOL    HW219914   3.377   1.848   4.130
 6339SOL     OW19915   0.918   3.771   3.689
 6339SOL    HW119916   0.990   3.840   3.678
 6339SOL    HW219917   0.923   3.706   3.613
 6340SOL     OW19918   2.093   5.122   2.482
 6340SOL    HW119919   2.120   5.174   2.564
 6340SOL    HW219920   2.001   5.149   2.455
 6341SOL     OW19921   0.269   4.035   4.418
 6341SOL    HW119922   0.244   4.123   4.376
 6341SOL    HW219923   0.354   4.002   4.378
 6342SOL     OW19924   1.899   1.036   2.345
 6342SOL    HW119925   1.848   1.112   2.385
 6342SOL    HW219926   1.874   1.026   2.249
 6343SOL     OW19927   4.858   2.078   6.447
 6343SOL    HW119928   4.950   2.053   6.415
 6343SOL    HW219929   4.802   1.996   6.456
 6344SOL     OW19930   5.096   2.468   4.258
 6344SOL    HW119931   5.026   2.397   4.256
 6344SOL    HW219932   5.080   2.533   4.185
 6345SOL     OW19933   5.960   2.819   2.640
 6345SOL    HW119934   5.998   2.733   2.607
 6345SOL    HW219935   5.915   2.867   2.565
 6346SOL     OW19936   6.946   5.265   4.066
 6346SOL    HW119937   6.882   5.191   4.045
 6346SOL    HW219938   6.941   5.334   3.993
 6347SOL     OW19939   1.876   0.571   0.765
 6347SOL    HW119940   1.915   0.486   0.729
 6347SOL    HW219941   1.851   0.559   0.861
 6348SOL     OW19942   1.352   3.172   5.614
 6348SOL    HW119943   1.281   3.239   5.596
 6348SOL    HW219944   1.359   3.155   5.712
 6349SOL     OW19945   2.371   0.600   1.260
 6349SOL    HW119946   2.295   0.569   1.317
 6349SOL    HW219947   2.346   0.588   1.164
 6350SOL     OW19948   0.192   4.952   4.231
 6350SOL    HW119949   0.098   4.930   4.205
 6350SOL    HW219950   0.192   4.998   4.320
 6351SOL     OW19951   6.565   3.574   3.857
 6351SOL    HW119952   6.656   3.569   3.898
 6351SOL    HW219953   6.554   3.664   3.814
 6352SOL     OW19954   3.831   6.192   4.772
 6352SOL    HW119955   3.767   6.180   4.848
 6352SOL    HW219956   3.780   6.189   4.686
 6353SOL     OW19957   0.836   6.582   6.446
 6353SOL    HW119958   0.915   6.532   6.411
 6353SOL    HW219959   0.867   6.659   6.502
 6354SOL     OW19960   2.533   5.307   3.126
 6354SOL    HW119961   2.524   5.380   3.193
 6354SOL    HW219962   2.494   5.222   3.163
 6355SOL     OW19963   0.737   5.383   0.253
 6355SOL    HW119964   0.808   5.385   0.323
 6355SOL    HW219965   0.691   5.472   0.250
 6356SOL     OW19966   5.244   5.863   1.604
 6356SOL    HW119967   5.202   5.854   1.695
 6356SOL    HW219968   5.286   5.953   1.596
 6357SOL     OW19969   6.192   3.377   2.390
 6357SOL    HW119970   6.235   3.295   2.428
 6357SOL    HW219971   6.107   3.352   2.343
 6358SOL     OW19972   0.555   2.509   6.500
 6358SOL    HW119973   0.633   2.514   6.562
 6358SOL    HW219974   0.487   2.577   6.526
 6359SOL     OW19975   6.015   0.401   6.773
 6359SOL    HW119976   5.962   0.367   6.851
 6359SOL    HW219977   6.015   0.334   6.700
 6360SOL     OW19978   1.215   4.602   4.079
 6360SOL    HW119979   1.260   4.524   4.123
 6360SOL    HW219980   1.273   4.683   4.086
 6361SOL     OW19981   1.273   6.658   1.493
 6361SOL    HW119982   1.303   6.568   1.462
 6361SOL    HW219983   1.348   6.723   1.484
 6362SOL     OW19984   6.774   6.290   0.012
 6362SOL    HW119985   6.692   6.308   6.983
 6362SOL    HW219986   6.761   6.209   0.068
 6363SOL     OW19987   1.938   5.228   4.034
 6363SOL    HW119988   1.965   5.294   3.964
 6363SOL    HW219989   1.862   5.265   4.088
 6364SOL     OW19990   2.504   1.609   5.522
 6364SOL    HW119991   2.463   1.525   5.486
 6364SOL    HW219992   2.451   1.642   5.600
 6365SOL     OW19993   6.043   0.310   3.773
 6365SOL    HW119994   6.073   0.400   3.741
 6365SOL    HW219995   5.983   0.269   3.705
 6366SOL     OW19996   0.968   5.831   5.910
 6366SOL    HW119997   1.023   5.898   5.960
 6366SOL    HW219998   1.026   5.778   5.849
 6367SOL     OW19999   3.723   1.215   4.775
 6367SOL    HW120000   3.708   1.195   4.871
 6367SOL    HW220001   3.638   1.204   4.724
 6368SOL     OW20002   3.742   4.880   3.418
 6368SOL    HW120003   3.812   4.876   3.347
 6368SOL    HW220004   3.772   4.828   3.498
 6369SOL     OW20005   2.104   6.084   4.039
 6369SOL    HW120006   2.047   6.104   4.119
 6369SOL    HW220007   2.168   6.010   4.062
 6370SOL     OW20008   0.125   3.350   4.006
 6370SOL    HW120009   0.026   3.342   4.021
 6370SOL    HW220010   0.157   3.272   3.953
 6371SOL     OW20011   4.831   4.513   2.945
 6371SOL    HW120012   4.733   4.529   2.954
 6371SOL    HW220013   4.874   4.593   2.902
 6372SOL     OW20014   2.054   0.654   2.184
 6372SOL    HW120015   2.045   0.554   2.181
 6372SOL    HW220016   2.150   0.679   2.195
 6373SOL     OW20017   5.084   3.785   2.413
 6373SOL    HW120018   5.077   3.806   2.315
 6373SOL    HW220019   5.114   3.691   2.425
 6374SOL     OW20020   4.012   3.874   3.333
 6374SOL    HW120021   3.917   3.844   3.332
 6374SOL    HW220022   4.060   3.834   3.255
 6375SOL     OW20023   0.001   1.762   3.670
 6375SOL    HW120024   6.981   1.774   3.758
 6375SOL    HW220025   6.966   1.793   3.597
 6376SOL     OW20026   5.469   2.618   5.005
 6376SOL    HW120027   5.375   2.586   4.999
 6376SOL    HW220028   5.523   2.553   5.058
 6377SOL     OW20029   6.857   2.135   5.446
 6377SOL    HW120030   6.826   2.081   5.523
 6377SOL    HW220031   6.803   2.113   5.365
 6378SOL     OW20032   4.522   4.859   4.195
 6378SOL    HW120033   4.596   4.926   4.187
 6378SOL    HW220034   4.557   4.775   4.236
 6379SOL     OW20035   1.590   4.152   4.846
 6379SOL    HW120036   1.609   4.156   4.748
 6379SOL    HW220037   1.528   4.226   4.871
 6380SOL     OW20038   0.035   1.553   5.576
 6380SOL    HW120039   0.004   1.592   5.490
 6380SOL    HW220040   0.025   1.453   5.573
 6381SOL     OW20041   3.941   3.051   1.916
 6381SOL    HW120042   4.023   3.018   1.962
 6381SOL    HW220043   3.891   2.973   1.876
 6382SOL     OW20044   2.445   2.099   0.741
 6382SOL    HW120045   2.538   2.135   0.737
 6382SOL    HW220046   2.423   2.053   0.655
 6383SOL     OW20047   1.523   2.728   2.645
 6383SOL    HW120048   1.558   2.662   2.711
 6383SOL    HW220049   1.515   2.685   2.555
 6384SOL     OW20050   6.604   3.819   2.564
 6384SOL    HW120051   6.610   3.720   2.570
 6384SOL    HW220052   6.508   3.846   2.549
 6385SOL     OW20053   0.351   4.148   3.583
 6385SOL    HW120054   0.327   4.104   3.670
 6385SOL    HW220055   0.340   4.083   3.508
 6386SOL     OW20056   2.895   4.629   5.750
 6386SOL    HW120057   2.970   4.695   5.755
 6386SOL    HW220058   2.818   4.663   5.803
 6387SOL     OW20059   6.705   1.406   6.240
 6387SOL    HW120060   6.656   1.373   6.160
 6387SOL    HW220061   6.704   1.506   6.240
 6388SOL     OW20062   3.906   6.352   1.802
 6388SOL    HW120063   3.879   6.271   1.854
 6388SOL    HW220064   3.912   6.430   1.864
 6389SOL     OW20065   7.005   5.667   2.084
 6389SOL    HW120066   0.053   5.689   2.020
 6389SOL    HW220067   7.014   5.725   2.165
 6390SOL     OW20068   0.697   0.915   5.948
 6390SOL    HW120069   0.606   0.874   5.952
 6390SOL    HW220070   0.756   0.871   6.015
 6391SOL     OW20071   3.037   6.978   5.879
 6391SOL    HW120072   3.068   6.957   5.972
 6391SOL    HW220073   2.937   6.979   5.877
 6392SOL     OW20074   2.528   5.524   2.940
 6392SOL    HW120075   2.546   5.452   3.008
 6392SOL    HW220076   2.487   5.603   2.985
 6393SOL     OW20077   0.047   6.883   2.195
 6393SOL    HW120078   0.089   6.830   2.269
 6393SOL    HW220079   0.000   6.963   2.233
 6394SOL     OW20080   1.761   5.219   0.763
 6394SOL    HW120081   1.694   5.145   0.766
 6394SOL    HW220082   1.714   5.307   0.755
 6395SOL     OW20083   0.784   2.726   1.298
 6395SOL    HW120084   0.844   2.745   1.376
 6395SOL    HW220085   0.803   2.634   1.263
 6396SOL     OW20086   4.811   3.716   6.522
 6396SOL    HW120087   4.856   3.628   6.511
 6396SOL    HW220088   4.712   3.703   6.518
 6397SOL     OW20089   6.024   1.849   0.832
 6397SOL    HW120090   5.957   1.809   0.770
 6397SOL    HW220091   6.011   1.812   0.924
 6398SOL     OW20092   2.767   6.697   1.842
 6398SOL    HW120093   2.801   6.787   1.817
 6398SOL    HW220094   2.843   6.639   1.871
 6399SOL     OW20095   1.796   6.446   6.458
 6399SOL    HW120096   1.721   6.413   6.401
 6399SOL    HW220097   1.785   6.544   6.475
 6400SOL     OW20098   2.713   5.819   2.202
 6400SOL    HW120099   2.695   5.769   2.287
 6400SOL    HW220100   2.695   5.917   2.216
 6401SOL     OW20101   5.710   5.623   3.311
 6401SOL    HW120102   5.725   5.541   3.257
 6401SOL    HW220103   5.721   5.704   3.253
 6402SOL     OW20104   3.343   2.108   3.373
 6402SOL    HW120105   3.373   2.137   3.464
 6402SOL    HW220106   3.423   2.081   3.319
 6403SOL     OW20107   0.110   6.032   6.694
 6403SOL    HW120108   0.185   6.090   6.662
 6403SOL    HW220109   0.032   6.090   6.720
 6404SOL     OW20110   4.439   0.947   2.656
 6404SOL    HW120111   4.359   0.988   2.613
 6404SOL    HW220112   4.409   0.880   2.724
 6405SOL     OW20113   2.978   0.484   3.836
 6405SOL    HW120114   3.014   0.577   3.840
 6405SOL    HW220115   2.985   0.442   3.927
 6406SOL     OW20116   0.769   2.770   2.694
 6406SOL    HW120117   0.756   2.814   2.783
 6406SOL    HW220118   0.766   2.671   2.705
 6407SOL     OW20119   2.704   6.381   3.894
 6407SOL    HW120120   2.712   6.364   3.796
 6407SOL    HW220121   2.729   6.298   3.945
 6408SOL     OW20122   5.528   1.454   0.031
 6408SOL    HW120123   5.479   1.450   0.118
 6408SOL    HW220124   5.592   1.378   0.026
 6409SOL     OW20125   7.016   4.083   3.319
 6409SOL    HW120126   0.059   4.126   3.378
 6409SOL    HW220127   6.929   4.076   3.368
 6410SOL     OW20128   2.068   1.547   6.729
 6410SOL    HW120129   2.069   1.531   6.828
 6410SOL    HW220130   2.124   1.478   6.683
 6411SOL     OW20131   0.807   3.293   3.104
 6411SOL    HW120132   0.852   3.205   3.121
 6411SOL    HW220133   0.718   3.294   3.149
 6412SOL     OW20134   0.740   1.999   4.558
 6412SOL    HW120135   0.705   2.022   4.649
 6412SOL    HW220136   0.800   1.920   4.565
 6413SOL     OW20137   4.025   4.838   3.664
 6413SOL    HW120138   4.100   4.805   3.721
 6413SOL    HW220139   3.959   4.887   3.722
 6414SOL     OW20140   5.558   0.858   0.622
 6414SOL    HW120141   5.531   0.864   0.526
 6414SOL    HW220142   5.609   0.774   0.637
 6415SOL     OW20143   1.648   3.477   2.723
 6415SOL    HW120144   1.607   3.422   2.795
 6415SOL    HW220145   1.742   3.500   2.747
 6416SOL     OW20146   0.733   1.459   6.822
 6416SOL    HW120147   0.736   1.408   6.736
 6416SOL    HW220148   0.807   1.527   6.822
 6417SOL     OW20149   6.019   5.132   0.875
 6417SOL    HW120150   6.076   5.212   0.857
 6417SOL    HW220151   5.935   5.138   0.821
 6418SOL     OW20152   4.930   3.614   2.058
 6418SOL    HW120153   4.935   3.700   2.110
 6418SOL    HW220154   4.931   3.634   1.960
 6419SOL     OW20155   2.324   4.679   3.416
 6419SOL    HW120156   2.232   4.645   3.395
 6419SOL    HW220157   2.322   4.779   3.421
 6420SOL     OW20158   3.109   5.732   4.702
 6420SOL    HW120159   3.030   5.672   4.691
 6420SOL    HW220160   3.111   5.798   4.627
 6421SOL     OW20161   5.033   0.261   3.027
 6421SOL    HW120162   5.022   0.192   3.098
 6421SOL    HW220163   4.984   0.233   2.945
 6422SOL     OW20164   0.099   0.925   4.087
 6422SOL    HW120165   0.188   0.937   4.042
 6422SOL    HW220166   0.092   0.988   4.164
 6423SOL     OW20167   4.866   5.171   3.113
 6423SOL    HW120168   4.883   5.166   3.015
 6423SOL    HW220169   4.861   5.079   3.151
 6424SOL     OW20170   6.961   5.432   5.967
 6424SOL    HW120171   6.922   5.523   5.952
 6424SOL    HW220172   6.887   5.365   5.969
 6425SOL     OW20173   6.440   6.322   3.130
 6425SOL    HW120174   6.453   6.418   3.153
 6425SOL    HW220175   6.398   6.315   3.039
 6426SOL     OW20176   1.671   5.137   2.867
 6426SOL    HW120177   1.616   5.073   2.813
 6426SOL    HW220178   1.766   5.136   2.835
 6427SOL     OW20179   3.630   3.684   4.711
 6427SOL    HW120180   3.570   3.763   4.699
 6427SOL    HW220181   3.589   3.603   4.669
 6428SOL     OW20182   5.449   3.335   5.923
 6428SOL    HW120183   5.360   3.341   5.969
 6428SOL    HW220184   5.497   3.254   5.955
 6429SOL     OW20185   1.671   1.745   5.827
 6429SOL    HW120186   1.740   1.744   5.899
 6429SOL    HW220187   1.709   1.705   5.744
 6430SOL     OW20188   6.344   0.992   2.895
 6430SOL    HW120189   6.357   0.998   2.796
 6430SOL    HW220190   6.406   1.056   2.941
 6431SOL     OW20191   5.467   6.326   4.193
 6431SOL    HW120192   5.558   6.318   4.153
 6431SOL    HW220193   5.399   6.292   4.127
 6432SOL     OW20194   4.216   4.484   5.937
 6432SOL    HW120195   4.158   4.565   5.923
 6432SOL    HW220196   4.272   4.469   5.856
 6433SOL     OW20197   2.020   5.119   6.576
 6433SOL    HW120198   1.968   5.034   6.582
 6433SOL    HW220199   2.079   5.117   6.496
 6434SOL     OW20200   2.208   4.463   6.867
 6434SOL    HW120201   2.292   4.461   6.813
 6434SOL    HW220202   2.223   4.519   6.949
 6435SOL     OW20203   4.797   7.022   0.328
 6435SOL    HW120204   4.875   7.010   0.390
 6435SOL    HW220205   4.764   0.090   0.335
 6436SOL     OW20206   1.477   3.087   2.950
 6436SOL    HW120207   1.522   3.048   2.870
 6436SOL    HW220208   1.417   3.018   2.992
 6437SOL     OW20209   2.153   1.346   0.454
 6437SOL    HW120210   2.113   1.391   0.534
 6437SOL    HW220211   2.134   1.248   0.458
 6438SOL     OW20212   6.231   4.462   6.013
 6438SOL    HW120213   6.169   4.537   5.992
 6438SOL    HW220214   6.196   4.408   6.089
 6439SOL     OW20215   5.731   1.066   1.941
 6439SOL    HW120216   5.801   1.099   2.004
 6439SOL    HW220217   5.752   0.972   1.914
 6440SOL     OW20218   2.310   1.601   5.750
 6440SOL    HW120219   2.249   1.604   5.671
 6440SOL    HW220220   2.271   1.656   5.824
 6441SOL     OW20221   6.825   6.723   2.112
 6441SOL    HW120222   6.759   6.798   2.117
 6441SOL    HW220223   6.911   6.751   2.155
 6442SOL     OW20224   2.459   1.156   4.475
 6442SOL    HW120225   2.469   1.255   4.483
 6442SOL    HW220226   2.521   1.122   4.404
 6443SOL     OW20227   4.155   2.091   5.660
 6443SOL    HW120228   4.121   2.131   5.745
 6443SOL    HW220229   4.139   1.993   5.661
 6444SOL     OW20230   5.528   2.781   4.145
 6444SOL    HW120231   5.621   2.815   4.130
 6444SOL    HW220232   5.482   2.838   4.213
 6445SOL     OW20233   4.109   3.332   4.893
 6445SOL    HW120234   4.157   3.398   4.950
 6445SOL    HW220235   4.166   3.250   4.881
 6446SOL     OW20236   1.455   1.540   6.338
 6446SOL    HW120237   1.461   1.597   6.419
 6446SOL    HW220238   1.373   1.565   6.286
 6447SOL     OW20239   5.436   5.238   3.109
 6447SOL    HW120240   5.438   5.178   3.030
 6447SOL    HW220241   5.349   5.287   3.112
 6448SOL     OW20242   3.841   5.802   1.879
 6448SOL    HW120243   3.834   5.738   1.802
 6448SOL    HW220244   3.757   5.856   1.886
 6449SOL     OW20245   3.009   5.834   1.222
 6449SOL    HW120246   3.025   5.795   1.132
 6449SOL    HW220247   3.004   5.933   1.216
 6450SOL     OW20248   0.479   4.057   0.687
 6450SOL    HW120249   0.419   4.073   0.609
 6450SOL    HW220250   0.433   4.085   0.771
 6451SOL     OW20251   1.863   0.883   4.625
 6451SOL    HW120252   1.838   0.786   4.624
 6451SOL    HW220253   1.847   0.923   4.534
 6452SOL     OW20254   4.349   5.825   4.081
 6452SOL    HW120255   4.339   5.899   4.014
 6452SOL    HW220256   4.392   5.860   4.164
 6453SOL     OW20257   2.178   6.395   1.658
 6453SOL    HW120258   2.222   6.324   1.603
 6453SOL    HW220259   2.230   6.410   1.742
 6454SOL     OW20260   1.512   2.295   3.013
 6454SOL    HW120261   1.439   2.363   3.007
 6454SOL    HW220262   1.509   2.236   2.932
 6455SOL     OW20263   6.909   3.047   3.884
 6455SOL    HW120264   6.999   3.083   3.861
 6455SOL    HW220265   6.913   3.005   3.975
 6456SOL     OW20266   0.755   0.742   3.858
 6456SOL    HW120267   0.827   0.705   3.917
 6456SOL    HW220268   0.698   0.666   3.825
 6457SOL     OW20269   4.974   1.788   0.937
 6457SOL    HW120270   4.964   1.847   0.857
 6457SOL    HW220271   4.890   1.790   0.991
 6458SOL     OW20272   1.115   6.679   3.964
 6458SOL    HW120273   1.153   6.642   4.049
 6458SOL    HW220274   1.092   6.604   3.903
 6459SOL     OW20275   6.277   3.269   0.994
 6459SOL    HW120276   6.211   3.196   1.012
 6459SOL    HW220277   6.277   3.290   0.896
 6460SOL     OW20278   6.049   6.086   5.700
 6460SOL    HW120279   6.145   6.088   5.671
 6460SOL    HW220280   5.996   6.150   5.644
 6461SOL     OW20281   2.642   4.688   5.970
 6461SOL    HW120282   2.622   4.657   6.063
 6461SOL    HW220283   2.557   4.709   5.923
 6462SOL     OW20284   2.405   2.555   4.405
 6462SOL    HW120285   2.422   2.572   4.308
 6462SOL    HW220286   2.399   2.457   4.421
 6463SOL     OW20287   5.983   2.964   6.633
 6463SOL    HW120288   6.010   3.039   6.572
 6463SOL    HW220289   5.884   2.954   6.632
 6464SOL     OW20290   1.028   5.806   4.915
 6464SOL    HW120291   0.933   5.799   4.885
 6464SOL    HW220292   1.032   5.854   5.002
 6465SOL     OW20293   6.950   3.061   2.825
 6465SOL    HW120294   7.021   3.104   2.882
 6465SOL    HW220295   6.993   2.996   2.762
 6466SOL     OW20296   1.499   1.134   6.371
 6466SOL    HW120297   1.518   1.106   6.465
 6466SOL    HW220298   1.441   1.216   6.371
 6467SOL     OW20299   3.194   1.384   0.313
 6467SOL    HW120300   3.196   1.381   0.413
 6467SOL    HW220301   3.179   1.479   0.283
 6468SOL     OW20302   3.304   6.435   0.242
 6468SOL    HW120303   3.316   6.464   0.337
 6468SOL    HW220304   3.236   6.492   0.197
 6469SOL     OW20305   5.053   1.295   4.536
 6469SOL    HW120306   4.977   1.359   4.529
 6469SOL    HW220307   5.060   1.261   4.630
 6470SOL     OW20308   6.339   3.638   0.422
 6470SOL    HW120309   6.413   3.691   0.464
 6470SOL    HW220310   6.368   3.543   0.411
 6471SOL     OW20311   6.643   6.703   5.855
 6471SOL    HW120312   6.591   6.745   5.781
 6471SOL    HW220313   6.643   6.763   5.935
 6472SOL     OW20314   0.302   5.808   1.574
 6472SOL    HW120315   0.219   5.851   1.537
 6472SOL    HW220316   0.275   5.731   1.632
 6473SOL     OW20317   3.255   1.223   4.393
 6473SOL    HW120318   3.223   1.157   4.462
 6473SOL    HW220319   3.197   1.304   4.396
 6474SOL     OW20320   2.826   4.392   6.079
 6474SOL    HW120321   2.896   4.441   6.028
 6474SOL    HW220322   2.848   4.395   6.177
 6475SOL     OW20323   5.953   5.116   3.704
 6475SOL    HW120324   5.901   5.168   3.772
 6475SOL    HW220325   5.934   5.019   3.715
 6476SOL     OW20326   4.088   3.359   1.112
 6476SOL    HW120327   4.074   3.286   1.045
 6476SOL    HW220328   4.014   3.358   1.179
 6477SOL     OW20329   6.043   4.774   1.249
 6477SOL    HW120330   6.124   4.766   1.191
 6477SOL    HW220331   5.967   4.812   1.196
 6478SOL     OW20332   3.585   0.489   1.644
 6478SOL    HW120333   3.651   0.414   1.646
 6478SOL    HW220334   3.601   0.546   1.564
 6479SOL     OW20335   4.478   5.256   4.139
 6479SOL    HW120336   4.495   5.247   4.041
 6479SOL    HW220337   4.429   5.176   4.172
 6480SOL     OW20338   2.723   1.650   6.552
 6480SOL    HW120339   2.756   1.557   6.567
 6480SOL    HW220340   2.678   1.684   6.634
 6481SOL     OW20341   3.503   1.976   2.172
 6481SOL    HW120342   3.556   1.895   2.199
 6481SOL    HW220343   3.564   2.042   2.128
 6482SOL     OW20344   6.597   0.944   6.280
 6482SOL    HW120345   6.645   0.991   6.206
 6482SOL    HW220346   6.531   1.006   6.323
 6483SOL     OW20347   1.231   6.127   2.093
 6483SOL    HW120348   1.216   6.213   2.141
 6483SOL    HW220349   1.329   6.104   2.096
 6484SOL     OW20350   3.272   7.008   1.094
 6484SOL    HW120351   3.224   6.925   1.065
 6484SOL    HW220352   3.238   0.010   1.184
 6485SOL     OW20353   1.818   5.158   3.635
 6485SOL    HW120354   1.867   5.098   3.571
 6485SOL    HW220355   1.843   5.133   3.728
 6486SOL     OW20356   2.500   4.471   3.372
 6486SOL    HW120357   2.459   4.558   3.400
 6486SOL    HW220358   2.595   4.468   3.402
 6487SOL     OW20359   0.534   6.408   4.990
 6487SOL    HW120360   0.624   6.388   5.028
 6487SOL    HW220361   0.523   6.507   4.979
 6488SOL     OW20362   3.365   6.284   4.592
 6488SOL    HW120363   3.320   6.239   4.669
 6488SOL    HW220364   3.434   6.347   4.627
 6489SOL     OW20365   3.301   2.435   6.595
 6489SOL    HW120366   3.343   2.421   6.506
 6489SOL    HW220367   3.267   2.529   6.601
 6490SOL     OW20368   4.025   0.516   6.775
 6490SOL    HW120369   3.941   0.565   6.751
 6490SOL    HW220370   4.103   0.578   6.765
 6491SOL     OW20371   4.062   0.860   0.617
 6491SOL    HW120372   4.019   0.772   0.636
 6491SOL    HW220373   4.097   0.900   0.702
 6492SOL     OW20374   4.033   5.406   6.980
 6492SOL    HW120375   4.007   5.365   6.892
 6492SOL    HW220376   3.954   5.404   0.016
 6493SOL     OW20377   1.094   4.948   5.233
 6493SOL    HW120378   1.189   4.918   5.238
 6493SOL    HW220379   1.041   4.906   5.306
 6494SOL     OW20380   0.249   0.550   3.621
 6494SOL    HW120381   0.236   0.512   3.529
 6494SOL    HW220382   0.333   0.603   3.623
 6495SOL     OW20383   5.347   0.209   4.289
 6495SOL    HW120384   5.340   0.307   4.274
 6495SOL    HW220385   5.291   0.183   4.368
 6496SOL     OW20386   6.748   0.472   3.221
 6496SOL    HW120387   6.810   0.396   3.240
 6496SOL    HW220388   6.773   0.550   3.277
 6497SOL     OW20389   1.495   1.867   0.908
 6497SOL    HW120390   1.555   1.822   0.842
 6497SOL    HW220391   1.415   1.810   0.924
 6498SOL     OW20392   1.903   3.550   3.711
 6498SOL    HW120393   1.983   3.569   3.769
 6498SOL    HW220394   1.930   3.491   3.635
 6499SOL     OW20395   5.146   2.940   5.025
 6499SOL    HW120396   5.107   2.874   4.961
 6499SOL    HW220397   5.209   3.001   4.976
 6500SOL     OW20398   6.714   4.206   3.709
 6500SOL    HW120399   6.783   4.223   3.779
 6500SOL    HW220400   6.632   4.168   3.751
 6501SOL     OW20401   6.581   1.984   6.645
 6501SOL    HW120402   6.501   1.924   6.654
 6501SOL    HW220403   6.595   2.033   6.731
 6502SOL     OW20404   6.790   1.987   1.376
 6502SOL    HW120405   6.707   2.014   1.326
 6502SOL    HW220406   6.777   2.004   1.473
 6503SOL     OW20407   4.965   1.167   3.228
 6503SOL    HW120408   4.959   1.163   3.128
 6503SOL    HW220409   5.015   1.250   3.255
 6504SOL     OW20410   4.088   5.873   5.467
 6504SOL    HW120411   4.167   5.830   5.424
 6504SOL    HW220412   4.030   5.803   5.508
 6505SOL     OW20413   5.564   5.909   0.490
 6505SOL    HW120414   5.640   5.913   0.555
 6505SOL    HW220415   5.588   5.849   0.414
 6506SOL     OW20416   6.622   2.275   2.674
 6506SOL    HW120417   6.611   2.220   2.757
 6506SOL    HW220418   6.533   2.297   2.637
 6507SOL     OW20419   2.174   5.069   5.898
 6507SOL    HW120420   2.250   5.129   5.874
 6507SOL    HW220421   2.105   5.071   5.825
 6508SOL     OW20422   1.410   0.436   2.862
 6508SOL    HW120423   1.382   0.509   2.800
 6508SOL    HW220424   1.508   0.418   2.851
 6509SOL     OW20425   3.542   1.923   4.442
 6509SOL    HW120426   3.490   2.005   4.465
 6509SOL    HW220427   3.597   1.895   4.521
 6510SOL     OW20428   6.623   5.526   0.144
 6510SOL    HW120429   6.558   5.533   0.068
 6510SOL    HW220430   6.711   5.493   0.109
 6511SOL     OW20431   4.459   1.500   4.175
 6511SOL    HW120432   4.531   1.432   4.166
 6511SOL    HW220433   4.484   1.582   4.124
 6512SOL     OW20434   4.771   6.509   1.714
 6512SOL    HW120435   4.807   6.436   1.773
 6512SOL    HW220436   4.694   6.474   1.661
 6513SOL     OW20437   2.989   5.106   2.936
 6513SOL    HW120438   3.045   5.076   3.013
 6513SOL    HW220439   3.048   5.142   2.864
 6514SOL     OW20440   6.156   1.287   4.274
 6514SOL    HW120441   6.224   1.333   4.218
 6514SOL    HW220442   6.070   1.338   4.270
 6515SOL     OW20443   0.190   4.274   4.322
 6515SOL    HW120444   0.198   4.312   4.230
 6515SOL    HW220445   0.209   4.346   4.389
 6516SOL     OW20446   0.489   3.644   1.509
 6516SOL    HW120447   0.446   3.578   1.447
 6516SOL    HW220448   0.541   3.596   1.579
 6517SOL     OW20449   6.588   0.497   0.902
 6517SOL    HW120450   6.648   0.470   0.827
 6517SOL    HW220451   6.625   0.463   0.989
 6518SOL     OW20452   6.885   0.537   6.917
 6518SOL    HW120453   6.849   0.511   7.006
 6518SOL    HW220454   6.963   0.599   6.929
 6519SOL     OW20455   1.558   1.822   3.198
 6519SOL    HW120456   1.556   1.842   3.295
 6519SOL    HW220457   1.649   1.844   3.161
 6520SOL     OW20458   5.418   5.584   2.269
 6520SOL    HW120459   5.430   5.486   2.285
 6520SOL    HW220460   5.443   5.635   2.352
 6521SOL     OW20461   1.908   2.479   4.105
 6521SOL    HW120462   1.928   2.507   4.199
 6521SOL    HW220463   1.993   2.449   4.061
 6522SOL     OW20464   3.556   5.053   6.545
 6522SOL    HW120465   3.532   5.098   6.631
 6522SOL    HW220466   3.653   5.029   6.545
 6523SOL     OW20467   4.293   1.184   6.168
 6523SOL    HW120468   4.269   1.087   6.182
 6523SOL    HW220469   4.390   1.191   6.147
 6524SOL     OW20470   2.867   4.086   1.571
 6524SOL    HW120471   2.812   4.004   1.586
 6524SOL    HW220472   2.868   4.109   1.474
 6525SOL     OW20473   2.460   4.937   2.795
 6525SOL    HW120474   2.557   4.952   2.816
 6525SOL    HW220475   2.404   5.000   2.848
 6526SOL     OW20476   2.248   6.829   6.594
 6526SOL    HW120477   2.259   6.916   6.643
 6526SOL    HW220478   2.297   6.835   6.506
 6527SOL     OW20479   1.036   2.513   4.492
 6527SOL    HW120480   1.055   2.414   4.497
 6527SOL    HW220481   1.119   2.564   4.513
 6528SOL     OW20482   6.965   0.864   5.137
 6528SOL    HW120483   7.026   0.931   5.181
 6528SOL    HW220484   6.872   0.877   5.169
 6529SOL     OW20485   1.274   1.205   2.587
 6529SOL    HW120486   1.220   1.280   2.548
 6529SOL    HW220487   1.213   1.135   2.624
 6530SOL     OW20488   6.518   3.915   0.166
 6530SOL    HW120489   6.573   3.842   0.205
 6530SOL    HW220490   6.459   3.878   0.094
 6531SOL     OW20491   5.605   3.003   5.089
 6531SOL    HW120492   5.599   2.926   5.152
 6531SOL    HW220493   5.687   3.056   5.108
 6532SOL     OW20494   6.934   0.985   0.466
 6532SOL    HW120495   6.959   0.930   0.546
 6532SOL    HW220496   6.974   1.076   0.474
 6533SOL     OW20497   4.619   0.102   1.605
 6533SOL    HW120498   4.524   0.119   1.578
 6533SOL    HW220499   4.680   0.154   1.546
 6534SOL     OW20500   3.383   4.570   1.448
 6534SOL    HW120501   3.444   4.644   1.419
 6534SOL    HW220502   3.356   4.584   1.543
 6535SOL     OW20503   6.054   4.144   4.047
 6535SOL    HW120504   6.003   4.199   3.982
 6535SOL    HW220505   6.074   4.199   4.129
 6536SOL     OW20506   1.047   1.504   5.452
 6536SOL    HW120507   1.003   1.420   5.422
 6536SOL    HW220508   1.145   1.488   5.465
 6537SOL     OW20509   6.457   5.374   0.294
 6537SOL    HW120510   6.539   5.403   0.245
 6537SOL    HW220511   6.476   5.289   0.344
 6538SOL     OW20512   2.518   4.010   0.145
 6538SOL    HW120513   2.598   3.971   0.189
 6538SOL    HW220514   2.476   3.942   0.086
 6539SOL     OW20515   3.899   0.622   5.859
 6539SOL    HW120516   3.981   0.606   5.914
 6539SOL    HW220517   3.870   0.536   5.817
 6540SOL     OW20518   4.639   1.993   5.783
 6540SOL    HW120519   4.550   2.011   5.826
 6540SOL    HW220520   4.704   1.962   5.851
 6541SOL     OW20521   4.865   2.199   5.041
 6541SOL    HW120522   4.910   2.196   4.951
 6541SOL    HW220523   4.864   2.107   5.080
 6542SOL     OW20524   5.688   4.172   4.117
 6542SOL    HW120525   5.750   4.243   4.085
 6542SOL    HW220526   5.658   4.193   4.210
 6543SOL     OW20527   5.789   3.253   5.807
 6543SOL    HW120528   5.816   3.189   5.879
 6543SOL    HW220529   5.801   3.347   5.839
 6544SOL     OW20530   0.292   6.173   2.861
 6544SOL    HW120531   0.377   6.140   2.821
 6544SOL    HW220532   0.241   6.226   2.793
 6545SOL     OW20533   4.144   2.224   0.836
 6545SOL    HW120534   4.196   2.161   0.778
 6545SOL    HW220535   4.049   2.228   0.804
 6546SOL     OW20536   3.142   4.605   0.028
 6546SOL    HW120537   3.132   4.514   0.068
 6546SOL    HW220538   3.105   4.673   0.092
 6547SOL     OW20539   4.979   1.331   5.594
 6547SOL    HW120540   4.884   1.348   5.569
 6547SOL    HW220541   5.021   1.416   5.623
 6548SOL     OW20542   1.244   3.792   0.444
 6548SOL    HW120543   1.231   3.694   0.456
 6548SOL    HW220544   1.198   3.822   0.360
 6549SOL     OW20545   4.781   1.043   1.661
 6549SOL    HW120546   4.835   0.995   1.731
 6549SOL    HW220547   4.805   1.140   1.662
 6550SOL     OW20548   0.287   6.755   4.283
 6550SOL    HW120549   0.275   6.685   4.354
 6550SOL    HW220550   0.272   6.846   4.322
 6551SOL     OW20551   2.075   4.862   2.848
 6551SOL    HW120552   2.107   4.784   2.793
 6551SOL    HW220553   2.083   4.946   2.795
 6552SOL     OW20554   2.065   6.627   6.315
 6552SOL    HW120555   2.099   6.721   6.319
 6552SOL    HW220556   1.971   6.627   6.282
 6553SOL     OW20557   0.505   2.550   3.658
 6553SOL    HW120558   0.501   2.468   3.601
 6553SOL    HW220559   0.478   2.629   3.604
 6554SOL     OW20560   0.042   1.354   5.044
 6554SOL    HW120561   0.116   1.395   5.097
 6554SOL    HW220562   6.989   1.336   5.104
 6555SOL     OW20563   6.702   2.118   2.919
 6555SOL    HW120564   6.739   2.112   2.826
 6555SOL    HW220565   6.769   2.162   2.979
 6556SOL     OW20566   5.643   4.518   4.739
 6556SOL    HW120567   5.624   4.600   4.684
 6556SOL    HW220568   5.621   4.536   4.835
 6557SOL     OW20569   2.968   6.575   1.951
 6557SOL    HW120570   2.967   6.649   2.019
 6557SOL    HW220571   2.961   6.487   1.998
 6558SOL     OW20572   6.678   4.680   6.618
 6558SOL    HW120573   6.690   4.600   6.678
 6558SOL    HW220574   6.681   4.650   6.523
 6559SOL     OW20575   1.160   3.810   6.226
 6559SOL    HW120576   1.235   3.863   6.266
 6559SOL    HW220577   1.190   3.716   6.211
 6560SOL     OW20578   4.616   5.197   1.086
 6560SOL    HW120579   4.648   5.179   1.179
 6560SOL    HW220580   4.692   5.186   1.022
 6561SOL     OW20581   4.102   3.886   1.571
 6561SOL    HW120582   4.153   3.879   1.657
 6561SOL    HW220583   4.010   3.921   1.590
 6562SOL     OW20584   6.058   3.777   1.040
 6562SOL    HW120585   6.066   3.876   1.036
 6562SOL    HW220586   6.116   3.736   0.969
 6563SOL     OW20587   5.874   6.657   0.538
 6563SOL    HW120588   5.804   6.626   0.473
 6563SOL    HW220589   5.964   6.650   0.497
 6564SOL     OW20590   6.971   4.537   3.145
 6564SOL    HW120591   0.018   4.513   3.210
 6564SOL    HW220592   6.953   4.635   3.151
 6565SOL     OW20593   6.811   2.555   3.625
 6565SOL    HW120594   6.810   2.632   3.688
 6565SOL    HW220595   6.809   2.469   3.677
 6566SOL     OW20596   3.300   6.222   2.432
 6566SOL    HW120597   3.242   6.159   2.381
 6566SOL    HW220598   3.245   6.271   2.500
 6567SOL     OW20599   4.165   1.271   2.109
 6567SOL    HW120600   4.176   1.249   2.012
 6567SOL    HW220601   4.070   1.255   2.136
 6568SOL     OW20602   3.777   1.713   3.551
 6568SOL    HW120603   3.839   1.763   3.491
 6568SOL    HW220604   3.766   1.763   3.637
 6569SOL     OW20605   2.721   3.811   6.545
 6569SOL    HW120606   2.660   3.787   6.469
 6569SOL    HW220607   2.777   3.890   6.518
 6570SOL     OW20608   3.549   0.181   2.254
 6570SOL    HW120609   3.463   0.221   2.286
 6570SOL    HW220610   3.625   0.238   2.284
 6571SOL     OW20611   2.717   6.056   1.966
 6571SOL    HW120612   2.660   6.047   1.884
 6571SOL    HW220613   2.779   5.978   1.973
 6572SOL     OW20614   6.483   4.898   6.154
 6572SOL    HW120615   6.432   4.872   6.236
 6572SOL    HW220616   6.541   4.821   6.126
 6573SOL     OW20617   2.289   1.453   2.361
 6573SOL    HW120618   2.368   1.502   2.325
 6573SOL    HW220619   2.308   1.424   2.455
 6574SOL     OW20620   3.276   5.864   2.797
 6574SOL    HW120621   3.342   5.903   2.733
 6574SOL    HW220622   3.294   5.900   2.889
 6575SOL     OW20623   1.173   0.232   2.442
 6575SOL    HW120624   1.184   0.187   2.531
 6575SOL    HW220625   1.216   0.175   2.371
 6576SOL     OW20626   2.699   5.606   6.185
 6576SOL    HW120627   2.736   5.664   6.113
 6576SOL    HW220628   2.771   5.548   6.222
 6577SOL     OW20629   0.625   0.803   4.246
 6577SOL    HW120630   0.600   0.813   4.150
 6577SOL    HW220631   0.647   0.708   4.266
 6578SOL     OW20632   1.456   4.926   3.187
 6578SOL    HW120633   1.405   4.852   3.143
 6578SOL    HW220634   1.402   5.010   3.181
 6579SOL     OW20635   6.483   3.546   5.402
 6579SOL    HW120636   6.556   3.494   5.356
 6579SOL    HW220637   6.405   3.553   5.341
 6580SOL     OW20638   0.263   2.065   0.549
 6580SOL    HW120639   0.229   2.154   0.580
 6580SOL    HW220640   0.363   2.069   0.538
 6581SOL     OW20641   2.764   1.080   0.078
 6581SOL    HW120642   2.676   1.039   0.054
 6581SOL    HW220643   2.833   1.009   0.086
 6582SOL     OW20644   1.241   1.491   2.252
 6582SOL    HW120645   1.194   1.461   2.169
 6582SOL    HW220646   1.301   1.568   2.230
 6583SOL     OW20647   3.938   0.710   5.018
 6583SOL    HW120648   3.967   0.716   5.114
 6583SOL    HW220649   4.010   0.746   4.959
 6584SOL     OW20650   4.699   1.850   0.537
 6584SOL    HW120651   4.608   1.834   0.500
 6584SOL    HW220652   4.698   1.834   0.635
 6585SOL     OW20653   6.327   0.168   0.181
 6585SOL    HW120654   6.309   0.106   0.105
 6585SOL    HW220655   6.257   0.240   0.182
 6586SOL     OW20656   0.273   1.790   6.002
 6586SOL    HW120657   0.245   1.720   5.937
 6586SOL    HW220658   0.230   1.773   6.091
 6587SOL     OW20659   2.245   6.415   4.849
 6587SOL    HW120660   2.222   6.501   4.895
 6587SOL    HW220661   2.308   6.362   4.906
 6588SOL     OW20662   0.698   3.838   1.664
 6588SOL    HW120663   0.642   3.770   1.710
 6588SOL    HW220664   0.702   3.818   1.567
 6589SOL     OW20665   4.744   0.607   0.300
 6589SOL    HW120666   4.698   0.606   0.389
 6589SOL    HW220667   4.837   0.572   0.310
 6590SOL     OW20668   0.967   0.871   5.393
 6590SOL    HW120669   0.948   0.942   5.461
 6590SOL    HW220670   1.048   0.897   5.340
 6591SOL     OW20671   5.615   5.505   2.001
 6591SOL    HW120672   5.555   5.547   2.068
 6591SOL    HW220673   5.644   5.415   2.034
 6592SOL     OW20674   6.499   0.259   3.748
 6592SOL    HW120675   6.410   0.212   3.748
 6592SOL    HW220676   6.534   0.262   3.655
 6593SOL     OW20677   2.630   2.005   2.115
 6593SOL    HW120678   2.670   1.918   2.141
 6593SOL    HW220679   2.593   2.050   2.196
 6594SOL     OW20680   3.384   2.484   6.886
 6594SOL    HW120681   3.465   2.508   6.940
 6594SOL    HW220682   3.412   2.445   6.799
 6595SOL     OW20683   0.670   3.849   0.041
 6595SOL    HW120684   0.625   3.763   0.016
 6595SOL    HW220685   0.613   3.898   0.107
 6596SOL     OW20686   2.815   6.396   4.466
 6596SOL    HW120687   2.773   6.478   4.503
 6596SOL    HW220688   2.809   6.321   4.532
 6597SOL     OW20689   2.036   5.398   1.763
 6597SOL    HW120690   2.081   5.485   1.784
 6597SOL    HW220691   2.101   5.337   1.717
 6598SOL     OW20692   1.568   6.366   4.455
 6598SOL    HW120693   1.603   6.274   4.473
 6598SOL    HW220694   1.632   6.415   4.396
 6599SOL     OW20695   4.698   6.455   6.029
 6599SOL    HW120696   4.666   6.549   6.017
 6599SOL    HW220697   4.623   6.399   6.066
 6600SOL     OW20698   5.281   4.977   5.655
 6600SOL    HW120699   5.250   5.065   5.690
 6600SOL    HW220700   5.255   4.905   5.719
 6601SOL     OW20701   0.806   1.654   4.910
 6601SOL    HW120702   0.871   1.731   4.909
 6601SOL    HW220703   0.778   1.636   5.005
 6602SOL     OW20704   0.506   1.342   2.173
 6602SOL    HW120705   0.446   1.264   2.189
 6602SOL    HW220706   0.456   1.414   2.124
 6603SOL     OW20707   0.068   2.754   4.040
 6603SOL    HW120708   0.031   2.758   3.947
 6603SOL    HW220709   0.034   2.673   4.087
 6604SOL     OW20710   2.021   6.975   1.755
 6604SOL    HW120711   2.087   6.975   1.680
 6604SOL    HW220712   2.035   0.031   1.811
 6605SOL     OW20713   5.850   3.655   1.463
 6605SOL    HW120714   5.833   3.570   1.412
 6605SOL    HW220715   5.837   3.733   1.403
 6606SOL     OW20716   6.824   5.942   1.845
 6606SOL    HW120717   6.850   5.995   1.926
 6606SOL    HW220718   6.749   5.987   1.798
 6607SOL     OW20719   1.509   3.302   2.041
 6607SOL    HW120720   1.480   3.245   1.965
 6607SOL    HW220721   1.463   3.273   2.125
 6608SOL     OW20722   6.362   6.452   1.399
 6608SOL    HW120723   6.268   6.440   1.432
 6608SOL    HW220724   6.389   6.371   1.346
 6609SOL     OW20725   4.369   1.101   5.821
 6609SOL    HW120726   4.468   1.105   5.808
 6609SOL    HW220727   4.338   1.006   5.817
 6610SOL     OW20728   2.903   0.528   6.865
 6610SOL    HW120729   2.827   0.506   6.804
 6610SOL    HW220730   2.968   0.587   6.817
 6611SOL     OW20731   5.892   3.119   3.640
 6611SOL    HW120732   5.887   3.159   3.732
 6611SOL    HW220733   5.988   3.101   3.617
 6612SOL     OW20734   6.252   2.072   6.561
 6612SOL    HW120735   6.329   2.129   6.534
 6612SOL    HW220736   6.201   2.044   6.479
 6613SOL     OW20737   6.884   6.268   4.876
 6613SOL    HW120738   6.949   6.338   4.845
 6613SOL    HW220739   6.931   6.203   4.936
 6614SOL     OW20740   5.235   6.609   0.951
 6614SOL    HW120741   5.164   6.540   0.964
 6614SOL    HW220742   5.255   6.618   0.853
 6615SOL     OW20743   1.508   5.097   2.423
 6615SOL    HW120744   1.577   5.037   2.463
 6615SOL    HW220745   1.417   5.065   2.448
 6616SOL     OW20746   3.975   1.339   5.748
 6616SOL    HW120747   4.033   1.314   5.670
 6616SOL    HW220748   4.015   1.304   5.832
 6617SOL     OW20749   4.244   5.187   3.048
 6617SOL    HW120750   4.182   5.266   3.056
 6617SOL    HW220751   4.243   5.135   3.133
 6618SOL     OW20752   1.289   2.940   2.433
 6618SOL    HW120753   1.205   2.945   2.379
 6618SOL    HW220754   1.292   3.016   2.497
 6619SOL     OW20755   6.230   0.127   3.808
 6619SOL    HW120756   6.172   0.208   3.803
 6619SOL    HW220757   6.196   0.066   3.879
 6620SOL     OW20758   1.768   2.994   5.105
 6620SOL    HW120759   1.842   3.023   5.166
 6620SOL    HW220760   1.682   2.991   5.155
 6621SOL     OW20761   2.187   2.949   6.192
 6621SOL    HW120762   2.273   2.927   6.147
 6621SOL    HW220763   2.150   3.034   6.154
 6622SOL     OW20764   6.101   6.800   1.559
 6622SOL    HW120765   6.062   6.758   1.641
 6622SOL    HW220766   6.046   6.880   1.533
 6623SOL     OW20767   2.737   2.908   6.186
 6623SOL    HW120768   2.712   3.005   6.186
 6623SOL    HW220769   2.824   2.896   6.235
 6624SOL     OW20770   1.067   5.367   5.728
 6624SOL    HW120771   0.980   5.373   5.778
 6624SOL    HW220772   1.064   5.288   5.667
 6625SOL     OW20773   4.957   2.334   5.703
 6625SOL    HW120774   4.948   2.320   5.605
 6625SOL    HW220775   5.001   2.423   5.720
 6626SOL     OW20776   5.126   5.447   5.562
 6626SOL    HW120777   5.179   5.526   5.531
 6626SOL    HW220778   5.088   5.398   5.483
 6627SOL     OW20779   2.207   6.912   4.740
 6627SOL    HW120780   2.197   6.885   4.836
 6627SOL    HW220781   2.201   6.830   4.683
 6628SOL     OW20782   4.550   4.517   4.744
 6628SOL    HW120783   4.558   4.609   4.707
 6628SOL    HW220784   4.486   4.516   4.821
 6629SOL     OW20785   4.448   6.042   0.126
 6629SOL    HW120786   4.514   6.019   0.197
 6629SOL    HW220787   4.364   5.990   0.140
 6630SOL     OW20788   4.198   0.980   1.693
 6630SOL    HW120789   4.109   0.934   1.701
 6630SOL    HW220790   4.262   0.938   1.757
 6631SOL     OW20791   2.764   5.819   3.286
 6631SOL    HW120792   2.679   5.862   3.317
 6631SOL    HW220793   2.812   5.881   3.225
 6632SOL     OW20794   0.239   6.365   1.287
 6632SOL    HW120795   0.259   6.322   1.375
 6632SOL    HW220796   0.142   6.391   1.284
 6633SOL     OW20797   0.563   4.197   6.566
 6633SOL    HW120798   0.609   4.146   6.493
 6633SOL    HW220799   0.623   4.269   6.600
 6634SOL     OW20800   5.679   2.341   3.983
 6634SOL    HW120801   5.738   2.351   4.063
 6634SOL    HW220802   5.605   2.409   3.987
 6635SOL     OW20803   4.347   4.621   3.204
 6635SOL    HW120804   4.356   4.693   3.135
 6635SOL    HW220805   4.283   4.552   3.173
 6636SOL     OW20806   4.687   2.836   5.673
 6636SOL    HW120807   4.648   2.754   5.630
 6636SOL    HW220808   4.714   2.815   5.766
 6637SOL     OW20809   1.508   6.950   6.557
 6637SOL    HW120810   1.505   6.899   6.643
 6637SOL    HW220811   1.489   6.889   6.481
 6638SOL     OW20812   3.204   3.718   4.172
 6638SOL    HW120813   3.169   3.690   4.261
 6638SOL    HW220814   3.244   3.639   4.126
 6639SOL     OW20815   5.367   4.487   6.562
 6639SOL    HW120816   5.383   4.530   6.473
 6639SOL    HW220817   5.453   4.478   6.611
 6640SOL     OW20818   1.208   1.595   5.143
 6640SOL    HW120819   1.222   1.498   5.159
 6640SOL    HW220820   1.133   1.628   5.200
 6641SOL     OW20821   1.964   1.708   6.975
 6641SOL    HW120822   1.953   1.663   0.038
 6641SOL    HW220823   1.875   1.741   6.943
 6642SOL     OW20824   2.889   5.274   6.613
 6642SOL    HW120825   2.935   5.208   6.554
 6642SOL    HW220826   2.911   5.367   6.583
 6643SOL     OW20827   6.236   5.431   0.166
 6643SOL    HW120828   6.196   5.355   0.114
 6643SOL    HW220829   6.332   5.410   0.187
 6644SOL     OW20830   2.413   5.330   2.194
 6644SOL    HW120831   2.481   5.382   2.246
 6644SOL    HW220832   2.322   5.345   2.233
 6645SOL     OW20833   6.655   5.133   0.340
 6645SOL    HW120834   6.659   5.065   0.413
 6645SOL    HW220835   6.692   5.094   0.256
 6646SOL     OW20836   4.045   6.902   5.013
 6646SOL    HW120837   4.077   6.840   4.942
 6646SOL    HW220838   4.022   6.991   4.972
 6647SOL     OW20839   4.350   0.877   1.928
 6647SOL    HW120840   4.401   0.800   1.889
 6647SOL    HW220841   4.414   0.948   1.958
 6648SOL     OW20842   4.287   6.740   2.965
 6648SOL    HW120843   4.269   6.768   2.870
 6648SOL    HW220844   4.222   6.670   2.992
 6649SOL     OW20845   5.253   0.664   6.853
 6649SOL    HW120846   5.196   0.599   6.801
 6649SOL    HW220847   5.203   0.695   6.934
 6650SOL     OW20848   3.135   1.761   5.396
 6650SOL    HW120849   3.037   1.770   5.382
 6650SOL    HW220850   3.171   1.689   5.336
 6651SOL     OW20851   2.282   1.829   5.528
 6651SOL    HW120852   2.221   1.886   5.474
 6651SOL    HW220853   2.312   1.751   5.474
 6652SOL     OW20854   0.401   4.401   0.664
 6652SOL    HW120855   0.452   4.333   0.717
 6652SOL    HW220856   0.458   4.481   0.648
 6653SOL     OW20857   3.001   3.145   2.919
 6653SOL    HW120858   2.981   3.050   2.895
 6653SOL    HW220859   2.915   3.195   2.928
 6654SOL     OW20860   1.469   3.749   1.362
 6654SOL    HW120861   1.432   3.727   1.452
 6654SOL    HW220862   1.436   3.839   1.333
 6655SOL     OW20863   1.232   0.022   2.975
 6655SOL    HW120864   1.331   0.034   2.979
 6655SOL    HW220865   1.209   6.953   2.999
 6656SOL     OW20866   5.875   1.832   3.539
 6656SOL    HW120867   5.921   1.744   3.534
 6656SOL    HW220868   5.777   1.820   3.522
 6657SOL     OW20869   5.924   6.048   6.144
 6657SOL    HW120870   5.887   6.057   6.051
 6657SOL    HW220871   5.984   6.126   6.163
 6658SOL     OW20872   6.699   0.899   5.191
 6658SOL    HW120873   6.664   0.850   5.112
 6658SOL    HW220874   6.652   0.988   5.199
 6659SOL     OW20875   2.144   2.211   0.486
 6659SOL    HW120876   2.176   2.305   0.495
 6659SOL    HW220877   2.216   2.148   0.515
 6660SOL     OW20878   1.009   5.031   1.151
 6660SOL    HW120879   1.054   5.050   1.238
 6660SOL    HW220880   0.933   4.967   1.166
 6661SOL     OW20881   0.817   6.503   5.194
 6661SOL    HW120882   0.841   6.507   5.096
 6661SOL    HW220883   0.875   6.566   5.245
 6662SOL     OW20884   1.149   1.352   0.105
 6662SOL    HW120885   1.238   1.318   0.073
 6662SOL    HW220886   1.078   1.286   0.081
 6663SOL     OW20887   6.944   4.925   4.178
 6663SOL    HW120888   6.893   4.878   4.107
 6663SOL    HW220889   6.898   5.011   4.201
 6664SOL     OW20890   2.545   6.226   0.006
 6664SOL    HW120891   2.639   6.218   6.997
 6664SOL    HW220892   2.489   6.274   6.964
 6665SOL     OW20893   1.796   6.505   4.011
 6665SOL    HW120894   1.840   6.559   3.939
 6665SOL    HW220895   1.810   6.550   4.099
 6666SOL     OW20896   6.093   6.702   5.445
 6666SOL    HW120897   6.034   6.659   5.513
 6666SOL    HW220898   6.086   6.653   5.358
 6667SOL     OW20899   6.664   6.002   6.750
 6667SOL    HW120900   6.731   5.937   6.784
 6667SOL    HW220901   6.577   5.989   6.798
 6668SOL     OW20902   6.862   5.685   1.339
 6668SOL    HW120903   6.958   5.660   1.324
 6668SOL    HW220904   6.817   5.700   1.251
 6669SOL     OW20905   1.378   2.976   3.457
 6669SOL    HW120906   1.430   3.035   3.396
 6669SOL    HW220907   1.320   3.031   3.517
 6670SOL     OW20908   3.711   2.178   5.289
 6670SOL    HW120909   3.644   2.185   5.363
 6670SOL    HW220910   3.723   2.082   5.264
 6671SOL     OW20911   6.077   5.629   0.611
 6671SOL    HW120912   6.018   5.548   0.614
 6671SOL    HW220913   6.150   5.614   0.544
 6672SOL     OW20914   6.464   1.632   6.388
 6672SOL    HW120915   6.379   1.615   6.439
 6672SOL    HW220916   6.512   1.710   6.428
 6673SOL     OW20917   5.568   5.756   4.210
 6673SOL    HW120918   5.539   5.707   4.128
 6673SOL    HW220919   5.542   5.853   4.202
 6674SOL     OW20920   0.881   5.275   6.119
 6674SOL    HW120921   0.909   5.372   6.122
 6674SOL    HW220922   0.834   5.251   6.204
 6675SOL     OW20923   4.745   3.632   1.678
 6675SOL    HW120924   4.675   3.704   1.684
 6675SOL    HW220925   4.792   3.640   1.590
 6676SOL     OW20926   6.881   3.631   5.730
 6676SOL    HW120927   6.941   3.625   5.651
 6676SOL    HW220928   6.921   3.581   5.807
 6677SOL     OW20929   1.184   1.828   6.706
 6677SOL    HW120930   1.199   1.922   6.735
 6677SOL    HW220931   1.195   1.766   6.784
 6678SOL     OW20932   3.191   3.334   6.664
 6678SOL    HW120933   3.226   3.241   6.656
 6678SOL    HW220934   3.266   3.396   6.685
 6679SOL     OW20935   2.491   1.296   4.106
 6679SOL    HW120936   2.508   1.215   4.162
 6679SOL    HW220937   2.579   1.340   4.085
 6680SOL     OW20938   4.419   6.790   6.767
 6680SOL    HW120939   4.473   6.874   6.767
 6680SOL    HW220940   4.439   6.737   6.849
 6681SOL     OW20941   4.372   5.851   1.552
 6681SOL    HW120942   4.470   5.844   1.536
 6681SOL    HW220943   4.324   5.781   1.498
 6682SOL     OW20944   0.733   4.435   2.926
 6682SOL    HW120945   0.798   4.497   2.881
 6682SOL    HW220946   0.727   4.458   3.023
 6683SOL     OW20947   5.851   2.806   5.648
 6683SOL    HW120948   5.933   2.757   5.618
 6683SOL    HW220949   5.842   2.891   5.597
 6684SOL     OW20950   2.918   6.960   1.809
 6684SOL    HW120951   2.844   7.024   1.787
 6684SOL    HW220952   2.999   6.983   1.756
 6685SOL     OW20953   6.248   3.524   5.967
 6685SOL    HW120954   6.281   3.544   5.874
 6685SOL    HW220955   6.313   3.463   6.013
 6686SOL     OW20956   5.246   5.941   4.063
 6686SOL    HW120957   5.218   6.036   4.051
 6686SOL    HW220958   5.321   5.937   4.129
 6687SOL     OW20959   1.028   3.367   7.006
 6687SOL    HW120960   1.083   3.322   6.935
 6687SOL    HW220961   1.062   3.339   0.071
 6688SOL     OW20962   0.288   3.956   2.379
 6688SOL    HW120963   0.313   4.053   2.378
 6688SOL    HW220964   0.335   3.911   2.455
 6689SOL     OW20965   4.789   2.726   0.068
 6689SOL    HW120966   4.793   2.791   7.018
 6689SOL    HW220967   4.838   2.642   0.043
 6690SOL     OW20968   2.153   0.636   0.731
 6690SOL    HW120969   2.204   0.574   0.672
 6690SOL    HW220970   2.055   0.616   0.724
 6691SOL     OW20971   2.876   6.352   1.417
 6691SOL    HW120972   2.936   6.431   1.407
 6691SOL    HW220973   2.926   6.269   1.392
 6692SOL     OW20974   3.806   4.159   5.058
 6692SOL    HW120975   3.798   4.120   4.966
 6692SOL    HW220976   3.724   4.138   5.111
 6693SOL     OW20977   4.158   3.979   5.360
 6693SOL    HW120978   4.168   3.880   5.367
 6693SOL    HW220979   4.094   4.002   5.287
 6694SOL     OW20980   4.314   5.863   0.875
 6694SOL    HW120981   4.400   5.873   0.925
 6694SOL    HW220982   4.330   5.877   0.778
 6695SOL     OW20983   3.323   1.800   0.064
 6695SOL    HW120984   3.257   1.760   0.001
 6695SOL    HW220985   3.313   1.757   0.154
 6696SOL     OW20986   1.659   2.922   5.710
 6696SOL    HW120987   1.674   2.830   5.747
 6696SOL    HW220988   1.596   2.916   5.632
 6697SOL     OW20989   4.373   1.905   2.202
 6697SOL    HW120990   4.365   1.850   2.119
 6697SOL    HW220991   4.283   1.935   2.231
 6698SOL     OW20992   3.169   2.965   1.278
 6698SOL    HW120993   3.210   3.015   1.203
 6698SOL    HW220994   3.075   2.998   1.293
 6699SOL     OW20995   2.731   5.091   6.388
 6699SOL    HW120996   2.710   5.031   6.466
 6699SOL    HW220997   2.828   5.116   6.391
 6700SOL     OW20998   6.777   6.673   0.745
 6700SOL    HW120999   6.813   6.757   0.785
 6700SOL    HW221000   6.677   6.675   0.750
 6701SOL     OW21001   5.898   2.867   1.293
 6701SOL    HW121002   5.855   2.810   1.223
 6701SOL    HW221003   5.987   2.829   1.317
 6702SOL     OW21004   2.794   1.635   1.934
 6702SOL    HW121005   2.695   1.629   1.921
 6702SOL    HW221006   2.833   1.693   1.862
 6703SOL     OW21007   6.544   2.376   6.823
 6703SOL    HW121008   6.557   2.374   6.724
 6703SOL    HW221009   6.631   2.400   6.867
 6704SOL     OW21010   3.556   2.107   3.211
 6704SOL    HW121011   3.597   2.108   3.119
 6704SOL    HW221012   3.606   2.170   3.270
 6705SOL     OW21013   6.439   2.626   1.245
 6705SOL    HW121014   6.499   2.546   1.255
 6705SOL    HW221015   6.349   2.596   1.214
 6706SOL     OW21016   1.047   4.106   1.980
 6706SOL    HW121017   1.070   4.141   2.070
 6706SOL    HW221018   0.965   4.050   1.986
 6707SOL     OW21019   6.738   6.117   3.602
 6707SOL    HW121020   6.832   6.086   3.596
 6707SOL    HW221021   6.700   6.127   3.510
 6708SOL     OW21022   7.008   5.366   1.786
 6708SOL    HW121023   0.017   5.293   1.726
 6708SOL    HW221024   0.047   5.442   1.786
 6709SOL     OW21025   3.021   6.939   2.686
 6709SOL    HW121026   3.055   6.846   2.705
 6709SOL    HW221027   2.999   6.947   2.589
 6710SOL     OW21028   3.789   1.196   6.050
 6710SOL    HW121029   3.713   1.146   6.091
 6710SOL    HW221030   3.873   1.174   6.099
 6711SOL     OW21031   5.320   5.464   6.291
 6711SOL    HW121032   5.290   5.377   6.328
 6711SOL    HW221033   5.243   5.529   6.292
 6712SOL     OW21034   4.734   4.641   0.158
 6712SOL    HW121035   4.641   4.665   0.186
 6712SOL    HW221036   4.767   4.710   0.093
 6713SOL     OW21037   2.245   0.718   2.488
 6713SOL    HW121038   2.323   0.709   2.550
 6713SOL    HW221039   2.176   0.778   2.528
 6714SOL     OW21040   6.035   1.119   6.111
 6714SOL    HW121041   5.955   1.173   6.086
 6714SOL    HW221042   6.079   1.159   6.191
 6715SOL     OW21043   6.622   6.913   6.400
 6715SOL    HW121044   6.639   6.818   6.424
 6715SOL    HW221045   6.668   6.973   6.466
 6716SOL     OW21046   0.541   5.971   1.602
 6716SOL    HW121047   0.532   6.058   1.553
 6716SOL    HW221048   0.450   5.933   1.619
 6717SOL     OW21049   4.243   2.446   6.620
 6717SOL    HW121050   4.151   2.468   6.652
 6717SOL    HW221051   4.238   2.406   6.528
 6718SOL     OW21052   5.192   7.008   6.802
 6718SOL    HW121053   5.289   7.025   6.788
 6718SOL    HW221054   5.165   6.927   6.750
 6719SOL     OW21055   1.799   0.132   6.866
 6719SOL    HW121056   1.793   0.138   6.767
 6719SOL    HW221057   1.710   0.103   6.903
 6720SOL     OW21058   0.602   6.668   3.827
 6720SOL    HW121059   0.544   6.739   3.788
 6720SOL    HW221060   0.609   6.591   3.763
 6721SOL     OW21061   6.889   0.323   6.408
 6721SOL    HW121062   6.843   0.251   6.460
 6721SOL    HW221063   6.821   0.385   6.370
 6722SOL     OW21064   0.019   3.334   1.066
 6722SOL    HW121065   6.953   3.293   1.064
 6722SOL    HW221066   0.019   3.412   1.128
 6723SOL     OW21067   2.328   6.756   3.200
 6723SOL    HW121068   2.420   6.737   3.166
 6723SOL    HW221069   2.328   6.757   3.300
 6724SOL     OW21070   1.624   3.714   5.875
 6724SOL    HW121071   1.649   3.799   5.830
 6724SOL    HW221072   1.596   3.732   5.969
 6725SOL     OW21073   0.685   3.557   1.316
 6725SOL    HW121074   0.660   3.639   1.368
 6725SOL    HW221075   0.679   3.477   1.374
 6726SOL     OW21076   0.622   1.884   5.169
 6726SOL    HW121077   0.655   1.967   5.123
 6726SOL    HW221078   0.590   1.907   5.261
 6727SOL     OW21079   6.246   3.945   5.941
 6727SOL    HW121080   6.345   3.960   5.944
 6727SOL    HW221081   6.218   3.923   5.848
 6728SOL     OW21082   4.193   1.230   3.448
 6728SOL    HW121083   4.202   1.143   3.400
 6728SOL    HW221084   4.206   1.305   3.383
 6729SOL     OW21085   0.428   1.483   2.559
 6729SOL    HW121086   0.444   1.513   2.465
 6729SOL    HW221087   0.331   1.488   2.579
 6730SOL     OW21088   2.827   6.116   6.881
 6730SOL    HW121089   2.773   6.048   6.929
 6730SOL    HW221090   2.924   6.100   6.899
 6731SOL     OW21091   0.844   6.160   1.813
 6731SOL    HW121092   0.942   6.156   1.832
 6731SOL    HW221093   0.797   6.090   1.867
 6732SOL     OW21094   5.218   4.853   5.899
 6732SOL    HW121095   5.300   4.798   5.885
 6732SOL    HW221096   5.140   4.793   5.918
 6733SOL     OW21097   3.950   4.568   6.808
 6733SOL    HW121098   3.853   4.583   6.791
 6733SOL    HW221099   3.972   4.472   6.790
 6734SOL     OW21100   6.462   2.182   5.188
 6734SOL    HW121101   6.450   2.207   5.092
 6734SOL    HW221102   6.474   2.265   5.242
 6735SOL     OW21103   6.987   4.415   4.143
 6735SOL    HW121104   0.001   4.432   4.053
 6735SOL    HW221105   7.025   4.480   4.209
 6736SOL     OW21106   3.385   3.872   6.705
 6736SOL    HW121107   3.444   3.952   6.696
 6736SOL    HW221108   3.291   3.895   6.678
 6737SOL     OW21109   2.083   2.434   0.668
 6737SOL    HW121110   2.175   2.416   0.705
 6737SOL    HW221111   2.021   2.360   0.695
 6738SOL     OW21112   1.745   5.026   2.564
 6738SOL    HW121113   1.829   5.008   2.514
 6738SOL    HW221114   1.725   4.950   2.626
 6739SOL     OW21115   3.924   5.563   5.782
 6739SOL    HW121116   3.991   5.551   5.855
 6739SOL    HW221117   3.856   5.490   5.787
 6740SOL     OW21118   1.799   1.179   4.146
 6740SOL    HW121119   1.772   1.273   4.164
 6740SOL    HW221120   1.899   1.171   4.154
 6741SOL     OW21121   4.313   1.114   5.554
 6741SOL    HW121122   4.333   1.107   5.652
 6741SOL    HW221123   4.272   1.204   5.536
 6742SOL     OW21124   6.516   6.230   2.779
 6742SOL    HW121125   6.604   6.225   2.826
 6742SOL    HW221126   6.515   6.166   2.702
 6743SOL     OW21127   4.136   4.768   0.389
 6743SOL    HW121128   4.037   4.768   0.400
 6743SOL    HW221129   4.165   4.682   0.347
 6744SOL     OW21130   5.474   5.489   6.037
 6744SOL    HW121131   5.419   5.506   6.119
 6744SOL    HW221132   5.472   5.570   5.978
 6745SOL     OW21133   0.380   0.339   2.535
 6745SOL    HW121134   0.309   0.268   2.536
 6745SOL    HW221135   0.459   0.308   2.588
 6746SOL     OW21136   1.327   1.272   2.989
 6746SOL    HW121137   1.406   1.325   3.018
 6746SOL    HW221138   1.252   1.284   3.054
 6747SOL     OW21139   5.149   0.707   5.331
 6747SOL    HW121140   5.104   0.702   5.242
 6747SOL    HW221141   5.208   0.787   5.334
 6748SOL     OW21142   1.299   0.513   3.501
 6748SOL    HW121143   1.199   0.504   3.496
 6748SOL    HW221144   1.335   0.531   3.410
 6749SOL     OW21145   2.537   5.986   0.305
 6749SOL    HW121146   2.470   5.999   0.232
 6749SOL    HW221147   2.540   5.890   0.332
 6750SOL     OW21148   4.455   2.031   5.423
 6750SOL    HW121149   4.437   2.099   5.495
 6750SOL    HW221150   4.545   2.049   5.382
 6751SOL     OW21151   4.418   0.733   3.791
 6751SOL    HW121152   4.321   0.733   3.814
 6751SOL    HW221153   4.467   0.794   3.854
 6752SOL     OW21154   0.248   2.817   2.888
 6752SOL    HW121155   0.219   2.889   2.824
 6752SOL    HW221156   0.190   2.737   2.876
 6753SOL     OW21157   4.219   0.906   6.184
 6753SOL    HW121158   4.195   0.862   6.097
 6753SOL    HW221159   4.222   0.837   6.256
 6754SOL     OW21160   6.986   1.446   6.910
 6754SOL    HW121161   6.980   1.469   7.007
 6754SOL    HW221162   7.025   1.524   6.860
 6755SOL     OW21163   4.429   0.766   3.368
 6755SOL    HW121164   4.386   0.692   3.419
 6755SOL    HW221165   4.403   0.854   3.408
 6756SOL     OW21166   3.832   4.978   4.901
 6756SOL    HW121167   3.821   5.061   4.956
 6756SOL    HW221168   3.763   4.977   4.828
 6757SOL     OW21169   4.551   0.519   1.245
 6757SOL    HW121170   4.477   0.529   1.179
 6757SOL    HW221171   4.634   0.487   1.198
 6758SOL     OW21172   0.069   2.984   0.771
 6758SOL    HW121173   0.091   3.029   0.857
 6758SOL    HW221174   0.153   2.948   0.730
 6759SOL     OW21175   0.961   4.579   4.210
 6759SOL    HW121176   0.920   4.541   4.292
 6759SOL    HW221177   1.061   4.570   4.215
 6760SOL     OW21178   6.834   4.910   3.464
 6760SOL    HW121179   6.790   4.856   3.536
 6760SOL    HW221180   6.857   5.001   3.499
 6761SOL     OW21181   5.942   1.821   6.415
 6761SOL    HW121182   5.914   1.749   6.352
 6761SOL    HW221183   6.025   1.865   6.379
 6762SOL     OW21184   6.931   5.648   3.172
 6762SOL    HW121185   6.978   5.565   3.202
 6762SOL    HW221186   6.981   5.688   3.095
 6763SOL     OW21187   0.018   5.112   3.696
 6763SOL    HW121188   7.013   5.205   3.715
 6763SOL    HW221189   0.027   5.061   3.782
 6764SOL     OW21190   2.560   4.950   6.736
 6764SOL    HW121191   2.569   5.046   6.760
 6764SOL    HW221192   2.625   4.896   6.789
 6765SOL     OW21193   4.859   4.772   4.233
 6765SOL    HW121194   4.829   4.771   4.328
 6765SOL    HW221195   4.850   4.680   4.195
 6766SOL     OW21196   4.889   6.642   6.220
 6766SOL    HW121197   4.850   6.554   6.249
 6766SOL    HW221198   4.836   6.677   6.143
 6767SOL     OW21199   0.749   2.346   0.439
 6767SOL    HW121200   0.821   2.325   0.505
 6767SOL    HW221201   0.735   2.445   0.436
 6768SOL     OW21202   0.115   6.718   3.623
 6768SOL    HW121203   0.064   6.647   3.671
 6768SOL    HW221204   0.183   6.677   3.563
 6769SOL     OW21205   3.000   0.139   5.480
 6769SOL    HW121206   2.988   0.139   5.580
 6769SOL    HW221207   3.026   0.231   5.450
 6770SOL     OW21208   5.905   2.000   3.170
 6770SOL    HW121209   5.925   2.057   3.250
 6770SOL    HW221210   5.930   2.050   3.087
 6771SOL     OW21211   3.445   1.125   2.289
 6771SOL    HW121212   3.377   1.122   2.215
 6771SOL    HW221213   3.520   1.063   2.268
 6772SOL     OW21214   4.673   1.765   2.398
 6772SOL    HW121215   4.681   1.666   2.390
 6772SOL    HW221216   4.577   1.792   2.388
 6773SOL     OW21217   0.167   6.277   1.821
 6773SOL    HW121218   0.223   6.302   1.742
 6773SOL    HW221219   0.155   6.357   1.879
 6774SOL     OW21220   2.067   2.567   4.336
 6774SOL    HW121221   2.024   2.601   4.420
 6774SOL    HW221222   2.152   2.520   4.360
 6775SOL     OW21223   0.840   2.015   3.469
 6775SOL    HW121224   0.904   2.023   3.392
 6775SOL    HW221225   0.880   2.058   3.550
 6776SOL     OW21226   4.377   3.715   1.294
 6776SOL    HW121227   4.329   3.699   1.208
 6776SOL    HW221228   4.341   3.653   1.364
 6777SOL     OW21229   4.391   5.892   0.599
 6777SOL    HW121230   4.418   5.796   0.596
 6777SOL    HW221231   4.472   5.949   0.590
 6778SOL     OW21232   6.357   3.793   2.327
 6778SOL    HW121233   6.268   3.761   2.295
 6778SOL    HW221234   6.357   3.794   2.427
 6779SOL     OW21235   5.302   4.647   6.240
 6779SOL    HW121236   5.222   4.706   6.230
 6779SOL    HW221237   5.378   4.683   6.186
 6780SOL     OW21238   1.225   3.823   2.541
 6780SOL    HW121239   1.286   3.900   2.523
 6780SOL    HW221240   1.237   3.791   2.635
 6781SOL     OW21241   6.834   1.859   3.863
 6781SOL    HW121242   6.811   1.923   3.790
 6781SOL    HW221243   6.843   1.909   3.950
 6782SOL     OW21244   0.942   1.456   2.988
 6782SOL    HW121245   0.865   1.418   3.040
 6782SOL    HW221246   1.020   1.470   3.050
 6783SOL     OW21247   0.938   3.570   5.666
 6783SOL    HW121248   0.934   3.492   5.728
 6783SOL    HW221249   0.863   3.633   5.687
 6784SOL     OW21250   2.016   4.367   1.315
 6784SOL    HW121251   1.952   4.292   1.331
 6784SOL    HW221252   2.081   4.371   1.391
 6785SOL     OW21253   5.899   4.885   5.415
 6785SOL    HW121254   5.897   4.953   5.488
 6785SOL    HW221255   5.913   4.794   5.454
 6786SOL     OW21256   0.239   3.285   6.258
 6786SOL    HW121257   0.257   3.192   6.226
 6786SOL    HW221258   0.145   3.293   6.288
 6787SOL     OW21259   3.384   1.980   1.505
 6787SOL    HW121260   3.481   1.961   1.493
 6787SOL    HW221261   3.336   1.966   1.419
 6788SOL     OW21262   0.539   3.742   2.437
 6788SOL    HW121263   0.570   3.833   2.409
 6788SOL    HW221264   0.555   3.730   2.535
 6789SOL     OW21265   0.051   4.469   3.885
 6789SOL    HW121266   6.989   4.487   3.839
 6789SOL    HW221267   0.119   4.537   3.857
 6790SOL     OW21268   7.020   4.638   6.969
 6790SOL    HW121269   6.975   4.711   6.917
 6790SOL    HW221270   7.016   4.552   6.918
 6791SOL     OW21271   4.402   1.884   2.490
 6791SOL    HW121272   4.387   1.972   2.534
 6791SOL    HW221273   4.396   1.895   2.391
 6792SOL     OW21274   5.005   0.110   5.049
 6792SOL    HW121275   4.956   0.128   5.134
 6792SOL    HW221276   5.031   0.013   5.047
 6793SOL     OW21277   3.309   1.089   6.792
 6793SOL    HW121278   3.393   1.121   6.837
 6793SOL    HW221279   3.298   1.137   6.705
 6794SOL     OW21280   4.859   1.047   5.387
 6794SOL    HW121281   4.860   1.060   5.486
 6794SOL    HW221282   4.846   1.135   5.342
 6795SOL     OW21283   0.761   6.825   0.391
 6795SOL    HW121284   0.827   6.778   0.450
 6795SOL    HW221285   0.680   6.768   0.380
 6796SOL     OW21286   5.914   0.412   2.539
 6796SOL    HW121287   5.996   0.416   2.597
 6796SOL    HW221288   5.841   0.467   2.581
 6797SOL     OW21289   6.061   1.490   0.828
 6797SOL    HW121290   5.977   1.495   0.882
 6797SOL    HW221291   6.040   1.510   0.732
 6798SOL     OW21292   6.355   0.389   1.122
 6798SOL    HW121293   6.425   0.317   1.120
 6798SOL    HW221294   6.398   0.477   1.141
 6799SOL     OW21295   5.515   0.319   2.700
 6799SOL    HW121296   5.583   0.312   2.627
 6799SOL    HW221297   5.552   0.282   2.785
 6800SOL     OW21298   2.380   2.524   1.714
 6800SOL    HW121299   2.331   2.473   1.785
 6800SOL    HW221300   2.441   2.590   1.757
 6801SOL     OW21301   0.471   6.439   3.697
 6801SOL    HW121302   0.539   6.373   3.666
 6801SOL    HW221303   0.443   6.417   3.791
 6802SOL     OW21304   3.612   6.080   1.340
 6802SOL    HW121305   3.525   6.055   1.382
 6802SOL    HW221306   3.675   6.113   1.411
 6803SOL     OW21307   4.386   4.180   6.650
 6803SOL    HW121308   4.295   4.206   6.617
 6803SOL    HW221309   4.428   4.118   6.584
 6804SOL     OW21310   3.586   5.193   3.112
 6804SOL    HW121311   3.659   5.257   3.087
 6804SOL    HW221312   3.614   5.100   3.087
 6805SOL     OW21313   0.571   5.003   6.631
 6805SOL    HW121314   0.495   5.024   6.570
 6805SOL    HW221315   0.572   5.068   6.707
 6806SOL     OW21316   6.755   0.987   4.286
 6806SOL    HW121317   6.746   1.085   4.270
 6806SOL    HW221318   6.851   0.965   4.304
 6807SOL     OW21319   3.788   4.085   3.291
 6807SOL    HW121320   3.831   4.160   3.241
 6807SOL    HW221321   3.858   4.021   3.322
 6808SOL     OW21322   5.681   1.131   5.154
 6808SOL    HW121323   5.668   1.079   5.238
 6808SOL    HW221324   5.760   1.096   5.104
 6809SOL     OW21325   6.195   3.587   0.886
 6809SOL    HW121326   6.222   3.525   0.813
 6809SOL    HW221327   6.267   3.592   0.955
 6810SOL     OW21328   3.352   1.043   2.540
 6810SOL    HW121329   3.393   1.088   2.461
 6810SOL    HW221330   3.289   1.107   2.585
 6811SOL     OW21331   6.250   2.850   2.447
 6811SOL    HW121332   6.304   2.769   2.471
 6811SOL    HW221333   6.192   2.829   2.368
 6812SOL     OW21334   3.502   3.910   5.019
 6812SOL    HW121335   3.404   3.933   5.024
 6812SOL    HW221336   3.516   3.817   5.053
 6813SOL     OW21337   5.514   3.317   2.248
 6813SOL    HW121338   5.465   3.397   2.284
 6813SOL    HW221339   5.600   3.347   2.208
 6814SOL     OW21340   4.572   1.620   6.631
 6814SOL    HW121341   4.596   1.651   6.723
 6814SOL    HW221342   4.554   1.522   6.632
 6815SOL     OW21343   2.554   6.136   6.433
 6815SOL    HW121344   2.495   6.158   6.511
 6815SOL    HW221345   2.648   6.125   6.465
 6816SOL     OW21346   6.710   1.569   5.190
 6816SOL    HW121347   6.705   1.632   5.112
 6816SOL    HW221348   6.726   1.476   5.156
 6817SOL     OW21349   2.394   2.752   3.910
 6817SOL    HW121350   2.421   2.729   3.817
 6817SOL    HW221351   2.372   2.849   3.916
 6818SOL     OW21352   2.032   6.575   0.177
 6818SOL    HW121353   2.116   6.540   0.219
 6818SOL    HW221354   2.057   6.637   0.102
 6819SOL     OW21355   4.531   1.087   2.967
 6819SOL    HW121356   4.584   1.006   2.944
 6819SOL    HW221357   4.548   1.159   2.899
 6820SOL     OW21358   1.036   5.743   1.684
 6820SOL    HW121359   1.045   5.834   1.643
 6820SOL    HW221360   0.944   5.707   1.665
 6821SOL     OW21361   4.524   3.069   5.731
 6821SOL    HW121362   4.500   3.045   5.825
 6821SOL    HW221363   4.612   3.029   5.707
 6822SOL     OW21364   6.562   2.719   6.357
 6822SOL    HW121365   6.484   2.719   6.295
 6822SOL    HW221366   6.617   2.636   6.342
 6823SOL     OW21367   5.464   4.165   6.766
 6823SOL    HW121368   5.433   4.151   6.672
 6823SOL    HW221369   5.494   4.260   6.777
 6824SOL     OW21370   1.772   1.664   0.452
 6824SOL    HW121371   1.695   1.724   0.430
 6824SOL    HW221372   1.738   1.582   0.499
 6825SOL     OW21373   6.530   0.227   0.417
 6825SOL    HW121374   6.514   0.325   0.415
 6825SOL    HW221375   6.505   0.187   0.328
 6826SOL     OW21376   1.112   3.778   3.973
 6826SOL    HW121377   1.091   3.876   3.968
 6826SOL    HW221378   1.032   3.729   4.007
 6827SOL     OW21379   5.366   5.633   5.573
 6827SOL    HW121380   5.393   5.601   5.665
 6827SOL    HW221381   5.289   5.696   5.581
 6828SOL     OW21382   3.881   1.160   2.721
 6828SOL    HW121383   3.845   1.219   2.792
 6828SOL    HW221384   3.807   1.105   2.682
 6829SOL     OW21385   4.924   6.464   5.542
 6829SOL    HW121386   4.892   6.431   5.631
 6829SOL    HW221387   4.972   6.551   5.554
 6830SOL     OW21388   5.669   0.863   3.468
 6830SOL    HW121389   5.729   0.892   3.542
 6830SOL    HW221390   5.581   0.835   3.505
 6831SOL     OW21391   1.584   1.075   5.843
 6831SOL    HW121392   1.514   1.048   5.909
 6831SOL    HW221393   1.540   1.095   5.755
 6832SOL     OW21394   2.421   4.115   0.406
 6832SOL    HW121395   2.449   4.090   0.313
 6832SOL    HW221396   2.375   4.036   0.448
 6833SOL     OW21397   2.622   4.655   6.603
 6833SOL    HW121398   2.638   4.702   6.690
 6833SOL    HW221399   2.679   4.697   6.532
 6834SOL     OW21400   5.665   0.286   1.483
 6834SOL    HW121401   5.608   0.236   1.548
 6834SOL    HW221402   5.606   0.342   1.424
 6835SOL     OW21403   3.497   1.125   4.574
 6835SOL    HW121404   3.486   1.156   4.480
 6835SOL    HW221405   3.432   1.173   4.633
 6836SOL     OW21406   2.016   4.084   6.494
 6836SOL    HW121407   1.982   4.015   6.557
 6836SOL    HW221408   2.058   4.159   6.545
 6837SOL     OW21409   0.691   1.696   2.889
 6837SOL    HW121410   0.635   1.668   2.811
 6837SOL    HW221411   0.775   1.643   2.890
 6838SOL     OW21412   2.731   4.062   6.085
 6838SOL    HW121413   2.761   4.157   6.092
 6838SOL    HW221414   2.758   4.025   5.996
 6839SOL     OW21415   5.504   1.681   4.203
 6839SOL    HW121416   5.588   1.642   4.167
 6839SOL    HW221417   5.515   1.698   4.301
 6840SOL     OW21418   2.906   6.574   5.266
 6840SOL    HW121419   2.843   6.621   5.328
 6840SOL    HW221420   2.881   6.478   5.260
 6841SOL     OW21421   3.931   4.878   1.020
 6841SOL    HW121422   3.959   4.972   1.001
 6841SOL    HW221423   3.991   4.839   1.090
 6842SOL     OW21424   2.083   2.786   6.901
 6842SOL    HW121425   2.004   2.817   6.848
 6842SOL    HW221426   2.077   2.822   6.994
 6843SOL     OW21427   5.116   0.575   2.849
 6843SOL    HW121428   5.038   0.529   2.890
 6843SOL    HW221429   5.085   0.651   2.793
 6844SOL     OW21430   5.709   5.831   3.914
 6844SOL    HW121431   5.633   5.895   3.906
 6844SOL    HW221432   5.788   5.866   3.863
 6845SOL     OW21433   5.040   4.402   2.395
 6845SOL    HW121434   5.110   4.348   2.349
 6845SOL    HW221435   5.063   4.500   2.387
 6846SOL     OW21436   4.126   3.161   1.671
 6846SOL    HW121437   4.214   3.201   1.644
 6846SOL    HW221438   4.111   3.077   1.619
 6847SOL     OW21439   7.021   4.102   1.728
 6847SOL    HW121440   0.063   4.030   1.744
 6847SOL    HW221441   6.931   4.061   1.713
 6848SOL     OW21442   2.800   6.323   3.329
 6848SOL    HW121443   2.711   6.313   3.284
 6848SOL    HW221444   2.829   6.235   3.366
 6849SOL     OW21445   2.889   5.564   4.705
 6849SOL    HW121446   2.848   5.615   4.782
 6849SOL    HW221447   2.917   5.474   4.737
 6850SOL     OW21448   5.163   3.081   2.452
 6850SOL    HW121449   5.224   3.160   2.444
 6850SOL    HW221450   5.217   3.000   2.478
 6851SOL     OW21451   1.490   2.771   4.277
 6851SOL    HW121452   1.553   2.757   4.201
 6851SOL    HW221453   1.432   2.851   4.257
 6852SOL     OW21454   1.092   4.664   1.348
 6852SOL    HW121455   1.048   4.574   1.340
 6852SOL    HW221456   1.164   4.672   1.279
 6853SOL     OW21457   6.556   3.548   6.464
 6853SOL    HW121458   6.501   3.487   6.521
 6853SOL    HW221459   6.559   3.639   6.507
 6854SOL     OW21460   5.905   1.719   5.997
 6854SOL    HW121461   5.926   1.814   6.021
 6854SOL    HW221462   5.825   1.716   5.938
 6855SOL     OW21463   3.444   5.975   2.603
 6855SOL    HW121464   3.492   6.032   2.670
 6855SOL    HW221465   3.389   6.033   2.543
 6856SOL     OW21466   5.231   4.623   5.319
 6856SOL    HW121467   5.224   4.723   5.319
 6856SOL    HW221468   5.192   4.587   5.404
 6857SOL     OW21469   3.802   1.886   6.783
 6857SOL    HW121470   3.756   1.942   6.714
 6857SOL    HW221471   3.744   1.881   6.865
 6858SOL     OW21472   4.110   3.484   4.328
 6858SOL    HW121473   4.149   3.424   4.398
 6858SOL    HW221474   4.032   3.440   4.285
 6859SOL     OW21475   1.667   6.416   1.490
 6859SOL    HW121476   1.747   6.357   1.490
 6859SOL    HW221477   1.697   6.512   1.494
 6860SOL     OW21478   5.666   5.432   1.507
 6860SOL    HW121479   5.717   5.346   1.503
 6860SOL    HW221480   5.568   5.413   1.502
 6861SOL     OW21481   5.902   4.464   0.900
 6861SOL    HW121482   5.827   4.401   0.918
 6861SOL    HW221483   5.985   4.413   0.880
 6862SOL     OW21484   2.127   4.673   4.345
 6862SOL    HW121485   2.198   4.609   4.374
 6862SOL    HW221486   2.159   4.767   4.357
 6863SOL     OW21487   5.506   1.446   4.468
 6863SOL    HW121488   5.475   1.398   4.550
 6863SOL    HW221489   5.441   1.431   4.394
 6864SOL     OW21490   3.565   6.271   3.716
 6864SOL    HW121491   3.611   6.347   3.761
 6864SOL    HW221492   3.618   6.187   3.730
 6865SOL     OW21493   6.335   5.566   2.581
 6865SOL    HW121494   6.250   5.613   2.555
 6865SOL    HW221495   6.312   5.479   2.625
 6866SOL     OW21496   6.222   4.507   2.116
 6866SOL    HW121497   6.145   4.460   2.159
 6866SOL    HW221498   6.229   4.479   2.020
 6867SOL     OW21499   1.284   4.728   1.555
 6867SOL    HW121500   1.238   4.686   1.633
 6867SOL    HW221501   1.232   4.712   1.472
 6868SOL     OW21502   1.841   5.393   5.600
 6868SOL    HW121503   1.883   5.463   5.659
 6868SOL    HW221504   1.744   5.385   5.622
 6869SOL     OW21505   5.738   2.533   5.360
 6869SOL    HW121506   5.816   2.569   5.308
 6869SOL    HW221507   5.661   2.519   5.297
 6870SOL     OW21508   0.305   4.483   2.299
 6870SOL    HW121509   0.279   4.463   2.393
 6870SOL    HW221510   0.273   4.409   2.239
 6871SOL     OW21511   5.688   5.260   2.062
 6871SOL    HW121512   5.744   5.180   2.086
 6871SOL    HW221513   5.599   5.229   2.029
 6872SOL     OW21514   1.255   3.515   0.556
 6872SOL    HW121515   1.157   3.504   0.573
 6872SOL    HW221516   1.303   3.526   0.642
 6873SOL     OW21517   5.994   3.833   4.906
 6873SOL    HW121518   6.048   3.889   4.970
 6873SOL    HW221519   6.053   3.769   4.859
 6874SOL     OW21520   0.720   5.115   3.059
 6874SOL    HW121521   0.810   5.156   3.039
 6874SOL    HW221522   0.729   5.016   3.065
 6875SOL     OW21523   1.284   2.768   3.668
 6875SOL    HW121524   1.303   2.753   3.571
 6875SOL    HW221525   1.185   2.768   3.683
 6876SOL     OW21526   4.168   5.950   5.151
 6876SOL    HW121527   4.234   6.021   5.124
 6876SOL    HW221528   4.217   5.872   5.189
 6877SOL     OW21529   2.709   4.290   6.617
 6877SOL    HW121530   2.635   4.332   6.669
 6877SOL    HW221531   2.689   4.194   6.602
 6878SOL     OW21532   2.771   2.672   5.333
 6878SOL    HW121533   2.829   2.594   5.357
 6878SOL    HW221534   2.683   2.638   5.300
 6879SOL     OW21535   0.862   2.064   0.115
 6879SOL    HW121536   0.947   2.024   0.148
 6879SOL    HW221537   0.797   2.071   0.191
 6880SOL     OW21538   2.077   3.459   5.130
 6880SOL    HW121539   2.102   3.362   5.139
 6880SOL    HW221540   2.140   3.515   5.182
 6881SOL     OW21541   0.302   3.622   2.406
 6881SOL    HW121542   0.393   3.665   2.406
 6881SOL    HW221543   0.234   3.690   2.433
 6882SOL     OW21544   3.178   0.385   5.733
 6882SOL    HW121545   3.208   0.429   5.818
 6882SOL    HW221546   3.255   0.339   5.690
 6883SOL     OW21547   3.847   1.607   0.842
 6883SOL    HW121548   3.940   1.569   0.845
 6883SOL    HW221549   3.801   1.577   0.758
 6884SOL     OW21550   1.459   3.552   4.582
 6884SOL    HW121551   1.434   3.538   4.486
 6884SOL    HW221552   1.377   3.540   4.639
 6885SOL     OW21553   4.105   5.739   4.888
 6885SOL    HW121554   4.194   5.700   4.866
 6885SOL    HW221555   4.116   5.835   4.917
 6886SOL     OW21556   0.053   0.814   3.320
 6886SOL    HW121557   0.054   0.801   3.419
 6886SOL    HW221558   6.986   0.837   3.290
 6887SOL     OW21559   5.055   6.641   5.921
 6887SOL    HW121560   4.985   6.572   5.940
 6887SOL    HW221561   5.092   6.676   6.007
 6888SOL     OW21562   5.476   6.366   6.536
 6888SOL    HW121563   5.483   6.377   6.636
 6888SOL    HW221564   5.386   6.329   6.513
 6889SOL     OW21565   1.843   2.398   5.370
 6889SOL    HW121566   1.744   2.389   5.382
 6889SOL    HW221567   1.872   2.348   5.288
 6890SOL     OW21568   3.561   6.498   1.600
 6890SOL    HW121569   3.647   6.508   1.549
 6890SOL    HW221570   3.493   6.453   1.542
 6891SOL     OW21571   2.109   3.878   4.354
 6891SOL    HW121572   2.092   3.889   4.452
 6891SOL    HW221573   2.130   3.782   4.335
 6892SOL     OW21574   3.382   1.132   3.141
 6892SOL    HW121575   3.436   1.201   3.189
 6892SOL    HW221576   3.442   1.073   3.088
 6893SOL     OW21577   5.345   5.665   0.176
 6893SOL    HW121578   5.249   5.656   0.149
 6893SOL    HW221579   5.364   5.761   0.199
 6894SOL     OW21580   6.374   5.438   6.835
 6894SOL    HW121581   6.283   5.467   6.865
 6894SOL    HW221582   6.376   5.339   6.822
 6895SOL     OW21583   2.905   5.486   6.275
 6895SOL    HW121584   2.979   5.493   6.208
 6895SOL    HW221585   2.944   5.486   6.368
 6896SOL     OW21586   1.930   0.000   3.801
 6896SOL    HW121587   1.922   7.017   3.900
 6896SOL    HW221588   1.913   0.095   3.775
 6897SOL     OW21589   2.728   3.327   6.852
 6897SOL    HW121590   2.678   3.377   6.923
 6897SOL    HW221591   2.678   3.333   6.766
 6898SOL     OW21592   4.094   1.667   2.234
 6898SOL    HW121593   4.107   1.759   2.272
 6898SOL    HW221594   4.065   1.605   2.308
 6899SOL     OW21595   4.974   6.818   1.003
 6899SOL    HW121596   4.967   6.739   0.941
 6899SOL    HW221597   5.066   6.822   1.042
 6900SOL     OW21598   6.334   0.841   5.765
 6900SOL    HW121599   6.400   0.907   5.730
 6900SOL    HW221600   6.334   0.844   5.865
 6901SOL     OW21601   0.634   6.970   6.242
 6901SOL    HW121602   0.646   0.044   6.244
 6901SOL    HW221603   0.538   6.948   6.228
 6902SOL     OW21604   6.550   6.448   0.841
 6902SOL    HW121605   6.534   6.544   0.819
 6902SOL    HW221606   6.524   6.391   0.763
 6903SOL     OW21607   4.369   5.120   4.866
 6903SOL    HW121608   4.271   5.121   4.886
 6903SOL    HW221609   4.400   5.025   4.859
 6904SOL     OW21610   5.931   1.944   4.073
 6904SOL    HW121611   5.845   1.995   4.074
 6904SOL    HW221612   5.937   1.890   3.989
 6905SOL     OW21613   5.785   6.949   0.243
 6905SOL    HW121614   5.718   6.929   0.314
 6905SOL    HW221615   5.818   0.017   0.254
 6906SOL     OW21616   4.429   0.461   4.106
 6906SOL    HW121617   4.426   0.361   4.097
 6906SOL    HW221618   4.337   0.497   4.114
 6907SOL     OW21619   4.896   1.481   1.378
 6907SOL    HW121620   4.854   1.523   1.459
 6907SOL    HW221621   4.914   1.385   1.395
 6908SOL     OW21622   1.129   6.608   5.662
 6908SOL    HW121623   1.120   6.511   5.683
 6908SOL    HW221624   1.054   6.659   5.703
 6909SOL     OW21625   5.318   4.138   1.368
 6909SOL    HW121626   5.375   4.190   1.305
 6909SOL    HW221627   5.247   4.089   1.316
 6910SOL     OW21628   6.828   2.262   3.692
 6910SOL    HW121629   6.920   2.269   3.652
 6910SOL    HW221630   6.798   2.166   3.689
 6911SOL     OW21631   4.165   6.855   3.516
 6911SOL    HW121632   4.166   6.858   3.417
 6911SOL    HW221633   4.070   6.854   3.549
 6912SOL     OW21634   4.418   5.119   0.203
 6912SOL    HW121635   4.329   5.157   0.228
 6912SOL    HW221636   4.405   5.036   0.149
 6913SOL     OW21637   5.737   4.442   6.244
 6913SOL    HW121638   5.812   4.426   6.181
 6913SOL    HW221639   5.695   4.355   6.270
 6914SOL     OW21640   6.061   5.257   0.032
 6914SOL    HW121641   6.040   5.308   6.973
 6914SOL    HW221642   5.978   5.248   0.087
 6915SOL     OW21643   5.913   4.682   1.632
 6915SOL    HW121644   5.935   4.779   1.625
 6915SOL    HW221645   5.879   4.648   1.544
 6916SOL     OW21646   6.047   3.678   0.514
 6916SOL    HW121647   6.140   3.643   0.505
 6916SOL    HW221648   5.987   3.628   0.452
 6917SOL     OW21649   3.056   5.790   0.919
 6917SOL    HW121650   3.054   5.691   0.932
 6917SOL    HW221651   3.151   5.821   0.920
 6918SOL     OW21652   1.204   3.054   4.595
 6918SOL    HW121653   1.287   3.024   4.547
 6918SOL    HW221654   1.225   3.067   4.692
 6919SOL     OW21655   0.481   6.440   3.226
 6919SOL    HW121656   0.506   6.434   3.130
 6919SOL    HW221657   0.393   6.487   3.235
 6920SOL     OW21658   4.500   5.608   5.821
 6920SOL    HW121659   4.439   5.561   5.885
 6920SOL    HW221660   4.530   5.544   5.751
 6921SOL     OW21661   4.922   6.066   3.091
 6921SOL    HW121662   4.835   6.108   3.116
 6921SOL    HW221663   4.948   5.999   3.161
 6922SOL     OW21664   2.279   5.690   6.703
 6922SOL    HW121665   2.296   5.780   6.663
 6922SOL    HW221666   2.231   5.633   6.636
 6923SOL     OW21667   4.812   5.650   3.883
 6923SOL    HW121668   4.797   5.627   3.787
 6923SOL    HW221669   4.899   5.698   3.893
 6924SOL     OW21670   1.042   4.545   0.038
 6924SOL    HW121671   1.077   4.639   0.038
 6924SOL    HW221672   1.082   4.495   6.986
 6925SOL     OW21673   4.180   5.645   4.565
 6925SOL    HW121674   4.100   5.592   4.594
 6925SOL    HW221675   4.253   5.582   4.538
 6926SOL     OW21676   3.159   3.112   2.502
 6926SOL    HW121677   3.134   3.069   2.415
 6926SOL    HW221678   3.127   3.206   2.503
 6927SOL     OW21679   4.969   3.598   5.515
 6927SOL    HW121680   4.975   3.654   5.597
 6927SOL    HW221681   4.971   3.501   5.541
 6928SOL     OW21682   6.746   6.397   1.216
 6928SOL    HW121683   6.709   6.486   1.242
 6928SOL    HW221684   6.686   6.354   1.149
 6929SOL     OW21685   4.933   5.339   1.201
 6929SOL    HW121686   4.927   5.375   1.294
 6929SOL    HW221687   4.863   5.382   1.145
 6930SOL     OW21688   0.160   0.198   1.782
 6930SOL    HW121689   0.073   0.246   1.768
 6930SOL    HW221690   0.230   0.240   1.724
 6931SOL     OW21691   1.239   0.814   2.472
 6931SOL    HW121692   1.157   0.757   2.478
 6931SOL    HW221693   1.319   0.755   2.461
 6932SOL     OW21694   4.088   0.477   1.053
 6932SOL    HW121695   4.057   0.494   0.960
 6932SOL    HW221696   4.156   0.546   1.079
 6933SOL     OW21697   3.116   5.811   5.243
 6933SOL    HW121698   3.105   5.841   5.148
 6933SOL    HW221699   3.171   5.879   5.293
 6934SOL     OW21700   5.344   4.198   6.250
 6934SOL    HW121701   5.299   4.279   6.213
 6934SOL    HW221702   5.436   4.190   6.212
 6935SOL     OW21703   4.611   5.992   3.794
 6935SOL    HW121704   4.691   5.955   3.841
 6935SOL    HW221705   4.579   5.926   3.726
 6936SOL     OW21706   6.551   2.902   3.050
 6936SOL    HW121707   6.614   2.824   3.049
 6936SOL    HW221708   6.471   2.879   3.104
 6937SOL     OW21709   6.512   6.172   0.025
 6937SOL    HW121710   6.526   6.184   0.124
 6937SOL    HW221711   6.494   6.261   7.009
 6938SOL     OW21712   4.720   3.645   5.393
 6938SOL    HW121713   4.696   3.582   5.320
 6938SOL    HW221714   4.811   3.622   5.428
 6939SOL     OW21715   0.319   4.181   1.380
 6939SOL    HW121716   0.245   4.128   1.422
 6939SOL    HW221717   0.287   4.221   1.294
 6940SOL     OW21718   5.059   0.843   0.650
 6940SOL    HW121719   5.071   0.938   0.622
 6940SOL    HW221720   5.124   0.822   0.723
 6941SOL     OW21721   3.296   3.010   3.464
 6941SOL    HW121722   3.310   2.916   3.497
 6941SOL    HW221723   3.367   3.069   3.502
 6942SOL     OW21724   6.582   2.649   0.810
 6942SOL    HW121725   6.509   2.717   0.817
 6942SOL    HW221726   6.635   2.665   0.727
 6943SOL     OW21727   5.205   6.468   0.106
 6943SOL    HW121728   5.181   6.528   0.030
 6943SOL    HW221729   5.221   6.523   0.188
 6944SOL     OW21730   1.752   4.185   6.008
 6944SOL    HW121731   1.793   4.175   5.917
 6944SOL    HW221732   1.825   4.190   6.076
 6945SOL     OW21733   5.773   3.172   6.172
 6945SOL    HW121734   5.766   3.102   6.243
 6945SOL    HW221735   5.740   3.134   6.085
 6946SOL     OW21736   6.242   6.660   1.903
 6946SOL    HW121737   6.286   6.748   1.915
 6946SOL    HW221738   6.185   6.640   1.982
 6947SOL     OW21739   3.104   6.594   5.926
 6947SOL    HW121740   3.196   6.627   5.945
 6947SOL    HW221741   3.095   6.500   5.959
 6948SOL     OW21742   5.656   0.591   6.509
 6948SOL    HW121743   5.628   0.651   6.434
 6948SOL    HW221744   5.741   0.624   6.549
 6949SOL     OW21745   5.227   6.832   4.228
 6949SOL    HW121746   5.198   6.923   4.197
 6949SOL    HW221747   5.262   6.838   4.321
 6950SOL     OW21748   1.668   0.530   3.949
 6950SOL    HW121749   1.758   0.567   3.926
 6950SOL    HW221750   1.605   0.605   3.968
 6951SOL     OW21751   6.270   6.419   6.097
 6951SOL    HW121752   6.252   6.408   5.999
 6951SOL    HW221753   6.364   6.393   6.116
 6952SOL     OW21754   6.915   5.835   3.947
 6952SOL    HW121755   7.006   5.875   3.939
 6952SOL    HW221756   6.870   5.869   4.029
 6953SOL     OW21757   4.603   0.162   6.495
 6953SOL    HW121758   4.632   0.067   6.507
 6953SOL    HW221759   4.570   0.198   6.583
 6954SOL     OW21760   0.509   4.009   4.249
 6954SOL    HW121761   0.574   4.049   4.314
 6954SOL    HW221762   0.513   4.059   4.163
 6955SOL     OW21763   6.685   1.074   2.615
 6955SOL    HW121764   6.650   1.004   2.677
 6955SOL    HW221765   6.647   1.163   2.639
 6956SOL     OW21766   4.694   6.149   3.195
 6956SOL    HW121767   4.675   6.222   3.130
 6956SOL    HW221768   4.622   6.079   3.190
 6957SOL     OW21769   5.822   4.873   0.852
 6957SOL    HW121770   5.798   4.827   0.937
 6957SOL    HW221771   5.848   4.805   0.783
 6958SOL     OW21772   2.929   3.748   5.284
 6958SOL    HW121773   2.971   3.693   5.355
 6958SOL    HW221774   2.948   3.707   5.194
 6959SOL     OW21775   2.902   1.200   4.622
 6959SOL    HW121776   2.879   1.293   4.652
 6959SOL    HW221777   2.836   1.135   4.661
 6960SOL     OW21778   1.216   5.357   1.341
 6960SOL    HW121779   1.297   5.345   1.284
 6960SOL    HW221780   1.241   5.345   1.437
 6961SOL     OW21781   6.508   2.849   4.411
 6961SOL    HW121782   6.592   2.849   4.466
 6961SOL    HW221783   6.517   2.783   4.336
 6962SOL     OW21784   5.351   6.280   2.239
 6962SOL    HW121785   5.351   6.182   2.262
 6962SOL    HW221786   5.290   6.296   2.161
 6963SOL     OW21787   6.795   5.178   0.809
 6963SOL    HW121788   6.753   5.106   0.865
 6963SOL    HW221789   6.847   5.240   0.868
 6964SOL     OW21790   3.669   5.327   4.977
 6964SOL    HW121791   3.725   5.373   4.909
 6964SOL    HW221792   3.589   5.286   4.932
 6965SOL     OW21793   0.706   3.426   6.653
 6965SOL    HW121794   0.674   3.347   6.600
 6965SOL    HW221795   0.793   3.458   6.615
 6966SOL     OW21796   0.038   2.272   3.572
 6966SOL    HW121797   0.058   2.351   3.514
 6966SOL    HW221798   0.123   2.224   3.593
 6967SOL     OW21799   1.656   0.686   5.479
 6967SOL    HW121800   1.630   0.768   5.530
 6967SOL    HW221801   1.741   0.649   5.516
 6968SOL     OW21802   4.072   6.642   2.767
 6968SOL    HW121803   4.089   6.562   2.709
 6968SOL    HW221804   4.079   6.616   2.863
 6969SOL     OW21805   3.092   2.060   1.036
 6969SOL    HW121806   3.130   2.138   0.987
 6969SOL    HW221807   3.164   2.016   1.090
 6970SOL     OW21808   4.085   3.952   6.697
 6970SOL    HW121809   4.096   4.029   6.634
 6970SOL    HW221810   4.000   3.963   6.748
 6971SOL     OW21811   6.606   4.589   1.482
 6971SOL    HW121812   6.664   4.576   1.402
 6971SOL    HW221813   6.619   4.681   1.519
 6972SOL     OW21814   5.317   4.730   3.857
 6972SOL    HW121815   5.237   4.705   3.912
 6972SOL    HW221816   5.391   4.664   3.875
 6973SOL     OW21817   1.369   3.893   5.673
 6973SOL    HW121818   1.412   3.810   5.709
 6973SOL    HW221819   1.286   3.869   5.624
 6974SOL     OW21820   3.629   2.885   3.279
 6974SOL    HW121821   3.677   2.876   3.191
 6974SOL    HW221822   3.631   2.797   3.327
 6975SOL     OW21823   2.083   5.961   5.684
 6975SOL    HW121824   2.000   5.907   5.677
 6975SOL    HW221825   2.146   5.919   5.750
 6976SOL     OW21826   4.536   5.247   5.063
 6976SOL    HW121827   4.545   5.345   5.049
 6976SOL    HW221828   4.516   5.202   4.976
 6977SOL     OW21829   4.503   2.613   1.695
 6977SOL    HW121830   4.448   2.696   1.694
 6977SOL    HW221831   4.564   2.613   1.616
 6978SOL     OW21832   4.990   1.583   1.972
 6978SOL    HW121833   4.953   1.667   2.012
 6978SOL    HW221834   5.021   1.601   1.879
 6979SOL     OW21835   1.213   4.558   0.865
 6979SOL    HW121836   1.266   4.640   0.889
 6979SOL    HW221837   1.260   4.477   0.900
 6980SOL     OW21838   1.032   1.552   3.719
 6980SOL    HW121839   1.098   1.480   3.742
 6980SOL    HW221840   1.064   1.602   3.639
 6981SOL     OW21841   3.020   3.354   6.435
 6981SOL    HW121842   3.042   3.278   6.373
 6981SOL    HW221843   3.077   3.347   6.517
 6982SOL     OW21844   1.737   1.131   4.468
 6982SOL    HW121845   1.757   1.105   4.374
 6982SOL    HW221846   1.662   1.198   4.469
 6983SOL     OW21847   5.232   1.927   4.016
 6983SOL    HW121848   5.193   2.008   4.058
 6983SOL    HW221849   5.284   1.952   3.935
 6984SOL     OW21850   2.399   1.970   4.159
 6984SOL    HW121851   2.360   1.898   4.216
 6984SOL    HW221852   2.470   2.018   4.210
 6985SOL     OW21853   4.238   5.331   1.254
 6985SOL    HW121854   4.294   5.380   1.321
 6985SOL    HW221855   4.190   5.398   1.197
 6986SOL     OW21856   2.329   6.125   6.238
 6986SOL    HW121857   2.293   6.216   6.258
 6986SOL    HW221858   2.403   6.103   6.302
 6987SOL     OW21859   0.537   1.849   6.069
 6987SOL    HW121860   0.488   1.869   6.154
 6987SOL    HW221861   0.473   1.811   6.002
 6988SOL     OW21862   6.544   0.968   5.484
 6988SOL    HW121863   6.620   1.005   5.537
 6988SOL    HW221864   6.563   0.873   5.460
 6989SOL     OW21865   0.496   3.514   4.367
 6989SOL    HW121866   0.565   3.450   4.401
 6989SOL    HW221867   0.448   3.473   4.290
 6990SOL     OW21868   4.872   2.084   1.609
 6990SOL    HW121869   4.962   2.126   1.623
 6990SOL    HW221870   4.809   2.116   1.680
 6991SOL     OW21871   3.221   4.983   3.958
 6991SOL    HW121872   3.291   4.961   3.890
 6991SOL    HW221873   3.257   4.965   4.050
 6992SOL     OW21874   5.256   6.817   5.474
 6992SOL    HW121875   5.291   6.801   5.381
 6992SOL    HW221876   5.307   6.892   5.516
 6993SOL     OW21877   0.074   1.237   3.135
 6993SOL    HW121878   0.125   1.154   3.110
 6993SOL    HW221879   0.049   1.233   3.232
 6994SOL     OW21880   0.663   3.262   4.705
 6994SOL    HW121881   0.586   3.201   4.720
 6994SOL    HW221882   0.693   3.255   4.610
 6995SOL     OW21883   6.583   4.613   6.095
 6995SOL    HW121884   6.542   4.563   6.172
 6995SOL    HW221885   6.549   4.575   6.009
 6996SOL     OW21886   2.474   0.428   6.740
 6996SOL    HW121887   2.438   0.521   6.740
 6996SOL    HW221888   2.489   0.397   6.834
 6997SOL     OW21889   5.916   6.501   5.547
 6997SOL    HW121890   5.899   6.416   5.596
 6997SOL    HW221891   5.829   6.542   5.519
 6998SOL     OW21892   2.029   2.060   0.931
 6998SOL    HW121893   2.118   2.085   0.969
 6998SOL    HW221894   1.979   2.005   0.998
 6999SOL     OW21895   2.643   2.724   5.874
 6999SOL    HW121896   2.715   2.734   5.943
 6999SOL    HW221897   2.675   2.662   5.802
 7000SOL     OW21898   6.441   6.252   1.661
 7000SOL    HW121899   6.489   6.278   1.577
 7000SOL    HW221900   6.486   6.294   1.739
 7001SOL     OW21901   2.352   3.165   5.411
 7001SOL    HW121902   2.397   3.146   5.324
 7001SOL    HW221903   2.320   3.079   5.452
 7002SOL     OW21904   2.593   5.266   3.420
 7002SOL    HW121905   2.518   5.278   3.486
 7002SOL    HW221906   2.645   5.184   3.444
 7003SOL     OW21907   4.167   5.779   6.889
 7003SOL    HW121908   4.161   5.831   6.805
 7003SOL    HW221909   4.197   5.685   6.869
 7004SOL     OW21910   2.174   4.947   1.968
 7004SOL    HW121911   2.111   4.902   1.905
 7004SOL    HW221912   2.188   5.042   1.939
 7005SOL     OW21913   1.595   6.422   0.060
 7005SOL    HW121914   1.515   6.445   0.115
 7005SOL    HW221915   1.593   6.473   7.000
 7006SOL     OW21916   5.083   4.656   4.525
 7006SOL    HW121917   5.079   4.570   4.575
 7006SOL    HW221918   5.088   4.732   4.589
 7007SOL     OW21919   4.383   6.429   3.993
 7007SOL    HW121920   4.477   6.412   3.961
 7007SOL    HW221921   4.381   6.426   4.093
 7008SOL     OW21922   1.513   4.577   5.023
 7008SOL    HW121923   1.610   4.595   5.040
 7008SOL    HW221924   1.472   4.656   4.978
 7009SOL     OW21925   6.451   5.434   2.276
 7009SOL    HW121926   6.426   5.453   2.371
 7009SOL    HW221927   6.462   5.520   2.227
 7010SOL     OW21928   5.006   4.775   5.619
 7010SOL    HW121929   5.046   4.843   5.558
 7010SOL    HW221930   5.029   4.797   5.714
 7011SOL     OW21931   3.322   6.744   6.002
 7011SOL    HW121932   3.250   6.795   6.048
 7011SOL    HW221933   3.367   6.802   5.934
 7012SOL     OW21934   1.748   1.235   2.483
 7012SOL    HW121935   1.656   1.236   2.522
 7012SOL    HW221936   1.769   1.325   2.444
 7013SOL     OW21937   0.714   0.585   0.821
 7013SOL    HW121938   0.704   0.495   0.779
 7013SOL    HW221939   0.712   0.576   0.920
 7014SOL     OW21940   4.696   3.282   1.334
 7014SOL    HW121941   4.786   3.262   1.296
 7014SOL    HW221942   4.666   3.373   1.305
 7015SOL     OW21943   5.989   4.747   2.432
 7015SOL    HW121944   5.949   4.675   2.376
 7015SOL    HW221945   5.939   4.753   2.519
 7016SOL     OW21946   3.570   4.803   1.584
 7016SOL    HW121947   3.617   4.737   1.642
 7016SOL    HW221948   3.527   4.873   1.641
 7017SOL     OW21949   2.333   6.792   2.718
 7017SOL    HW121950   2.323   6.728   2.795
 7017SOL    HW221951   2.359   6.741   2.636
 7018SOL     OW21952   6.272   4.500   4.087
 7018SOL    HW121953   6.197   4.552   4.047
 7018SOL    HW221954   6.310   4.550   4.165
 7019SOL     OW21955   2.340   3.829   6.594
 7019SOL    HW121956   2.411   3.785   6.649
 7019SOL    HW221957   2.364   3.925   6.579
 7020SOL     OW21958   6.222   6.911   6.748
 7020SOL    HW121959   6.187   6.818   6.730
 7020SOL    HW221960   6.308   6.925   6.700
 7021SOL     OW21961   1.502   1.422   6.083
 7021SOL    HW121962   1.458   1.501   6.125
 7021SOL    HW221963   1.601   1.425   6.102
 7022SOL     OW21964   4.619   6.046   0.609
 7022SOL    HW121965   4.660   6.004   0.690
 7022SOL    HW221966   4.623   6.146   0.618
 7023SOL     OW21967   0.798   1.761   3.486
 7023SOL    HW121968   0.817   1.859   3.472
 7023SOL    HW221969   0.847   1.708   3.417
 7024SOL     OW21970   1.533   3.983   5.472
 7024SOL    HW121971   1.474   3.984   5.391
 7024SOL    HW221972   1.477   3.963   5.553
 7025SOL     OW21973   2.511   0.968   6.997
 7025SOL    HW121974   2.512   0.977   6.897
 7025SOL    HW221975   2.451   0.892   7.023
 7026SOL     OW21976   3.229   1.804   2.452
 7026SOL    HW121977   3.254   1.711   2.476
 7026SOL    HW221978   3.134   1.806   2.422
 7027SOL     OW21979   2.548   5.156   4.057
 7027SOL    HW121980   2.561   5.230   3.990
 7027SOL    HW221981   2.550   5.194   4.149
 7028SOL     OW21982   4.615   0.069   4.468
 7028SOL    HW121983   4.581   0.007   4.397
 7028SOL    HW221984   4.672   0.140   4.426
 7029SOL     OW21985   5.127   5.524   5.999
 7029SOL    HW121986   5.109   5.545   6.095
 7029SOL    HW221987   5.152   5.428   5.990
 7030SOL     OW21988   0.313   1.739   4.892
 7030SOL    HW121989   0.236   1.744   4.828
 7030SOL    HW221990   0.378   1.670   4.861
 7031SOL     OW21991   1.819   6.242   5.029
 7031SOL    HW121992   1.806   6.330   4.984
 7031SOL    HW221993   1.909   6.240   5.074
 7032SOL     OW21994   3.549   0.430   3.679
 7032SOL    HW121995   3.503   0.368   3.743
 7032SOL    HW221996   3.535   0.397   3.586
 7033SOL     OW21997   1.363   2.240   3.584
 7033SOL    HW121998   1.435   2.173   3.603
 7033SOL    HW221999   1.302   2.204   3.514
 7034SOL     OW22000   6.467   0.134   3.278
 7034SOL    HW122001   6.495   0.046   3.316
 7034SOL    HW222002   6.515   0.150   3.192
 7035SOL     OW22003   1.553   6.067   1.645
 7035SOL    HW122004   1.637   6.119   1.628
 7035SOL    HW222005   1.478   6.106   1.591
 7036SOL     OW22006   0.359   0.811   3.007
 7036SOL    HW122007   0.411   0.860   2.937
 7036SOL    HW222008   0.325   0.725   2.968
 7037SOL     OW22009   1.712   0.553   6.665
 7037SOL    HW122010   1.797   0.599   6.690
 7037SOL    HW222011   1.634   0.604   6.701
 7038SOL     OW22012   1.426   2.948   4.479
 7038SOL    HW122013   1.486   2.868   4.469
 7038SOL    HW222014   1.428   3.002   4.395
 7039SOL     OW22015   2.776   4.847   1.531
 7039SOL    HW122016   2.722   4.767   1.504
 7039SOL    HW222017   2.715   4.921   1.560
 7040SOL     OW22018   6.167   1.939   4.853
 7040SOL    HW122019   6.140   1.986   4.937
 7040SOL    HW222020   6.151   1.841   4.863
 7041SOL     OW22021   0.906   2.484   1.463
 7041SOL    HW122022   0.922   2.580   1.489
 7041SOL    HW222023   0.922   2.426   1.543
 7042SOL     OW22024   5.612   5.806   6.057
 7042SOL    HW122025   5.557   5.848   6.129
 7042SOL    HW222026   5.650   5.719   6.090
 7043SOL     OW22027   2.070   3.474   2.543
 7043SOL    HW122028   2.123   3.390   2.532
 7043SOL    HW222029   2.073   3.527   2.458
 7044SOL     OW22030   4.749   5.374   3.252
 7044SOL    HW122031   4.680   5.445   3.236
 7044SOL    HW222032   4.775   5.332   3.164
 7045SOL     OW22033   4.974   5.724   2.766
 7045SOL    HW122034   5.015   5.681   2.685
 7045SOL    HW222035   4.893   5.673   2.793
 7046SOL     OW22036   3.224   1.595   2.905
 7046SOL    HW122037   3.159   1.672   2.907
 7046SOL    HW222038   3.313   1.627   2.937
 7047SOL     OW22039   0.965   2.582   1.798
 7047SOL    HW122040   0.874   2.551   1.827
 7047SOL    HW222041   0.957   2.653   1.729
 7048SOL     OW22042   6.779   6.182   2.897
 7048SOL    HW122043   6.835   6.122   2.840
 7048SOL    HW222044   6.797   6.277   2.872
 7049SOL     OW22045   3.320   1.854   0.907
 7049SOL    HW122046   3.235   1.842   0.958
 7049SOL    HW222047   3.303   1.837   0.810
 7050SOL     OW22048   3.856   3.787   2.333
 7050SOL    HW122049   3.760   3.810   2.314
 7050SOL    HW222050   3.909   3.794   2.248
 7051SOL     OW22051   0.241   0.298   1.046
 7051SOL    HW122052   0.182   0.372   1.014
 7051SOL    HW222053   0.334   0.313   1.013
 7052SOL     OW22054   5.747   2.870   3.649
 7052SOL    HW122055   5.768   2.829   3.560
 7052SOL    HW222056   5.779   2.965   3.651
 7053SOL     OW22057   0.901   3.880   5.107
 7053SOL    HW122058   0.901   3.787   5.070
 7053SOL    HW222059   0.808   3.916   5.106
 7054SOL     OW22060   0.755   6.317   0.461
 7054SOL    HW122061   0.815   6.330   0.540
 7054SOL    HW222062   0.663   6.351   0.483
 7055SOL     OW22063   3.294   5.968   5.365
 7055SOL    HW122064   3.369   5.910   5.333
 7055SOL    HW222065   3.298   5.976   5.465
 7056SOL     OW22066   5.884   5.697   2.272
 7056SOL    HW122067   5.862   5.602   2.251
 7056SOL    HW222068   5.880   5.752   2.188
 7057SOL     OW22069   0.943   5.897   3.491
 7057SOL    HW122070   0.937   5.960   3.414
 7057SOL    HW222071   0.958   5.804   3.456
 7058SOL     OW22072   6.985   5.995   6.256
 7058SOL    HW122073   0.002   5.939   6.327
 7058SOL    HW222074   6.986   6.091   6.284
 7059SOL     OW22075   6.251   1.002   4.147
 7059SOL    HW122076   6.335   0.977   4.195
 7059SOL    HW222077   6.222   1.093   4.176
 7060SOL     OW22078   3.932   0.092   1.676
 7060SOL    HW122079   3.873   0.022   1.716
 7060SOL    HW222080   3.950   0.071   1.581
 7061SOL     OW22081   0.844   3.212   3.759
 7061SOL    HW122082   0.788   3.281   3.806
 7061SOL    HW222083   0.920   3.258   3.713
 7062SOL     OW22084   5.232   1.299   5.494
 7062SOL    HW122085   5.140   1.299   5.534
 7062SOL    HW222086   5.249   1.388   5.451
 7063SOL     OW22087   0.807   0.739   1.501
 7063SOL    HW122088   0.781   0.760   1.406
 7063SOL    HW222089   0.879   0.669   1.501
 7064SOL     OW22090   4.212   2.102   1.830
 7064SOL    HW122091   4.159   2.149   1.759
 7064SOL    HW222092   4.156   2.032   1.874
 7065SOL     OW22093   4.095   3.858   6.311
 7065SOL    HW122094   4.134   3.949   6.296
 7065SOL    HW222095   4.026   3.839   6.241
 7066SOL     OW22096   4.630   6.946   0.857
 7066SOL    HW122097   4.534   6.944   0.831
 7066SOL    HW222098   4.643   6.892   0.940
 7067SOL     OW22099   1.846   2.075   5.389
 7067SOL    HW122100   1.852   2.130   5.472
 7067SOL    HW222101   1.898   2.119   5.315
 7068SOL     OW22102   0.374   4.140   4.045
 7068SOL    HW122103   0.383   4.236   4.071
 7068SOL    HW222104   0.314   4.093   4.109
 7069SOL     OW22105   5.937   1.718   4.228
 7069SOL    HW122106   5.973   1.801   4.185
 7069SOL    HW222107   5.862   1.681   4.172
 7070SOL     OW22108   6.232   6.472   4.804
 7070SOL    HW122109   6.282   6.541   4.856
 7070SOL    HW222110   6.169   6.425   4.865
 7071SOL     OW22111   1.812   6.154   6.380
 7071SOL    HW122112   1.833   6.240   6.428
 7071SOL    HW222113   1.845   6.077   6.435
 7072SOL     OW22114   0.990   6.549   0.062
 7072SOL    HW122115   0.981   6.492   7.006
 7072SOL    HW222116   1.003   6.491   0.143
 7073SOL     OW22117   5.144   6.961   4.585
 7073SOL    HW122118   5.067   6.974   4.523
 7073SOL    HW222119   5.192   0.023   4.597
 7074SOL     OW22120   4.638   1.934   2.083
 7074SOL    HW122121   4.579   1.867   2.038
 7074SOL    HW222122   4.582   1.996   2.138
 7075SOL     OW22123   1.808   5.214   4.973
 7075SOL    HW122124   1.791   5.172   5.062
 7075SOL    HW222125   1.905   5.237   4.965
 7076SOL     OW22126   5.562   2.037   6.938
 7076SOL    HW122127   5.581   2.017   0.008
 7076SOL    HW222128   5.578   1.955   6.883
 7077SOL     OW22129   2.307   4.243   4.311
 7077SOL    HW122130   2.214   4.213   4.333
 7077SOL    HW222131   2.345   4.185   4.238
 7078SOL     OW22132   0.253   6.779   1.391
 7078SOL    HW122133   0.166   6.816   1.358
 7078SOL    HW222134   0.236   6.713   1.464
 7079SOL     OW22135   6.610   6.307   4.873
 7079SOL    HW122136   6.607   6.402   4.841
 7079SOL    HW222137   6.703   6.283   4.898
 7080SOL     OW22138   2.750   2.335   3.738
 7080SOL    HW122139   2.837   2.303   3.700
 7080SOL    HW222140   2.758   2.344   3.837
 7081SOL     OW22141   3.164   0.798   6.858
 7081SOL    HW122142   3.199   0.886   6.826
 7081SOL    HW222143   3.064   0.800   6.860
 7082SOL     OW22144   5.955   4.789   6.731
 7082SOL    HW122145   6.039   4.840   6.750
 7082SOL    HW222146   5.883   4.818   6.794
 7083SOL     OW22147   2.714   0.739   0.488
 7083SOL    HW122148   2.691   0.835   0.474
 7083SOL    HW222149   2.646   0.681   0.445
 7084SOL     OW22150   0.468   6.547   5.747
 7084SOL    HW122151   0.412   6.474   5.708
 7084SOL    HW222152   0.553   6.508   5.783
 7085SOL     OW22153   0.980   2.296   1.726
 7085SOL    HW122154   1.034   2.378   1.741
 7085SOL    HW222155   1.032   2.232   1.669
 7086SOL     OW22156   5.297   1.152   5.213
 7086SOL    HW122157   5.292   1.200   5.300
 7086SOL    HW222158   5.327   1.058   5.228
 7087SOL     OW22159   6.437   3.267   3.805
 7087SOL    HW122160   6.401   3.359   3.786
 7087SOL    HW222161   6.411   3.240   3.898
 7088SOL     OW22162   5.371   2.698   3.017
 7088SOL    HW122163   5.302   2.633   3.049
 7088SOL    HW222164   5.447   2.648   2.975
 7089SOL     OW22165   3.119   2.197   4.705
 7089SOL    HW122166   3.119   2.249   4.790
 7089SOL    HW222167   3.049   2.233   4.644
 7090SOL     OW22168   2.369   0.675   6.732
 7090SOL    HW122169   2.312   0.739   6.783
 7090SOL    HW222170   2.403   0.720   6.649
 7091SOL     OW22171   0.431   1.549   6.857
 7091SOL    HW122172   0.529   1.530   6.847
 7091SOL    HW222173   0.391   1.567   6.768
 7092SOL     OW22174   4.427   2.652   6.044
 7092SOL    HW122175   4.442   2.640   6.143
 7092SOL    HW222176   4.343   2.704   6.029
 7093SOL     OW22177   3.018   3.948   3.679
 7093SOL    HW122178   2.979   3.886   3.748
 7093SOL    HW222179   3.078   4.014   3.723
 7094SOL     OW22180   0.766   6.092   6.128
 7094SOL    HW122181   0.743   6.070   6.033
 7094SOL    HW222182   0.814   6.014   6.169
 7095SOL     OW22183   2.847   3.798   6.163
 7095SOL    HW122184   2.928   3.851   6.188
 7095SOL    HW222185   2.813   3.829   6.074
 7096SOL     OW22186   6.381   1.130   3.868
 7096SOL    HW122187   6.447   1.057   3.851
 7096SOL    HW222188   6.304   1.094   3.921
 7097SOL     OW22189   5.979   1.139   1.087
 7097SOL    HW122190   6.005   1.233   1.108
 7097SOL    HW222191   6.059   1.088   1.056
 7098SOL     OW22192   1.233   0.063   4.906
 7098SOL    HW122193   1.234   7.017   4.836
 7098SOL    HW222194   1.209   0.150   4.864
 7099SOL     OW22195   2.669   0.754   5.039
 7099SOL    HW122196   2.722   0.833   5.008
 7099SOL    HW222197   2.731   0.686   5.079
 7100SOL     OW22198   5.496   2.535   1.189
 7100SOL    HW122199   5.505   2.439   1.163
 7100SOL    HW222200   5.455   2.586   1.114
 7101SOL     OW22201   2.334   1.334   4.971
 7101SOL    HW122202   2.326   1.278   4.888
 7101SOL    HW222203   2.245   1.342   5.014
 7102SOL     OW22204   4.310   0.438   0.728
 7102SOL    HW122205   4.220   0.459   0.766
 7102SOL    HW222206   4.380   0.475   0.789
 7103SOL     OW22207   4.578   5.007   1.972
 7103SOL    HW122208   4.666   4.964   1.954
 7103SOL    HW222209   4.593   5.103   1.999
 7104SOL     OW22210   0.637   2.628   4.609
 7104SOL    HW122211   0.540   2.648   4.623
 7104SOL    HW222212   0.692   2.687   4.667
 7105SOL     OW22213   2.876   2.922   5.372
 7105SOL    HW122214   2.941   2.914   5.448
 7105SOL    HW222215   2.848   2.831   5.343
 7106SOL     OW22216   2.998   3.934   2.812
 7106SOL    HW122217   2.949   4.016   2.782
 7106SOL    HW222218   3.067   3.960   2.880
 7107SOL     OW22219   3.658   1.673   0.349
 7107SOL    HW122220   3.741   1.652   0.400
 7107SOL    HW222221   3.670   1.646   0.253
 7108SOL     OW22222   4.329   6.007   2.458
 7108SOL    HW122223   4.376   6.095   2.445
 7108SOL    HW222224   4.278   5.984   2.375
 7109SOL     OW22225   2.488   0.735   5.716
 7109SOL    HW122226   2.556   0.750   5.788
 7109SOL    HW222227   2.493   0.640   5.686
 7110SOL     OW22228   3.542   5.633   4.588
 7110SOL    HW122229   3.492   5.671   4.666
 7110SOL    HW222230   3.639   5.653   4.597
 7111SOL     OW22231   1.231   1.980   4.326
 7111SOL    HW122232   1.155   1.954   4.267
 7111SOL    HW222233   1.293   1.903   4.337
 7112SOL     OW22234   1.266   5.785   4.322
 7112SOL    HW122235   1.237   5.788   4.417
 7112SOL    HW222236   1.236   5.868   4.274
 7113SOL     OW22237   3.580   4.106   5.218
 7113SOL    HW122238   3.553   4.028   5.162
 7113SOL    HW222239   3.499   4.160   5.241
 7114SOL     OW22240   3.702   6.955   1.593
 7114SOL    HW122241   3.654   0.011   1.562
 7114SOL    HW222242   3.636   6.885   1.618
 7115SOL     OW22243   5.729   3.220   1.767
 7115SOL    HW122244   5.654   3.154   1.770
 7115SOL    HW222245   5.785   3.203   1.686
 7116SOL     OW22246   6.236   4.349   2.889
 7116SOL    HW122247   6.322   4.303   2.913
 7116SOL    HW222248   6.160   4.304   2.934
 7117SOL     OW22249   7.023   5.996   4.911
 7117SOL    HW122250   0.051   6.045   4.842
 7117SOL    HW222251   0.024   6.027   5.002
 7118SOL     OW22252   2.795   3.667   1.035
 7118SOL    HW122253   2.789   3.567   1.035
 7118SOL    HW222254   2.791   3.701   1.128
 7119SOL     OW22255   5.355   2.148   2.873
 7119SOL    HW122256   5.450   2.166   2.847
 7119SOL    HW222257   5.312   2.232   2.904
 7120SOL     OW22258   3.875   1.722   2.589
 7120SOL    HW122259   3.816   1.723   2.669
 7120SOL    HW222260   3.968   1.697   2.616
 7121SOL     OW22261   2.150   6.908   3.025
 7121SOL    HW122262   2.173   6.870   2.935
 7121SOL    HW222263   2.191   6.851   3.097
 7122SOL     OW22264   0.926   6.900   6.168
 7122SOL    HW122265   0.842   6.889   6.221
 7122SOL    HW222266   0.919   6.982   6.111
 7123SOL     OW22267   2.157   4.517   3.162
 7123SOL    HW122268   2.146   4.487   3.256
 7123SOL    HW222269   2.161   4.617   3.159
 7124SOL     OW22270   0.074   2.074   0.862
 7124SOL    HW122271   0.130   1.997   0.834
 7124SOL    HW222272   0.067   2.077   0.962
 7125SOL     OW22273   6.942   0.018   0.704
 7125SOL    HW122274   6.948   6.969   0.770
 7125SOL    HW222275   6.873   7.022   0.635
 7126SOL     OW22276   3.128   5.464   0.246
 7126SOL    HW122277   3.208   5.435   0.297
 7126SOL    HW222278   3.087   5.544   0.291
 7127SOL     OW22279   1.388   5.409   5.486
 7127SOL    HW122280   1.377   5.310   5.475
 7127SOL    HW222281   1.469   5.428   5.541
 7128SOL     OW22282   3.133   4.641   0.959
 7128SOL    HW122283   3.211   4.673   1.012
 7128SOL    HW222284   3.053   4.697   0.981
 7129SOL     OW22285   2.226   1.482   6.977
 7129SOL    HW122286   2.213   1.453   0.046
 7129SOL    HW222287   2.309   1.537   6.970
 7130SOL     OW22288   4.298   5.746   5.331
 7130SOL    HW122289   4.281   5.649   5.347
 7130SOL    HW222290   4.396   5.761   5.319
 7131SOL     OW22291   2.596   0.788   0.887
 7131SOL    HW122292   2.551   0.866   0.843
 7131SOL    HW222293   2.563   0.703   0.845
 7132SOL     OW22294   3.543   4.076   6.672
 7132SOL    HW122295   3.624   4.024   6.644
 7132SOL    HW222296   3.571   4.164   6.710
 7133SOL     OW22297   5.580   5.476   5.493
 7133SOL    HW122298   5.652   5.536   5.529
 7133SOL    HW222299   5.492   5.523   5.499
 7134SOL     OW22300   5.740   6.708   1.899
 7134SOL    HW122301   5.684   6.790   1.913
 7134SOL    HW222302   5.708   6.660   1.817
 7135SOL     OW22303   1.149   3.482   3.279
 7135SOL    HW122304   1.096   3.520   3.203
 7135SOL    HW222305   1.173   3.387   3.257
 7136SOL     OW22306   2.360   2.683   0.845
 7136SOL    HW122307   2.271   2.699   0.800
 7136SOL    HW222308   2.347   2.621   0.922
 7137SOL     OW22309   3.679   0.115   6.761
 7137SOL    HW122310   3.777   0.138   6.763
 7137SOL    HW222311   3.627   0.198   6.739
 7138SOL     OW22312   1.536   2.609   6.954
 7138SOL    HW122313   1.539   2.611   0.029
 7138SOL    HW222314   1.471   2.539   6.924
 7139SOL     OW22315   5.601   3.481   1.797
 7139SOL    HW122316   5.651   3.396   1.780
 7139SOL    HW222317   5.526   3.463   1.860
 7140SOL     OW22318   5.494   4.516   3.904
 7140SOL    HW122319   5.513   4.419   3.890
 7140SOL    HW222320   5.541   4.547   3.987
 7141SOL     OW22321   3.525   6.111   1.802
 7141SOL    HW122322   3.514   6.196   1.854
 7141SOL    HW222323   3.441   6.090   1.753
 7142SOL     OW22324   4.614   0.551   3.332
 7142SOL    HW122325   4.541   0.553   3.400
 7142SOL    HW222326   4.688   0.611   3.361
 7143SOL     OW22327   1.395   2.363   6.397
 7143SOL    HW122328   1.308   2.405   6.372
 7143SOL    HW222329   1.389   2.328   6.490
 7144SOL     OW22330   2.010   2.482   1.946
 7144SOL    HW122331   1.940   2.435   1.893
 7144SOL    HW222332   2.043   2.422   2.019
 7145SOL     OW22333   4.147   6.891   6.909
 7145SOL    HW122334   4.238   6.886   6.950
 7145SOL    HW222335   4.078   6.900   6.982
 7146SOL     OW22336   1.960   0.248   1.328
 7146SOL    HW122337   1.903   0.213   1.253
 7146SOL    HW222338   2.056   0.237   1.305
 7147SOL     OW22339   0.476   0.076   3.533
 7147SOL    HW122340   0.432   0.126   3.458
 7147SOL    HW222341   0.574   0.097   3.534
 7148SOL     OW22342   1.092   6.057   0.735
 7148SOL    HW122343   1.186   6.086   0.752
 7148SOL    HW222344   1.054   6.014   0.817
 7149SOL     OW22345   5.893   6.853   3.012
 7149SOL    HW122346   5.974   6.899   3.049
 7149SOL    HW222347   5.904   6.754   3.021
 7150SOL     OW22348   3.427   2.007   2.429
 7150SOL    HW122349   3.441   2.006   2.330
 7150SOL    HW222350   3.384   1.921   2.457
 7151SOL     OW22351   1.891   6.123   0.714
 7151SOL    HW122352   1.799   6.111   0.752
 7151SOL    HW222353   1.956   6.139   0.787
 7152SOL     OW22354   1.062   0.940   5.032
 7152SOL    HW122355   1.045   0.917   4.936
 7152SOL    HW222356   1.098   0.860   5.080
 7153SOL     OW22357   3.267   5.212   2.027
 7153SOL    HW122358   3.207   5.191   2.104
 7153SOL    HW222359   3.351   5.256   2.060
 7154SOL     OW22360   3.742   0.612   3.734
 7154SOL    HW122361   3.713   0.702   3.699
 7154SOL    HW222362   3.686   0.541   3.692
 7155SOL     OW22363   1.868   3.415   1.489
 7155SOL    HW122364   1.850   3.380   1.397
 7155SOL    HW222365   1.845   3.513   1.493
 7156SOL     OW22366   0.048   3.906   4.444
 7156SOL    HW122367   0.130   3.961   4.431
 7156SOL    HW222368   0.044   3.873   4.539
 7157SOL     OW22369   6.538   3.820   1.797
 7157SOL    HW122370   6.474   3.801   1.872
 7157SOL    HW222371   6.629   3.789   1.823
 7158SOL     OW22372   1.182   6.778   2.984
 7158SOL    HW122373   1.245   6.714   2.939
 7158SOL    HW222374   1.102   6.792   2.925
 7159SOL     OW22375   0.601   4.904   2.418
 7159SOL    HW122376   0.544   4.881   2.339
 7159SOL    HW222377   0.544   4.913   2.499
 7160SOL     OW22378   5.324   6.923   2.950
 7160SOL    HW122379   5.297   7.012   2.915
 7160SOL    HW222380   5.245   6.862   2.952
 7161SOL     OW22381   3.054   3.652   4.379
 7161SOL    HW122382   3.024   3.746   4.398
 7161SOL    HW222383   3.118   3.623   4.449
 7162SOL     OW22384   1.515   5.354   6.428
 7162SOL    HW122385   1.448   5.323   6.496
 7162SOL    HW222386   1.504   5.451   6.411
 7163SOL     OW22387   2.589   6.273   3.140
 7163SOL    HW122388   2.524   6.206   3.104
 7163SOL    HW222389   2.541   6.340   3.196
 7164SOL     OW22390   1.776   0.747   3.489
 7164SOL    HW122391   1.683   0.722   3.516
 7164SOL    HW222392   1.832   0.665   3.478
 7165SOL     OW22393   6.906   1.362   2.048
 7165SOL    HW122394   7.004   1.365   2.069
 7165SOL    HW222395   6.863   1.285   2.095
 7166SOL     OW22396   6.075   2.684   0.585
 7166SOL    HW122397   6.164   2.649   0.614
 7166SOL    HW222398   6.011   2.678   0.661
 7167SOL     OW22399   5.418   3.341   3.839
 7167SOL    HW122400   5.439   3.438   3.831
 7167SOL    HW222401   5.340   3.328   3.901
 7168SOL     OW22402   1.738   2.758   3.320
 7168SOL    HW122403   1.828   2.725   3.293
 7168SOL    HW222404   1.669   2.723   3.256
 7169SOL     OW22405   6.816   2.543   4.899
 7169SOL    HW122406   6.911   2.515   4.913
 7169SOL    HW222407   6.809   2.642   4.905
 7170SOL     OW22408   5.072   6.234   3.636
 7170SOL    HW122409   5.012   6.200   3.708
 7170SOL    HW222410   5.033   6.212   3.546
 7171SOL     OW22411   4.985   3.532   0.143
 7171SOL    HW122412   5.048   3.518   0.067
 7171SOL    HW222413   5.022   3.489   0.226
 7172SOL     OW22414   1.390   0.210   5.110
 7172SOL    HW122415   1.334   0.159   5.045
 7172SOL    HW222416   1.342   0.217   5.197
 7173SOL     OW22417   0.100   4.345   6.070
 7173SOL    HW122418   0.143   4.353   6.160
 7173SOL    HW222419   0.152   4.281   6.014
 7174SOL     OW22420   0.524   4.511   0.294
 7174SOL    HW122421   0.602   4.475   0.345
 7174SOL    HW222422   0.475   4.578   0.349
 7175SOL     OW22423   5.431   2.397   6.612
 7175SOL    HW122424   5.355   2.336   6.637
 7175SOL    HW222425   5.513   2.368   6.660
 7176SOL     OW22426   0.675   6.871   3.095
 7176SOL    HW122427   0.593   6.814   3.100
 7176SOL    HW222428   0.712   6.869   3.002
 7177SOL     OW22429   1.842   5.608   4.584
 7177SOL    HW122430   1.899   5.645   4.657
 7177SOL    HW222431   1.882   5.632   4.495
 7178SOL     OW22432   2.505   2.330   5.723
 7178SOL    HW122433   2.560   2.334   5.640
 7178SOL    HW222434   2.508   2.238   5.761
 7179SOL     OW22435   1.927   3.672   4.193
 7179SOL    HW122436   2.010   3.660   4.247
 7179SOL    HW222437   1.891   3.764   4.207
 7180SOL     OW22438   2.653   5.242   0.293
 7180SOL    HW122439   2.581   5.181   0.324
 7180SOL    HW222440   2.738   5.221   0.342
 7181SOL     OW22441   2.160   6.192   0.057
 7181SOL    HW122442   2.235   6.133   0.085
 7181SOL    HW222443   2.122   6.240   0.137
 7182SOL     OW22444   1.324   2.602   5.033
 7182SOL    HW122445   1.420   2.628   5.030
 7182SOL    HW222446   1.299   2.561   4.945
 7183SOL     OW22447   2.368   5.986   0.532
 7183SOL    HW122448   2.420   6.045   0.470
 7183SOL    HW222449   2.331   6.040   0.607
 7184SOL     OW22450   6.496   1.170   3.229
 7184SOL    HW122451   6.520   1.121   3.313
 7184SOL    HW222452   6.459   1.260   3.253
 7185SOL     OW22453   5.228   0.601   4.991
 7185SOL    HW122454   5.144   0.654   5.006
 7185SOL    HW222455   5.223   0.515   5.041
 7186SOL     OW22456   6.441   1.015   6.726
 7186SOL    HW122457   6.507   0.941   6.736
 7186SOL    HW222458   6.358   0.994   6.778
 7187SOL     OW22459   3.318   4.826   6.412
 7187SOL    HW122460   3.396   4.872   6.455
 7187SOL    HW222461   3.236   4.839   6.467
 7188SOL     OW22462   6.714   0.385   0.687
 7188SOL    HW122463   6.687   0.433   0.603
 7188SOL    HW222464   6.678   0.292   0.684
 7189SOL     OW22465   0.250   1.391   5.952
 7189SOL    HW122466   0.286   1.298   5.948
 7189SOL    HW222467   0.271   1.432   6.041
 7190SOL     OW22468   0.284   3.706   2.850
 7190SOL    HW122469   0.320   3.762   2.925
 7190SOL    HW222470   0.262   3.764   2.772
 7191SOL     OW22471   0.757   4.079   2.974
 7191SOL    HW122472   0.738   3.981   2.975
 7191SOL    HW222473   0.674   4.130   2.994
 7192SOL     OW22474   3.520   4.829   5.571
 7192SOL    HW122475   3.548   4.910   5.520
 7192SOL    HW222476   3.439   4.790   5.529
 7193SOL     OW22477   2.002   2.746   2.022
 7193SOL    HW122478   1.983   2.657   1.980
 7193SOL    HW222479   2.039   2.732   2.114
 7194SOL     OW22480   2.820   1.937   0.358
 7194SOL    HW122481   2.836   1.929   0.259
 7194SOL    HW222482   2.773   2.024   0.377
 7195SOL     OW22483   0.062   4.263   0.226
 7195SOL    HW122484   0.080   4.211   0.143
 7195SOL    HW222485   0.100   4.214   0.305
 7196SOL     OW22486   3.667   4.176   1.152
 7196SOL    HW122487   3.592   4.176   1.086
 7196SOL    HW222488   3.657   4.099   1.214
 7197SOL     OW22489   0.793   2.719   5.617
 7197SOL    HW122490   0.805   2.739   5.714
 7197SOL    HW222491   0.706   2.671   5.603
 7198SOL     OW22492   0.636   0.617   0.089
 7198SOL    HW122493   0.694   0.698   0.084
 7198SOL    HW222494   0.575   0.625   0.168
 7199SOL     OW22495   2.100   0.873   2.870
 7199SOL    HW122496   2.110   0.870   2.771
 7199SOL    HW222497   2.119   0.783   2.909
 7200SOL     OW22498   2.644   2.065   0.034
 7200SOL    HW122499   2.668   2.112   6.975
 7200SOL    HW222500   2.723   2.013   0.067
 7201SOL     OW22501   1.152   5.663   4.088
 7201SOL    HW122502   1.061   5.635   4.119
 7201SOL    HW222503   1.193   5.723   4.157
 7202SOL     OW22504   4.364   0.486   5.906
 7202SOL    HW122505   4.452   0.525   5.934
 7202SOL    HW222506   4.344   0.516   5.812
 7203SOL     OW22507   0.193   1.678   1.054
 7203SOL    HW122508   0.191   1.733   1.138
 7203SOL    HW222509   0.149   1.590   1.071
 7204SOL     OW22510   0.611   0.138   5.499
 7204SOL    HW122511   0.525   0.089   5.492
 7204SOL    HW222512   0.595   0.236   5.485
 7205SOL     OW22513   0.748   5.515   3.618
 7205SOL    HW122514   0.674   5.448   3.616
 7205SOL    HW222515   0.711   5.605   3.641
 7206SOL     OW22516   1.619   0.378   1.382
 7206SOL    HW122517   1.705   0.414   1.417
 7206SOL    HW222518   1.582   0.441   1.313
 7207SOL     OW22519   3.587   0.719   2.684
 7207SOL    HW122520   3.508   0.681   2.731
 7207SOL    HW222521   3.657   0.744   2.751
 7208SOL     OW22522   3.760   6.876   3.391
 7208SOL    HW122523   3.680   6.825   3.424
 7208SOL    HW222524   3.779   6.850   3.297
 7209SOL     OW22525   2.989   3.457   1.962
 7209SOL    HW122526   3.006   3.555   1.975
 7209SOL    HW222527   2.922   3.444   1.889
 7210SOL     OW22528   4.791   0.615   3.891
 7210SOL    HW122529   4.743   0.640   3.808
 7210SOL    HW222530   4.753   0.530   3.928
 7211SOL     OW22531   2.878   6.094   3.875
 7211SOL    HW122532   2.935   6.127   3.800
 7211SOL    HW222533   2.901   6.141   3.959
 7212SOL     OW22534   0.332   6.214   5.027
 7212SOL    HW122535   0.412   6.273   5.017
 7212SOL    HW222536   0.357   6.134   5.082
 7213SOL     OW22537   5.272   6.982   0.490
 7213SOL    HW122538   5.321   6.914   0.545
 7213SOL    HW222539   5.257   6.945   0.398
 7214SOL     OW22540   6.948   4.909   5.515
 7214SOL    HW122541   6.854   4.876   5.503
 7214SOL    HW222542   6.952   5.007   5.496
 7215SOL     OW22543   6.970   3.431   5.464
 7215SOL    HW122544   6.994   3.458   5.371
 7215SOL    HW222545   0.024   3.443   5.524
 7216SOL     OW22546   3.597   6.420   6.558
 7216SOL    HW122547   3.523   6.382   6.613
 7216SOL    HW222548   3.636   6.349   6.500
 7217SOL     OW22549   2.846   4.803   3.024
 7217SOL    HW122550   2.801   4.720   2.992
 7217SOL    HW222551   2.846   4.805   3.124
 7218SOL     OW22552   4.848   2.627   5.414
 7218SOL    HW122553   4.810   2.715   5.386
 7218SOL    HW222554   4.947   2.629   5.405
 7219SOL     OW22555   4.651   6.921   4.665
 7219SOL    HW122556   4.611   7.003   4.624
 7219SOL    HW222557   4.721   6.884   4.604
 7220SOL     OW22558   0.854   5.398   5.285
 7220SOL    HW122559   0.894   5.456   5.214
 7220SOL    HW222560   0.911   5.317   5.297
 7221SOL     OW22561   3.972   5.742   4.272
 7221SOL    HW122562   3.953   5.818   4.210
 7221SOL    HW222563   4.043   5.684   4.232
 7222SOL     OW22564   6.079   0.204   2.700
 7222SOL    HW122565   6.134   0.128   2.735
 7222SOL    HW222566   6.048   0.261   2.776
 7223SOL     OW22567   2.919   1.943   1.502
 7223SOL    HW122568   2.914   1.987   1.412
 7223SOL    HW222569   2.904   2.012   1.573
 7224SOL     OW22570   5.731   1.990   3.725
 7224SOL    HW122571   5.771   1.969   3.635
 7224SOL    HW222572   5.735   1.908   3.782
 7225SOL     OW22573   0.812   5.684   0.357
 7225SOL    HW122574   0.896   5.736   0.368
 7225SOL    HW222575   0.784   5.646   0.445
 7226SOL     OW22576   6.964   0.874   1.399
 7226SOL    HW122577   6.936   0.786   1.437
 7226SOL    HW222578   0.027   0.864   1.354
 7227SOL     OW22579   1.568   2.070   1.081
 7227SOL    HW122580   1.553   1.985   1.029
 7227SOL    HW222581   1.537   2.148   1.027
 7228SOL     OW22582   0.492   1.612   2.314
 7228SOL    HW122583   0.570   1.642   2.260
 7228SOL    HW222584   0.429   1.560   2.256
 7229SOL     OW22585   1.541   6.454   5.589
 7229SOL    HW122586   1.536   6.361   5.624
 7229SOL    HW222587   1.497   6.517   5.653
 7230SOL     OW22588   4.738   5.125   4.351
 7230SOL    HW122589   4.733   5.093   4.256
 7230SOL    HW222590   4.790   5.210   4.354
 7231SOL     OW22591   4.956   0.394   0.352
 7231SOL    HW122592   4.974   0.346   0.437
 7231SOL    HW222593   4.895   0.339   0.295
 7232SOL     OW22594   5.058   5.552   3.052
 7232SOL    HW122595   5.038   5.560   3.150
 7232SOL    HW222596   5.073   5.644   3.014
 7233SOL     OW22597   0.418   2.645   4.345
 7233SOL    HW122598   0.456   2.663   4.436
 7233SOL    HW222599   0.492   2.626   4.281
 7234SOL     OW22600   5.347   3.294   3.355
 7234SOL    HW122601   5.396   3.229   3.296
 7234SOL    HW222602   5.339   3.255   3.447
 7235SOL     OW22603   6.780   4.126   2.147
 7235SOL    HW122604   6.723   4.199   2.186
 7235SOL    HW222605   6.737   4.092   2.063
 7236SOL     OW22606   2.125   2.228   2.110
 7236SOL    HW122607   2.181   2.252   2.189
 7236SOL    HW222608   2.184   2.217   2.030
 7237SOL     OW22609   5.233   0.947   4.772
 7237SOL    HW122610   5.309   0.959   4.836
 7237SOL    HW222611   5.170   1.024   4.780
 7238SOL     OW22612   3.061   1.703   0.955
 7238SOL    HW122613   3.007   1.760   1.016
 7238SOL    HW222614   3.105   1.630   1.007
 7239SOL     OW22615   1.817   2.493   2.351
 7239SOL    HW122616   1.854   2.537   2.432
 7239SOL    HW222617   1.830   2.394   2.358
 7240SOL     OW22618   2.799   4.872   6.131
 7240SOL    HW122619   2.804   4.966   6.097
 7240SOL    HW222620   2.758   4.814   6.061
 7241SOL     OW22621   2.543   1.023   0.791
 7241SOL    HW122622   2.463   1.064   0.747
 7241SOL    HW222623   2.624   1.041   0.736
 7242SOL     OW22624   6.519   5.844   0.454
 7242SOL    HW122625   6.592   5.802   0.400
 7242SOL    HW222626   6.444   5.871   0.394
 7243SOL     OW22627   6.268   4.913   5.925
 7243SOL    HW122628   6.351   4.941   5.972
 7243SOL    HW222629   6.283   4.916   5.826
 7244SOL     OW22630   6.131   0.369   0.962
 7244SOL    HW122631   6.204   0.388   1.029
 7244SOL    HW222632   6.107   0.453   0.914
 7245SOL     OW22633   0.807   2.051   5.053
 7245SOL    HW122634   0.758   2.065   4.967
 7245SOL    HW222635   0.850   2.137   5.080
 7246SOL     OW22636   6.301   0.441   4.088
 7246SOL    HW122637   6.211   0.458   4.128
 7246SOL    HW222638   6.347   0.368   4.140
 7247SOL     OW22639   3.183   6.963   4.048
 7247SOL    HW122640   3.283   6.965   4.048
 7247SOL    HW222641   3.148   7.025   3.978
 7248SOL     OW22642   3.251   1.325   3.694
 7248SOL    HW122643   3.192   1.392   3.650
 7248SOL    HW222644   3.271   1.251   3.630
 7249SOL     OW22645   5.856   4.337   1.951
 7249SOL    HW122646   5.815   4.418   1.909
 7249SOL    HW222647   5.792   4.260   1.944
 7250SOL     OW22648   3.735   6.673   6.554
 7250SOL    HW122649   3.659   6.615   6.583
 7250SOL    HW222650   3.820   6.621   6.558
 7251SOL     OW22651   0.379   0.017   5.490
 7251SOL    HW122652   0.329   7.019   5.407
 7251SOL    HW222653   0.329   7.008   5.570
 7252SOL     OW22654   3.201   3.299   3.069
 7252SOL    HW122655   3.134   3.255   3.009
 7252SOL    HW222656   3.202   3.252   3.157
 7253SOL     OW22657   2.795   5.945   6.396
 7253SOL    HW122658   2.768   5.853   6.422
 7253SOL    HW222659   2.840   5.990   6.474
 7254SOL     OW22660   4.353   5.475   4.462
 7254SOL    HW122661   4.444   5.501   4.429
 7254SOL    HW222662   4.362   5.419   4.544
 7255SOL     OW22663   4.160   3.977   1.255
 7255SOL    HW122664   4.133   3.951   1.348
 7255SOL    HW222665   4.088   4.033   1.214
 7256SOL     OW22666   4.168   4.753   4.445
 7256SOL    HW122667   4.192   4.846   4.472
 7256SOL    HW222668   4.077   4.730   4.482
 7257SOL     OW22669   4.918   3.373   4.090
 7257SOL    HW122670   4.886   3.280   4.108
 7257SOL    HW222671   4.953   3.413   4.175
 7258SOL     OW22672   4.267   0.744   2.793
 7258SOL    HW122673   4.315   0.725   2.879
 7258SOL    HW222674   4.184   0.795   2.813
 7259SOL     OW22675   3.201   3.522   1.193
 7259SOL    HW122676   3.212   3.573   1.108
 7259SOL    HW222677   3.290   3.491   1.226
 7260SOL     OW22678   2.917   2.134   2.564
 7260SOL    HW122679   2.931   2.232   2.547
 7260SOL    HW222680   3.005   2.087   2.561
 7261SOL     OW22681   1.941   2.888   1.386
 7261SOL    HW122682   2.002   2.813   1.364
 7261SOL    HW222683   1.972   2.933   1.470
 7262SOL     OW22684   5.394   1.853   4.798
 7262SOL    HW122685   5.390   1.914   4.719
 7262SOL    HW222686   5.485   1.813   4.805
 7263SOL     OW22687   0.591   6.468   2.044
 7263SOL    HW122688   0.522   6.527   2.085
 7263SOL    HW222689   0.665   6.452   2.110
 7264SOL     OW22690   5.722   1.184   6.581
 7264SOL    HW122691   5.683   1.275   6.571
 7264SOL    HW222692   5.708   1.151   6.674
 7265SOL     OW22693   5.233   5.772   5.934
 7265SOL    HW122694   5.324   5.758   5.895
 7265SOL    HW222695   5.185   5.685   5.938
 7266SOL     OW22696   4.789   0.500   1.460
 7266SOL    HW122697   4.704   0.503   1.407
 7266SOL    HW222698   4.767   0.498   1.558
 7267SOL     OW22699   6.926   5.708   5.275
 7267SOL    HW122700   6.916   5.673   5.368
 7267SOL    HW222701   6.836   5.730   5.238
 7268SOL     OW22702   4.162   4.695   2.936
 7268SOL    HW122703   4.252   4.733   2.957
 7268SOL    HW222704   4.147   4.700   2.837
 7269SOL     OW22705   0.165   5.930   1.325
 7269SOL    HW122706   0.176   5.999   1.396
 7269SOL    HW222707   0.254   5.892   1.301
 7270SOL     OW22708   1.021   3.397   4.959
 7270SOL    HW122709   0.972   3.312   4.974
 7270SOL    HW222710   1.114   3.389   4.994
 7271SOL     OW22711   0.760   4.958   3.943
 7271SOL    HW122712   0.752   4.991   4.037
 7271SOL    HW222713   0.773   4.859   3.944
 7272SOL     OW22714   5.542   4.643   2.216
 7272SOL    HW122715   5.465   4.580   2.201
 7272SOL    HW222716   5.571   4.681   2.128
 7273SOL     OW22717   4.835   4.686   2.347
 7273SOL    HW122718   4.793   4.752   2.285
 7273SOL    HW222719   4.782   4.601   2.347
 7274SOL     OW22720   0.995   6.370   0.276
 7274SOL    HW122721   0.932   6.371   0.354
 7274SOL    HW222722   0.996   6.279   0.234
 7275SOL     OW22723   0.146   0.898   2.431
 7275SOL    HW122724   0.215   0.850   2.485
 7275SOL    HW222725   0.071   0.928   2.491
 7276SOL     OW22726   3.909   1.203   3.165
 7276SOL    HW122727   3.850   1.122   3.168
 7276SOL    HW222728   3.884   1.265   3.240
 7277SOL     OW22729   5.034   1.142   4.254
 7277SOL    HW122730   5.065   1.195   4.175
 7277SOL    HW222731   5.022   1.204   4.332
 7278SOL     OW22732   3.334   2.093   1.889
 7278SOL    HW122733   3.422   2.068   1.929
 7278SOL    HW222734   3.260   2.071   1.953
 7279SOL     OW22735   4.023   2.824   6.235
 7279SOL    HW122736   3.927   2.848   6.254
 7279SOL    HW222737   4.078   2.843   6.316
 7280SOL     OW22738   6.895   2.044   4.068
 7280SOL    HW122739   6.981   2.057   4.019
 7280SOL    HW222740   6.845   2.130   4.072
 7281SOL     OW22741   2.069   0.666   0.388
 7281SOL    HW122742   2.000   0.630   0.325
 7281SOL    HW222743   2.056   0.627   0.479
 7282SOL     OW22744   6.475   6.616   0.340
 7282SOL    HW122745   6.451   6.699   0.290
 7282SOL    HW222746   6.564   6.628   0.384
 7283SOL     OW22747   3.233   6.985   1.949
 7283SOL    HW122748   3.166   7.024   1.885
 7283SOL    HW222749   3.314   0.018   1.952
 7284SOL     OW22750   0.045   2.927   4.788
 7284SOL    HW122751   0.035   2.877   4.874
 7284SOL    HW222752   0.037   2.863   4.712
 7285SOL     OW22753   5.770   3.697   1.730
 7285SOL    HW122754   5.719   3.621   1.769
 7285SOL    HW222755   5.798   3.674   1.637
 7286SOL     OW22756   0.965   0.304   1.389
 7286SOL    HW122757   0.938   0.274   1.297
 7286SOL    HW222758   0.927   0.241   1.457
 7287SOL     OW22759   6.690   3.340   4.638
 7287SOL    HW122760   6.696   3.439   4.630
 7287SOL    HW222761   6.720   3.297   4.553
 7288SOL     OW22762   0.872   2.072   1.424
 7288SOL    HW122763   0.907   2.043   1.335
 7288SOL    HW222764   0.946   2.112   1.478
 7289SOL     OW22765   6.288   1.862   2.976
 7289SOL    HW122766   6.221   1.858   3.050
 7289SOL    HW222767   6.314   1.769   2.949
 7290SOL     OW22768   2.983   0.795   5.751
 7290SOL    HW122769   3.078   0.773   5.775
 7290SOL    HW222770   2.982   0.839   5.661
 7291SOL     OW22771   2.376   6.871   1.153
 7291SOL    HW122772   2.455   6.810   1.144
 7291SOL    HW222773   2.406   6.960   1.188
 7292SOL     OW22774   2.817   0.130   2.728
 7292SOL    HW122775   2.878   0.053   2.710
 7292SOL    HW222776   2.815   0.149   2.827
 7293SOL     OW22777   1.798   0.832   6.236
 7293SOL    HW122778   1.862   0.908   6.222
 7293SOL    HW222779   1.706   0.861   6.211
 7294SOL     OW22780   3.067   3.921   0.647
 7294SOL    HW122781   3.033   3.864   0.722
 7294SOL    HW222782   3.160   3.893   0.624
 7295SOL     OW22783   6.642   4.837   1.568
 7295SOL    HW122784   6.548   4.867   1.584
 7295SOL    HW222785   6.691   4.836   1.655
 7296SOL     OW22786   4.537   5.152   2.893
 7296SOL    HW122787   4.450   5.146   2.843
 7296SOL    HW222788   4.519   5.179   2.987
 7297SOL     OW22789   2.669   6.965   2.028
 7297SOL    HW122790   2.751   6.971   1.971
 7297SOL    HW222791   2.603   0.008   1.998
 7298SOL     OW22792   5.089   5.816   6.784
 7298SOL    HW122793   5.152   5.821   6.706
 7298SOL    HW222794   5.128   5.865   6.862
 7299SOL     OW22795   0.513   1.740   0.481
 7299SOL    HW122796   0.545   1.831   0.505
 7299SOL    HW222797   0.478   1.740   0.388
 7300SOL     OW22798   0.198   5.693   2.369
 7300SOL    HW122799   0.255   5.774   2.358
 7300SOL    HW222800   0.184   5.674   2.466
 7301SOL     OW22801   6.292   2.191   5.972
 7301SOL    HW122802   6.386   2.175   5.942
 7301SOL    HW222803   6.231   2.187   5.893
 7302SOL     OW22804   0.409   2.133   5.801
 7302SOL    HW122805   0.371   2.133   5.708
 7302SOL    HW222806   0.334   2.134   5.867
 7303SOL     OW22807   3.696   0.655   6.867
 7303SOL    HW122808   3.718   0.574   6.920
 7303SOL    HW222809   3.647   0.628   6.784
 7304SOL     OW22810   2.628   5.772   1.677
 7304SOL    HW122811   2.618   5.759   1.776
 7304SOL    HW222812   2.540   5.759   1.632
 7305SOL     OW22813   5.864   1.809   1.477
 7305SOL    HW122814   5.801   1.872   1.522
 7305SOL    HW222815   5.867   1.828   1.379
 7306SOL     OW22816   3.656   1.530   1.668
 7306SOL    HW122817   3.627   1.616   1.710
 7306SOL    HW222818   3.750   1.539   1.636
 7307SOL     OW22819   4.147   0.092   2.095
 7307SOL    HW122820   4.241   0.085   2.127
 7307SOL    HW222821   4.127   0.015   2.034
 7308SOL     OW22822   6.288   1.396   3.760
 7308SOL    HW122823   6.192   1.402   3.787
 7308SOL    HW222824   6.328   1.313   3.797
 7309SOL     OW22825   2.758   0.221   1.639
 7309SOL    HW122826   2.740   0.131   1.600
 7309SOL    HW222827   2.834   0.264   1.591
 7310SOL     OW22828   1.750   3.430   6.485
 7310SOL    HW122829   1.799   3.468   6.407
 7310SOL    HW222830   1.814   3.408   6.558
 7311SOL     OW22831   1.041   0.398   0.342
 7311SOL    HW122832   1.138   0.381   0.362
 7311SOL    HW222833   0.998   0.442   0.421
 7312SOL     OW22834   1.032   1.885   4.675
 7312SOL    HW122835   1.021   1.873   4.774
 7312SOL    HW222836   1.117   1.935   4.657
 7313SOL     OW22837   2.313   1.414   0.884
 7313SOL    HW122838   2.407   1.382   0.892
 7313SOL    HW222839   2.291   1.472   0.962
 7314SOL     OW22840   0.226   4.183   5.872
 7314SOL    HW122841   0.312   4.235   5.874
 7314SOL    HW222842   0.192   4.180   5.777
 7315SOL     OW22843   5.360   5.830   2.114
 7315SOL    HW122844   5.291   5.787   2.056
 7315SOL    HW222845   5.400   5.762   2.176
 7316SOL     OW22846   3.384   2.517   6.179
 7316SOL    HW122847   3.293   2.478   6.194
 7316SOL    HW222848   3.408   2.511   6.082
 7317SOL     OW22849   3.677   1.579   2.054
 7317SOL    HW122850   3.741   1.622   2.117
 7317SOL    HW222851   3.587   1.622   2.063
 7318SOL     OW22852   3.233   6.603   3.402
 7318SOL    HW122853   3.291   6.652   3.337
 7318SOL    HW222854   3.139   6.604   3.370
 7319SOL     OW22855   6.095   3.180   6.460
 7319SOL    HW122856   6.109   3.247   6.533
 7319SOL    HW222857   6.056   3.225   6.380
 7320SOL     OW22858   0.587   3.607   6.918
 7320SOL    HW122859   0.529   3.614   6.837
 7320SOL    HW222860   0.567   3.521   6.966
 7321SOL     OW22861   2.235   6.752   5.916
 7321SOL    HW122862   2.283   6.818   5.975
 7321SOL    HW222863   2.222   6.792   5.826
 7322SOL     OW22864   6.978   2.845   2.664
 7322SOL    HW122865   6.943   2.757   2.631
 7322SOL    HW222866   0.001   2.891   2.589
 7323SOL     OW22867   2.814   2.972   1.269
 7323SOL    HW122868   2.799   2.909   1.193
 7323SOL    HW222869   2.806   2.923   1.355
 7324SOL     OW22870   6.171   4.919   2.615
 7324SOL    HW122871   6.104   4.891   2.546
 7324SOL    HW222872   6.123   4.963   2.691
 7325SOL     OW22873   2.610   0.073   5.086
 7325SOL    HW122874   2.517   0.055   5.118
 7325SOL    HW222875   2.629   0.171   5.090
 7326SOL     OW22876   3.265   0.330   6.190
 7326SOL    HW122877   3.277   0.385   6.272
 7326SOL    HW222878   3.299   0.237   6.207
 7327SOL     OW22879   5.545   3.115   3.941
 7327SOL    HW122880   5.510   3.201   3.904
 7327SOL    HW222881   5.597   3.133   4.025
 7328SOL     OW22882   4.310   6.367   5.458
 7328SOL    HW122883   4.285   6.401   5.549
 7328SOL    HW222884   4.404   6.394   5.437
 7329SOL     OW22885   1.424   2.873   0.464
 7329SOL    HW122886   1.403   2.967   0.488
 7329SOL    HW222887   1.472   2.828   0.540
 7330SOL     OW22888   2.297   2.956   0.953
 7330SOL    HW122889   2.314   3.014   0.874
 7330SOL    HW222890   2.352   2.872   0.945
 7331SOL     OW22891   5.133   6.230   2.023
 7331SOL    HW122892   5.048   6.283   2.027
 7331SOL    HW222893   5.147   6.196   1.930
 7332SOL     OW22894   3.586   4.315   6.835
 7332SOL    HW122895   3.634   4.271   6.911
 7332SOL    HW222896   3.530   4.390   6.871
 7333SOL     OW22897   5.865   3.225   2.544
 7333SOL    HW122898   5.772   3.216   2.578
 7333SOL    HW222899   5.922   3.267   2.615
 7334SOL     OW22900   2.649   5.418   5.538
 7334SOL    HW122901   2.654   5.334   5.485
 7334SOL    HW222902   2.586   5.482   5.493
 7335SOL     OW22903   0.177   2.508   3.465
 7335SOL    HW122904   0.158   2.505   3.367
 7335SOL    HW222905   0.171   2.603   3.497
 7336SOL     OW22906   2.284   6.646   1.506
 7336SOL    HW122907   2.228   6.580   1.556
 7336SOL    HW222908   2.229   6.689   1.435
 7337SOL     OW22909   2.038   2.988   1.076
 7337SOL    HW122910   2.036   3.001   1.176
 7337SOL    HW222911   2.133   2.974   1.047
 7338SOL     OW22912   5.852   1.564   1.577
 7338SOL    HW122913   5.864   1.496   1.505
 7338SOL    HW222914   5.896   1.649   1.551
 7339SOL     OW22915   6.776   0.604   5.297
 7339SOL    HW122916   6.796   0.701   5.281
 7339SOL    HW222917   6.862   0.554   5.311
 7340SOL     OW22918   3.709   2.242   6.794
 7340SOL    HW122919   3.807   2.232   6.779
 7340SOL    HW222920   3.690   2.247   6.892
 7341SOL     OW22921   1.327   5.133   5.445
 7341SOL    HW122922   1.376   5.136   5.358
 7341SOL    HW222923   1.389   5.101   5.517
 7342SOL     OW22924   5.754   6.719   6.821
 7342SOL    HW122925   5.799   6.806   6.802
 7342SOL    HW222926   5.789   6.649   6.758
 7343SOL     OW22927   5.914   3.262   1.978
 7343SOL    HW122928   5.837   3.233   1.921
 7343SOL    HW222929   5.944   3.186   2.035
 7344SOL     OW22930   2.316   6.875   6.151
 7344SOL    HW122931   2.390   6.918   6.099
 7344SOL    HW222932   2.347   6.859   6.245
 7345SOL     OW22933   5.473   5.899   5.699
 7345SOL    HW122934   5.552   5.953   5.729
 7345SOL    HW222935   5.441   5.934   5.611
 7346SOL     OW22936   3.443   4.194   1.000
 7346SOL    HW122937   3.394   4.130   0.940
 7346SOL    HW222938   3.395   4.200   1.088
 7347SOL     OW22939   6.558   2.866   1.335
 7347SOL    HW122940   6.485   2.933   1.324
 7347SOL    HW222941   6.526   2.777   1.302
 7348SOL     OW22942   1.488   3.422   3.623
 7348SOL    HW122943   1.532   3.476   3.696
 7348SOL    HW222944   1.422   3.480   3.574
 7349SOL     OW22945   3.899   1.707   1.360
 7349SOL    HW122946   3.971   1.645   1.328
 7349SOL    HW222947   3.848   1.743   1.281
 7350SOL     OW22948   1.451   3.739   3.954
 7350SOL    HW122949   1.533   3.683   3.941
 7350SOL    HW222950   1.383   3.714   3.886
 7351SOL     OW22951   3.991   5.269   6.032
 7351SOL    HW122952   3.905   5.312   6.004
 7351SOL    HW222953   4.023   5.207   5.959
 7352SOL     OW22954   1.591   3.325   2.962
 7352SOL    HW122955   1.556   3.234   2.985
 7352SOL    HW222956   1.663   3.350   3.027
 7353SOL     OW22957   0.287   0.580   5.753
 7353SOL    HW122958   0.326   0.499   5.798
 7353SOL    HW222959   0.338   0.598   5.669
 7354SOL     OW22960   0.825   1.505   6.268
 7354SOL    HW122961   0.891   1.483   6.341
 7354SOL    HW222962   0.873   1.547   6.192
 7355SOL     OW22963   1.638   0.247   0.284
 7355SOL    HW122964   1.731   0.217   0.263
 7355SOL    HW222965   1.573   0.201   0.224
 7356SOL     OW22966   5.023   2.777   6.482
 7356SOL    HW122967   5.102   2.718   6.464
 7356SOL    HW222968   4.960   2.731   6.544
 7357SOL     OW22969   4.526   0.954   1.596
 7357SOL    HW122970   4.625   0.967   1.600
 7357SOL    HW222971   4.481   1.044   1.593
 7358SOL     OW22972   1.908   2.078   2.119
 7358SOL    HW122973   1.993   2.130   2.112
 7358SOL    HW222974   1.852   2.094   2.038
 7359SOL     OW22975   3.076   2.813   0.593
 7359SOL    HW122976   3.029   2.752   0.530
 7359SOL    HW222977   3.050   2.791   0.687
 7360SOL     OW22978   3.572   2.539   5.734
 7360SOL    HW122979   3.593   2.496   5.646
 7360SOL    HW222980   3.654   2.540   5.790
 7361SOL     OW22981   4.249   0.040   1.774
 7361SOL    HW122982   4.183   0.112   1.796
 7361SOL    HW222983   4.283   0.054   1.681
 7362SOL     OW22984   0.601   6.710   4.684
 7362SOL    HW122985   0.606   6.622   4.636
 7362SOL    HW222986   0.617   6.695   4.782
 7363SOL     OW22987   3.713   1.889   1.175
 7363SOL    HW122988   3.747   1.880   1.082
 7363SOL    HW222989   3.625   1.844   1.183
 7364SOL     OW22990   4.352   0.187   1.587
 7364SOL    HW122991   4.352   0.245   1.505
 7364SOL    HW222992   4.315   0.239   1.664
 7365SOL     OW22993   1.754   6.212   2.105
 7365SOL    HW122994   1.750   6.297   2.052
 7365SOL    HW222995   1.684   6.149   2.073
 7366SOL     OW22996   1.530   5.425   0.467
 7366SOL    HW122997   1.518   5.422   0.368
 7366SOL    HW222998   1.447   5.391   0.512
 7367SOL     OW22999   4.912   4.198   1.348
 7367SOL    HW123000   4.968   4.243   1.278
 7367SOL    HW223001   4.866   4.268   1.403
 7368SOL     OW23002   3.632   2.926   4.154
 7368SOL    HW123003   3.660   2.907   4.248
 7368SOL    HW223004   3.642   3.024   4.136
 7369SOL     OW23005   4.646   3.054   0.865
 7369SOL    HW123006   4.706   2.999   0.923
 7369SOL    HW223007   4.581   3.104   0.921
 7370SOL     OW23008   2.199   0.609   5.126
 7370SOL    HW123009   2.296   0.624   5.105
 7370SOL    HW223010   2.142   0.652   5.056
 7371SOL     OW23011   2.074   6.208   3.807
 7371SOL    HW123012   2.053   6.164   3.894
 7371SOL    HW223013   2.152   6.270   3.819
 7372SOL     OW23014   2.415   1.082   5.756
 7372SOL    HW123015   2.394   1.034   5.671
 7372SOL    HW223016   2.433   1.178   5.737
 7373SOL     OW23017   5.757   1.609   4.078
 7373SOL    HW123018   5.742   1.528   4.021
 7373SOL    HW223019   5.736   1.691   4.024
 7374SOL     OW23020   2.884   2.415   5.252
 7374SOL    HW123021   2.973   2.383   5.219
 7374SOL    HW223022   2.821   2.424   5.175
 7375SOL     OW23023   1.585   2.807   3.562
 7375SOL    HW123024   1.614   2.769   3.475
 7375SOL    HW223025   1.494   2.846   3.553
 7376SOL     OW23026   4.102   1.752   0.442
 7376SOL    HW123027   4.199   1.739   0.421
 7376SOL    HW223028   4.064   1.823   0.383
 7377SOL     OW23029   5.626   5.725   1.825
 7377SOL    HW123030   5.657   5.649   1.881
 7377SOL    HW223031   5.564   5.690   1.754
 7378SOL     OW23032   6.961   1.636   5.039
 7378SOL    HW123033   7.013   1.696   4.979
 7378SOL    HW223034   6.863   1.656   5.030
 7379SOL     OW23035   4.198   2.180   3.304
 7379SOL    HW123036   4.140   2.186   3.385
 7379SOL    HW223037   4.209   2.083   3.279
 7380SOL     OW23038   6.579   3.085   5.346
 7380SOL    HW123039   6.662   3.141   5.353
 7380SOL    HW223040   6.582   3.032   5.261
 7381SOL     OW23041   5.221   4.259   2.196
 7381SOL    HW123042   5.253   4.176   2.243
 7381SOL    HW223043   5.135   4.239   2.149
 7382SOL     OW23044   0.121   5.612   6.118
 7382SOL    HW123045   0.103   5.523   6.077
 7382SOL    HW223046   0.048   5.635   6.182
 7383SOL     OW23047   0.594   6.612   1.574
 7383SOL    HW123048   0.628   6.527   1.613
 7383SOL    HW223049   0.546   6.592   1.488
 7384SOL     OW23050   6.107   0.834   2.267
 7384SOL    HW123051   6.133   0.804   2.359
 7384SOL    HW223052   6.010   0.858   2.266
 7385SOL     OW23053   4.109   6.042   1.806
 7385SOL    HW123054   4.162   6.126   1.802
 7385SOL    HW223055   4.018   6.062   1.843
 7386SOL     OW23056   6.946   2.259   5.682
 7386SOL    HW123057   6.907   2.234   5.593
 7386SOL    HW223058   6.872   2.272   5.748
 7387SOL     OW23059   4.365   6.411   4.521
 7387SOL    HW123060   4.361   6.477   4.596
 7387SOL    HW223061   4.276   6.367   4.510
 7388SOL     OW23062   0.386   4.942   3.196
 7388SOL    HW123063   0.373   5.041   3.189
 7388SOL    HW223064   0.359   4.912   3.288
 7389SOL     OW23065   1.034   4.251   6.550
 7389SOL    HW123066   0.983   4.228   6.633
 7389SOL    HW223067   1.064   4.346   6.555
 7390SOL     OW23068   2.039   1.271   7.015
 7390SOL    HW123069   2.126   1.223   7.001
 7390SOL    HW223070   2.054   1.369   7.002
 7391SOL     OW23071   5.125   4.138   4.850
 7391SOL    HW123072   5.134   4.107   4.944
 7391SOL    HW223073   5.189   4.213   4.832
 7392SOL     OW23074   2.875   6.098   0.209
 7392SOL    HW123075   2.973   6.118   0.201
 7392SOL    HW223076   2.823   6.183   0.212
 7393SOL     OW23077   5.443   4.760   1.279
 7393SOL    HW123078   5.501   4.701   1.335
 7393SOL    HW223079   5.347   4.746   1.305
 7394SOL     OW23080   3.150   2.398   5.797
 7394SOL    HW123081   3.110   2.313   5.763
 7394SOL    HW223082   3.100   2.428   5.878
 7395SOL     OW23083   2.409   1.716   7.019
 7395SOL    HW123084   2.496   1.726   6.970
 7395SOL    HW223085   2.427   1.689   0.088
 7396SOL     OW23086   1.171   6.830   0.459
 7396SOL    HW123087   1.181   6.759   0.389
 7396SOL    HW223088   1.261   6.862   0.488
 7397SOL     OW23089   5.336   5.182   5.305
 7397SOL    HW123090   5.348   5.134   5.392
 7397SOL    HW223091   5.391   5.138   5.234
 7398SOL     OW23092   3.078   5.131   4.215
 7398SOL    HW123093   2.991   5.099   4.177
 7398SOL    HW223094   3.084   5.230   4.203
 7399SOL     OW23095   1.126   3.333   5.564
 7399SOL    HW123096   1.126   3.341   5.464
 7399SOL    HW223097   1.078   3.412   5.604
 7400SOL     OW23098   2.584   3.297   6.411
 7400SOL    HW123099   2.677   3.326   6.436
 7400SOL    HW223100   2.569   3.313   6.314
 7401SOL     OW23101   0.984   0.948   4.097
 7401SOL    HW123102   0.973   0.853   4.066
 7401SOL    HW223103   1.046   0.949   4.176
 7402SOL     OW23104   2.680   5.140   5.508
 7402SOL    HW123105   2.675   5.073   5.434
 7402SOL    HW223106   2.638   5.102   5.591
 7403SOL     OW23107   1.517   3.961   3.244
 7403SOL    HW123108   1.616   3.977   3.253
 7403SOL    HW223109   1.501   3.879   3.190
 7404SOL     OW23110   2.986   5.428   1.293
 7404SOL    HW123111   3.006   5.511   1.345
 7404SOL    HW223112   3.004   5.347   1.349
 7405SOL     OW23113   2.758   4.972   4.352
 7405SOL    HW123114   2.776   4.886   4.400
 7405SOL    HW223115   2.659   4.989   4.350
 7406SOL     OW23116   1.066   2.980   3.400
 7406SOL    HW123117   0.977   2.999   3.440
 7406SOL    HW223118   1.101   2.893   3.436
 7407SOL     OW23119   0.210   5.629   4.719
 7407SOL    HW123120   0.286   5.571   4.750
 7407SOL    HW223121   0.160   5.583   4.646
 7408SOL     OW23122   1.242   3.436   5.854
 7408SOL    HW123123   1.299   3.354   5.859
 7408SOL    HW223124   1.146   3.409   5.865
 7409SOL     OW23125   0.682   1.134   5.273
 7409SOL    HW123126   0.688   1.233   5.262
 7409SOL    HW223127   0.616   1.113   5.346
 7410SOL     OW23128   0.370   5.020   1.438
 7410SOL    HW123129   0.323   4.935   1.462
 7410SOL    HW223130   0.443   5.038   1.504
 7411SOL     OW23131   2.746   6.790   4.274
 7411SOL    HW123132   2.719   6.715   4.214
 7411SOL    HW223133   2.833   6.829   4.243
 7412SOL     OW23134   3.982   0.322   2.675
 7412SOL    HW123135   4.006   0.316   2.772
 7412SOL    HW223136   4.056   0.364   2.624
 7413SOL     OW23137   5.075   4.865   4.709
 7413SOL    HW123138   5.154   4.835   4.763
 7413SOL    HW223139   4.998   4.882   4.770
 7414SOL     OW23140   0.001   6.714   4.157
 7414SOL    HW123141   7.018   6.760   4.068
 7414SOL    HW223142   0.098   6.709   4.183
 7415SOL     OW23143   1.471   3.717   3.061
 7415SOL    HW123144   1.486   3.635   3.117
 7415SOL    HW223145   1.455   3.690   2.966
 7416SOL     OW23146   2.985   0.917   3.643
 7416SOL    HW123147   2.965   0.982   3.569
 7416SOL    HW223148   2.903   0.904   3.699
 7417SOL     OW23149   2.050   0.152   5.676
 7417SOL    HW123150   1.967   0.097   5.688
 7417SOL    HW223151   2.093   0.128   5.588
 7418SOL     OW23152   3.344   5.392   0.369
 7418SOL    HW123153   3.405   5.465   0.400
 7418SOL    HW223154   3.306   5.344   0.448
 7419SOL     OW23155   6.387   2.664   5.200
 7419SOL    HW123156   6.442   2.637   5.121
 7419SOL    HW223157   6.335   2.747   5.178
 7420SOL     OW23158   0.091   6.506   1.981
 7420SOL    HW123159   7.020   6.481   1.990
 7420SOL    HW223160   0.098   6.605   1.972
 7421SOL     OW23161   3.467   3.588   1.301
 7421SOL    HW123162   3.559   3.600   1.262
 7421SOL    HW223163   3.474   3.586   1.401
 7422SOL     OW23164   0.030   3.023   2.482
 7422SOL    HW123165   7.015   3.075   2.407
 7422SOL    HW223166   0.092   3.082   2.535
 7423SOL     OW23167   6.590   4.544   5.636
 7423SOL    HW123168   6.687   4.519   5.632
 7423SOL    HW223169   6.567   4.578   5.727
 7424SOL     OW23170   7.000   0.251   4.775
 7424SOL    HW123171   6.907   0.214   4.772
 7424SOL    HW223172   6.996   0.350   4.780
 7425SOL     OW23173   4.683   5.920   6.165
 7425SOL    HW123174   4.679   5.861   6.245
 7425SOL    HW223175   4.652   5.870   6.085
 7426SOL     OW23176   1.369   1.758   6.483
 7426SOL    HW123177   1.279   1.753   6.526
 7426SOL    HW223178   1.393   1.854   6.468
 7427SOL     OW23179   3.293   6.231   3.862
 7427SOL    HW123180   3.215   6.270   3.812
 7427SOL    HW223181   3.373   6.289   3.851
 7428SOL     OW23182   4.167   1.542   5.864
 7428SOL    HW123183   4.112   1.467   5.828
 7428SOL    HW223184   4.228   1.506   5.935
 7429SOL     OW23185   5.517   7.020   3.491
 7429SOL    HW123186   5.500   6.921   3.491
 7429SOL    HW223187   5.486   0.033   3.404
 7430SOL     OW23188   0.199   4.023   6.090
 7430SOL    HW123189   0.206   4.073   6.003
 7430SOL    HW223190   0.104   3.995   6.105
 7431SOL     OW23191   0.267   3.045   2.643
 7431SOL    HW123192   0.277   3.115   2.572
 7431SOL    HW223193   0.306   3.079   2.729
 7432SOL     OW23194   0.150   0.288   3.721
 7432SOL    HW123195   0.200   0.370   3.693
 7432SOL    HW223196   0.214   0.215   3.744
 7433SOL     OW23197   5.862   5.315   0.209
 7433SOL    HW123198   5.792   5.291   0.277
 7433SOL    HW223199   5.860   5.413   0.192
 7434SOL     OW23200   4.605   0.592   5.994
 7434SOL    HW123201   4.588   0.688   5.971
 7434SOL    HW223202   4.701   0.581   6.022
 7435SOL     OW23203   4.037   5.481   0.497
 7435SOL    HW123204   4.059   5.411   0.565
 7435SOL    HW223205   3.944   5.467   0.463
 7436SOL     OW23206   5.542   3.007   6.455
 7436SOL    HW123207   5.619   3.039   6.509
 7436SOL    HW223208   5.475   3.080   6.444
 7437SOL     OW23209   0.232   6.030   0.352
 7437SOL    HW123210   0.261   6.023   0.448
 7437SOL    HW223211   0.132   6.025   0.347
 7438SOL     OW23212   0.578   5.238   0.835
 7438SOL    HW123213   0.541   5.321   0.876
 7438SOL    HW223214   0.602   5.173   0.907
 7439SOL     OW23215   1.461   6.246   4.987
 7439SOL    HW123216   1.461   6.328   5.044
 7439SOL    HW223217   1.536   6.251   4.921
 7440SOL     OW23218   0.881   3.179   4.438
 7440SOL    HW123219   0.959   3.162   4.379
 7440SOL    HW223220   0.796   3.164   4.387
 7441SOL     OW23221   4.490   5.767   4.608
 7441SOL    HW123222   4.537   5.731   4.527
 7441SOL    HW223223   4.412   5.821   4.579
 7442SOL     OW23224   0.732   0.808   6.424
 7442SOL    HW123225   0.700   0.743   6.493
 7442SOL    HW223226   0.814   0.771   6.379
 7443SOL     OW23227   0.414   0.955   1.572
 7443SOL    HW123228   0.506   0.927   1.600
 7443SOL    HW223229   0.347   0.894   1.613
 7444SOL     OW23230   6.773   3.189   4.852
 7444SOL    HW123231   6.744   3.264   4.792
 7444SOL    HW223232   6.730   3.199   4.942
 7445SOL     OW23233   3.390   1.222   1.304
 7445SOL    HW123234   3.313   1.285   1.309
 7445SOL    HW223235   3.429   1.210   1.395
 7446SOL     OW23236   5.529   4.022   0.996
 7446SOL    HW123237   5.578   4.010   0.910
 7446SOL    HW223238   5.431   4.009   0.981
 7447SOL     OW23239   1.126   3.434   5.299
 7447SOL    HW123240   1.141   3.529   5.326
 7447SOL    HW223241   1.185   3.412   5.222
 7448SOL     OW23242   5.853   6.977   5.271
 7448SOL    HW123243   5.846   7.019   5.361
 7448SOL    HW223244   5.780   6.910   5.259
 7449SOL     OW23245   6.512   2.425   1.915
 7449SOL    HW123246   6.526   2.445   1.818
 7449SOL    HW223247   6.590   2.459   1.968
 7450SOL     OW23248   5.188   2.282   4.496
 7450SOL    HW123249   5.276   2.284   4.544
 7450SOL    HW223250   5.159   2.375   4.476
 7451SOL     OW23251   1.167   6.439   2.953
 7451SOL    HW123252   1.187   6.393   2.866
 7451SOL    HW223253   1.087   6.498   2.941
 7452SOL     OW23254   0.435   6.557   5.230
 7452SOL    HW123255   0.498   6.479   5.225
 7452SOL    HW223256   0.470   6.624   5.295
 7453SOL     OW23257   4.480   6.082   5.677
 7453SOL    HW123258   4.541   6.003   5.673
 7453SOL    HW223259   4.399   6.065   5.620
 7454SOL     OW23260   1.234   2.416   1.317
 7454SOL    HW123261   1.253   2.486   1.387
 7454SOL    HW223262   1.136   2.415   1.296
 7455SOL     OW23263   0.007   2.210   1.986
 7455SOL    HW123264   7.012   2.274   2.060
 7455SOL    HW223265   6.948   2.163   1.959
 7456SOL     OW23266   0.726   2.203   4.395
 7456SOL    HW123267   0.735   2.282   4.456
 7456SOL    HW223268   0.732   2.119   4.448
 7457SOL     OW23269   3.789   0.864   5.277
 7457SOL    HW123270   3.860   0.927   5.246
 7457SOL    HW223271   3.829   0.774   5.293
 7458SOL     OW23272   2.565   0.022   6.490
 7458SOL    HW123273   2.624   0.026   6.570
 7458SOL    HW223274   2.542   0.114   6.460
 7459SOL     OW23275   4.673   1.058   0.934
 7459SOL    HW123276   4.627   1.131   0.883
 7459SOL    HW223277   4.638   0.970   0.904
 7460SOL     OW23278   1.693   4.365   1.182
 7460SOL    HW123279   1.593   4.369   1.187
 7460SOL    HW223280   1.731   4.457   1.185
 7461SOL     OW23281   6.084   1.458   6.359
 7461SOL    HW123282   5.997   1.500   6.333
 7461SOL    HW223283   6.156   1.527   6.362
 7462SOL     OW23284   1.449   3.781   2.802
 7462SOL    HW123285   1.472   3.876   2.824
 7462SOL    HW223286   1.476   3.760   2.708
 7463SOL     OW23287   2.820   4.750   0.903
 7463SOL    HW123288   2.782   4.685   0.969
 7463SOL    HW223289   2.821   4.708   0.812
 7464SOL     OW23290   3.923   0.318   6.462
 7464SOL    HW123291   3.848   0.254   6.445
 7464SOL    HW223292   3.968   0.294   6.548
 7465SOL     OW23293   1.566   6.875   6.834
 7465SOL    HW123294   1.581   6.802   6.769
 7465SOL    HW223295   1.493   6.850   6.898
 7466SOL     OW23296   0.059   0.310   6.620
 7466SOL    HW123297   0.124   0.361   6.677
 7466SOL    HW223298   0.057   0.349   6.528
 7467SOL     OW23299   6.986   1.246   0.507
 7467SOL    HW123300   0.048   1.271   0.466
 7467SOL    HW223301   7.001   1.210   0.599
 7468SOL     OW23302   6.533   2.820   2.543
 7468SOL    HW123303   6.590   2.899   2.520
 7468SOL    HW223304   6.514   2.820   2.641
 7469SOL     OW23305   6.777   0.418   0.147
 7469SOL    HW123306   6.859   0.405   0.202
 7469SOL    HW223307   6.747   0.330   0.110
 7470SOL     OW23308   0.149   3.065   4.385
 7470SOL    HW123309   0.090   3.035   4.460
 7470SOL    HW223310   0.110   3.146   4.341
 7471SOL     OW23311   6.350   6.321   5.571
 7471SOL    HW123312   6.404   6.250   5.525
 7471SOL    HW223313   6.406   6.403   5.583
 7472SOL     OW23314   5.879   6.906   4.197
 7472SOL    HW123315   5.938   6.853   4.259
 7472SOL    HW223316   5.885   7.003   4.221
 7473SOL     OW23317   6.894   4.647   2.825
 7473SOL    HW123318   6.944   4.562   2.811
 7473SOL    HW223319   6.799   4.635   2.793
 7474SOL     OW23320   2.493   1.470   5.133
 7474SOL    HW123321   2.434   1.442   5.057
 7474SOL    HW223322   2.528   1.562   5.116
 7475SOL     OW23323   3.941   1.094   2.378
 7475SOL    HW123324   3.868   1.046   2.329
 7475SOL    HW223325   3.945   1.189   2.346
 7476SOL     OW23326   3.869   5.271   3.852
 7476SOL    HW123327   3.937   5.275   3.925
 7476SOL    HW223328   3.782   5.308   3.884
 7477SOL     OW23329   6.367   1.465   4.894
 7477SOL    HW123330   6.348   1.539   4.829
 7477SOL    HW223331   6.330   1.379   4.858
 7478SOL     OW23332   4.633   4.985   6.769
 7478SOL    HW123333   4.676   5.037   6.843
 7478SOL    HW223334   4.684   4.900   6.755
 7479SOL     OW23335   4.111   2.460   1.726
 7479SOL    HW123336   4.100   2.558   1.710
 7479SOL    HW223337   4.164   2.420   1.650
 7480SOL     OW23338   6.844   3.648   1.634
 7480SOL    HW123339   6.817   3.744   1.629
 7480SOL    HW223340   6.788   3.594   1.572
 7481SOL     OW23341   6.193   5.730   1.926
 7481SOL    HW123342   6.132   5.650   1.928
 7481SOL    HW223343   6.242   5.737   2.013
 7482SOL     OW23344   4.927   1.903   3.174
 7482SOL    HW123345   4.854   1.883   3.239
 7482SOL    HW223346   5.009   1.852   3.200
 7483SOL     OW23347   4.462   2.502   5.418
 7483SOL    HW123348   4.511   2.510   5.505
 7483SOL    HW223349   4.465   2.590   5.370
 7484SOL     OW23350   0.315   0.910   3.466
 7484SOL    HW123351   0.251   0.898   3.390
 7484SOL    HW223352   0.369   0.827   3.478
 7485SOL     OW23353   3.405   0.145   4.316
 7485SOL    HW123354   3.326   0.148   4.377
 7485SOL    HW223355   3.433   0.238   4.293
 7486SOL     OW23356   2.525   0.454   5.732
 7486SOL    HW123357   2.609   0.455   5.677
 7486SOL    HW223358   2.545   0.492   5.823
 7487SOL     OW23359   2.900   6.186   2.684
 7487SOL    HW123360   2.827   6.229   2.737
 7487SOL    HW223361   2.886   6.087   2.683
 7488SOL     OW23362   2.012   6.845   4.373
 7488SOL    HW123363   2.101   6.877   4.339
 7488SOL    HW223364   1.939   6.903   4.336
 7489SOL     OW23365   5.389   2.354   4.668
 7489SOL    HW123366   5.431   2.323   4.753
 7489SOL    HW223367   5.395   2.454   4.663
 7490SOL     OW23368   0.566   1.380   1.074
 7490SOL    HW123369   0.532   1.470   1.045
 7490SOL    HW223370   0.523   1.355   1.161
 7491SOL     OW23371   5.990   3.333   6.196
 7491SOL    HW123372   5.915   3.267   6.200
 7491SOL    HW223373   5.995   3.372   6.104
 7492SOL     OW23374   2.009   0.617   4.164
 7492SOL    HW123375   2.087   0.575   4.119
 7492SOL    HW223376   1.938   0.637   4.097
 7493SOL     OW23377   6.342   3.975   6.693
 7493SOL    HW123378   6.372   4.053   6.748
 7493SOL    HW223379   6.414   3.950   6.629
 7494SOL     OW23380   5.415   0.374   2.978
 7494SOL    HW123381   5.356   0.387   3.058
 7494SOL    HW223382   5.508   0.404   3.000
 7495SOL     OW23383   2.269   0.606   0.205
 7495SOL    HW123384   2.363   0.630   0.232
 7495SOL    HW223385   2.206   0.636   0.277
 7496SOL     OW23386   0.260   3.054   6.131
 7496SOL    HW123387   0.190   3.012   6.187
 7496SOL    HW223388   0.252   3.021   6.037
 7497SOL     OW23389   2.408   4.603   0.380
 7497SOL    HW123390   2.451   4.545   0.449
 7497SOL    HW223391   2.470   4.677   0.354
 7498SOL     OW23392   2.390   1.286   5.463
 7498SOL    HW123393   2.310   1.228   5.478
 7498SOL    HW223394   2.443   1.249   5.386
 7499SOL     OW23395   3.928   1.899   2.953
 7499SOL    HW123396   3.963   1.821   2.901
 7499SOL    HW223397   3.951   1.888   3.050
 7500SOL     OW23398   3.955   5.454   4.598
 7500SOL    HW123399   3.918   5.370   4.559
 7500SOL    HW223400   3.899   5.532   4.569
 7501SOL     OW23401   6.246   4.250   3.634
 7501SOL    HW123402   6.211   4.313   3.566
 7501SOL    HW223403   6.316   4.192   3.593
 7502SOL     OW23404   1.785   6.978   4.318
 7502SOL    HW123405   1.787   0.049   4.291
 7502SOL    HW223406   1.775   6.921   4.237
 7503SOL     OW23407   2.818   1.871   0.791
 7503SOL    HW123408   2.850   1.880   0.885
 7503SOL    HW223409   2.820   1.775   0.764
 7504SOL     OW23410   1.982   0.065   2.919
 7504SOL    HW123411   2.022   7.006   2.957
 7504SOL    HW223412   2.055   0.131   2.901
 7505SOL     OW23413   2.358   1.960   5.776
 7505SOL    HW123414   2.288   1.956   5.846
 7505SOL    HW223415   2.337   1.894   5.704
 7506SOL     OW23416   4.951   6.620   2.862
 7506SOL    HW123417   4.866   6.585   2.901
 7506SOL    HW223418   4.941   6.629   2.763
 7507SOL     OW23419   0.862   0.370   2.251
 7507SOL    HW123420   0.800   0.291   2.256
 7507SOL    HW223421   0.817   0.450   2.292
 7508SOL     OW23422   0.122   6.767   1.954
 7508SOL    HW123423   0.094   6.815   2.037
 7508SOL    HW223424   0.103   6.824   1.874
 7509SOL     OW23425   5.762   4.493   0.459
 7509SOL    HW123426   5.852   4.466   0.426
 7509SOL    HW223427   5.691   4.443   0.409
 7510SOL     OW23428   3.183   4.279   5.436
 7510SOL    HW123429   3.089   4.292   5.404
 7510SOL    HW223430   3.184   4.277   5.536
 7511SOL     OW23431   1.866   6.726   3.456
 7511SOL    HW123432   1.926   6.674   3.516
 7511SOL    HW223433   1.862   6.821   3.487
 7512SOL     OW23434   2.615   5.039   0.079
 7512SOL    HW123435   2.537   5.042   0.016
 7512SOL    HW223436   2.612   5.118   0.140
 7513SOL     OW23437   2.423   1.307   1.661
 7513SOL    HW123438   2.390   1.347   1.746
 7513SOL    HW223439   2.495   1.240   1.681
 7514SOL     OW23440   2.250   5.588   1.806
 7514SOL    HW123441   2.275   5.653   1.734
 7514SOL    HW223442   2.325   5.523   1.820
 7515SOL     OW23443   0.095   5.168   2.289
 7515SOL    HW123444   0.067   5.134   2.199
 7515SOL    HW223445   0.015   5.207   2.335
 7516SOL     OW23446   6.750   5.956   4.822
 7516SOL    HW123447   6.845   5.966   4.854
 7516SOL    HW223448   6.741   5.996   4.731
 7517SOL     OW23449   0.129   2.890   0.238
 7517SOL    HW123450   0.064   2.838   0.183
 7517SOL    HW223451   0.084   2.970   0.277
 7518SOL     OW23452   4.371   5.273   3.415
 7518SOL    HW123453   4.348   5.189   3.366
 7518SOL    HW223454   4.432   5.329   3.359
 7519SOL     OW23455   6.345   6.844   4.196
 7519SOL    HW123456   6.265   6.851   4.257
 7519SOL    HW223457   6.420   6.799   4.245
 7520SOL     OW23458   3.373   6.805   2.230
 7520SOL    HW123459   3.343   6.876   2.166
 7520SOL    HW223460   3.416   6.849   2.309
 7521SOL     OW23461   4.609   4.584   6.031
 7521SOL    HW123462   4.689   4.596   5.973
 7521SOL    HW223463   4.618   4.499   6.084
 7522SOL     OW23464   2.696   6.917   6.286
 7522SOL    HW123465   2.685   7.012   6.313
 7522SOL    HW223466   2.727   6.864   6.365
 7523SOL     OW23467   5.419   0.228   5.988
 7523SOL    HW123468   5.408   0.284   5.905
 7523SOL    HW223469   5.358   0.262   6.059
 7524SOL     OW23470   1.513   1.985   5.907
 7524SOL    HW123471   1.594   2.042   5.891
 7524SOL    HW223472   1.540   1.888   5.907
 7525SOL     OW23473   3.061   0.769   6.220
 7525SOL    HW123474   3.056   0.849   6.161
 7525SOL    HW223475   3.132   0.707   6.186
 7526SOL     OW23476   3.352   3.657   1.826
 7526SOL    HW123477   3.390   3.666   1.918
 7526SOL    HW223478   3.345   3.560   1.803
 7527SOL     OW23479   4.277   5.715   3.045
 7527SOL    HW123480   4.218   5.741   3.122
 7527SOL    HW223481   4.222   5.671   2.974
 7528SOL     OW23482   5.119   1.701   6.580
 7528SOL    HW123483   5.035   1.681   6.529
 7528SOL    HW223484   5.126   1.638   6.658
 7529SOL     OW23485   5.918   0.437   3.954
 7529SOL    HW123486   5.963   0.480   4.033
 7529SOL    HW223487   5.980   0.370   3.914
 7530SOL     OW23488   0.175   3.900   1.693
 7530SOL    HW123489   0.225   3.815   1.710
 7530SOL    HW223490   0.130   3.895   1.604
 7531SOL     OW23491   4.504   2.340   3.988
 7531SOL    HW123492   4.556   2.270   3.938
 7531SOL    HW223493   4.467   2.300   4.072
 7532SOL     OW23494   5.281   4.465   1.443
 7532SOL    HW123495   5.288   4.367   1.465
 7532SOL    HW223496   5.302   4.478   1.346
 7533SOL     OW23497   2.541   1.859   2.470
 7533SOL    HW123498   2.566   1.955   2.457
 7533SOL    HW223499   2.442   1.852   2.484
 7534SOL     OW23500   4.622   5.862   5.639
 7534SOL    HW123501   4.640   5.764   5.631
 7534SOL    HW223502   4.704   5.908   5.674
 7535SOL     OW23503   2.610   6.996   5.751
 7535SOL    HW123504   2.555   0.047   5.717
 7535SOL    HW223505   2.640   6.939   5.675
 7536SOL     OW23506   4.706   4.503   4.503
 7536SOL    HW123507   4.623   4.495   4.559
 7536SOL    HW223508   4.761   4.580   4.536
 7537SOL     OW23509   2.990   5.602   3.388
 7537SOL    HW123510   2.913   5.632   3.444
 7537SOL    HW223511   3.061   5.563   3.447
 7538SOL     OW23512   2.999   3.168   1.932
 7538SOL    HW123513   3.040   3.126   2.013
 7538SOL    HW223514   3.005   3.267   1.939
 7539SOL     OW23515   1.110   3.081   4.304
 7539SOL    HW123516   1.141   3.054   4.395
 7539SOL    HW223517   1.173   3.047   4.235
 7540SOL     OW23518   3.794   6.608   5.446
 7540SOL    HW123519   3.700   6.632   5.471
 7540SOL    HW223520   3.849   6.691   5.440
 7541SOL     OW23521   6.787   4.317   4.300
 7541SOL    HW123522   6.871   4.347   4.254
 7541SOL    HW223523   6.711   4.375   4.271
 7542SOL     OW23524   0.906   5.893   0.123
 7542SOL    HW123525   0.951   5.813   0.083
 7542SOL    HW223526   0.823   5.865   0.170
 7543SOL     OW23527   3.512   2.037   0.828
 7543SOL    HW123528   3.448   2.097   0.781
 7543SOL    HW223529   3.462   1.961   0.868
 7544SOL     OW23530   0.143   2.503   3.171
 7544SOL    HW123531   0.166   2.429   3.108
 7544SOL    HW223532   0.048   2.493   3.200
 7545SOL     OW23533   6.130   6.011   1.926
 7545SOL    HW123534   6.153   5.914   1.918
 7545SOL    HW223535   6.154   6.059   1.842
 7546SOL     OW23536   3.176   1.430   2.346
 7546SOL    HW123537   3.240   1.448   2.271
 7546SOL    HW223538   3.126   1.346   2.328
 7547SOL     OW23539   4.586   0.842   0.274
 7547SOL    HW123540   4.634   0.918   0.319
 7547SOL    HW223541   4.645   0.761   0.273
 7548SOL     OW23542   3.642   2.269   0.503
 7548SOL    HW123543   3.717   2.313   0.453
 7548SOL    HW223544   3.651   2.170   0.496
 7549SOL     OW23545   6.117   2.016   1.312
 7549SOL    HW123546   6.114   1.949   1.237
 7549SOL    HW223547   6.031   2.067   1.314
 7550SOL     OW23548   2.552   4.564   2.517
 7550SOL    HW123549   2.563   4.649   2.466
 7550SOL    HW223550   2.489   4.579   2.593
 7551SOL     OW23551   4.882   3.781   6.789
 7551SOL    HW123552   4.944   3.859   6.801
 7551SOL    HW223553   4.905   3.734   6.703
 7552SOL     OW23554   1.210   5.593   3.300
 7552SOL    HW123555   1.132   5.587   3.362
 7552SOL    HW223556   1.254   5.682   3.310
 7553SOL     OW23557   4.739   5.361   5.302
 7553SOL    HW123558   4.700   5.344   5.392
 7553SOL    HW223559   4.671   5.339   5.232
 7554SOL     OW23560   4.414   1.527   1.382
 7554SOL    HW123561   4.419   1.592   1.457
 7554SOL    HW223562   4.335   1.467   1.395
 7555SOL     OW23563   2.004   4.806   5.540
 7555SOL    HW123564   2.085   4.787   5.596
 7555SOL    HW223565   2.013   4.759   5.452
 7556SOL     OW23566   0.801   3.182   5.655
 7556SOL    HW123567   0.765   3.260   5.706
 7556SOL    HW223568   0.767   3.185   5.561
 7557SOL     OW23569   4.832   2.330   6.385
 7557SOL    HW123570   4.920   2.361   6.350
 7557SOL    HW223571   4.835   2.232   6.403
 7558SOL     OW23572   1.645   2.492   4.386
 7558SOL    HW123573   1.646   2.483   4.286
 7558SOL    HW223574   1.566   2.444   4.423
 7559SOL     OW23575   6.410   4.774   6.918
 7559SOL    HW123576   6.444   4.681   6.931
 7559SOL    HW223577   6.329   4.788   6.976
 7560SOL     OW23578   4.843   6.554   0.849
 7560SOL    HW123579   4.761   6.566   0.905
 7560SOL    HW223580   4.904   6.488   0.893
 7561SOL     OW23581   1.075   3.252   6.697
 7561SOL    HW123582   1.154   3.192   6.687
 7561SOL    HW223583   0.992   3.196   6.709
 7562SOL     OW23584   6.179   5.831   5.006
 7562SOL    HW123585   6.116   5.843   4.930
 7562SOL    HW223586   6.155   5.748   5.056
 7563SOL     OW23587   2.300   6.353   0.769
 7563SOL    HW123588   2.377   6.416   0.769
 7563SOL    HW223589   2.223   6.394   0.720
 7564SOL     OW23590   5.075   1.419   3.254
 7564SOL    HW123591   5.093   1.498   3.312
 7564SOL    HW223592   4.992   1.435   3.200
 7565SOL     OW23593   5.724   3.269   0.729
 7565SOL    HW123594   5.636   3.274   0.778
 7565SOL    HW223595   5.796   3.307   0.787
 7566SOL     OW23596   0.145   4.827   3.056
 7566SOL    HW123597   0.152   4.925   3.076
 7566SOL    HW223598   0.229   4.781   3.086
 7567SOL     OW23599   1.545   1.741   5.089
 7567SOL    HW123600   1.597   1.826   5.090
 7567SOL    HW223601   1.521   1.715   5.182
 7568SOL     OW23602   5.330   6.748   3.289
 7568SOL    HW123603   5.290   6.826   3.336
 7568SOL    HW223604   5.397   6.781   3.222
 7569SOL     OW23605   3.681   5.603   6.455
 7569SOL    HW123606   3.706   5.618   6.359
 7569SOL    HW223607   3.691   5.506   6.477
 7570SOL     OW23608   5.700   4.310   5.094
 7570SOL    HW123609   5.616   4.309   5.039
 7570SOL    HW223610   5.719   4.217   5.126
 7571SOL     OW23611   5.075   5.618   3.321
 7571SOL    HW123612   5.027   5.699   3.357
 7571SOL    HW223613   5.067   5.543   3.387
 7572SOL     OW23614   3.908   0.716   2.200
 7572SOL    HW123615   4.002   0.714   2.165
 7572SOL    HW223616   3.857   0.639   2.162
 7573SOL     OW23617   0.181   6.163   4.777
 7573SOL    HW123618   0.252   6.156   4.848
 7573SOL    HW223619   0.224   6.193   4.692
 7574SOL     OW23620   6.103   0.818   4.885
 7574SOL    HW123621   6.111   0.862   4.796
 7574SOL    HW223622   6.012   0.778   4.895
 7575SOL     OW23623   3.898   0.349   5.750
 7575SOL    HW123624   3.845   0.267   5.727
 7575SOL    HW223625   3.945   0.335   5.837
 7576SOL     OW23626   5.401   4.636   6.939
 7576SOL    HW123627   5.423   4.640   6.841
 7576SOL    HW223628   5.484   4.651   6.992
 7577SOL     OW23629   0.069   6.887   6.089
 7577SOL    HW123630   0.096   6.962   6.149
 7577SOL    HW223631   0.022   6.924   6.008
 7578SOL     OW23632   2.359   5.752   2.456
 7578SOL    HW123633   2.263   5.729   2.472
 7578SOL    HW223634   2.375   5.847   2.485
 7579SOL     OW23635   6.366   1.631   1.917
 7579SOL    HW123636   6.301   1.555   1.919
 7579SOL    HW223637   6.455   1.598   1.886
 7580SOL     OW23638   1.373   3.984   4.592
 7580SOL    HW123639   1.435   4.061   4.581
 7580SOL    HW223640   1.288   4.015   4.635
 7581SOL     OW23641   6.647   0.512   1.181
 7581SOL    HW123642   6.672   0.444   1.249
 7581SOL    HW223643   6.625   0.598   1.227
 7582SOL     OW23644   2.759   1.051   0.610
 7582SOL    HW123645   2.735   1.035   0.514
 7582SOL    HW223646   2.852   1.086   0.615
 7583SOL     OW23647   6.447   2.985   0.644
 7583SOL    HW123648   6.525   3.039   0.676
 7583SOL    HW223649   6.418   2.923   0.717
 7584SOL     OW23650   2.228   6.995   1.560
 7584SOL    HW123651   2.327   6.996   1.555
 7584SOL    HW223652   2.191   6.939   1.486
 7585SOL     OW23653   1.806   2.300   6.077
 7585SOL    HW123654   1.756   2.378   6.039
 7585SOL    HW223655   1.898   2.328   6.101
 7586SOL     OW23656   3.615   1.537   3.636
 7586SOL    HW123657   3.677   1.601   3.591
 7586SOL    HW223658   3.652   1.512   3.725
 7587SOL     OW23659   2.740   1.758   6.944
 7587SOL    HW123660   2.702   1.792   6.858
 7587SOL    HW223661   2.793   1.830   6.988
 7588SOL     OW23662   1.350   3.432   2.595
 7588SOL    HW123663   1.317   3.406   2.504
 7588SOL    HW223664   1.448   3.451   2.592
 7589SOL     OW23665   0.500   7.022   1.849
 7589SOL    HW123666   0.579   6.962   1.858
 7589SOL    HW223667   0.434   7.001   1.921
 7590SOL     OW23668   4.419   1.700   6.413
 7590SOL    HW123669   4.485   1.665   6.480
 7590SOL    HW223670   4.355   1.761   6.459
 7591SOL     OW23671   0.228   4.120   0.359
 7591SOL    HW123672   0.309   4.079   0.318
 7591SOL    HW223673   0.155   4.052   0.364
 7592SOL     OW23674   6.769   3.928   5.923
 7592SOL    HW123675   6.782   3.852   5.859
 7592SOL    HW223676   6.680   3.969   5.908
 7593SOL     OW23677   6.081   2.679   1.218
 7593SOL    HW123678   6.144   2.613   1.178
 7593SOL    HW223679   5.991   2.638   1.228
 7594SOL     OW23680   0.688   5.549   1.955
 7594SOL    HW123681   0.727   5.641   1.950
 7594SOL    HW223682   0.761   5.482   1.961
 7595SOL     OW23683   0.078   2.478   5.676
 7595SOL    HW123684   0.005   2.411   5.684
 7595SOL    HW223685   0.135   2.475   5.758
 7596SOL     OW23686   4.866   5.597   4.190
 7596SOL    HW123687   4.932   5.671   4.198
 7596SOL    HW223688   4.798   5.620   4.121
 7597SOL     OW23689   3.942   6.353   2.918
 7597SOL    HW123690   3.988   6.408   2.988
 7597SOL    HW223691   3.984   6.263   2.913
 7598SOL     OW23692   6.859   1.857   3.436
 7598SOL    HW123693   6.899   1.865   3.345
 7598SOL    HW223694   6.772   1.808   3.430
 7599SOL     OW23695   5.984   1.584   2.359
 7599SOL    HW123696   6.084   1.587   2.347
 7599SOL    HW223697   5.961   1.606   2.453
 7600SOL     OW23698   1.889   1.738   2.501
 7600SOL    HW123699   1.902   1.827   2.456
 7600SOL    HW223700   1.955   1.673   2.464
 7601SOL     OW23701   2.346   5.553   3.377
 7601SOL    HW123702   2.403   5.629   3.342
 7601SOL    HW223703   2.352   5.550   3.476
 7602SOL     OW23704   0.307   4.607   6.690
 7602SOL    HW123705   0.228   4.668   6.697
 7602SOL    HW223706   0.385   4.648   6.737
 7603SOL     OW23707   2.092   4.806   6.224
 7603SOL    HW123708   2.011   4.804   6.283
 7603SOL    HW223709   2.095   4.724   6.168
 7604SOL     OW23710   1.392   4.789   4.145
 7604SOL    HW123711   1.467   4.723   4.144
 7604SOL    HW223712   1.426   4.878   4.177
 7605SOL     OW23713   0.290   6.844   0.976
 7605SOL    HW123714   0.274   6.818   1.071
 7605SOL    HW223715   0.232   6.922   0.952
 7606SOL     OW23716   6.405   3.441   4.059
 7606SOL    HW123717   6.380   3.520   4.116
 7606SOL    HW223718   6.473   3.470   3.991
 7607SOL     OW23719   4.082   4.670   0.044
 7607SOL    HW123720   4.036   4.635   6.988
 7607SOL    HW223721   4.014   4.698   0.111
 7608SOL     OW23722   3.777   3.845   2.885
 7608SOL    HW123723   3.872   3.844   2.856
 7608SOL    HW223724   3.717   3.833   2.806
 7609SOL     OW23725   0.987   3.488   4.312
 7609SOL    HW123726   0.963   3.432   4.391
 7609SOL    HW223727   1.082   3.516   4.318
 7610SOL     OW23728   5.594   6.147   0.325
 7610SOL    HW123729   5.630   6.069   0.377
 7610SOL    HW223730   5.660   6.222   0.329
 7611SOL     OW23731   0.240   1.862   0.860
 7611SOL    HW123732   0.232   1.795   0.934
 7611SOL    HW223733   0.223   1.817   0.772
 7612SOL     OW23734   5.280   3.093   4.744
 7612SOL    HW123735   5.234   3.180   4.724
 7612SOL    HW223736   5.378   3.102   4.725
 7613SOL     OW23737   6.722   3.572   1.387
 7613SOL    HW123738   6.752   3.480   1.412
 7613SOL    HW223739   6.624   3.573   1.370
 7614SOL     OW23740   4.925   3.841   0.997
 7614SOL    HW123741   4.849   3.828   0.933
 7614SOL    HW223742   4.891   3.884   1.080
 7615SOL     OW23743   3.719   4.368   6.570
 7615SOL    HW123744   3.760   4.456   6.546
 7615SOL    HW223745   3.655   4.381   6.645
 7616SOL     OW23746   6.261   5.140   5.429
 7616SOL    HW123747   6.243   5.077   5.353
 7616SOL    HW223748   6.235   5.233   5.402
 7617SOL     OW23749   3.642   5.551   2.903
 7617SOL    HW123750   3.549   5.581   2.880
 7617SOL    HW223751   3.703   5.570   2.826
 7618SOL     OW23752   0.212   1.594   5.782
 7618SOL    HW123753   0.136   1.579   5.719
 7618SOL    HW223754   0.220   1.516   5.844
 7619SOL     OW23755   5.833   2.945   5.381
 7619SOL    HW123756   5.763   2.888   5.338
 7619SOL    HW223757   5.868   3.011   5.314
 7620SOL     OW23758   4.042   5.736   0.584
 7620SOL    HW123759   4.017   5.647   0.547
 7620SOL    HW223760   4.141   5.739   0.601
 7621SOL     OW23761   0.219   1.350   0.713
 7621SOL    HW123762   0.242   1.332   0.809
 7621SOL    HW223763   0.265   1.433   0.683
 7622SOL     OW23764   5.082   5.437   1.573
 7622SOL    HW123765   5.130   5.353   1.598
 7622SOL    HW223766   4.998   5.414   1.524
 7623SOL     OW23767   4.748   4.545   6.897
 7623SOL    HW123768   4.816   4.519   6.965
 7623SOL    HW223769   4.667   4.487   6.906
 7624SOL     OW23770   0.486   2.887   4.915
 7624SOL    HW123771   0.469   2.857   5.008
 7624SOL    HW223772   0.577   2.929   4.909
 7625SOL     OW23773   4.820   0.909   1.401
 7625SOL    HW123774   4.800   0.956   1.487
 7625SOL    HW223775   4.853   0.975   1.334
 7626SOL     OW23776   6.086   6.968   4.002
 7626SOL    HW123777   6.010   6.947   4.064
 7626SOL    HW223778   6.117   6.883   3.959
 7627SOL     OW23779   5.409   2.547   0.179
 7627SOL    HW123780   5.384   2.472   0.118
 7627SOL    HW223781   5.506   2.541   0.201
 7628SOL     OW23782   3.670   1.024   2.579
 7628SOL    HW123783   3.602   0.960   2.613
 7628SOL    HW223784   3.716   0.985   2.499
 7629SOL     OW23785   6.508   6.573   3.239
 7629SOL    HW123786   6.580   6.556   3.306
 7629SOL    HW223787   6.424   6.601   3.286
 7630SOL     OW23788   6.507   6.577   1.888
 7630SOL    HW123789   6.540   6.555   1.796
 7630SOL    HW223790   6.407   6.584   1.886
 7631SOL     OW23791   1.053   0.940   6.085
 7631SOL    HW123792   0.990   0.886   6.140
 7631SOL    HW223793   1.110   0.880   6.029
 7632SOL     OW23794   3.186   2.883   2.010
 7632SOL    HW123795   3.282   2.854   2.012
 7632SOL    HW223796   3.140   2.844   1.931
 7633SOL     OW23797   4.969   1.219   1.447
 7633SOL    HW123798   5.004   1.189   1.535
 7633SOL    HW223799   5.018   1.171   1.374
 7634SOL     OW23800   1.097   1.848   2.703
 7634SOL    HW123801   1.112   1.842   2.604
 7634SOL    HW223802   1.060   1.762   2.736
 7635SOL     OW23803   3.812   5.159   5.133
 7635SOL    HW123804   3.755   5.216   5.074
 7635SOL    HW223805   3.905   5.195   5.134
 7636SOL     OW23806   1.237   2.282   4.265
 7636SOL    HW123807   1.275   2.298   4.174
 7636SOL    HW223808   1.235   2.183   4.283
 7637SOL     OW23809   2.734   5.187   2.376
 7637SOL    HW123810   2.715   5.114   2.441
 7637SOL    HW223811   2.741   5.149   2.283
 7638SOL     OW23812   3.229   6.421   0.746
 7638SOL    HW123813   3.221   6.332   0.791
 7638SOL    HW223814   3.296   6.477   0.796
 7639SOL     OW23815   1.312   2.259   0.644
 7639SOL    HW123816   1.321   2.259   0.544
 7639SOL    HW223817   1.260   2.180   0.673
 7640SOL     OW23818   3.339   2.002   6.696
 7640SOL    HW123819   3.425   2.024   6.649
 7640SOL    HW223820   3.263   2.049   6.651
 7641SOL     OW23821   1.645   4.535   1.792
 7641SOL    HW123822   1.602   4.599   1.729
 7641SOL    HW223823   1.742   4.525   1.769
 7642SOL     OW23824   4.054   0.957   2.836
 7642SOL    HW123825   4.040   0.944   2.738
 7642SOL    HW223826   4.007   1.040   2.866
 7643SOL     OW23827   4.962   3.515   4.338
 7643SOL    HW123828   4.911   3.562   4.410
 7643SOL    HW223829   5.053   3.555   4.330
 7644SOL     OW23830   5.769   2.422   2.099
 7644SOL    HW123831   5.767   2.489   2.025
 7644SOL    HW223832   5.800   2.466   2.184
 7645SOL     OW23833   3.901   4.160   5.698
 7645SOL    HW123834   3.996   4.174   5.673
 7645SOL    HW223835   3.847   4.140   5.616
 7646SOL     OW23836   1.169   3.835   3.010
 7646SOL    HW123837   1.172   3.846   3.109
 7646SOL    HW223838   1.256   3.800   2.977
 7647SOL     OW23839   6.578   3.690   3.007
 7647SOL    HW123840   6.677   3.692   3.017
 7647SOL    HW223841   6.547   3.595   2.998
 7648SOL     OW23842   2.376   1.541   3.356
 7648SOL    HW123843   2.447   1.610   3.348
 7648SOL    HW223844   2.417   1.451   3.370
 7649SOL     OW23845   1.423   0.571   3.272
 7649SOL    HW123846   1.436   0.480   3.232
 7649SOL    HW223847   1.453   0.640   3.206
 7650SOL     OW23848   5.224   2.195   0.850
 7650SOL    HW123849   5.264   2.273   0.897
 7650SOL    HW223850   5.128   2.184   0.878
 7651SOL     OW23851   2.422   0.947   4.631
 7651SOL    HW123852   2.327   0.915   4.627
 7651SOL    HW223853   2.430   1.034   4.582
 7652SOL     OW23854   6.275   3.311   4.372
 7652SOL    HW123855   6.283   3.213   4.352
 7652SOL    HW223856   6.363   3.345   4.405
 7653SOL     OW23857   1.901   2.235   6.977
 7653SOL    HW123858   1.804   2.209   6.984
 7653SOL    HW223859   1.956   2.169   0.003
 7654SOL     OW23860   5.056   2.906   3.426
 7654SOL    HW123861   5.150   2.890   3.397
 7654SOL    HW223862   5.049   2.995   3.472
 7655SOL     OW23863   4.597   0.121   3.043
 7655SOL    HW123864   4.623   0.083   3.132
 7655SOL    HW223865   4.575   0.046   2.980
 7656SOL     OW23866   2.316   4.848   5.959
 7656SOL    HW123867   2.282   4.940   5.941
 7656SOL    HW223868   2.335   4.838   6.057
 7657SOL     OW23869   1.721   2.967   4.112
 7657SOL    HW123870   1.780   2.967   4.193
 7657SOL    HW223871   1.691   2.873   4.093
 7658SOL     OW23872   3.454   0.041   5.755
 7658SOL    HW123873   3.405   0.114   5.707
 7658SOL    HW223874   3.402   6.982   5.749
 7659SOL     OW23875   5.891   5.286   6.807
 7659SOL    HW123876   5.831   5.242   6.873
 7659SOL    HW223877   5.906   5.226   6.729
 7660SOL     OW23878   0.502   5.902   3.889
 7660SOL    HW123879   0.532   5.826   3.830
 7660SOL    HW223880   0.558   5.903   3.972
 7661SOL     OW23881   6.200   2.718   4.422
 7661SOL    HW123882   6.187   2.817   4.436
 7661SOL    HW223883   6.255   2.703   4.340
 7662SOL     OW23884   0.964   3.018   2.566
 7662SOL    HW123885   1.030   3.010   2.641
 7662SOL    HW223886   0.872   3.002   2.601
 7663SOL     OW23887   1.428   5.596   6.292
 7663SOL    HW123888   1.398   5.691   6.284
 7663SOL    HW223889   1.460   5.564   6.203
 7664SOL     OW23890   3.468   0.180   1.215
 7664SOL    HW123891   3.378   0.156   1.179
 7664SOL    HW223892   3.474   0.280   1.228
 7665SOL     OW23893   4.883   0.181   4.825
 7665SOL    HW123894   4.924   0.172   4.915
 7665SOL    HW223895   4.786   0.202   4.835
 7666SOL     OW23896   0.200   6.105   1.534
 7666SOL    HW123897   0.149   6.057   1.605
 7666SOL    HW223898   0.231   6.193   1.570
 7667SOL     OW23899   4.912   5.886   2.511
 7667SOL    HW123900   4.820   5.871   2.476
 7667SOL    HW223901   4.916   5.858   2.607
 7668SOL     OW23902   3.044   4.693   0.619
 7668SOL    HW123903   2.946   4.708   0.610
 7668SOL    HW223904   3.069   4.692   0.715
 7669SOL     OW23905   5.139   2.172   5.855
 7669SOL    HW123906   5.086   2.165   5.940
 7669SOL    HW223907   5.086   2.221   5.787
 7670SOL     OW23908   0.974   5.317   6.875
 7670SOL    HW123909   1.066   5.356   6.875
 7670SOL    HW223910   0.921   5.358   6.801
 7671SOL     OW23911   4.266   0.926   3.004
 7671SOL    HW123912   4.181   0.947   2.954
 7671SOL    HW223913   4.336   0.994   2.981
 7672SOL     OW23914   0.439   6.731   3.076
 7672SOL    HW123915   0.342   6.749   3.059
 7672SOL    HW223916   0.469   6.656   3.017
 7673SOL     OW23917   1.622   5.612   0.052
 7673SOL    HW123918   1.613   5.669   6.996
 7673SOL    HW223919   1.544   5.628   0.113
 7674SOL     OW23920   5.749   1.308   3.439
 7674SOL    HW123921   5.828   1.368   3.454
 7674SOL    HW223922   5.728   1.304   3.341
 7675SOL     OW23923   6.211   6.721   2.339
 7675SOL    HW123924   6.221   6.812   2.381
 7675SOL    HW223925   6.292   6.702   2.284
 7676SOL     OW23926   1.991   1.652   1.213
 7676SOL    HW123927   2.071   1.697   1.254
 7676SOL    HW223928   2.006   1.642   1.115
 7677SOL     OW23929   0.559   5.128   2.148
 7677SOL    HW123930   0.472   5.172   2.121
 7677SOL    HW223931   0.551   5.029   2.136
 7678SOL     OW23932   1.894   2.022   4.966
 7678SOL    HW123933   1.869   2.028   4.869
 7678SOL    HW223934   1.812   2.007   5.021
 7679SOL     OW23935   2.468   5.451   6.822
 7679SOL    HW123936   2.465   5.449   6.722
 7679SOL    HW223937   2.392   5.507   6.856
 7680SOL     OW23938   1.974   1.700   0.962
 7680SOL    HW123939   1.934   1.609   0.946
 7680SOL    HW223940   1.970   1.753   0.877
 7681SOL     OW23941   2.085   0.214   1.014
 7681SOL    HW123942   1.990   0.233   1.040
 7681SOL    HW223943   2.092   0.119   0.981
 7682SOL     OW23944   3.464   7.019   2.669
 7682SOL    HW123945   3.480   7.008   2.571
 7682SOL    HW223946   3.547   6.996   2.719
 7683SOL     OW23947   5.549   1.357   3.654
 7683SOL    HW123948   5.618   1.334   3.585
 7683SOL    HW223949   5.466   1.388   3.608
 7684SOL     OW23950   3.930   2.107   2.126
 7684SOL    HW123951   3.839   2.141   2.148
 7684SOL    HW223952   3.948   2.120   2.029
 7685SOL     OW23953   3.184   2.680   6.909
 7685SOL    HW123954   3.262   2.618   6.912
 7685SOL    HW223955   3.210   2.769   6.946
 7686SOL     OW23956   6.809   6.767   2.787
 7686SOL    HW123957   6.826   6.849   2.732
 7686SOL    HW223958   6.735   6.786   2.852
 7687SOL     OW23959   5.909   4.856   3.956
 7687SOL    HW123960   5.891   4.935   4.014
 7687SOL    HW223961   5.859   4.865   3.870
 7688SOL     OW23962   1.575   5.969   6.080
 7688SOL    HW123963   1.512   5.921   6.142
 7688SOL    HW223964   1.572   6.067   6.100
 7689SOL     OW23965   5.603   6.543   3.054
 7689SOL    HW123966   5.512   6.506   3.071
 7689SOL    HW223967   5.637   6.511   2.965
 7690SOL     OW23968   5.600   5.083   0.523
 7690SOL    HW123969   5.641   5.007   0.471
 7690SOL    HW223970   5.511   5.054   0.559
 7691SOL     OW23971   5.581   2.808   5.292
 7691SOL    HW123972   5.527   2.869   5.350
 7691SOL    HW223973   5.535   2.719   5.285
 7692SOL     OW23974   0.408   6.691   2.043
 7692SOL    HW123975   0.331   6.743   2.006
 7692SOL    HW223976   0.456   6.746   2.112
 7693SOL     OW23977   4.171   0.247   1.176
 7693SOL    HW123978   4.166   0.181   1.101
 7693SOL    HW223979   4.133   0.334   1.147
 7694SOL     OW23980   0.341   4.608   5.345
 7694SOL    HW123981   0.276   4.681   5.324
 7694SOL    HW223982   0.291   4.527   5.376
 7695SOL     OW23983   4.337   0.154   0.793
 7695SOL    HW123984   4.298   0.115   0.709
 7695SOL    HW223985   4.360   0.250   0.777
 7696SOL     OW23986   6.618   0.814   4.898
 7696SOL    HW123987   6.713   0.806   4.869
 7696SOL    HW223988   6.562   0.750   4.846
 7697SOL     OW23989   3.244   6.585   2.547
 7697SOL    HW123990   3.221   6.595   2.450
 7697SOL    HW223991   3.342   6.572   2.557
 7698SOL     OW23992   6.482   2.042   3.579
 7698SOL    HW123993   6.436   2.130   3.592
 7698SOL    HW223994   6.461   2.007   3.488
 7699SOL     OW23995   3.484   5.930   0.085
 7699SOL    HW123996   3.551   5.869   0.044
 7699SOL    HW223997   3.398   5.881   0.099
 7700SOL     OW23998   5.359   6.462   4.415
 7700SOL    HW123999   5.420   6.427   4.344
 7700SOL    HW224000   5.264   6.439   4.392
 7701SOL     OW24001   6.704   1.593   6.988
 7701SOL    HW124002   6.764   1.527   6.942
 7701SOL    HW224003   6.628   1.618   6.928
 7702SOL     OW24004   3.676   6.146   5.562
 7702SOL    HW124005   3.736   6.225   5.572
 7702SOL    HW224006   3.595   6.172   5.511
 7703SOL     OW24007   6.100   0.470   6.199
 7703SOL    HW124008   6.168   0.506   6.263
 7703SOL    HW224009   6.126   0.493   6.106
 7704SOL     OW24010   5.881   5.445   4.929
 7704SOL    HW124011   5.963   5.401   4.890
 7704SOL    HW224012   5.803   5.383   4.919
 7705SOL     OW24013   3.705   5.329   6.469
 7705SOL    HW124014   3.712   5.286   6.559
 7705SOL    HW224015   3.612   5.316   6.433
 7706SOL     OW24016   4.295   3.214   5.285
 7706SOL    HW124017   4.388   3.250   5.291
 7706SOL    HW224018   4.231   3.289   5.273
 7707SOL     OW24019   0.406   5.586   6.185
 7707SOL    HW124020   0.308   5.573   6.178
 7707SOL    HW224021   0.431   5.677   6.153
 7708SOL     OW24022   6.925   0.055   5.474
 7708SOL    HW124023   6.859   0.129   5.489
 7708SOL    HW224024   7.015   0.083   5.509
 7709SOL     OW24025   6.325   4.477   1.723
 7709SOL    HW124026   6.306   4.445   1.631
 7709SOL    HW224027   6.260   4.437   1.787
 7710SOL     OW24028   2.879   0.874   0.190
 7710SOL    HW124029   2.934   0.920   0.259
 7710SOL    HW224030   2.858   0.781   0.220
 7711SOL     OW24031   6.560   6.444   5.782
 7711SOL    HW124032   6.546   6.388   5.864
 7711SOL    HW224033   6.608   6.528   5.808
 7712SOL     OW24034   5.601   6.118   2.431
 7712SOL    HW124035   5.652   6.036   2.457
 7712SOL    HW224036   5.523   6.091   2.373
 7713SOL     OW24037   1.396   4.229   0.677
 7713SOL    HW124038   1.490   4.207   0.651
 7713SOL    HW224039   1.333   4.179   0.618
 7714SOL     OW24040   6.251   4.250   5.792
 7714SOL    HW124041   6.337   4.263   5.744
 7714SOL    HW224042   6.265   4.191   5.871
 7715SOL     OW24043   4.022   2.080   0.471
 7715SOL    HW124044   4.036   2.172   0.433
 7715SOL    HW224045   3.979   2.022   0.401
 7716SOL     OW24046   6.164   4.512   3.156
 7716SOL    HW124047   6.078   4.556   3.129
 7716SOL    HW224048   6.208   4.472   3.076
 7717SOL     OW24049   1.726   1.059   5.108
 7717SOL    HW124050   1.791   1.001   5.158
 7717SOL    HW224051   1.634   1.041   5.141
 7718SOL     OW24052   1.386   2.854   3.094
 7718SOL    HW124053   1.396   2.881   3.189
 7718SOL    HW224054   1.422   2.761   3.082
 7719SOL     OW24055   6.731   4.398   4.859
 7719SOL    HW124056   6.647   4.350   4.837
 7719SOL    HW224057   6.759   4.453   4.780
 7720SOL     OW24058   0.560   1.366   0.132
 7720SOL    HW124059   0.615   1.400   0.207
 7720SOL    HW224060   0.561   1.432   0.057
 7721SOL     OW24061   0.424   5.505   2.645
 7721SOL    HW124062   0.339   5.556   2.657
 7721SOL    HW224063   0.403   5.408   2.631
 7722SOL     OW24064   1.106   5.372   3.198
 7722SOL    HW124065   1.043   5.371   3.276
 7722SOL    HW224066   1.164   5.454   3.204
 7723SOL     OW24067   4.836   2.938   6.822
 7723SOL    HW124068   4.920   2.883   6.825
 7723SOL    HW224069   4.827   2.988   6.909
 7724SOL     OW24070   2.993   3.932   0.960
 7724SOL    HW124071   2.924   3.861   0.947
 7724SOL    HW224072   2.997   3.958   1.056
 7725SOL     OW24073   6.371   2.287   3.559
 7725SOL    HW124074   6.361   2.278   3.460
 7725SOL    HW224075   6.283   2.312   3.599
 7726SOL     OW24076   1.889   5.908   5.290
 7726SOL    HW124077   1.832   5.836   5.331
 7726SOL    HW224078   1.838   5.994   5.288
 7727SOL     OW24079   6.953   0.918   2.894
 7727SOL    HW124080   0.013   0.949   2.935
 7727SOL    HW224081   6.879   0.980   2.920
 7728SOL     OW24082   1.271   4.761   3.409
 7728SOL    HW124083   1.173   4.771   3.421
 7728SOL    HW224084   1.318   4.838   3.452
 7729SOL     OW24085   5.853   2.523   1.331
 7729SOL    HW124086   5.757   2.544   1.345
 7729SOL    HW224087   5.892   2.486   1.415
 7730SOL     OW24088   5.860   5.956   0.891
 7730SOL    HW124089   5.858   5.872   0.944
 7730SOL    HW224090   5.886   6.033   0.950
 7731SOL     OW24091   6.322   0.736   6.633
 7731SOL    HW124092   6.303   0.661   6.696
 7731SOL    HW224093   6.291   0.822   6.673
 7732SOL     OW24094   4.395   6.435   0.710
 7732SOL    HW124095   4.339   6.386   0.776
 7732SOL    HW224096   4.357   6.423   0.618
 7733SOL     OW24097   4.709   6.237   2.181
 7733SOL    HW124098   4.798   6.278   2.204
 7733SOL    HW224099   4.720   6.138   2.170
 7734SOL     OW24100   2.922   5.311   3.308
 7734SOL    HW124101   2.936   5.400   3.352
 7734SOL    HW224102   2.836   5.313   3.257
 7735SOL     OW24103   4.816   6.341   6.761
 7735SOL    HW124104   4.745   6.313   6.696
 7735SOL    HW224105   4.782   6.329   6.854
 7736SOL     OW24106   3.369   3.592   0.172
 7736SOL    HW124107   3.275   3.573   0.142
 7736SOL    HW224108   3.384   3.690   0.173
 7737SOL     OW24109   3.104   0.231   2.612
 7737SOL    HW124110   3.013   0.251   2.576
 7737SOL    HW224111   3.113   0.133   2.627
 7738SOL     OW24112   2.782   5.812   6.780
 7738SOL    HW124113   2.698   5.811   6.725
 7738SOL    HW224114   2.764   5.766   6.867
 7739SOL     OW24115   0.746   2.433   0.808
 7739SOL    HW124116   0.664   2.416   0.752
 7739SOL    HW224117   0.752   2.531   0.829
 7740SOL     OW24118   2.364   0.983   2.965
 7740SOL    HW124119   2.419   0.945   2.890
 7740SOL    HW224120   2.268   0.990   2.936
 7741SOL     OW24121   1.101   5.073   6.053
 7741SOL    HW124122   1.019   5.129   6.059
 7741SOL    HW224123   1.087   4.988   6.104
 7742SOL     OW24124   4.989   1.999   3.643
 7742SOL    HW124125   4.936   1.918   3.670
 7742SOL    HW224126   4.935   2.081   3.662
 7743SOL     OW24127   6.113   1.193   0.330
 7743SOL    HW124128   6.176   1.221   0.403
 7743SOL    HW224129   6.019   1.206   0.360
 7744SOL     OW24130   0.790   6.529   3.566
 7744SOL    HW124131   0.753   6.598   3.504
 7744SOL    HW224132   0.884   6.554   3.591
 7745SOL     OW24133   3.674   1.181   6.656
 7745SOL    HW124134   3.707   1.261   6.606
 7745SOL    HW224135   3.751   1.122   6.681
 7746SOL     OW24136   2.261   6.427   0.222
 7746SOL    HW124137   2.216   6.353   0.272
 7746SOL    HW224138   2.358   6.429   0.247
 7747SOL     OW24139   5.573   5.843   1.410
 7747SOL    HW124140   5.507   5.884   1.347
 7747SOL    HW224141   5.647   5.907   1.427
 7748SOL     OW24142   3.017   3.921   4.716
 7748SOL    HW124143   2.942   3.983   4.741
 7748SOL    HW224144   2.991   3.827   4.739
 7749SOL     OW24145   2.367   2.697   5.914
 7749SOL    HW124146   2.328   2.640   5.841
 7749SOL    HW224147   2.466   2.701   5.904
 7750SOL     OW24148   0.058   6.044   1.754
 7750SOL    HW124149   0.096   6.127   1.795
 7750SOL    HW224150   6.991   6.029   1.788
 7751SOL     OW24151   1.217   2.616   1.884
 7751SOL    HW124152   1.283   2.550   1.849
 7751SOL    HW224153   1.124   2.587   1.859
 7752SOL     OW24154   5.437   6.965   6.043
 7752SOL    HW124155   5.453   6.922   5.955
 7752SOL    HW224156   5.412   0.036   6.029
 7753SOL     OW24157   2.489   1.754   3.778
 7753SOL    HW124158   2.438   1.668   3.776
 7753SOL    HW224159   2.519   1.776   3.685
 7754SOL     OW24160   3.314   6.288   1.174
 7754SOL    HW124161   3.259   6.371   1.189
 7754SOL    HW224162   3.311   6.264   1.077
 7755SOL     OW24163   2.484   2.360   5.339
 7755SOL    HW124164   2.478   2.261   5.353
 7755SOL    HW224165   2.396   2.402   5.358
 7756SOL     OW24166   2.876   6.503   2.829
 7756SOL    HW124167   2.871   6.519   2.731
 7756SOL    HW224168   2.826   6.420   2.853
 7757SOL     OW24169   5.842   4.894   0.465
 7757SOL    HW124170   5.880   4.854   0.549
 7757SOL    HW224171   5.914   4.898   0.395
 7758SOL     OW24172   2.262   0.053   5.804
 7758SOL    HW124173   2.267   6.985   5.767
 7758SOL    HW224174   2.181   0.099   5.769
 7759SOL     OW24175   1.933   2.151   5.638
 7759SOL    HW124176   2.000   2.078   5.651
 7759SOL    HW224177   1.980   2.239   5.638
 7760SOL     OW24178   6.076   3.674   2.446
 7760SOL    HW124179   6.088   3.575   2.456
 7760SOL    HW224180   6.034   3.694   2.358
 7761SOL     OW24181   6.227   6.847   4.891
 7761SOL    HW124182   6.264   6.936   4.863
 7761SOL    HW224183   6.131   6.857   4.917
 7762SOL     OW24184   2.161   0.233   4.340
 7762SOL    HW124185   2.230   0.301   4.315
 7762SOL    HW224186   2.120   0.257   4.428
 7763SOL     OW24187   2.089   0.073   6.919
 7763SOL    HW124188   2.090   7.010   6.964
 7763SOL    HW224189   1.997   0.091   6.883
 7764SOL     OW24190   3.843   3.551   5.157
 7764SOL    HW124191   3.817   3.579   5.250
 7764SOL    HW224192   3.821   3.623   5.092
 7765SOL     OW24193   6.035   3.326   4.790
 7765SOL    HW124194   6.088   3.318   4.706
 7765SOL    HW224195   5.980   3.409   4.787
 7766SOL     OW24196   6.805   3.900   0.058
 7766SOL    HW124197   6.773   3.896   0.153
 7766SOL    HW224198   6.806   3.995   0.027
 7767SOL     OW24199   4.712   5.734   2.368
 7767SOL    HW124200   4.629   5.760   2.318
 7767SOL    HW224201   4.695   5.651   2.420
 7768SOL     OW24202   4.550   4.502   2.992
 7768SOL    HW124203   4.522   4.545   3.078
 7768SOL    HW224204   4.580   4.408   3.009
 7769SOL     OW24205   4.577   1.706   4.020
 7769SOL    HW124206   4.646   1.762   4.066
 7769SOL    HW224207   4.505   1.765   3.983
 7770SOL     OW24208   1.673   3.721   4.684
 7770SOL    HW124209   1.619   3.766   4.754
 7770SOL    HW224210   1.623   3.642   4.648
 7771SOL     OW24211   3.493   1.970   5.188
 7771SOL    HW124212   3.452   1.906   5.124
 7771SOL    HW224213   3.429   2.045   5.205
 7772SOL     OW24214   4.825   6.693   1.892
 7772SOL    HW124215   4.792   6.640   1.814
 7772SOL    HW224216   4.767   6.773   1.905
 7773SOL     OW24217   2.110   5.148   5.219
 7773SOL    HW124218   2.176   5.219   5.242
 7773SOL    HW224219   2.153   5.058   5.230
 7774SOL     OW24220   4.974   2.120   4.517
 7774SOL    HW124221   5.015   2.029   4.504
 7774SOL    HW224222   5.046   2.189   4.513
 7775SOL     OW24223   4.384   6.828   0.355
 7775SOL    HW124224   4.360   6.889   0.280
 7775SOL    HW224225   4.484   6.823   0.363
 7776SOL     OW24226   0.767   5.904   6.862
 7776SOL    HW124227   0.679   5.942   6.834
 7776SOL    HW224228   0.771   5.900   6.962
 7777SOL     OW24229   6.231   5.333   4.007
 7777SOL    HW124230   6.294   5.266   4.046
 7777SOL    HW224231   6.241   5.336   3.908
 7778SOL     OW24232   5.640   3.692   1.210
 7778SOL    HW124233   5.605   3.740   1.289
 7778SOL    HW224234   5.708   3.624   1.239
 7779SOL     OW24235   2.528   1.500   1.439
 7779SOL    HW124236   2.618   1.463   1.460
 7779SOL    HW224237   2.524   1.597   1.465
 7780SOL     OW24238   0.729   5.055   5.883
 7780SOL    HW124239   0.771   5.139   5.848
 7780SOL    HW224240   0.780   5.023   5.963
 7781SOL     OW24241   2.194   4.370   1.760
 7781SOL    HW124242   2.166   4.457   1.800
 7781SOL    HW224243   2.271   4.334   1.812
 7782SOL     OW24244   5.355   5.032   4.461
 7782SOL    HW124245   5.354   5.034   4.561
 7782SOL    HW224246   5.261   5.024   4.427
 7783SOL     OW24247   0.752   6.969   5.650
 7783SOL    HW124248   0.700   6.989   5.734
 7783SOL    HW224249   0.713   7.021   5.574
 7784SOL     OW24250   3.426   2.771   1.945
 7784SOL    HW124251   3.379   2.683   1.946
 7784SOL    HW224252   3.523   2.757   1.966
 7785SOL     OW24253   2.005   5.944   4.690
 7785SOL    HW124254   2.074   6.015   4.704
 7785SOL    HW224255   1.920   5.972   4.734
 7786SOL     OW24256   3.497   0.094   0.447
 7786SOL    HW124257   3.430   0.153   0.404
 7786SOL    HW224258   3.521   0.130   0.537
 7787SOL     OW24259   2.263   3.013   7.016
 7787SOL    HW124260   2.313   3.086   6.969
 7787SOL    HW224261   2.273   2.928   6.964
 7788SOL     OW24262   1.887   5.116   1.487
 7788SOL    HW124263   1.870   5.205   1.530
 7788SOL    HW224264   1.956   5.127   1.416
 7789SOL     OW24265   2.744   0.434   6.667
 7789SOL    HW124266   2.647   0.453   6.681
 7789SOL    HW224267   2.764   0.434   6.569
 7790SOL     OW24268   5.377   5.482   2.567
 7790SOL    HW124269   5.416   5.574   2.569
 7790SOL    HW224270   5.353   5.459   2.473
 7791SOL     OW24271   2.124   5.297   3.214
 7791SOL    HW124272   2.131   5.228   3.142
 7791SOL    HW224273   2.029   5.304   3.244
 7792SOL     OW24274   1.915   5.657   4.326
 7792SOL    HW124275   1.958   5.747   4.339
 7792SOL    HW224276   1.834   5.667   4.269
 7793SOL     OW24277   3.770   1.005   0.144
 7793SOL    HW124278   3.704   0.974   0.214
 7793SOL    HW224279   3.832   1.072   0.184
 7794SOL     OW24280   0.030   4.052   2.303
 7794SOL    HW124281   7.011   3.990   2.239
 7794SOL    HW224282   0.100   4.003   2.355
 7795SOL     OW24283   2.369   4.684   5.326
 7795SOL    HW124284   2.312   4.661   5.405
 7795SOL    HW224285   2.328   4.762   5.277
 7796SOL     OW24286   3.650   3.157   5.223
 7796SOL    HW124287   3.579   3.091   5.198
 7796SOL    HW224288   3.633   3.244   5.177
 7797SOL     OW24289   1.159   6.137   1.837
 7797SOL    HW124290   1.207   6.059   1.797
 7797SOL    HW224291   1.173   6.138   1.936
 7798SOL     OW24292   0.606   2.896   3.258
 7798SOL    HW124293   0.511   2.901   3.227
 7798SOL    HW224294   0.608   2.890   3.358
 7799SOL     OW24295   1.949   5.208   2.803
 7799SOL    HW124296   1.916   5.286   2.857
 7799SOL    HW224297   2.029   5.236   2.749
 7800SOL     OW24298   0.886   5.352   2.714
 7800SOL    HW124299   0.824   5.349   2.792
 7800SOL    HW224300   0.895   5.446   2.681
 7801SOL     OW24301   1.624   1.660   2.485
 7801SOL    HW124302   1.711   1.705   2.503
 7801SOL    HW224303   1.560   1.679   2.559
 7802SOL     OW24304   6.645   2.774   0.585
 7802SOL    HW124305   6.575   2.845   0.585
 7802SOL    HW224306   6.673   2.756   0.490
 7803SOL     OW24307   4.514   2.122   0.063
 7803SOL    HW124308   4.542   2.164   7.002
 7803SOL    HW224309   4.565   2.162   0.138
 7804SOL     OW24310   4.616   2.132   5.177
 7804SOL    HW124311   4.682   2.149   5.105
 7804SOL    HW224312   4.634   2.192   5.254
 7805SOL     OW24313   5.181   3.391   1.864
 7805SOL    HW124314   5.090   3.352   1.872
 7805SOL    HW224315   5.196   3.456   1.939
 7806SOL     OW24316   5.687   1.745   5.836
 7806SOL    HW124317   5.597   1.775   5.868
 7806SOL    HW224318   5.678   1.660   5.784
 7807SOL     OW24319   0.839   4.921   6.062
 7807SOL    HW124320   0.777   4.891   6.135
 7807SOL    HW224321   0.929   4.880   6.076
 7808SOL     OW24322   5.948   3.452   3.505
 7808SOL    HW124323   5.959   3.355   3.527
 7808SOL    HW224324   5.922   3.462   3.409
 7809SOL     OW24325   5.371   4.869   5.297
 7809SOL    HW124326   5.379   4.852   5.198
 7809SOL    HW224327   5.433   4.807   5.346
 7810SOL     OW24328   3.489   6.333   4.994
 7810SOL    HW124329   3.566   6.271   5.010
 7810SOL    HW224330   3.502   6.381   4.907
 7811SOL     OW24331   1.594   4.922   1.955
 7811SOL    HW124332   1.608   4.984   2.032
 7811SOL    HW224333   1.651   4.951   1.878
 7812SOL     OW24334   1.412   2.390   4.489
 7812SOL    HW124335   1.380   2.299   4.462
 7812SOL    HW224336   1.365   2.460   4.434
 7813SOL     OW24337   4.159   2.189   1.429
 7813SOL    HW124338   4.062   2.166   1.433
 7813SOL    HW224339   4.212   2.108   1.406
 7814SOL     OW24340   6.777   3.081   3.534
 7814SOL    HW124341   6.708   3.094   3.605
 7814SOL    HW224342   6.865   3.119   3.566
 7815SOL     OW24343   5.941   2.193   3.728
 7815SOL    HW124344   5.884   2.275   3.731
 7815SOL    HW224345   5.887   2.113   3.754
 7816SOL     OW24346   1.176   2.402   6.697
 7816SOL    HW124347   1.268   2.367   6.680
 7816SOL    HW224348   1.116   2.377   6.621
 7817SOL     OW24349   4.729   4.246   4.584
 7817SOL    HW124350   4.688   4.241   4.675
 7817SOL    HW224351   4.708   4.335   4.543
 7818SOL     OW24352   4.849   0.474   2.927
 7818SOL    HW124353   4.851   0.375   2.912
 7818SOL    HW224354   4.790   0.494   3.005
 7819SOL     OW24355   0.442   3.479   3.898
 7819SOL    HW124356   0.444   3.443   3.805
 7819SOL    HW224357   0.434   3.579   3.895
 7820SOL     OW24358   1.752   1.413   5.657
 7820SOL    HW124359   1.753   1.344   5.729
 7820SOL    HW224360   1.742   1.368   5.568
 7821SOL     OW24361   5.504   5.571   0.430
 7821SOL    HW124362   5.468   5.644   0.372
 7821SOL    HW224363   5.479   5.588   0.525
 7822SOL     OW24364   1.163   1.383   6.705
 7822SOL    HW124365   1.223   1.452   6.747
 7822SOL    HW224366   1.139   1.314   6.774
 7823SOL     OW24367   2.607   3.774   6.292
 7823SOL    HW124368   2.554   3.859   6.289
 7823SOL    HW224369   2.701   3.793   6.263
 7824SOL     OW24370   5.653   0.968   3.874
 7824SOL    HW124371   5.567   0.987   3.825
 7824SOL    HW224372   5.690   1.054   3.909
 7825SOL     OW24373   1.039   3.392   0.700
 7825SOL    HW124374   1.044   3.431   0.791
 7825SOL    HW224375   0.944   3.367   0.679
 7826SOL     OW24376   5.653   1.453   6.579
 7826SOL    HW124377   5.714   1.526   6.546
 7826SOL    HW224378   5.609   1.483   6.664
 7827SOL     OW24379   2.342   4.523   0.928
 7827SOL    HW124380   2.272   4.498   0.996
 7827SOL    HW224381   2.424   4.469   0.945
 7828SOL     OW24382   0.701   5.211   1.287
 7828SOL    HW124383   0.737   5.133   1.338
 7828SOL    HW224384   0.694   5.290   1.347
 7829SOL     OW24385   2.384   2.889   0.219
 7829SOL    HW124386   2.317   2.935   0.160
 7829SOL    HW224387   2.469   2.876   0.169
 7830SOL     OW24388   4.149   3.885   5.931
 7830SOL    HW124389   4.201   3.952   5.876
 7830SOL    HW224390   4.182   3.793   5.909
 7831SOL     OW24391   1.061   5.299   1.115
 7831SOL    HW124392   1.058   5.200   1.101
 7831SOL    HW224393   1.078   5.319   1.212
 7832SOL     OW24394   3.560   1.319   4.354
 7832SOL    HW124395   3.650   1.355   4.326
 7832SOL    HW224396   3.498   1.396   4.370
 7833SOL     OW24397   0.961   0.550   0.135
 7833SOL    HW124398   0.865   0.570   0.157
 7833SOL    HW224399   0.998   0.486   0.201
 7834SOL     OW24400   6.988   1.573   3.493
 7834SOL    HW124401   0.022   1.574   3.413
 7834SOL    HW224402   0.004   1.628   3.566
 7835SOL     OW24403   2.620   2.361   4.597
 7835SOL    HW124404   2.627   2.460   4.604
 7835SOL    HW224405   2.544   2.328   4.653
 7836SOL     OW24406   3.328   2.770   5.267
 7836SOL    HW124407   3.277   2.767   5.353
 7836SOL    HW224408   3.264   2.788   5.191
 7837SOL     OW24409   6.604   5.489   1.301
 7837SOL    HW124410   6.529   5.509   1.363
 7837SOL    HW224411   6.667   5.425   1.345
 7838SOL     OW24412   4.349   6.336   0.427
 7838SOL    HW124413   4.420   6.374   0.367
 7838SOL    HW224414   4.334   6.240   0.404
 7839SOL     OW24415   5.822   4.564   5.139
 7839SOL    HW124416   5.776   4.484   5.099
 7839SOL    HW224417   5.774   4.591   5.223
 7840SOL     OW24418   5.006   3.203   4.359
 7840SOL    HW124419   5.031   3.298   4.338
 7840SOL    HW224420   4.938   3.202   4.432
 7841SOL     OW24421   4.859   1.562   6.438
 7841SOL    HW124422   4.856   1.497   6.514
 7841SOL    HW224423   4.782   1.545   6.376
 7842SOL     OW24424   2.052   1.765   2.738
 7842SOL    HW124425   1.998   1.743   2.657
 7842SOL    HW224426   2.103   1.684   2.767
 7843SOL     OW24427   4.771   4.179   2.149
 7843SOL    HW124428   4.694   4.218   2.099
 7843SOL    HW224429   4.759   4.196   2.247
 7844SOL     OW24430   4.674   0.290   3.423
 7844SOL    HW124431   4.676   0.330   3.515
 7844SOL    HW224432   4.676   0.363   3.355
 7845SOL     OW24433   6.260   1.735   4.208
 7845SOL    HW124434   6.246   1.667   4.279
 7845SOL    HW224435   6.196   1.719   4.133
 7846SOL     OW24436   1.606   1.277   1.982
 7846SOL    HW124437   1.587   1.268   1.884
 7846SOL    HW224438   1.680   1.214   2.007
 7847SOL     OW24439   6.786   1.921   2.256
 7847SOL    HW124440   6.809   1.924   2.159
 7847SOL    HW224441   6.714   1.987   2.275
 7848SOL     OW24442   3.401   3.401   0.993
 7848SOL    HW124443   3.328   3.468   0.979
 7848SOL    HW224444   3.384   3.322   0.934
 7849SOL     OW24445   5.322   3.679   3.127
 7849SOL    HW124446   5.232   3.677   3.084
 7849SOL    HW224447   5.374   3.598   3.100
 7850SOL     OW24448   0.561   1.685   3.785
 7850SOL    HW124449   0.627   1.630   3.836
 7850SOL    HW224450   0.511   1.626   3.721
 7851SOL     OW24451   7.015   6.602   0.909
 7851SOL    HW124452   6.935   6.542   0.911
 7851SOL    HW224453   0.062   6.558   0.855
 7852SOL     OW24454   2.515   0.183   5.395
 7852SOL    HW124455   2.607   0.144   5.397
 7852SOL    HW224456   2.466   0.158   5.479
 7853SOL     OW24457   3.786   1.154   1.970
 7853SOL    HW124458   3.687   1.164   1.956
 7853SOL    HW224459   3.808   1.058   1.986
 7854SOL     OW24460   2.773   3.743   0.549
 7854SOL    HW124461   2.850   3.793   0.510
 7854SOL    HW224462   2.715   3.806   0.600
 7855SOL     OW24463   2.871   5.817   5.628
 7855SOL    HW124464   2.819   5.821   5.714
 7855SOL    HW224465   2.900   5.723   5.612
 7856SOL     OW24466   5.643   5.144   4.673
 7856SOL    HW124467   5.699   5.216   4.631
 7856SOL    HW224468   5.547   5.173   4.674
 7857SOL     OW24469   6.271   2.822   5.564
 7857SOL    HW124470   6.316   2.739   5.596
 7857SOL    HW224471   6.319   2.857   5.483
 7858SOL     OW24472   4.845   5.307   3.516
 7858SOL    HW124473   4.933   5.354   3.524
 7858SOL    HW224474   4.815   5.307   3.420
 7859SOL     OW24475   6.174   3.916   5.171
 7859SOL    HW124476   6.146   4.012   5.173
 7859SOL    HW224477   6.118   3.864   5.236
 7860SOL     OW24478   4.229   0.017   2.751
 7860SOL    HW124479   4.303   6.977   2.764
 7860SOL    HW224480   4.184   0.000   2.663
 7861SOL     OW24481   3.779   5.158   1.557
 7861SOL    HW124482   3.747   5.128   1.467
 7861SOL    HW224483   3.816   5.251   1.550
 7862SOL     OW24484   2.986   4.735   1.753
 7862SOL    HW124485   2.948   4.656   1.801
 7862SOL    HW224486   2.971   4.725   1.655
 7863SOL     OW24487   6.587   6.671   3.857
 7863SOL    HW124488   6.511   6.660   3.793
 7863SOL    HW224489   6.590   6.767   3.888
 7864SOL     OW24490   0.042   6.703   5.434
 7864SOL    HW124491   0.083   6.638   5.371
 7864SOL    HW224492   0.003   6.780   5.383
 7865SOL     OW24493   5.268   6.768   4.989
 7865SOL    HW124494   5.183   6.819   5.002
 7865SOL    HW224495   5.271   6.732   4.896
 7866SOL     OW24496   2.401   2.388   6.826
 7866SOL    HW124497   2.360   2.462   6.880
 7866SOL    HW224498   2.501   2.398   6.827
 7867SOL     OW24499   5.427   6.703   2.425
 7867SOL    HW124500   5.358   6.768   2.456
 7867SOL    HW224501   5.496   6.751   2.370
 7868SOL     OW24502   5.909   6.777   2.289
 7868SOL    HW124503   5.871   6.702   2.236
 7868SOL    HW224504   6.005   6.758   2.310
 7869SOL     OW24505   5.245   3.319   0.109
 7869SOL    HW124506   5.333   3.348   0.147
 7869SOL    HW224507   5.215   3.235   0.155
 7870SOL     OW24508   4.590   4.774   4.638
 7870SOL    HW124509   4.525   4.762   4.564
 7870SOL    HW224510   4.677   4.807   4.602
 7871SOL     OW24511   5.418   3.788   2.406
 7871SOL    HW124512   5.515   3.791   2.429
 7871SOL    HW224513   5.364   3.816   2.486
 7872SOL     OW24514   2.256   4.189   2.718
 7872SOL    HW124515   2.245   4.215   2.814
 7872SOL    HW224516   2.310   4.258   2.671
 7873SOL     OW24517   4.942   0.779   5.529
 7873SOL    HW124518   4.913   0.867   5.493
 7873SOL    HW224519   5.007   0.737   5.466
 7874SOL     OW24520   4.962   1.747   0.500
 7874SOL    HW124521   4.948   1.709   0.408
 7874SOL    HW224522   4.875   1.777   0.538
 7875SOL     OW24523   4.570   2.270   6.866
 7875SOL    HW124524   4.593   2.294   6.771
 7875SOL    HW224525   4.475   2.294   6.884
 7876SOL     OW24526   6.737   6.784   5.081
 7876SOL    HW124527   6.735   6.685   5.085
 7876SOL    HW224528   6.715   6.814   4.988
 7877SOL     OW24529   6.754   3.110   3.020
 7877SOL    HW124530   6.817   3.086   2.946
 7877SOL    HW224531   6.687   3.036   3.033
 7878SOL     OW24532   4.981   5.163   4.113
 7878SOL    HW124533   5.077   5.140   4.097
 7878SOL    HW224534   4.923   5.085   4.092
 7879SOL     OW24535   4.955   5.800   3.493
 7879SOL    HW124536   4.875   5.854   3.467
 7879SOL    HW224537   5.014   5.855   3.553
 7880SOL     OW24538   1.246   5.333   0.912
 7880SOL    HW124539   1.195   5.352   0.996
 7880SOL    HW224540   1.286   5.241   0.918
 7881SOL     OW24541   5.495   3.506   4.739
 7881SOL    HW124542   5.580   3.537   4.783
 7881SOL    HW224543   5.431   3.582   4.734
 7882SOL     OW24544   1.652   3.451   2.441
 7882SOL    HW124545   1.657   3.460   2.541
 7882SOL    HW224546   1.600   3.369   2.418
 7883SOL     OW24547   1.614   6.987   1.289
 7883SOL    HW124548   1.616   0.015   1.373
 7883SOL    HW224549   1.594   0.022   1.211
 7884SOL     OW24550   2.159   3.343   3.918
 7884SOL    HW124551   2.139   3.305   4.008
 7884SOL    HW224552   2.140   3.441   3.918
 7885SOL     OW24553   6.095   6.358   1.857
 7885SOL    HW124554   6.052   6.442   1.890
 7885SOL    HW224555   6.065   6.280   1.912
 7886SOL     OW24556   4.028   5.134   0.906
 7886SOL    HW124557   4.087   5.208   0.938
 7886SOL    HW224558   3.932   5.160   0.919
 7887SOL     OW24559   3.239   2.387   5.393
 7887SOL    HW124560   3.223   2.479   5.427
 7887SOL    HW224561   3.211   2.381   5.297
 7888SOL     OW24562   0.219   0.588   5.133
 7888SOL    HW124563   0.133   0.594   5.082
 7888SOL    HW224564   0.214   0.514   5.200
 7889SOL     OW24565   0.677   4.659   6.961
 7889SOL    HW124566   0.711   4.581   7.014
 7889SOL    HW224567   0.728   4.741   6.988
 7890SOL     OW24568   0.656   3.337   4.220
 7890SOL    HW124569   0.570   3.364   4.175
 7890SOL    HW224570   0.733   3.369   4.165
 7891SOL     OW24571   1.852   4.274   5.182
 7891SOL    HW124572   1.894   4.332   5.251
 7891SOL    HW224573   1.919   4.206   5.152
 7892SOL     OW24574   1.872   1.962   3.900
 7892SOL    HW124575   1.918   1.969   3.988
 7892SOL    HW224576   1.937   1.929   3.831
 7893SOL     OW24577   6.304   0.168   1.963
 7893SOL    HW124578   6.299   0.265   1.940
 7893SOL    HW224579   6.215   0.125   1.946
 7894SOL     OW24580   3.643   0.861   1.037
 7894SOL    HW124581   3.628   0.924   1.113
 7894SOL    HW224582   3.661   0.913   0.953
 7895SOL     OW24583   4.828   0.249   4.425
 7895SOL    HW124584   4.863   0.270   4.334
 7895SOL    HW224585   4.897   0.272   4.494
 7896SOL     OW24586   4.825   2.887   1.362
 7896SOL    HW124587   4.768   2.817   1.320
 7896SOL    HW224588   4.766   2.959   1.400
 7897SOL     OW24589   3.514   2.261   1.470
 7897SOL    HW124590   3.504   2.262   1.570
 7897SOL    HW224591   3.440   2.208   1.430
 7898SOL     OW24592   3.868   0.266   3.660
 7898SOL    HW124593   3.825   0.221   3.582
 7898SOL    HW224594   3.818   0.350   3.682
 7899SOL     OW24595   5.729   6.588   1.647
 7899SOL    HW124596   5.787   6.513   1.613
 7899SOL    HW224597   5.638   6.581   1.605
 7900SOL     OW24598   0.897   5.283   1.701
 7900SOL    HW124599   0.963   5.347   1.740
 7900SOL    HW224600   0.809   5.294   1.747
 7901SOL     OW24601   4.623   1.110   6.936
 7901SOL    HW124602   4.572   1.066   6.863
 7901SOL    HW224603   4.715   1.133   6.904
 7902SOL     OW24604   5.762   5.865   2.461
 7902SOL    HW124605   5.823   5.944   2.456
 7902SOL    HW224606   5.789   5.798   2.392
 7903SOL     OW24607   4.791   1.407   3.194
 7903SOL    HW124608   4.727   1.479   3.166
 7903SOL    HW224609   4.789   1.332   3.127
 7904SOL     OW24610   5.611   6.863   2.265
 7904SOL    HW124611   5.598   6.822   2.175
 7904SOL    HW224612   5.701   6.836   2.301
 7905SOL     OW24613   6.044   2.197   0.524
 7905SOL    HW124614   6.090   2.199   0.435
 7905SOL    HW224615   6.096   2.140   0.587
 7906SOL     OW24616   0.587   5.059   0.619
 7906SOL    HW124617   0.586   5.125   0.694
 7906SOL    HW224618   0.527   5.091   0.545
 7907SOL     OW24619   6.167   2.001   3.818
 7907SOL    HW124620   6.108   2.081   3.807
 7907SOL    HW224621   6.212   2.004   3.907
 7908SOL     OW24622   1.479   0.679   6.406
 7908SOL    HW124623   1.493   0.662   6.504
 7908SOL    HW224624   1.545   0.626   6.353
 7909SOL     OW24625   4.997   4.186   3.927
 7909SOL    HW124626   5.082   4.134   3.937
 7909SOL    HW224627   4.973   4.226   4.016
 7910SOL     OW24628   2.413   3.279   0.597
 7910SOL    HW124629   2.475   3.264   0.521
 7910SOL    HW224630   2.410   3.377   0.619
 7911SOL     OW24631   1.021   4.738   0.425
 7911SOL    HW124632   1.067   4.744   0.514
 7911SOL    HW224633   0.950   4.808   0.420
 7912SOL     OW24634   5.735   4.661   1.022
 7912SOL    HW124635   5.801   4.594   0.988
 7912SOL    HW224636   5.643   4.627   1.008
 7913SOL     OW24637   1.292   4.016   1.819
 7913SOL    HW124638   1.335   4.104   1.799
 7913SOL    HW224639   1.224   4.028   1.892
 7914SOL     OW24640   6.965   4.604   0.574
 7914SOL    HW124641   6.990   4.537   0.644
 7914SOL    HW224642   0.007   4.678   0.573
 7915SOL     OW24643   5.214   2.166   2.245
 7915SOL    HW124644   5.285   2.217   2.197
 7915SOL    HW224645   5.162   2.228   2.303
 7916SOL     OW24646   6.817   6.660   5.527
 7916SOL    HW124647   6.903   6.646   5.478
 7916SOL    HW224648   6.785   6.574   5.566
 7917SOL     OW24649   3.924   3.156   5.464
 7917SOL    HW124650   3.827   3.155   5.489
 7917SOL    HW224651   3.962   3.064   5.474
 7918SOL     OW24652   6.397   1.297   4.533
 7918SOL    HW124653   6.320   1.296   4.469
 7918SOL    HW224654   6.472   1.350   4.494
 7919SOL     OW24655   1.708   4.767   3.162
 7919SOL    HW124656   1.738   4.710   3.239
 7919SOL    HW224657   1.624   4.815   3.188
 7920SOL     OW24658   6.361   6.928   0.494
 7920SOL    HW124659   6.423   6.876   0.435
 7920SOL    HW224660   6.414   6.978   0.563
 7921SOL     OW24661   6.182   6.399   2.262
 7921SOL    HW124662   6.244   6.320   2.257
 7921SOL    HW224663   6.123   6.390   2.342
 7922SOL     OW24664   0.604   6.086   0.182
 7922SOL    HW124665   0.663   6.081   0.262
 7922SOL    HW224666   0.508   6.091   0.211
 7923SOL     OW24667   3.995   0.684   6.326
 7923SOL    HW124668   4.078   0.713   6.374
 7923SOL    HW224669   4.010   0.593   6.286
 7924SOL     OW24670   5.099   0.577   2.440
 7924SOL    HW124671   5.019   0.522   2.459
 7924SOL    HW224672   5.181   0.530   2.472
 7925SOL     OW24673   0.729   0.098   0.370
 7925SOL    HW124674   0.813   0.117   0.321
 7925SOL    HW224675   0.720   7.025   0.384
 7926SOL     OW24676   4.486   1.936   6.159
 7926SOL    HW124677   4.585   1.923   6.163
 7926SOL    HW224678   4.459   1.952   6.064
 7927SOL     OW24679   4.673   5.955   2.684
 7927SOL    HW124680   4.630   5.865   2.687
 7927SOL    HW224681   4.618   6.021   2.735
 7928SOL     OW24682   1.151   1.653   3.963
 7928SOL    HW124683   1.142   1.577   4.027
 7928SOL    HW224684   1.083   1.644   3.890
 7929SOL     OW24685   4.203   3.667   5.777
 7929SOL    HW124686   4.265   3.591   5.755
 7929SOL    HW224687   4.181   3.718   5.693
 7930SOL     OW24688   4.616   5.335   5.540
 7930SOL    HW124689   4.539   5.274   5.519
 7930SOL    HW224690   4.682   5.286   5.596
 7931SOL     OW24691   3.020   3.290   6.897
 7931SOL    HW124692   3.071   3.335   6.824
 7931SOL    HW224693   2.922   3.307   6.884
 7932SOL     OW24694   1.162   6.249   6.624
 7932SOL    HW124695   1.238   6.197   6.585
 7932SOL    HW224696   1.091   6.186   6.655
 7933SOL     OW24697   6.794   0.016   6.148
 7933SOL    HW124698   6.738   0.089   6.189
 7933SOL    HW224699   6.810   6.970   6.215
 7934SOL     OW24700   1.454   5.038   6.715
 7934SOL    HW124701   1.361   5.006   6.734
 7934SOL    HW224702   1.450   5.129   6.672
 7935SOL     OW24703   6.005   6.098   1.156
 7935SOL    HW124704   6.084   6.051   1.117
 7935SOL    HW224705   6.022   6.197   1.157
 7936SOL     OW24706   2.902   5.789   2.000
 7936SOL    HW124707   2.849   5.810   2.082
 7936SOL    HW224708   2.904   5.690   1.987
 7937SOL     OW24709   6.691   6.134   3.877
 7937SOL    HW124710   6.729   6.151   3.786
 7937SOL    HW224711   6.623   6.061   3.872
 7938SOL     OW24712   6.346   5.958   4.343
 7938SOL    HW124713   6.411   5.913   4.281
 7938SOL    HW224714   6.279   6.009   4.289
 7939SOL     OW24715   1.947   2.261   5.172
 7939SOL    HW124716   1.875   2.257   5.103
 7939SOL    HW224717   2.026   2.311   5.135
 7940SOL     OW24718   1.947   3.033   1.669
 7940SOL    HW124719   1.916   2.992   1.754
 7940SOL    HW224720   2.040   3.068   1.681
 7941SOL     OW24721   6.195   6.163   1.688
 7941SOL    HW124722   6.147   6.239   1.732
 7941SOL    HW224723   6.289   6.190   1.667
 7942SOL     OW24724   0.149   4.924   2.799
 7942SOL    HW124725   0.162   5.018   2.830
 7942SOL    HW224726   0.132   4.865   2.879
 7943SOL     OW24727   0.653   4.085   6.341
 7943SOL    HW124728   0.733   4.044   6.384
 7943SOL    HW224729   0.617   4.024   6.271
 7944SOL     OW24730   0.711   2.614   0.451
 7944SOL    HW124731   0.806   2.644   0.463
 7944SOL    HW224732   0.663   2.621   0.538
 7945SOL     OW24733   6.604   5.483   1.046
 7945SOL    HW124734   6.568   5.393   1.022
 7945SOL    HW224735   6.612   5.490   1.145
 7946SOL     OW24736   3.547   0.019   5.355
 7946SOL    HW124737   3.461   0.003   5.306
 7946SOL    HW224738   3.620   0.033   5.289
 7947SOL     OW24739   3.089   1.401   5.603
 7947SOL    HW124740   3.154   1.473   5.628
 7947SOL    HW224741   3.025   1.387   5.678
 7948SOL     OW24742   0.943   5.860   1.270
 7948SOL    HW124743   0.848   5.849   1.298
 7948SOL    HW224744   0.981   5.770   1.248
 7949SOL     OW24745   5.066   3.960   5.333
 7949SOL    HW124746   5.033   3.992   5.422
 7949SOL    HW224747   5.116   3.875   5.345
 7950SOL     OW24748   4.887   5.347   4.291
 7950SOL    HW124749   4.855   5.433   4.252
 7950SOL    HW224750   4.924   5.289   4.218
 7951SOL     OW24751   2.351   5.071   2.378
 7951SOL    HW124752   2.424   5.129   2.416
 7951SOL    HW224753   2.263   5.104   2.411
 7952SOL     OW24754   6.795   3.464   6.549
 7952SOL    HW124755   6.860   3.539   6.560
 7952SOL    HW224756   6.712   3.499   6.504
 7953SOL     OW24757   3.697   2.051   2.972
 7953SOL    HW124758   3.690   2.106   2.889
 7953SOL    HW224759   3.783   1.999   2.970
 7954SOL     OW24760   3.203   4.320   6.433
 7954SOL    HW124761   3.139   4.347   6.361
 7954SOL    HW224762   3.287   4.374   6.425
 7955SOL     OW24763   2.939   1.242   6.462
 7955SOL    HW124764   2.886   1.270   6.541
 7955SOL    HW224765   2.941   1.316   6.395
 7956SOL     OW24766   4.867   6.692   2.174
 7956SOL    HW124767   4.837   6.774   2.224
 7956SOL    HW224768   4.873   6.713   2.076
 7957SOL     OW24769   1.304   0.627   0.849
 7957SOL    HW124770   1.398   0.594   0.833
 7957SOL    HW224771   1.271   0.673   0.767
 7958SOL     OW24772   4.238   5.266   5.871
 7958SOL    HW124773   4.200   5.175   5.854
 7958SOL    HW224774   4.313   5.258   5.937
 7959SOL     OW24775   5.241   6.102   1.078
 7959SOL    HW124776   5.223   6.153   1.162
 7959SOL    HW224777   5.304   6.154   1.021
 7960SOL     OW24778   1.752   0.836   5.890
 7960SOL    HW124779   1.724   0.923   5.932
 7960SOL    HW224780   1.685   0.765   5.913
 7961SOL     OW24781   6.884   0.845   0.235
 7961SOL    HW124782   6.899   0.911   0.308
 7961SOL    HW224783   6.935   0.761   0.254
 7962SOL     OW24784   1.387   0.993   6.009
 7962SOL    HW124785   1.345   0.908   5.976
 7962SOL    HW224786   1.445   0.973   6.088
 7963SOL     OW24787   6.247   6.428   4.317
 7963SOL    HW124788   6.263   6.335   4.352
 7963SOL    HW224789   6.227   6.424   4.219
 7964SOL     OW24790   6.773   4.130   2.940
 7964SOL    HW124791   6.820   4.218   2.943
 7964SOL    HW224792   6.760   4.103   2.844
 7965SOL     OW24793   4.258   2.216   5.931
 7965SOL    HW124794   4.220   2.194   6.021
 7965SOL    HW224795   4.345   2.263   5.942
 7966SOL     OW24796   2.701   2.560   5.665
 7966SOL    HW124797   2.759   2.514   5.598
 7966SOL    HW224798   2.648   2.492   5.715
 7967SOL     OW24799   3.569   6.306   2.413
 7967SOL    HW124800   3.470   6.300   2.400
 7967SOL    HW224801   3.607   6.377   2.354
 7968SOL     OW24802   0.741   2.210   3.753
 7968SOL    HW124803   0.683   2.149   3.807
 7968SOL    HW224804   0.744   2.300   3.795
 7969SOL     OW24805   5.237   6.170   0.395
 7969SOL    HW124806   5.298   6.240   0.359
 7969SOL    HW224807   5.142   6.197   0.379
 7970SOL     OW24808   6.724   2.780   2.083
 7970SOL    HW124809   6.645   2.748   2.136
 7970SOL    HW224810   6.802   2.793   2.145
 7971SOL     OW24811   2.996   1.713   1.417
 7971SOL    HW124812   2.961   1.801   1.450
 7971SOL    HW224813   3.094   1.721   1.398
 7972SOL     OW24814   2.446   3.286   0.150
 7972SOL    HW124815   2.408   3.251   0.065
 7972SOL    HW224816   2.470   3.209   0.210
 7973SOL     OW24817   4.046   4.902   4.707
 7973SOL    HW124818   4.130   4.857   4.737
 7973SOL    HW224819   3.990   4.925   4.786
 7974SOL     OW24820   5.759   0.564   5.442
 7974SOL    HW124821   5.678   0.540   5.388
 7974SOL    HW224822   5.765   0.502   5.520
 7975SOL     OW24823   6.640   0.858   1.656
 7975SOL    HW124824   6.709   0.787   1.675
 7975SOL    HW224825   6.687   0.943   1.634
 7976SOL     OW24826   0.954   0.362   6.096
 7976SOL    HW124827   0.888   0.424   6.053
 7976SOL    HW224828   0.999   0.408   6.171
 7977SOL     OW24829   4.511   5.872   2.981
 7977SOL    HW124830   4.580   5.800   2.986
 7977SOL    HW224831   4.421   5.831   2.970
 7978SOL     OW24832   6.030   2.385   6.730
 7978SOL    HW124833   5.974   2.466   6.747
 7978SOL    HW224834   6.106   2.409   6.669
 7979SOL     OW24835   3.706   5.273   6.052
 7979SOL    HW124836   3.607   5.271   6.068
 7979SOL    HW224837   3.752   5.220   6.124
 7980SOL     OW24838   2.962   5.491   6.840
 7980SOL    HW124839   2.890   5.438   6.884
 7980SOL    HW224840   3.049   5.441   6.846
 7981SOL     OW24841   0.682   5.259   1.859
 7981SOL    HW124842   0.695   5.209   1.944
 7981SOL    HW224843   0.588   5.248   1.827
 7982SOL     OW24844   1.598   1.155   0.273
 7982SOL    HW124845   1.654   1.214   0.215
 7982SOL    HW224846   1.656   1.111   0.341
 7983SOL     OW24847   6.209   2.065   0.866
 7983SOL    HW124848   6.144   1.989   0.859
 7983SOL    HW224849   6.284   2.040   0.927
 7984SOL     OW24850   1.483   0.877   0.733
 7984SOL    HW124851   1.398   0.857   0.684
 7984SOL    HW224852   1.467   0.867   0.832
 7985SOL     OW24853   2.796   0.964   4.144
 7985SOL    HW124854   2.816   0.917   4.057
 7985SOL    HW224855   2.846   0.919   4.218
 7986SOL     OW24856   3.017   1.021   6.127
 7986SOL    HW124857   3.078   1.077   6.183
 7986SOL    HW224858   2.923   1.031   6.159
 7987SOL     OW24859   1.906   2.590   6.402
 7987SOL    HW124860   1.978   2.572   6.335
 7987SOL    HW224861   1.888   2.507   6.455
 7988SOL     OW24862   0.727   2.218   2.900
 7988SOL    HW124863   0.692   2.132   2.938
 7988SOL    HW224864   0.786   2.262   2.968
 7989SOL     OW24865   2.367   3.234   6.866
 7989SOL    HW124866   2.428   3.282   6.802
 7989SOL    HW224867   2.304   3.299   6.908
 7990SOL     OW24868   1.301   4.474   4.366
 7990SOL    HW124869   1.307   4.497   4.463
 7990SOL    HW224870   1.393   4.477   4.325
 7991SOL     OW24871   5.968   0.323   2.902
 7991SOL    HW124872   5.988   0.367   2.989
 7991SOL    HW224873   5.874   0.291   2.901
 7992SOL     OW24874   1.000   0.499   0.592
 7992SOL    HW124875   1.064   0.558   0.642
 7992SOL    HW224876   0.923   0.554   0.558
 7993SOL     OW24877   0.380   6.844   0.352
 7993SOL    HW124878   0.321   6.778   0.399
 7993SOL    HW224879   0.434   6.797   0.283
 7994SOL     OW24880   3.997   0.098   3.818
 7994SOL    HW124881   3.958   0.174   3.767
 7994SOL    HW224882   3.986   0.114   3.916
 7995SOL     OW24883   6.204   5.733   3.747
 7995SOL    HW124884   6.193   5.636   3.765
 7995SOL    HW224885   6.187   5.752   3.650
 7996SOL     OW24886   2.431   0.191   4.830
 7996SOL    HW124887   2.428   0.222   4.925
 7996SOL    HW224888   2.523   0.159   4.809
 7997SOL     OW24889   0.280   1.128   1.336
 7997SOL    HW124890   0.306   1.209   1.284
 7997SOL    HW224891   0.295   1.145   1.433
 7998SOL     OW24892   2.839   0.067   0.074
 7998SOL    HW124893   2.872   7.012   0.123
 7998SOL    HW224894   2.916   0.118   0.037
 7999SOL     OW24895   0.958   0.657   5.934
 7999SOL    HW124896   0.879   0.628   5.879
 7999SOL    HW224897   1.035   0.596   5.917
 8000SOL     OW24898   4.584   6.999   6.758
 8000SOL    HW124899   4.617   0.057   6.801
 8000SOL    HW224900   4.660   6.951   6.715
 8001SOL     OW24901   4.012   6.476   1.576
 8001SOL    HW124902   3.964   6.412   1.636
 8001SOL    HW224903   4.048   6.552   1.630
 8002SOL     OW24904   2.271   0.859   6.164
 8002SOL    HW124905   2.285   0.768   6.204
 8002SOL    HW224906   2.319   0.864   6.076
 8003SOL     OW24907   2.519   5.478   1.859
 8003SOL    HW124908   2.532   5.566   1.903
 8003SOL    HW224909   2.589   5.414   1.892
 8004SOL     OW24910   2.330   2.781   2.491
 8004SOL    HW124911   2.375   2.792   2.580
 8004SOL    HW224912   2.279   2.864   2.470
 8005SOL     OW24913   3.016   1.383   2.938
 8005SOL    HW124914   3.081   1.436   2.883
 8005SOL    HW224915   2.923   1.410   2.915
 8006SOL     OW24916   1.990   6.434   5.779
 8006SOL    HW124917   1.960   6.340   5.761
 8006SOL    HW224918   2.061   6.434   5.849
 8007SOL     OW24919   5.993   1.497   5.792
 8007SOL    HW124920   5.970   1.507   5.695
 8007SOL    HW224921   5.970   1.581   5.841
 8008SOL     OW24922   4.479   5.950   6.525
 8008SOL    HW124923   4.506   6.024   6.587
 8008SOL    HW224924   4.391   5.912   6.553
 8009SOL     OW24925   5.913   0.595   1.660
 8009SOL    HW124926   5.941   0.550   1.575
 8009SOL    HW224927   5.909   0.528   1.734
 8010SOL     OW24928   1.893   1.087   5.419
 8010SOL    HW124929   1.830   1.164   5.414
 8010SOL    HW224930   1.875   1.034   5.502
 8011SOL     OW24931   3.581   2.309   1.158
 8011SOL    HW124932   3.640   2.253   1.100
 8011SOL    HW224933   3.535   2.250   1.225
 8012SOL     OW24934   1.832   3.936   0.066
 8012SOL    HW124935   1.913   3.982   0.102
 8012SOL    HW224936   1.784   3.890   0.141
 8013SOL     OW24937   1.542   5.265   3.728
 8013SOL    HW124938   1.629   5.221   3.704
 8013SOL    HW224939   1.547   5.300   3.821
 8014SOL     OW24940   0.943   6.490   4.934
 8014SOL    HW124941   1.018   6.469   4.996
 8014SOL    HW224942   0.955   6.582   4.897
 8015SOL     OW24943   2.634   0.507   6.012
 8015SOL    HW124944   2.697   0.581   6.029
 8015SOL    HW224945   2.674   0.420   6.042
 8016SOL     OW24946   4.436   0.114   5.669
 8016SOL    HW124947   4.380   0.039   5.702
 8016SOL    HW224948   4.453   0.103   5.571
 8017SOL     OW24949   5.608   6.897   0.835
 8017SOL    HW124950   5.684   6.833   0.822
 8017SOL    HW224951   5.640   6.990   0.820
 8018SOL     OW24952   2.930   2.256   6.571
 8018SOL    HW124953   3.026   2.264   6.545
 8018SOL    HW224954   2.876   2.228   6.491
 8019SOL     OW24955   2.751   4.692   0.580
 8019SOL    HW124956   2.671   4.712   0.636
 8019SOL    HW224957   2.739   4.604   0.534
 8020SOL     OW24958   6.290   0.010   6.962
 8020SOL    HW124959   6.357   0.084   6.949
 8020SOL    HW224960   6.259   7.004   6.873
 8021SOL     OW24961   1.497   2.262   0.903
 8021SOL    HW124962   1.430   2.276   0.830
 8021SOL    HW224963   1.564   2.336   0.901
 8022SOL     OW24964   5.903   0.164   2.404
 8022SOL    HW124965   5.904   0.250   2.454
 8022SOL    HW224966   5.913   0.088   2.469
 8023SOL     OW24967   5.995   5.217   3.000
 8023SOL    HW124968   5.957   5.194   3.090
 8023SOL    HW224969   6.001   5.316   2.991
 8024SOL     OW24970   1.398   4.750   6.143
 8024SOL    HW124971   1.356   4.659   6.143
 8024SOL    HW224972   1.384   4.793   6.054
 8025SOL     OW24973   1.908   5.992   0.149
 8025SOL    HW124974   1.902   6.011   0.247
 8025SOL    HW224975   1.969   6.059   0.106
 8026SOL     OW24976   6.845   4.352   6.988
 8026SOL    HW124977   6.838   4.253   6.975
 8026SOL    HW224978   6.780   4.381   0.032
 8027SOL     OW24979   4.428   0.126   4.975
 8027SOL    HW124980   4.389   0.048   5.024
 8027SOL    HW224981   4.356   0.194   4.959
 8028SOL     OW24982   4.071   5.823   5.767
 8028SOL    HW124983   4.036   5.760   5.836
 8028SOL    HW224984   4.132   5.774   5.705
 8029SOL     OW24985   5.078   2.932   1.091
 8029SOL    HW124986   5.100   2.873   1.169
 8029SOL    HW224987   4.979   2.950   1.090
 8030SOL     OW24988   4.666   4.721   0.494
 8030SOL    HW124989   4.615   4.680   0.418
 8030SOL    HW224990   4.764   4.714   0.476
 8031SOL     OW24991   6.102   6.312   2.531
 8031SOL    HW124992   6.087   6.411   2.536
 8031SOL    HW224993   6.197   6.291   2.555
 8032SOL     OW24994   6.632   4.204   1.625
 8032SOL    HW124995   6.533   4.198   1.637
 8032SOL    HW224996   6.671   4.261   1.697
 8033SOL     OW24997   4.529   1.930   6.613
 8033SOL    HW124998   4.494   1.887   6.696
 8033SOL    HW224999   4.618   1.892   6.590
 8034SOL     OW25000   4.622   0.971   4.960
 8034SOL    HW125001   4.695   1.023   4.916
 8034SOL    HW225002   4.554   0.944   4.892
 8035SOL     OW25003   5.611   1.762   3.564
 8035SOL    HW125004   5.545   1.752   3.638
 8035SOL    HW225005   5.599   1.687   3.498
 8036SOL     OW25006   6.510   4.034   3.761
 8036SOL    HW125007   6.436   4.076   3.815
 8036SOL    HW225008   6.512   4.075   3.670
 8037SOL     OW25009   1.676   3.139   0.054
 8037SOL    HW125010   1.678   3.166   6.983
 8037SOL    HW225011   1.687   3.040   0.062
 8038SOL     OW25012   4.688   0.300   2.656
 8038SOL    HW125013   4.734   0.285   2.744
 8038SOL    HW225014   4.589   0.303   2.671
 8039SOL     OW25015   0.294   1.718   5.437
 8039SOL    HW125016   0.274   1.645   5.502
 8039SOL    HW225017   0.301   1.680   5.345
 8040SOL     OW25018   1.438   5.362   0.216
 8040SOL    HW125019   1.470   5.342   0.123
 8040SOL    HW225020   1.366   5.298   0.241
 8041SOL     OW25021   3.187   1.213   2.697
 8041SOL    HW125022   3.109   1.257   2.651
 8041SOL    HW225023   3.163   1.194   2.792
 8042SOL     OW25024   3.644   3.219   4.690
 8042SOL    HW125025   3.717   3.194   4.754
 8042SOL    HW225026   3.555   3.197   4.731
 8043SOL     OW25027   3.581   6.204   1.068
 8043SOL    HW125028   3.521   6.283   1.086
 8043SOL    HW225029   3.599   6.157   1.154
 8044SOL     OW25030   4.079   2.612   1.207
 8044SOL    HW125031   4.158   2.583   1.260
 8044SOL    HW225032   4.028   2.531   1.177
 8045SOL     OW25033   6.002   2.713   3.009
 8045SOL    HW125034   5.920   2.709   2.951
 8045SOL    HW225035   5.988   2.656   3.090
 8046SOL     OW25036   0.579   4.475   1.637
 8046SOL    HW125037   0.652   4.481   1.568
 8046SOL    HW225038   0.606   4.410   1.708
 8047SOL     OW25039   4.281   5.698   6.069
 8047SOL    HW125040   4.184   5.711   6.092
 8047SOL    HW225041   4.332   5.781   6.091
 8048SOL     OW25042   4.764   1.994   6.865
 8048SOL    HW125043   4.761   2.021   6.961
 8048SOL    HW225044   4.678   2.021   6.820
 8049SOL     OW25045   0.986   0.175   6.870
 8049SOL    HW125046   0.962   0.268   6.842
 8049SOL    HW225047   0.904   0.128   6.904
 8050SOL     OW25048   1.964   3.452   3.472
 8050SOL    HW125049   2.016   3.381   3.518
 8050SOL    HW225050   1.925   3.416   3.387
 8051SOL     OW25051   4.809   5.898   4.388
 8051SOL    HW125052   4.901   5.900   4.349
 8051SOL    HW225053   4.805   5.829   4.460
 8052SOL     OW25054   3.039   1.602   0.710
 8052SOL    HW125055   2.989   1.515   0.704
 8052SOL    HW225056   3.043   1.632   0.805
 8053SOL     OW25057   3.071   3.091   4.377
 8053SOL    HW125058   3.072   3.162   4.306
 8053SOL    HW225059   3.025   3.126   4.458
 8054SOL     OW25060   6.222   5.010   5.046
 8054SOL    HW125061   6.201   5.002   5.144
 8054SOL    HW225062   6.309   5.058   5.035
 8055SOL     OW25063   0.205   0.418   5.346
 8055SOL    HW125064   0.162   0.347   5.290
 8055SOL    HW225065   0.147   0.438   5.425
 8056SOL     OW25066   2.322   1.056   3.632
 8056SOL    HW125067   2.329   0.994   3.711
 8056SOL    HW225068   2.354   1.009   3.550
 8057SOL     OW25069   2.969   2.001   3.055
 8057SOL    HW125070   3.043   2.049   3.102
 8057SOL    HW225071   2.930   2.061   2.985
 8058SOL     OW25072   3.706   0.109   3.469
 8058SOL    HW125073   3.607   0.116   3.458
 8058SOL    HW225074   3.742   0.043   3.403
 8059SOL     OW25075   2.592   1.819   4.398
 8059SOL    HW125076   2.507   1.792   4.353
 8059SOL    HW225077   2.668   1.808   4.334
 8060SOL     OW25078   6.137   1.980   6.323
 8060SOL    HW125079   6.219   2.001   6.269
 8060SOL    HW225080   6.056   1.993   6.266
 8061SOL     OW25081   0.142   0.204   2.561
 8061SOL    HW125082   0.076   0.280   2.563
 8061SOL    HW225083   0.148   0.168   2.468
 8062SOL     OW25084   3.344   4.896   4.500
 8062SOL    HW125085   3.284   4.828   4.456
 8062SOL    HW225086   3.300   4.929   4.584
 8063SOL     OW25087   2.053   2.364   2.724
 8063SOL    HW125088   1.991   2.343   2.800
 8063SOL    HW225089   2.147   2.345   2.753
 8064SOL     OW25090   6.496   2.396   0.916
 8064SOL    HW125091   6.566   2.338   0.957
 8064SOL    HW225092   6.531   2.490   0.909
 8065SOL     OW25093   2.970   5.688   4.225
 8065SOL    HW125094   2.912   5.708   4.147
 8065SOL    HW225095   2.916   5.689   4.309
 8066SOL     OW25096   0.326   1.320   5.499
 8066SOL    HW125097   0.232   1.310   5.531
 8066SOL    HW225098   0.381   1.363   5.571
 8067SOL     OW25099   5.092   2.338   2.766
 8067SOL    HW125100   5.014   2.289   2.727
 8067SOL    HW225101   5.078   2.353   2.863
 8068SOL     OW25102   7.015   4.744   1.628
 8068SOL    HW125103   6.936   4.795   1.663
 8068SOL    HW225104   6.989   4.649   1.611
 8069SOL     OW25105   2.259   5.516   1.011
 8069SOL    HW125106   2.181   5.544   0.955
 8069SOL    HW225107   2.342   5.558   0.976
 8070SOL     OW25108   4.209   3.622   1.081
 8070SOL    HW125109   4.166   3.532   1.077
 8070SOL    HW225110   4.140   3.693   1.064
 8071SOL     OW25111   3.350   6.863   4.741
 8071SOL    HW125112   3.327   6.805   4.663
 8071SOL    HW225113   3.353   6.808   4.824
 8072SOL     OW25114   4.103   1.522   0.862
 8072SOL    HW125115   4.126   1.474   0.946
 8072SOL    HW225116   4.141   1.614   0.865
 8073SOL     OW25117   3.155   4.926   5.310
 8073SOL    HW125118   3.111   4.896   5.225
 8073SOL    HW225119   3.101   4.896   5.388
 8074SOL     OW25120   3.177   2.692   1.171
 8074SOL    HW125121   3.252   2.647   1.221
 8074SOL    HW225122   3.189   2.791   1.175
 8075SOL     OW25123   6.925   0.003   0.224
 8075SOL    HW125124   7.008   6.976   0.244
 8075SOL    HW225125   6.936   0.051   0.137
 8076SOL     OW25126   5.994   0.666   5.498
 8076SOL    HW125127   6.040   0.593   5.549
 8076SOL    HW225128   5.898   0.642   5.486
 8077SOL     OW25129   3.195   6.348   2.655
 8077SOL    HW125130   3.100   6.330   2.680
 8077SOL    HW225131   3.203   6.441   2.619
 8078SOL     OW25132   6.924   1.921   0.539
 8078SOL    HW125133   7.017   1.886   0.551
 8078SOL    HW225134   6.902   1.983   0.614
 8079SOL     OW25135   6.176   1.607   3.980
 8079SOL    HW125136   6.139   1.515   3.966
 8079SOL    HW225137   6.195   1.649   3.892
 8080SOL     OW25138   1.289   2.916   1.962
 8080SOL    HW125139   1.220   2.865   2.013
 8080SOL    HW225140   1.379   2.900   2.001
 8081SOL     OW25141   6.368   5.311   5.990
 8081SOL    HW125142   6.333   5.294   5.898
 8081SOL    HW225143   6.402   5.225   6.029
 8082SOL     OW25144   4.392   0.219   2.448
 8082SOL    HW125145   4.320   0.265   2.396
 8082SOL    HW225146   4.414   0.273   2.529
 8083SOL     OW25147   5.065   2.803   3.061
 8083SOL    HW125148   5.066   2.795   2.961
 8083SOL    HW225149   5.098   2.718   3.102
 8084SOL     OW25150   3.777   6.509   0.206
 8084SOL    HW125151   3.689   6.469   0.182
 8084SOL    HW225152   3.845   6.486   0.136
 8085SOL     OW25153   6.436   6.586   2.195
 8085SOL    HW125154   6.408   6.535   2.275
 8085SOL    HW225155   6.440   6.525   2.115
 8086SOL     OW25156   6.329   0.981   2.610
 8086SOL    HW125157   6.296   1.070   2.581
 8086SOL    HW225158   6.427   0.975   2.596
 8087SOL     OW25159   2.510   0.572   0.383
 8087SOL    HW125160   2.439   0.518   0.429
 8087SOL    HW225161   2.576   0.510   0.340
 8088SOL     OW25162   5.998   1.397   1.378
 8088SOL    HW125163   5.966   1.303   1.361
 8088SOL    HW225164   6.074   1.395   1.442
 8089SOL     OW25165   5.921   2.672   0.816
 8089SOL    HW125166   5.824   2.682   0.839
 8089SOL    HW225167   5.957   2.590   0.860
 8090SOL     OW25168   4.366   1.754   6.990
 8090SOL    HW125169   4.465   1.756   6.982
 8090SOL    HW225170   4.327   1.837   6.950
 8091SOL     OW25171   2.063   4.116   5.082
 8091SOL    HW125172   2.003   4.094   5.005
 8091SOL    HW225173   2.152   4.072   5.069
 8092SOL     OW25174   5.638   2.386   5.111
 8092SOL    HW125175   5.716   2.346   5.158
 8092SOL    HW225176   5.603   2.321   5.043
 8093SOL     OW25177   3.980   4.895   2.965
 8093SOL    HW125178   3.978   4.966   2.893
 8093SOL    HW225179   4.045   4.824   2.939
 8094SOL     OW25180   0.914   3.054   4.676
 8094SOL    HW125181   0.856   3.078   4.598
 8094SOL    HW225182   1.010   3.058   4.647
 8095SOL     OW25183   0.201   4.763   4.553
 8095SOL    HW125184   0.237   4.836   4.612
 8095SOL    HW225185   0.277   4.719   4.505
 8096SOL     OW25186   1.871   6.815   3.204
 8096SOL    HW125187   1.932   6.893   3.195
 8096SOL    HW225188   1.866   6.787   3.300
 8097SOL     OW25189   4.257   6.731   4.344
 8097SOL    HW125190   4.268   6.778   4.432
 8097SOL    HW225191   4.206   6.646   4.357
 8098SOL     OW25192   1.902   6.589   3.054
 8098SOL    HW125193   1.848   6.510   3.082
 8098SOL    HW225194   1.882   6.667   3.113
 8099SOL     OW25195   3.894   5.821   4.704
 8099SOL    HW125196   3.892   5.920   4.717
 8099SOL    HW225197   3.989   5.791   4.697
 8100SOL     OW25198   0.079   0.677   6.968
 8100SOL    HW125199   0.139   0.646   0.016
 8100SOL    HW225200   0.101   0.772   6.944
 8101SOL     OW25201   2.050   5.853   2.523
 8101SOL    HW125202   1.980   5.796   2.566
 8101SOL    HW225203   2.042   5.947   2.558
 8102SOL     OW25204   0.922   4.239   3.664
 8102SOL    HW125205   0.959   4.155   3.624
 8102SOL    HW225206   0.981   4.267   3.740
 8103SOL     OW25207   2.486   6.933   1.552
 8103SOL    HW125208   2.558   6.870   1.521
 8103SOL    HW225209   2.456   6.906   1.643
 8104SOL     OW25210   1.984   0.378   5.824
 8104SOL    HW125211   2.058   0.409   5.883
 8104SOL    HW225212   2.012   0.295   5.776
 8105SOL     OW25213   0.614   3.254   3.395
 8105SOL    HW125214   0.703   3.209   3.396
 8105SOL    HW225215   0.625   3.350   3.422
 8106SOL     OW25216   3.156   6.641   3.112
 8106SOL    HW125217   3.222   6.599   3.050
 8106SOL    HW225218   3.192   6.728   3.145
 8107SOL     OW25219   1.192   5.090   4.576
 8107SOL    HW125220   1.246   5.171   4.555
 8107SOL    HW225221   1.222   5.052   4.664
 8108SOL     OW25222   6.071   3.013   5.568
 8108SOL    HW125223   6.121   3.097   5.547
 8108SOL    HW225224   6.135   2.936   5.576
 8109SOL     OW25225   0.514   4.159   4.814
 8109SOL    HW125226   0.545   4.206   4.897
 8109SOL    HW225227   0.572   4.079   4.797
 8110SOL     OW25228   3.988   6.163   1.482
 8110SOL    HW125229   3.889   6.177   1.472
 8110SOL    HW225230   4.032   6.250   1.504
 8111SOL     OW25231   5.238   1.412   4.371
 8111SOL    HW125232   5.179   1.419   4.290
 8111SOL    HW225233   5.198   1.349   4.436
 8112SOL     OW25234   2.623   1.894   3.988
 8112SOL    HW125235   2.582   1.942   4.066
 8112SOL    HW225236   2.551   1.858   3.929
 8113SOL     OW25237   1.509   3.674   0.338
 8113SOL    HW125238   1.532   3.679   0.241
 8113SOL    HW225239   1.445   3.747   0.361
 8114SOL     OW25240   1.460   4.213   3.139
 8114SOL    HW125241   1.453   4.136   3.202
 8114SOL    HW225242   1.381   4.273   3.150
 8115SOL     OW25243   3.618   0.419   0.215
 8115SOL    HW125244   3.595   0.516   0.215
 8115SOL    HW225245   3.710   0.407   0.178
 8116SOL     OW25246   4.415   4.740   6.201
 8116SOL    HW125247   4.484   4.681   6.160
 8116SOL    HW225248   4.327   4.725   6.157
 8117SOL     OW25249   2.106   6.999   3.429
 8117SOL    HW125250   2.052   7.020   3.347
 8117SOL    HW225251   2.064   0.018   3.508
 8118SOL     OW25252   5.187   4.541   6.769
 8118SOL    HW125253   5.130   4.623   6.769
 8118SOL    HW225254   5.250   4.545   6.692
 8119SOL     OW25255   5.527   5.928   6.270
 8119SOL    HW125256   5.527   6.026   6.251
 8119SOL    HW225257   5.518   5.913   6.368
 8120SOL     OW25258   2.945   4.975   0.751
 8120SOL    HW125259   2.857   5.022   0.757
 8120SOL    HW225260   2.937   4.882   0.787
 8121SOL     OW25261   0.036   4.815   2.383
 8121SOL    HW125262   0.133   4.803   2.365
 8121SOL    HW225263   7.011   4.817   2.297
 8122SOL     OW25264   0.447   5.485   3.224
 8122SOL    HW125265   0.540   5.473   3.188
 8122SOL    HW225266   0.387   5.518   3.151
 8123SOL     OW25267   0.047   1.993   6.747
 8123SOL    HW125268   7.002   2.044   6.797
 8123SOL    HW225269   0.016   1.977   6.653
 8124SOL     OW25270   5.858   6.374   1.562
 8124SOL    HW125271   5.867   6.278   1.535
 8124SOL    HW225272   5.946   6.421   1.549
 8125SOL     OW25273   1.482   1.477   3.342
 8125SOL    HW125274   1.485   1.377   3.344
 8125SOL    HW225275   1.513   1.514   3.430
 8126SOL     OW25276   4.398   4.574   2.433
 8126SOL    HW125277   4.453   4.499   2.396
 8126SOL    HW225278   4.402   4.571   2.533
 8127SOL     OW25279   2.467   4.401   6.381
 8127SOL    HW125280   2.516   4.468   6.326
 8127SOL    HW225281   2.518   4.383   6.465
 8128SOL     OW25282   2.539   1.608   1.859
 8128SOL    HW125283   2.583   1.653   1.782
 8128SOL    HW225284   2.440   1.623   1.854
 8129SOL     OW25285   4.189   0.216   6.311
 8129SOL    HW125286   4.199   0.244   6.407
 8129SOL    HW225287   4.166   0.296   6.256
 8130SOL     OW25288   0.368   3.357   6.537
 8130SOL    HW125289   0.448   3.298   6.546
 8130SOL    HW225290   0.311   3.324   6.461
 8131SOL     OW25291   2.640   1.924   1.360
 8131SOL    HW125292   2.717   1.988   1.358
 8131SOL    HW225293   2.670   1.837   1.399
 8132SOL     OW25294   5.874   6.588   6.177
 8132SOL    HW125295   5.886   6.501   6.224
 8132SOL    HW225296   5.876   6.663   6.244
 8133SOL     OW25297   3.221   5.594   1.717
 8133SOL    HW125298   3.123   5.577   1.702
 8133SOL    HW225299   3.266   5.507   1.739
 8134SOL     OW25300   6.831   2.711   6.145
 8134SOL    HW125301   6.851   2.614   6.158
 8134SOL    HW225302   6.736   2.721   6.114
 8135SOL     OW25303   2.703   6.752   1.499
 8135SOL    HW125304   2.791   6.799   1.506
 8135SOL    HW225305   2.700   6.675   1.562
 8136SOL     OW25306   4.485   5.494   3.232
 8136SOL    HW125307   4.536   5.554   3.294
 8136SOL    HW225308   4.438   5.549   3.163
 8137SOL     OW25309   3.318   2.037   4.977
 8137SOL    HW125310   3.301   2.065   5.072
 8137SOL    HW225311   3.231   2.022   4.931
 8138SOL     OW25312   5.152   1.103   0.600
 8138SOL    HW125313   5.128   1.102   0.503
 8138SOL    HW225314   5.112   1.183   0.644
 8139SOL     OW25315   0.124   1.440   2.380
 8139SOL    HW125316   0.150   1.497   2.302
 8139SOL    HW225317   0.085   1.497   2.452
 8140SOL     OW25318   4.889   0.308   0.631
 8140SOL    HW125319   4.915   0.383   0.692
 8140SOL    HW225320   4.933   0.224   0.661
 8141SOL     OW25321   4.669   5.953   4.830
 8141SOL    HW125322   4.662   5.862   4.788
 8141SOL    HW225323   4.589   6.007   4.805
 8142SOL     OW25324   1.169   5.453   0.151
 8142SOL    HW125325   1.173   5.484   0.246
 8142SOL    HW225326   1.184   5.354   0.147
 8143SOL     OW25327   5.842   4.266   1.245
 8143SOL    HW125328   5.930   4.228   1.219
 8143SOL    HW225329   5.855   4.357   1.285
 8144SOL     OW25330   6.169   6.063   6.467
 8144SOL    HW125331   6.147   6.153   6.431
 8144SOL    HW225332   6.266   6.045   6.455
 8145SOL     OW25333   5.862   5.630   1.570
 8145SOL    HW125334   5.781   5.572   1.573
 8145SOL    HW225335   5.852   5.705   1.636
 8146SOL     OW25336   4.544   0.582   4.553
 8146SOL    HW125337   4.445   0.592   4.553
 8146SOL    HW225338   4.577   0.573   4.647
 8147SOL     OW25339   5.887   1.663   1.159
 8147SOL    HW125340   5.792   1.669   1.128
 8147SOL    HW225341   5.927   1.576   1.126
 8148SOL     OW25342   5.101   4.321   1.186
 8148SOL    HW125343   5.091   4.238   1.130
 8148SOL    HW225344   5.198   4.345   1.191
 8149SOL     OW25345   3.011   6.425   2.299
 8149SOL    HW125346   3.014   6.363   2.221
 8149SOL    HW225347   3.101   6.468   2.311
 8150SOL     OW25348   1.379   3.793   0.726
 8150SOL    HW125349   1.334   3.754   0.646
 8150SOL    HW225350   1.468   3.831   0.699
 8151SOL     OW25351   5.969   2.365   1.542
 8151SOL    HW125352   6.049   2.361   1.483
 8151SOL    HW225353   5.992   2.415   1.626
 8152SOL     OW25354   6.964   1.914   2.454
 8152SOL    HW125355   6.908   1.915   2.372
 8152SOL    HW225356   0.023   1.966   2.438
 8153SOL     OW25357   2.246   0.337   3.495
 8153SOL    HW125358   2.265   0.415   3.434
 8153SOL    HW225359   2.212   0.260   3.441
 8154SOL     OW25360   3.038   5.194   2.223
 8154SOL    HW125361   2.975   5.136   2.172
 8154SOL    HW225362   2.986   5.266   2.270
 8155SOL     OW25363   1.705   3.671   1.712
 8155SOL    HW125364   1.660   3.599   1.765
 8155SOL    HW225365   1.795   3.690   1.750
 8156SOL     OW25366   5.097   0.198   1.084
 8156SOL    HW125367   5.109   0.296   1.097
 8156SOL    HW225368   5.125   0.173   0.991
 8157SOL     OW25369   0.191   5.623   6.727
 8157SOL    HW125370   0.245   5.700   6.759
 8157SOL    HW225371   0.177   5.631   6.628
 8158SOL     OW25372   4.984   5.444   0.588
 8158SOL    HW125373   5.038   5.441   0.504
 8158SOL    HW225374   4.964   5.350   0.618
 8159SOL     OW25375   3.323   5.716   1.943
 8159SOL    HW125376   3.285   5.671   2.024
 8159SOL    HW225377   3.277   5.681   1.861
 8160SOL     OW25378   5.247   0.984   3.614
 8160SOL    HW125379   5.184   0.937   3.675
 8160SOL    HW225380   5.214   0.978   3.520
 8161SOL     OW25381   5.384   1.709   6.566
 8161SOL    HW125382   5.417   1.640   6.630
 8161SOL    HW225383   5.284   1.703   6.559
 8162SOL     OW25384   6.148   5.921   6.041
 8162SOL    HW125385   6.187   5.868   6.115
 8162SOL    HW225386   6.063   5.964   6.072
 8163SOL     OW25387   2.482   3.871   5.332
 8163SOL    HW125388   2.417   3.810   5.378
 8163SOL    HW225389   2.435   3.922   5.260
 8164SOL     OW25390   4.966   3.391   0.620
 8164SOL    HW125391   4.977   3.478   0.668
 8164SOL    HW225392   5.031   3.324   0.655
 8165SOL     OW25393   1.070   4.373   6.131
 8165SOL    HW125394   1.043   4.311   6.058
 8165SOL    HW225395   0.992   4.388   6.192
 8166SOL     OW25396   1.488   0.373   2.115
 8166SOL    HW125397   1.567   0.412   2.066
 8166SOL    HW225398   1.428   0.447   2.144
 8167SOL     OW25399   6.051   6.882   4.436
 8167SOL    HW125400   6.065   6.981   4.436
 8167SOL    HW225401   5.980   6.859   4.502
 8168SOL     OW25402   2.222   1.642   3.549
 8168SOL    HW125403   2.252   1.603   3.462
 8168SOL    HW225404   2.255   1.586   3.625
 8169SOL     OW25405   4.986   2.312   1.314
 8169SOL    HW125406   4.929   2.338   1.236
 8169SOL    HW225407   5.039   2.392   1.344
 8170SOL     OW25408   1.446   5.255   2.901
 8170SOL    HW125409   1.433   5.305   2.815
 8170SOL    HW225410   1.542   5.230   2.910
 8171SOL     OW25411   1.621   1.487   0.012
 8171SOL    HW125412   1.675   1.507   6.956
 8171SOL    HW225413   1.674   1.429   0.073
 8172SOL     OW25414   0.688   1.889   1.948
 8172SOL    HW125415   0.631   1.971   1.953
 8172SOL    HW225416   0.676   1.846   1.858
 8173SOL     OW25417   4.581   1.058   1.949
 8173SOL    HW125418   4.616   1.060   1.855
 8173SOL    HW225419   4.631   1.125   2.004
 8174SOL     OW25420   6.102   2.808   0.961
 8174SOL    HW125421   6.021   2.796   0.903
 8174SOL    HW225422   6.096   2.747   1.040
 8175SOL     OW25423   6.980   3.311   6.383
 8175SOL    HW125424   6.916   3.369   6.433
 8175SOL    HW225425   6.950   3.303   6.288
 8176SOL     OW25426   2.832   5.539   2.137
 8176SOL    HW125427   2.756   5.485   2.173
 8176SOL    HW225428   2.882   5.581   2.213
 8177SOL     OW25429   2.758   6.022   3.639
 8177SOL    HW125430   2.819   6.009   3.717
 8177SOL    HW225431   2.666   6.045   3.671
 8178SOL     OW25432   2.980   5.537   6.552
 8178SOL    HW125433   2.974   5.538   6.652
 8178SOL    HW225434   3.061   5.588   6.523
 8179SOL     OW25435   4.789   2.531   5.923
 8179SOL    HW125436   4.747   2.609   5.969
 8179SOL    HW225437   4.828   2.560   5.836
 8180SOL     OW25438   6.350   0.044   4.814
 8180SOL    HW125439   6.407   0.051   4.733
 8180SOL    HW225440   6.377   0.115   4.880
 8181SOL     OW25441   2.136   1.272   1.673
 8181SOL    HW125442   2.145   1.371   1.662
 8181SOL    HW225443   2.221   1.234   1.709
 8182SOL     OW25444   3.677   2.885   6.329
 8182SOL    HW125445   3.643   2.792   6.314
 8182SOL    HW225446   3.635   2.947   6.263
 8183SOL     OW25447   0.185   2.762   4.339
 8183SOL    HW125448   0.277   2.724   4.330
 8183SOL    HW225449   0.191   2.862   4.347
 8184SOL     OW25450   5.347   2.402   5.921
 8184SOL    HW125451   5.250   2.379   5.911
 8184SOL    HW225452   5.379   2.447   5.838
 8185SOL     OW25453   2.558   6.372   0.241
 8185SOL    HW125454   2.564   6.318   0.157
 8185SOL    HW225455   2.593   6.317   0.318
 8186SOL     OW25456   3.408   5.413   6.585
 8186SOL    HW125457   3.309   5.397   6.578
 8186SOL    HW225458   3.439   5.466   6.506
 8187SOL     OW25459   1.547   2.132   5.669
 8187SOL    HW125460   1.612   2.161   5.739
 8187SOL    HW225461   1.473   2.080   5.713
 8188SOL     OW25462   5.801   2.606   1.917
 8188SOL    HW125463   5.898   2.629   1.927
 8188SOL    HW225464   5.746   2.690   1.914
 8189SOL     OW25465   4.431   4.762   2.855
 8189SOL    HW125466   4.418   4.829   2.781
 8189SOL    HW225467   4.415   4.670   2.820
 8190SOL     OW25468   4.061   5.266   4.068
 8190SOL    HW125469   4.107   5.328   4.132
 8190SOL    HW225470   4.042   5.179   4.114
 8191SOL     OW25471   3.322   6.419   2.908
 8191SOL    HW125472   3.273   6.384   2.829
 8191SOL    HW225473   3.420   6.426   2.887
 8192SOL     OW25474   3.639   5.600   0.710
 8192SOL    HW125475   3.710   5.533   0.689
 8192SOL    HW225476   3.589   5.624   0.627
 8193SOL     OW25477   6.542   6.667   4.321
 8193SOL    HW125478   6.517   6.618   4.404
 8193SOL    HW225479   6.640   6.689   4.323
 8194SOL     OW25480   5.952   2.487   1.019
 8194SOL    HW125481   6.028   2.428   0.993
 8194SOL    HW225482   5.866   2.437   1.010
 8195SOL     OW25483   0.913   0.197   0.657
 8195SOL    HW125484   0.948   0.271   0.600
 8195SOL    HW225485   0.979   0.123   0.660
 8196SOL     OW25486   3.485   0.414   5.351
 8196SOL    HW125487   3.568   0.406   5.407
 8196SOL    HW225488   3.502   0.375   5.261
 8197SOL     OW25489   4.572   1.311   6.201
 8197SOL    HW125490   4.548   1.364   6.120
 8197SOL    HW225491   4.670   1.292   6.201
 8198SOL     OW25492   3.411   6.054   3.315
 8198SOL    HW125493   3.358   6.114   3.255
 8198SOL    HW225494   3.458   6.110   3.384
 8199SOL     OW25495   6.580   3.003   6.374
 8199SOL    HW125496   6.579   2.903   6.363
 8199SOL    HW225497   6.496   3.032   6.420
 8200SOL     OW25498   4.351   3.590   1.704
 8200SOL    HW125499   4.361   3.516   1.771
 8200SOL    HW225500   4.296   3.664   1.744
 8201SOL     OW25501   5.923   1.181   4.576
 8201SOL    HW125502   6.001   1.187   4.512
 8201SOL    HW225503   5.861   1.109   4.545
 8202SOL     OW25504   0.657   5.484   4.391
 8202SOL    HW125505   0.561   5.461   4.405
 8202SOL    HW225506   0.666   5.583   4.383
 8203SOL     OW25507   4.943   1.984   0.751
 8203SOL    HW125508   4.998   2.010   0.672
 8203SOL    HW225509   4.946   2.057   0.819
 8204SOL     OW25510   2.884   5.344   1.043
 8204SOL    HW125511   2.949   5.372   1.113
 8204SOL    HW225512   2.792   5.347   1.080
 8205SOL     OW25513   6.960   4.609   0.992
 8205SOL    HW125514   6.924   4.578   1.080
 8205SOL    HW225515   6.936   4.705   0.978
 8206SOL     OW25516   4.087   2.922   5.786
 8206SOL    HW125517   4.026   2.855   5.743
 8206SOL    HW225518   4.172   2.929   5.734
 8207SOL     OW25519   3.905   4.303   5.266
 8207SOL    HW125520   3.915   4.235   5.338
 8207SOL    HW225521   3.888   4.258   5.179
 8208SOL     OW25522   2.091   6.725   1.876
 8208SOL    HW125523   2.026   6.683   1.939
 8208SOL    HW225524   2.053   6.810   1.840
 8209SOL     OW25525   0.802   1.496   5.888
 8209SOL    HW125526   0.884   1.450   5.921
 8209SOL    HW225527   0.829   1.576   5.834
 8210SOL     OW25528   2.978   0.942   1.853
 8210SOL    HW125529   2.906   0.894   1.904
 8210SOL    HW225530   2.960   0.933   1.755
 8211SOL     OW25531   3.340   3.791   3.356
 8211SOL    HW125532   3.403   3.812   3.432
 8211SOL    HW225533   3.301   3.876   3.321
 8212SOL     OW25534   3.503   1.744   1.069
 8212SOL    HW125535   3.450   1.771   0.989
 8212SOL    HW225536   3.563   1.668   1.046
 8213SOL     OW25537   5.104   4.668   2.346
 8213SOL    HW125538   5.009   4.695   2.329
 8213SOL    HW225539   5.150   4.738   2.399
 8214SOL     OW25540   1.576   5.710   4.068
 8214SOL    HW125541   1.549   5.794   4.020
 8214SOL    HW225542   1.509   5.638   4.049
 8215SOL     OW25543   3.971   5.161   6.778
 8215SOL    HW125544   4.046   5.096   6.789
 8215SOL    HW225545   3.942   5.161   6.682
 8216SOL     OW25546   4.669   6.343   3.006
 8216SOL    HW125547   4.766   6.367   3.002
 8216SOL    HW225548   4.613   6.424   2.989
 8217SOL     OW25549   2.002   3.889   2.185
 8217SOL    HW125550   2.069   3.861   2.116
 8217SOL    HW225551   2.039   3.871   2.276
 8218SOL     OW25552   1.193   6.929   3.993
 8218SOL    HW125553   1.175   6.832   3.979
 8218SOL    HW225554   1.235   6.942   4.083
 8219SOL     OW25555   3.844   3.935   1.624
 8219SOL    HW125556   3.811   3.848   1.660
 8219SOL    HW225557   3.778   4.007   1.646
 8220SOL     OW25558   3.206   3.974   5.447
 8220SOL    HW125559   3.297   3.968   5.407
 8220SOL    HW225560   3.145   4.025   5.386
 8221SOL     OW25561   6.366   5.020   3.356
 8221SOL    HW125562   6.421   5.060   3.282
 8221SOL    HW225563   6.277   5.064   3.358
 8222SOL     OW25564   5.073   2.065   1.240
 8222SOL    HW125565   5.011   1.995   1.277
 8222SOL    HW225566   5.048   2.154   1.277
 8223SOL     OW25567   0.541   4.871   6.117
 8223SOL    HW125568   0.457   4.823   6.090
 8223SOL    HW225569   0.520   4.967   6.133
 8224SOL     OW25570   5.079   1.641   1.694
 8224SOL    HW125571   5.160   1.646   1.636
 8224SOL    HW225572   5.059   1.732   1.732
 8225SOL     OW25573   3.477   1.332   1.576
 8225SOL    HW125574   3.507   1.239   1.598
 8225SOL    HW225575   3.534   1.398   1.625
 8226SOL     OW25576   3.264   0.283   0.379
 8226SOL    HW125577   3.166   0.286   0.398
 8226SOL    HW225578   3.301   0.376   0.383
 8227SOL     OW25579   0.134   1.720   2.201
 8227SOL    HW125580   0.089   1.763   2.123
 8227SOL    HW225581   0.176   1.790   2.258
 8228SOL     OW25582   0.928   1.693   5.699
 8228SOL    HW125583   0.976   1.687   5.611
 8228SOL    HW225584   0.849   1.753   5.690
 8229SOL     OW25585   3.585   4.376   1.461
 8229SOL    HW125586   3.500   4.428   1.457
 8229SOL    HW225587   3.628   4.376   1.371
 8230SOL     OW25588   3.893   6.873   5.422
 8230SOL    HW125589   3.971   6.915   5.375
 8230SOL    HW225590   3.886   6.911   5.515
 8231SOL     OW25591   3.454   2.279   1.737
 8231SOL    HW125592   3.543   2.273   1.782
 8231SOL    HW225593   3.394   2.207   1.772
 8232SOL     OW25594   5.778   1.964   1.900
 8232SOL    HW125595   5.855   1.923   1.851
 8232SOL    HW225596   5.812   2.039   1.957
 8233SOL     OW25597   1.549   6.433   6.319
 8233SOL    HW125598   1.609   6.483   6.256
 8233SOL    HW225599   1.457   6.472   6.315
 8234SOL     OW25600   2.737   3.704   0.068
 8234SOL    HW125601   2.836   3.700   0.053
 8234SOL    HW225602   2.693   3.630   0.018
 8235SOL     OW25603   0.258   3.601   6.960
 8235SOL    HW125604   0.294   3.674   7.019
 8235SOL    HW225605   0.283   3.619   6.865
 8236SOL     OW25606   0.488   5.134   6.358
 8236SOL    HW125607   0.457   5.210   6.414
 8236SOL    HW225608   0.488   5.161   6.262
 8237SOL     OW25609   4.627   6.301   6.392
 8237SOL    HW125610   4.712   6.286   6.342
 8237SOL    HW225611   4.580   6.381   6.355
 8238SOL     OW25612   0.295   6.192   7.009
 8238SOL    HW125613   0.211   6.156   0.023
 8238SOL    HW225614   0.272   6.261   6.939
 8239SOL     OW25615   0.789   1.083   4.786
 8239SOL    HW125616   0.783   1.109   4.882
 8239SOL    HW225617   0.697   1.077   4.747
 8240SOL     OW25618   2.999   3.926   3.402
 8240SOL    HW125619   3.059   4.000   3.372
 8240SOL    HW225620   2.989   3.929   3.501
 8241SOL     OW25621   2.568   4.633   6.276
 8241SOL    HW125622   2.574   4.661   6.372
 8241SOL    HW225623   2.486   4.672   6.235
 8242SOL     OW25624   0.590   3.842   4.905
 8242SOL    HW125625   0.557   3.891   4.986
 8242SOL    HW225626   0.528   3.766   4.885
 8243SOL     OW25627   6.979   3.836   0.706
 8243SOL    HW125628   7.018   3.777   0.777
 8243SOL    HW225629   6.971   3.784   0.621
 8244SOL     OW25630   0.223   0.308   4.416
 8244SOL    HW125631   0.221   0.269   4.508
 8244SOL    HW225632   0.222   0.408   4.422
 8245SOL     OW25633   4.030   1.662   2.876
 8245SOL    HW125634   4.074   1.604   2.945
 8245SOL    HW225635   4.088   1.670   2.796
 8246SOL     OW25636   0.158   4.861   6.862
 8246SOL    HW125637   0.258   4.863   6.864
 8246SOL    HW225638   0.125   4.790   6.924
 8247SOL     OW25639   2.445   6.864   3.673
 8247SOL    HW125640   2.435   6.820   3.762
 8247SOL    HW225641   2.522   6.824   3.624
 8248SOL     OW25642   0.769   4.962   5.261
 8248SOL    HW125643   0.769   5.025   5.183
 8248SOL    HW225644   0.679   4.918   5.267
 8249SOL     OW25645   2.047   1.076   5.847
 8249SOL    HW125646   2.117   1.147   5.853
 8249SOL    HW225647   2.091   0.987   5.835
 8250SOL     OW25648   3.339   2.184   1.274
 8250SOL    HW125649   3.316   2.091   1.245
 8250SOL    HW225650   3.257   2.242   1.269
 8251SOL     OW25651   5.439   1.292   4.131
 8251SOL    HW125652   5.400   1.209   4.091
 8251SOL    HW225653   5.366   1.356   4.155
 8252SOL     OW25654   3.981   1.976   0.030
 8252SOL    HW125655   3.897   1.974   0.083
 8252SOL    HW225656   3.959   1.993   6.959
 8253SOL     OW25657   3.712   5.682   0.256
 8253SOL    HW125658   3.756   5.755   0.308
 8253SOL    HW225659   3.670   5.721   0.174
 8254SOL     OW25660   5.225   4.354   5.736
 8254SOL    HW125661   5.298   4.287   5.753
 8254SOL    HW225662   5.136   4.309   5.745
 8255SOL     OW25663   1.181   0.112   6.295
 8255SOL    HW125664   1.196   0.025   6.341
 8255SOL    HW225665   1.234   0.184   6.341
 8256SOL     OW25666   6.664   6.723   3.071
 8256SOL    HW125667   6.749   6.670   3.071
 8256SOL    HW225668   6.592   6.671   3.117
 8257SOL     OW25669   5.566   4.256   3.864
 8257SOL    HW125670   5.629   4.227   3.936
 8257SOL    HW225671   5.611   4.247   3.775
 8258SOL     OW25672   4.937   2.976   1.597
 8258SOL    HW125673   4.937   2.930   1.508
 8258SOL    HW225674   4.896   2.916   1.665
 8259SOL     OW25675   3.952   1.969   5.423
 8259SOL    HW125676   3.873   1.910   5.406
 8259SOL    HW225677   3.928   2.039   5.491
 8260SOL     OW25678   1.794   6.172   1.643
 8260SOL    HW125679   1.868   6.105   1.650
 8260SOL    HW225680   1.823   6.258   1.684
 8261SOL     OW25681   5.398   6.273   3.312
 8261SOL    HW125682   5.447   6.323   3.383
 8261SOL    HW225683   5.414   6.175   3.323
 8262SOL     OW25684   0.683   4.585   0.621
 8262SOL    HW125685   0.727   4.527   0.553
 8262SOL    HW225686   0.669   4.676   0.583
 8263SOL     OW25687   6.536   3.237   6.861
 8263SOL    HW125688   6.602   3.201   6.796
 8263SOL    HW225689   6.524   3.335   6.847
 8264SOL     OW25690   1.092   0.069   1.632
 8264SOL    HW125691   1.093   0.126   1.714
 8264SOL    HW225692   0.998   0.059   1.600
 8265SOL     OW25693   5.187   0.713   2.217
 8265SOL    HW125694   5.135   0.669   2.291
 8265SOL    HW225695   5.134   0.710   2.133
 8266SOL     OW25696   2.514   0.453   4.565
 8266SOL    HW125697   2.558   0.368   4.535
 8266SOL    HW225698   2.516   0.457   4.665
 8267SOL     OW25699   1.577   4.644   1.517
 8267SOL    HW125700   1.594   4.545   1.517
 8267SOL    HW225701   1.481   4.661   1.539
 8268SOL     OW25702   3.420   4.998   6.020
 8268SOL    HW125703   3.468   5.056   6.086
 8268SOL    HW225704   3.337   5.044   5.989
 8269SOL     OW25705   4.378   2.361   2.713
 8269SOL    HW125706   4.341   2.353   2.621
 8269SOL    HW225707   4.395   2.457   2.734
 8270SOL     OW25708   3.130   5.917   5.810
 8270SOL    HW125709   3.046   5.894   5.761
 8270SOL    HW225710   3.165   5.836   5.857
 8271SOL     OW25711   6.329   6.602   3.751
 8271SOL    HW125712   6.259   6.536   3.725
 8271SOL    HW225713   6.285   6.689   3.776
 8272SOL     OW25714   6.975   1.069   2.608
 8272SOL    HW125715   7.022   1.131   2.671
 8272SOL    HW225716   6.877   1.066   2.631
 8273SOL     OW25717   3.102   1.269   6.927
 8273SOL    HW125718   3.178   1.230   6.875
 8273SOL    HW225719   3.016   1.235   6.889
 8274SOL     OW25720   4.225   4.876   5.391
 8274SOL    HW125721   4.201   4.973   5.405
 8274SOL    HW225722   4.180   4.820   5.461
 8275SOL     OW25723   5.773   0.572   4.433
 8275SOL    HW125724   5.807   0.478   4.427
 8275SOL    HW225725   5.689   0.580   4.379
 8276SOL     OW25726   6.585   2.275   5.926
 8276SOL    HW125727   6.649   2.352   5.924
 8276SOL    HW225728   6.562   2.248   5.832
 8277SOL     OW25729   2.046   5.684   4.943
 8277SOL    HW125730   2.064   5.766   4.889
 8277SOL    HW225731   2.057   5.603   4.884
 8278SOL     OW25732   3.406   1.759   6.572
 8278SOL    HW125733   3.393   1.837   6.634
 8278SOL    HW225734   3.466   1.692   6.616
 8279SOL     OW25735   6.496   5.791   5.975
 8279SOL    HW125736   6.497   5.846   5.891
 8279SOL    HW225737   6.587   5.752   5.990
 8280SOL     OW25738   4.307   2.473   0.925
 8280SOL    HW125739   4.224   2.429   0.890
 8280SOL    HW225740   4.284   2.563   0.962
 8281SOL     OW25741   2.195   4.432   2.081
 8281SOL    HW125742   2.272   4.376   2.050
 8281SOL    HW225743   2.116   4.373   2.098
 8282SOL     OW25744   2.550   3.483   7.008
 8282SOL    HW125745   2.467   3.532   6.980
 8282SOL    HW225746   2.526   3.411   0.047
 8283SOL     OW25747   1.131   4.945   4.336
 8283SOL    HW125748   1.221   4.913   4.305
 8283SOL    HW225749   1.143   5.012   4.409
 8284SOL     OW25750   1.364   4.030   2.187
 8284SOL    HW125751   1.422   4.097   2.232
 8284SOL    HW225752   1.416   3.945   2.172
 8285SOL     OW25753   3.765   3.526   5.427
 8285SOL    HW125754   3.842   3.482   5.473
 8285SOL    HW225755   3.680   3.502   5.475
 8286SOL     OW25756   5.525   2.241   4.888
 8286SOL    HW125757   5.587   2.179   4.840
 8286SOL    HW225758   5.444   2.191   4.919
 8287SOL     OW25759   1.218   5.888   3.922
 8287SOL    HW125760   1.207   5.801   3.969
 8287SOL    HW225761   1.140   5.903   3.860
 8288SOL     OW25762   0.698   2.384   2.409
 8288SOL    HW125763   0.683   2.473   2.365
 8288SOL    HW225764   0.717   2.398   2.506
 8289SOL     OW25765   5.882   0.400   6.378
 8289SOL    HW125766   5.794   0.426   6.339
 8289SOL    HW225767   5.952   0.400   6.306
 8290SOL     OW25768   4.696   1.731   1.801
 8290SOL    HW125769   4.626   1.778   1.854
 8290SOL    HW225770   4.666   1.638   1.780
 8291SOL     OW25771   5.671   5.767   6.512
 8291SOL    HW125772   5.586   5.715   6.499
 8291SOL    HW225773   5.744   5.726   6.458
 8292SOL     OW25774   2.577   5.905   6.216
 8292SOL    HW125775   2.549   5.829   6.274
 8292SOL    HW225776   2.642   5.962   6.265
 8293SOL     OW25777   1.406   3.821   1.669
 8293SOL    HW125778   1.368   3.899   1.719
 8293SOL    HW225779   1.505   3.819   1.682
 8294SOL     OW25780   6.447   3.313   4.772
 8294SOL    HW125781   6.377   3.381   4.750
 8294SOL    HW225782   6.530   3.332   4.718
 8295SOL     OW25783   5.220   3.350   2.703
 8295SOL    HW125784   5.233   3.446   2.679
 8295SOL    HW225785   5.125   3.324   2.685
 8296SOL     OW25786   3.622   5.039   0.273
 8296SOL    HW125787   3.545   5.103   0.263
 8296SOL    HW225788   3.603   4.976   0.347
 8297SOL     OW25789   6.444   3.058   2.264
 8297SOL    HW125790   6.432   3.079   2.361
 8297SOL    HW225791   6.391   3.123   2.209
 8298SOL     OW25792   0.483   0.631   0.331
 8298SOL    HW125793   0.431   0.550   0.359
 8298SOL    HW225794   0.449   0.711   0.382
 8299SOL     OW25795   0.577   2.679   0.706
 8299SOL    HW125796   0.675   2.678   0.727
 8299SOL    HW225797   0.525   2.642   0.783
 8300SOL     OW25798   6.463   6.500   5.133
 8300SOL    HW125799   6.541   6.450   5.094
 8300SOL    HW225800   6.435   6.572   5.069
 8301SOL     OW25801   4.556   0.624   6.627
 8301SOL    HW125802   4.572   0.639   6.725
 8301SOL    HW225803   4.527   0.710   6.584
 8302SOL     OW25804   4.496   0.082   5.391
 8302SOL    HW125805   4.539   0.148   5.330
 8302SOL    HW225806   4.536   7.017   5.376
 8303SOL     OW25807   0.064   0.510   3.174
 8303SOL    HW125808   0.024   0.419   3.187
 8303SOL    HW225809   0.005   0.564   3.114
 8304SOL     OW25810   5.455   4.840   1.645
 8304SOL    HW125811   5.460   4.741   1.653
 8304SOL    HW225812   5.447   4.880   1.736
 8305SOL     OW25813   4.087   4.746   4.106
 8305SOL    HW125814   4.149   4.739   4.185
 8305SOL    HW225815   4.005   4.797   4.133
 8306SOL     OW25816   6.595   1.658   2.888
 8306SOL    HW125817   6.520   1.619   2.942
 8306SOL    HW225818   6.573   1.651   2.790
 8307SOL     OW25819   3.307   5.396   1.484
 8307SOL    HW125820   3.261   5.484   1.494
 8307SOL    HW225821   3.326   5.380   1.387
 8308SOL     OW25822   1.953   4.391   0.461
 8308SOL    HW125823   1.929   4.303   0.421
 8308SOL    HW225824   2.039   4.382   0.511
 8309SOL     OW25825   5.860   4.903   3.008
 8309SOL    HW125826   5.868   4.917   3.106
 8309SOL    HW225827   5.951   4.901   2.966
 8310SOL     OW25828   1.068   5.453   0.737
 8310SOL    HW125829   1.143   5.425   0.796
 8310SOL    HW225830   0.994   5.387   0.742
 8311SOL     OW25831   5.329   0.605   4.721
 8311SOL    HW125832   5.249   0.611   4.661
 8311SOL    HW225833   5.299   0.587   4.814
 8312SOL     OW25834   5.646   1.112   0.509
 8312SOL    HW125835   5.562   1.132   0.459
 8312SOL    HW225836   5.631   1.034   0.570
 8313SOL     OW25837   4.758   0.262   5.661
 8313SOL    HW125838   4.703   0.343   5.642
 8313SOL    HW225839   4.699   0.182   5.666
 8314SOL     OW25840   5.995   6.932   6.532
 8314SOL    HW125841   6.092   6.948   6.514
 8314SOL    HW225842   5.948   6.908   6.447
 8315SOL     OW25843   4.080   3.211   3.112
 8315SOL    HW125844   4.176   3.205   3.084
 8315SOL    HW225845   4.075   3.249   3.205
 8316SOL     OW25846   1.694   3.208   0.573
 8316SOL    HW125847   1.674   3.305   0.565
 8316SOL    HW225848   1.694   3.166   0.482
 8317SOL     OW25849   2.335   1.972   3.195
 8317SOL    HW125850   2.393   2.052   3.210
 8317SOL    HW225851   2.278   1.956   3.275
 8318SOL     OW25852   4.181   1.343   5.556
 8318SOL    HW125853   4.116   1.365   5.483
 8318SOL    HW225854   4.243   1.420   5.570
 8319SOL     OW25855   1.829   0.035   0.418
 8319SOL    HW125856   1.872   0.114   0.376
 8319SOL    HW225857   1.760   0.065   0.484
 8320SOL     OW25858   3.512   4.164   3.429
 8320SOL    HW125859   3.568   4.113   3.363
 8320SOL    HW225860   3.571   4.209   3.496
 8321SOL     OW25861   0.055   0.044   6.292
 8321SOL    HW125862   0.118   0.048   6.369
 8321SOL    HW225863   0.001   0.128   6.289
 8322SOL     OW25864   0.275   1.618   0.052
 8322SOL    HW125865   0.340   1.606   7.002
 8322SOL    HW225866   0.216   1.537   0.059
 8323SOL     OW25867   3.380   5.055   1.546
 8323SOL    HW125868   3.443   5.046   1.623
 8323SOL    HW225869   3.300   4.997   1.560
 8324SOL     OW25870   5.151   0.459   0.695
 8324SOL    HW125871   5.202   0.373   0.698
 8324SOL    HW225872   5.191   0.519   0.626
 8325SOL     OW25873   0.753   4.214   5.327
 8325SOL    HW125874   0.806   4.240   5.408
 8325SOL    HW225875   0.806   4.237   5.245
 8326SOL     OW25876   4.213   3.703   6.733
 8326SOL    HW125877   4.304   3.741   6.753
 8326SOL    HW225878   4.148   3.778   6.719
 8327SOL     OW25879   0.885   0.265   5.427
 8327SOL    HW125880   0.818   0.194   5.450
 8327SOL    HW225881   0.841   0.335   5.371
 8328SOL     OW25882   2.551   6.551   6.317
 8328SOL    HW125883   2.568   6.468   6.263
 8328SOL    HW225884   2.639   6.592   6.342
 8329SOL     OW25885   0.458   2.227   5.024
 8329SOL    HW125886   0.422   2.140   4.993
 8329SOL    HW225887   0.458   2.292   4.948
 8330SOL     OW25888   3.759   1.538   6.486
 8330SOL    HW125889   3.750   1.457   6.428
 8330SOL    HW225890   3.764   1.620   6.428
 8331SOL     OW25891   2.954   0.770   0.963
 8331SOL    HW125892   2.935   0.750   0.867
 8331SOL    HW225893   2.912   0.857   0.989
 8332SOL     OW25894   5.430   4.928   1.901
 8332SOL    HW125895   5.438   5.020   1.940
 8332SOL    HW225896   5.493   4.866   1.949
 8333SOL     OW25897   1.920   4.967   0.268
 8333SOL    HW125898   1.996   4.924   0.221
 8333SOL    HW225899   1.902   5.056   0.228
 8334SOL     OW25900   2.876   2.335   6.306
 8334SOL    HW125901   2.854   2.279   6.226
 8334SOL    HW225902   2.816   2.414   6.310
 8335SOL     OW25903   3.539   2.291   0.168
 8335SOL    HW125904   3.561   2.344   0.085
 8335SOL    HW225905   3.573   2.340   0.248
 8336SOL     OW25906   1.068   4.096   2.948
 8336SOL    HW125907   1.080   3.997   2.958
 8336SOL    HW225908   0.976   4.122   2.976
 8337SOL     OW25909   0.355   0.027   3.891
 8337SOL    HW125910   0.278   7.012   3.842
 8337SOL    HW225911   0.323   0.100   3.951
 8338SOL     OW25912   3.690   5.589   1.994
 8338SOL    HW125913   3.678   5.663   1.928
 8338SOL    HW225914   3.732   5.624   2.077
 8339SOL     OW25915   0.158   1.113   1.665
 8339SOL    HW125916   0.236   1.051   1.661
 8339SOL    HW225917   0.108   1.098   1.750
 8340SOL     OW25918   5.387   4.195   0.568
 8340SOL    HW125919   5.332   4.235   0.641
 8340SOL    HW225920   5.379   4.096   0.571
 8341SOL     OW25921   3.792   0.423   7.001
 8341SOL    HW125922   3.796   0.328   6.969
 8341SOL    HW225923   3.882   0.465   6.993
 8342SOL     OW25924   4.296   6.854   0.627
 8342SOL    HW125925   4.322   6.821   0.537
 8342SOL    HW225926   4.277   6.776   0.687
 8343SOL     OW25927   6.653   5.332   3.849
 8343SOL    HW125928   6.597   5.312   3.769
 8343SOL    HW225929   6.671   5.431   3.853
 8344SOL     OW25930   6.569   4.483   4.372
 8344SOL    HW125931   6.472   4.506   4.377
 8344SOL    HW225932   6.588   4.401   4.425
 8345SOL     OW25933   4.451   1.881   3.474
 8345SOL    HW125934   4.450   1.787   3.508
 8345SOL    HW225935   4.439   1.944   3.551
 8346SOL     OW25936   3.748   3.426   6.274
 8346SOL    HW125937   3.687   3.493   6.317
 8346SOL    HW225938   3.766   3.453   6.180
 8347SOL     OW25939   3.308   0.136   6.398
 8347SOL    HW125940   3.244   0.060   6.409
 8347SOL    HW225941   3.291   0.204   6.470
 8348SOL     OW25942   2.294   0.631   1.844
 8348SOL    HW125943   2.324   0.640   1.749
 8348SOL    HW225944   2.201   0.596   1.847
 8349SOL     OW25945   1.480   6.425   1.729
 8349SOL    HW125946   1.543   6.404   1.653
 8349SOL    HW225947   1.386   6.410   1.699
 8350SOL     OW25948   2.953   6.681   6.294
 8350SOL    HW125949   2.881   6.696   6.362
 8350SOL    HW225950   2.912   6.652   6.208
 8351SOL     OW25951   5.615   5.195   4.303
 8351SOL    HW125952   5.658   5.194   4.393
 8351SOL    HW225953   5.582   5.287   4.282
 8352SOL     OW25954   1.815   6.922   2.765
 8352SOL    HW125955   1.877   6.975   2.822
 8352SOL    HW225956   1.758   6.983   2.711
 8353SOL     OW25957   0.751   3.976   0.707
 8353SOL    HW125958   0.772   3.885   0.742
 8353SOL    HW225959   0.651   3.986   0.698
 8354SOL     OW25960   3.233   0.272   4.046
 8354SOL    HW125961   3.161   0.248   4.111
 8354SOL    HW225962   3.261   0.367   4.059
 8355SOL     OW25963   1.679   1.256   5.415
 8355SOL    HW125964   1.581   1.239   5.423
 8355SOL    HW225965   1.695   1.320   5.340
 8356SOL     OW25966   1.008   5.595   1.338
 8356SOL    HW125967   1.072   5.646   1.395
 8356SOL    HW225968   0.978   5.513   1.387
 8357SOL     OW25969   3.845   6.353   5.616
 8357SOL    HW125970   3.789   6.429   5.582
 8357SOL    HW225971   3.928   6.390   5.657
 8358SOL     OW25972   1.215   2.734   4.633
 8358SOL    HW125973   1.277   2.807   4.659
 8358SOL    HW225974   1.240   2.700   4.542
 8359SOL     OW25975   2.358   1.646   4.686
 8359SOL    HW125976   2.342   1.731   4.635
 8359SOL    HW225977   2.400   1.578   4.625
 8360SOL     OW25978   4.815   0.219   1.412
 8360SOL    HW125979   4.836   0.314   1.433
 8360SOL    HW225980   4.805   0.208   1.313
 8361SOL     OW25981   3.589   0.714   0.257
 8361SOL    HW125982   3.551   0.771   0.184
 8361SOL    HW225983   3.596   0.767   0.341
 8362SOL     OW25984   5.740   1.950   1.203
 8362SOL    HW125985   5.752   1.950   1.104
 8362SOL    HW225986   5.650   1.912   1.226
 8363SOL     OW25987   5.248   1.586   0.457
 8363SOL    HW125988   5.315   1.557   0.525
 8363SOL    HW225989   5.195   1.662   0.493
 8364SOL     OW25990   0.649   3.045   4.269
 8364SOL    HW125991   0.704   2.961   4.270
 8364SOL    HW225992   0.677   3.102   4.192
 8365SOL     OW25993   1.341   2.395   2.735
 8365SOL    HW125994   1.251   2.433   2.759
 8365SOL    HW225995   1.337   2.357   2.643
 8366SOL     OW25996   3.385   5.349   0.767
 8366SOL    HW125997   3.389   5.252   0.789
 8366SOL    HW225998   3.477   5.387   0.766
 8367SOL     OW25999   3.720   5.267   5.364
 8367SOL    HW126000   3.735   5.224   5.275
 8367SOL    HW226001   3.626   5.299   5.370
 8368SOL     OW26002   0.931   5.932   0.519
 8368SOL    HW126003   0.997   5.996   0.557
 8368SOL    HW226004   0.918   5.856   0.582
 8369SOL     OW26005   0.699   0.947   6.709
 8369SOL    HW126006   0.764   0.923   6.781
 8369SOL    HW226007   0.680   0.866   6.653
 8370SOL     OW26008   2.411   1.088   6.032
 8370SOL    HW126009   2.337   1.153   6.044
 8370SOL    HW226010   2.429   1.077   5.934
 8371SOL     OW26011   1.894   3.382   6.704
 8371SOL    HW126012   1.908   3.417   6.797
 8371SOL    HW226013   1.962   3.312   6.684
 8372SOL     OW26014   1.555   5.795   1.564
 8372SOL    HW126015   1.470   5.745   1.580
 8372SOL    HW226016   1.538   5.893   1.573
 8373SOL     OW26017   1.634   0.412   4.860
 8373SOL    HW126018   1.652   0.318   4.886
 8373SOL    HW226019   1.607   0.416   4.764
 8374SOL     OW26020   0.106   0.114   4.978
 8374SOL    HW126021   0.053   0.159   4.906
 8374SOL    HW226022   0.131   0.022   4.948
 8375SOL     OW26023   3.462   6.538   6.120
 8375SOL    HW126024   3.420   6.621   6.085
 8375SOL    HW226025   3.446   6.530   6.218
 8376SOL     OW26026   1.478   1.306   4.035
 8376SOL    HW126027   1.525   1.319   4.122
 8376SOL    HW226028   1.434   1.392   4.008
 8377SOL     OW26029   5.908   6.369   0.326
 8377SOL    HW126030   5.844   6.446   0.338
 8377SOL    HW226031   5.931   6.360   0.230
 8378SOL     OW26032   4.223   5.225   3.859
 8378SOL    HW126033   4.185   5.245   3.949
 8378SOL    HW226034   4.218   5.306   3.802
 8379SOL     OW26035   4.989   2.451   1.999
 8379SOL    HW126036   5.078   2.494   2.011
 8379SOL    HW226037   4.936   2.460   2.083
 8380SOL     OW26038   0.439   0.147   6.892
 8380SOL    HW126039   0.534   0.175   6.906
 8380SOL    HW226040   0.425   0.056   6.930
 8381SOL     OW26041   0.058   2.794   3.471
 8381SOL    HW126042   0.037   2.887   3.441
 8381SOL    HW226043   0.005   2.729   3.418
 8382SOL     OW26044   2.148   6.839   1.308
 8382SOL    HW126045   2.071   6.885   1.264
 8382SOL    HW226046   2.229   6.844   1.249
 8383SOL     OW26047   2.868   6.690   5.842
 8383SOL    HW126048   2.958   6.651   5.864
 8383SOL    HW226049   2.828   6.729   5.925
 8384SOL     OW26050   6.974   1.435   0.809
 8384SOL    HW126051   0.034   1.413   0.761
 8384SOL    HW226052   6.933   1.516   0.768
 8385SOL     OW26053   4.361   2.055   0.712
 8385SOL    HW126054   4.376   2.105   0.627
 8385SOL    HW226055   4.439   2.068   0.773
 8386SOL     OW26056   2.191   5.515   1.448
 8386SOL    HW126057   2.208   5.420   1.472
 8386SOL    HW226058   2.095   5.526   1.423
 8387SOL     OW26059   1.509   2.021   1.377
 8387SOL    HW126060   1.510   1.923   1.395
 8387SOL    HW226061   1.576   2.043   1.306
 8388SOL     OW26062   1.775   6.664   1.182
 8388SOL    HW126063   1.722   6.630   1.105
 8388SOL    HW226064   1.776   6.596   1.255
 8389SOL     OW26065   0.099   3.445   4.668
 8389SOL    HW126066   0.087   3.374   4.737
 8389SOL    HW226067   0.195   3.448   4.640
 8390SOL     OW26068   3.794   6.736   6.865
 8390SOL    HW126069   3.856   6.704   6.793
 8390SOL    HW226070   3.720   6.670   6.878
 8391SOL     OW26071   4.895   5.005   1.189
 8391SOL    HW126072   4.865   4.996   1.094
 8391SOL    HW226073   4.900   4.915   1.231
 8392SOL     OW26074   6.581   5.391   5.729
 8392SOL    HW126075   6.558   5.466   5.667
 8392SOL    HW226076   6.552   5.416   5.822
 8393SOL     OW26077   6.826   0.025   3.835
 8393SOL    HW126078   6.862   0.114   3.805
 8393SOL    HW226079   6.766   0.039   3.914
 8394SOL     OW26080   0.023   2.908   1.618
 8394SOL    HW126081   6.984   2.939   1.687
 8394SOL    HW226082   0.106   2.965   1.622
 8395SOL     OW26083   1.334   6.148   4.545
 8395SOL    HW126084   1.414   6.111   4.592
 8395SOL    HW226085   1.251   6.106   4.582
 8396SOL     OW26086   4.214   4.781   2.100
 8396SOL    HW126087   4.168   4.730   2.173
 8396SOL    HW226088   4.195   4.736   2.013
 8397SOL     OW26089   2.516   0.906   3.470
 8397SOL    HW126090   2.567   0.944   3.548
 8397SOL    HW226091   2.570   0.917   3.387
 8398SOL     OW26092   4.258   2.406   6.333
 8398SOL    HW126093   4.326   2.477   6.351
 8398SOL    HW226094   4.186   2.442   6.274
 8399SOL     OW26095   6.517   0.422   6.927
 8399SOL    HW126096   6.559   0.426   6.836
 8399SOL    HW226097   6.432   0.475   6.926
 8400SOL     OW26098   1.101   0.313   3.776
 8400SOL    HW126099   1.185   0.361   3.800
 8400SOL    HW226100   1.045   0.370   3.715
 8401SOL     OW26101   3.810   1.841   5.820
 8401SOL    HW126102   3.781   1.766   5.761
 8401SOL    HW226103   3.864   1.805   5.895
 8402SOL     OW26104   4.289   1.786   5.525
 8402SOL    HW126105   4.243   1.773   5.437
 8402SOL    HW226106   4.341   1.871   5.522
 8403SOL     OW26107   1.080   1.811   3.022
 8403SOL    HW126108   1.059   1.789   2.927
 8403SOL    HW226109   1.178   1.823   3.033
 8404SOL     OW26110   4.828   5.734   6.626
 8404SOL    HW126111   4.740   5.741   6.673
 8404SOL    HW226112   4.900   5.768   6.686
 8405SOL     OW26113   2.613   0.924   6.142
 8405SOL    HW126114   2.672   0.971   6.208
 8405SOL    HW226115   2.544   0.988   6.108
 8406SOL     OW26116   4.725   0.238   0.424
 8406SOL    HW126117   4.642   0.240   0.480
 8406SOL    HW226118   4.800   0.280   0.475
 8407SOL     OW26119   4.727   6.465   3.596
 8407SOL    HW126120   4.708   6.382   3.650
 8407SOL    HW226121   4.704   6.449   3.500
 8408SOL     OW26122   5.083   2.604   2.371
 8408SOL    HW126123   5.040   2.692   2.394
 8408SOL    HW226124   5.125   2.565   2.453
 8409SOL     OW26125   6.197   3.541   3.306
 8409SOL    HW126126   6.224   3.467   3.244
 8409SOL    HW226127   6.134   3.602   3.259
 8410SOL     OW26128   4.729   0.730   1.795
 8410SOL    HW126129   4.730   0.630   1.787
 8410SOL    HW226130   4.822   0.765   1.783
 8411SOL     OW26131   1.572   5.343   5.678
 8411SOL    HW126132   1.482   5.334   5.721
 8411SOL    HW226133   1.601   5.253   5.644
 8412SOL     OW26134   4.466   1.776   1.949
 8412SOL    HW126135   4.387   1.824   1.912
 8412SOL    HW226136   4.459   1.679   1.926
 8413SOL     OW26137   4.485   4.734   0.280
 8413SOL    HW126138   4.445   4.644   0.291
 8413SOL    HW226139   4.420   4.796   0.236
 8414SOL     OW26140   4.564   5.459   2.776
 8414SOL    HW126141   4.494   5.441   2.707
 8414SOL    HW226142   4.584   5.374   2.826
 8415SOL     OW26143   6.712   5.604   4.258
 8415SOL    HW126144   6.683   5.513   4.289
 8415SOL    HW226145   6.806   5.599   4.226
 8416SOL     OW26146   5.372   4.031   3.030
 8416SOL    HW126147   5.371   3.946   2.978
 8416SOL    HW226148   5.466   4.066   3.034
 8417SOL     OW26149   1.367   5.003   6.266
 8417SOL    HW126150   1.456   5.026   6.227
 8417SOL    HW226151   1.335   4.916   6.228
 8418SOL     OW26152   6.254   5.312   1.324
 8418SOL    HW126153   6.309   5.389   1.355
 8418SOL    HW226154   6.314   5.243   1.283
 8419SOL     OW26155   5.457   1.656   3.062
 8419SOL    HW126156   5.427   1.748   3.038
 8419SOL    HW226157   5.487   1.654   3.158
 8420SOL     OW26158   4.162   0.063   0.976
 8420SOL    HW126159   4.239   0.103   0.928
 8420SOL    HW226160   4.190   7.003   1.019
 8421SOL     OW26161   2.907   6.173   0.917
 8421SOL    HW126162   2.922   6.093   0.860
 8421SOL    HW226163   2.812   6.174   0.950
 8422SOL     OW26164   4.379   0.760   1.448
 8422SOL    HW126165   4.282   0.774   1.469
 8422SOL    HW226166   4.426   0.848   1.452
 8423SOL     OW26167   4.082   4.788   5.831
 8423SOL    HW126168   4.100   4.736   5.748
 8423SOL    HW226169   3.983   4.801   5.841
 8424SOL     OW26170   2.506   2.413   2.632
 8424SOL    HW126171   2.449   2.447   2.557
 8424SOL    HW226172   2.578   2.354   2.594
 8425SOL     OW26173   5.775   5.991   0.640
 8425SOL    HW126174   5.807   5.943   0.722
 8425SOL    HW226175   5.736   6.080   0.667
 8426SOL     OW26176   3.117   3.338   4.239
 8426SOL    HW126177   3.176   3.416   4.220
 8426SOL    HW226178   3.039   3.367   4.295
 8427SOL     OW26179   2.558   3.718   5.767
 8427SOL    HW126180   2.631   3.662   5.729
 8427SOL    HW226181   2.532   3.683   5.857
 8428SOL     OW26182   6.787   3.958   1.629
 8428SOL    HW126183   6.805   3.928   1.535
 8428SOL    HW226184   6.729   4.039   1.627
 8429SOL     OW26185   2.232   4.043   3.807
 8429SOL    HW126186   2.260   4.103   3.882
 8429SOL    HW226187   2.174   3.970   3.842
 8430SOL     OW26188   3.684   6.143   4.147
 8430SOL    HW126189   3.728   6.099   4.225
 8430SOL    HW226190   3.754   6.181   4.087
 8431SOL     OW26191   2.774   5.595   0.759
 8431SOL    HW126192   2.714   5.587   0.679
 8431SOL    HW226193   2.728   5.557   0.839
 8432SOL     OW26194   5.626   6.860   6.181
 8432SOL    HW126195   5.543   6.914   6.163
 8432SOL    HW226196   5.631   6.784   6.116
 8433SOL     OW26197   6.567   2.064   0.684
 8433SOL    HW126198   6.650   2.110   0.653
 8433SOL    HW226199   6.574   2.044   0.781
 8434SOL     OW26200   3.152   6.548   5.382
 8434SOL    HW126201   3.142   6.459   5.426
 8434SOL    HW226202   3.066   6.575   5.339
 8435SOL     OW26203   5.437   0.357   1.323
 8435SOL    HW126204   5.363   0.408   1.367
 8435SOL    HW226205   5.455   0.396   1.233
 8436SOL     OW26206   3.055   6.886   4.745
 8436SOL    HW126207   3.125   6.887   4.817
 8436SOL    HW226208   3.055   6.973   4.696
 8437SOL     OW26209   1.479   0.031   3.326
 8437SOL    HW126210   1.382   0.036   3.347
 8437SOL    HW226211   1.493   6.992   3.251
 8438SOL     OW26212   2.818   5.025   2.157
 8438SOL    HW126213   2.727   4.999   2.126
 8438SOL    HW226214   2.884   4.955   2.128
 8439SOL     OW26215   6.388   5.545   1.461
 8439SOL    HW126216   6.384   5.551   1.560
 8439SOL    HW226217   6.324   5.610   1.421
 8440SOL     OW26218   0.829   1.831   3.776
 8440SOL    HW126219   0.879   1.915   3.752
 8440SOL    HW226220   0.783   1.797   3.694
 8441SOL     OW26221   5.918   6.466   0.064
 8441SOL    HW126222   5.844   6.522   0.101
 8441SOL    HW226223   5.885   6.419   7.007
 8442SOL     OW26224   3.147   2.580   5.582
 8442SOL    HW126225   3.087   2.652   5.617
 8442SOL    HW226226   3.183   2.527   5.659
 8443SOL     OW26227   1.197   6.186   3.644
 8443SOL    HW126228   1.235   6.099   3.612
 8443SOL    HW226229   1.162   6.238   3.565
 8444SOL     OW26230   3.262   5.802   3.866
 8444SOL    HW126231   3.303   5.810   3.775
 8444SOL    HW226232   3.284   5.884   3.920
 8445SOL     OW26233   3.603   5.432   1.484
 8445SOL    HW126234   3.629   5.435   1.580
 8445SOL    HW226235   3.512   5.391   1.475
 8446SOL     OW26236   4.172   5.227   0.163
 8446SOL    HW126237   4.084   5.220   0.209
 8446SOL    HW226238   4.162   5.278   0.078
 8447SOL     OW26239   5.562   2.451   1.835
 8447SOL    HW126240   5.568   2.432   1.933
 8447SOL    HW226241   5.645   2.497   1.804
 8448SOL     OW26242   5.708   4.811   4.322
 8448SOL    HW126243   5.705   4.881   4.251
 8448SOL    HW226244   5.770   4.839   4.395
 8449SOL     OW26245   6.079   3.089   4.209
 8449SOL    HW126246   6.072   3.015   4.142
 8449SOL    HW226247   6.171   3.088   4.249
 8450SOL     OW26248   1.670   5.749   2.185
 8450SOL    HW126249   1.678   5.668   2.126
 8450SOL    HW226250   1.760   5.772   2.222
 8451SOL     OW26251   5.053   2.674   0.858
 8451SOL    HW126252   5.138   2.712   0.894
 8451SOL    HW226253   5.009   2.740   0.798
 8452SOL     OW26254   6.819   1.132   2.185
 8452SOL    HW126255   6.918   1.127   2.194
 8452SOL    HW226256   6.780   1.185   2.260
 8453SOL     OW26257   6.800   4.087   6.841
 8453SOL    HW126258   6.816   4.096   6.742
 8453SOL    HW226259   6.704   4.063   6.857
 8454SOL     OW26260   0.513   6.218   0.662
 8454SOL    HW126261   0.526   6.316   0.677
 8454SOL    HW226262   0.592   6.168   0.697
 8455SOL     OW26263   5.468   1.930   1.526
 8455SOL    HW126264   5.559   1.942   1.566
 8455SOL    HW226265   5.408   2.003   1.558
 8456SOL     OW26266   4.438   4.889   3.113
 8456SOL    HW126267   4.502   4.962   3.135
 8456SOL    HW226268   4.438   4.874   3.014
 8457SOL     OW26269   0.163   6.523   5.238
 8457SOL    HW126270   0.262   6.530   5.245
 8457SOL    HW226271   0.131   6.572   5.156
 8458SOL     OW26272   2.751   1.301   6.913
 8458SOL    HW126273   2.755   1.223   6.975
 8458SOL    HW226274   2.656   1.320   6.889
 8459SOL     OW26275   3.124   6.379   1.780
 8459SOL    HW126276   3.145   6.477   1.772
 8459SOL    HW226277   3.032   6.368   1.817
 8460SOL     OW26278   4.670   2.568   5.608
 8460SOL    HW126279   4.697   2.485   5.657
 8460SOL    HW226280   4.746   2.601   5.552
 8461SOL     OW26281   0.742   3.817   2.935
 8461SOL    HW126282   0.831   3.784   2.902
 8461SOL    HW226283   0.705   3.752   3.002
 8462SOL     OW26284   3.483   2.388   0.685
 8462SOL    HW126285   3.519   2.336   0.607
 8462SOL    HW226286   3.479   2.329   0.765
 8463SOL     OW26287   6.257   0.565   6.834
 8463SOL    HW126288   6.166   0.526   6.823
 8463SOL    HW226289   6.254   0.637   6.904
 8464SOL     OW26290   5.706   3.669   5.616
 8464SOL    HW126291   5.618   3.621   5.611
 8464SOL    HW226292   5.775   3.608   5.655
 8465SOL     OW26293   2.367   2.360   0.798
 8465SOL    HW126294   2.419   2.386   0.880
 8465SOL    HW226295   2.387   2.265   0.775
 8466SOL     OW26296   6.957   6.891   5.250
 8466SOL    HW126297   6.923   6.962   5.313
 8466SOL    HW226298   6.889   6.874   5.179
 8467SOL     OW26299   3.924   0.501   1.495
 8467SOL    HW126300   3.946   0.581   1.439
 8467SOL    HW226301   3.993   0.430   1.479
 8468SOL     OW26302   4.638   2.341   0.831
 8468SOL    HW126303   4.599   2.433   0.837
 8468SOL    HW226304   4.574   2.275   0.870
 8469SOL     OW26305   2.843   1.804   5.431
 8469SOL    HW126306   2.751   1.806   5.391
 8469SOL    HW226307   2.836   1.796   5.530
 8470SOL     OW26308   0.310   4.915   0.181
 8470SOL    HW126309   0.308   4.820   0.149
 8470SOL    HW226310   0.327   4.916   0.280
 8471SOL     OW26311   4.099   0.502   4.386
 8471SOL    HW126312   4.177   0.446   4.415
 8471SOL    HW226313   4.014   0.458   4.414
 8472SOL     OW26314   6.432   0.396   5.784
 8472SOL    HW126315   6.500   0.441   5.842
 8472SOL    HW226316   6.404   0.310   5.828
 8473SOL     OW26317   6.477   5.971   0.930
 8473SOL    HW126318   6.524   5.918   0.860
 8473SOL    HW226319   6.487   5.926   1.019
 8474SOL     OW26320   3.406   3.691   2.560
 8474SOL    HW126321   3.498   3.655   2.577
 8474SOL    HW226322   3.345   3.662   2.634
 8475SOL     OW26323   0.105   2.603   2.840
 8475SOL    HW126324   0.096   2.587   2.742
 8475SOL    HW226325   0.118   2.515   2.887
 8476SOL     OW26326   6.561   1.676   0.985
 8476SOL    HW126327   6.649   1.716   1.010
 8476SOL    HW226328   6.568   1.576   0.989
 8477SOL     OW26329   5.099   6.632   2.563
 8477SOL    HW126330   5.124   6.557   2.501
 8477SOL    HW226331   5.162   6.709   2.549
 8478SOL     OW26332   1.501   6.724   6.388
 8478SOL    HW126333   1.417   6.670   6.381
 8478SOL    HW226334   1.560   6.705   6.310
 8479SOL     OW26335   0.842   2.291   1.021
 8479SOL    HW126336   0.772   2.230   1.059
 8479SOL    HW226337   0.805   2.339   0.942
 8480SOL     OW26338   5.167   2.916   0.567
 8480SOL    HW126339   5.178   2.885   0.472
 8480SOL    HW226340   5.204   2.848   0.629
 8481SOL     OW26341   5.011   2.775   4.852
 8481SOL    HW126342   5.098   2.798   4.807
 8481SOL    HW226343   4.944   2.846   4.831
 8482SOL     OW26344   4.627   6.503   2.743
 8482SOL    HW126345   4.648   6.405   2.743
 8482SOL    HW226346   4.695   6.552   2.689
 8483SOL     OW26347   3.816   6.101   1.889
 8483SOL    HW126348   3.726   6.130   1.854
 8483SOL    HW226349   3.816   6.103   1.989
 8484SOL     OW26350   6.993   6.030   3.549
 8484SOL    HW126351   7.005   5.939   3.508
 8484SOL    HW226352   0.041   6.048   3.614
 8485SOL     OW26353   3.561   2.626   0.277
 8485SOL    HW126354   3.474   2.585   0.248
 8485SOL    HW226355   3.552   2.726   0.277
 8486SOL     OW26356   2.012   1.961   2.373
 8486SOL    HW126357   1.984   1.991   2.282
 8486SOL    HW226358   2.018   2.041   2.434
 8487SOL     OW26359   5.559   1.703   5.550
 8487SOL    HW126360   5.615   1.771   5.502
 8487SOL    HW226361   5.550   1.621   5.492
 8488SOL     OW26362   5.495   6.535   1.078
 8488SOL    HW126363   5.438   6.574   1.006
 8488SOL    HW226364   5.502   6.436   1.065
 8489SOL     OW26365   6.550   1.642   1.670
 8489SOL    HW126366   6.574   1.545   1.660
 8489SOL    HW226367   6.476   1.664   1.606
 8490SOL     OW26368   4.133   6.614   5.113
 8490SOL    HW126369   4.212   6.570   5.069
 8490SOL    HW226370   4.166   6.680   5.180
 8491SOL     OW26371   2.580   6.123   1.736
 8491SOL    HW126372   2.617   6.202   1.688
 8491SOL    HW226373   2.517   6.074   1.676
 8492SOL     OW26374   5.985   3.840   5.380
 8492SOL    HW126375   5.887   3.824   5.377
 8492SOL    HW226376   6.003   3.929   5.421
 8493SOL     OW26377   2.279   2.478   5.767
 8493SOL    HW126378   2.208   2.454   5.702
 8493SOL    HW226379   2.366   2.439   5.737
 8494SOL     OW26380   4.307   5.050   1.260
 8494SOL    HW126381   4.319   5.141   1.219
 8494SOL    HW226382   4.391   5.023   1.307
 8495SOL     OW26383   6.244   4.934   1.969
 8495SOL    HW126384   6.257   5.033   1.962
 8495SOL    HW226385   6.311   4.887   1.912
 8496SOL     OW26386   1.539   2.199   2.476
 8496SOL    HW126387   1.474   2.250   2.420
 8496SOL    HW226388   1.628   2.198   2.431
 8497SOL     OW26389   0.020   0.788   3.594
 8497SOL    HW126390   0.043   0.709   3.652
 8497SOL    HW226391   0.070   0.868   3.626
 8498SOL     OW26392   6.343   6.065   3.183
 8498SOL    HW126393   6.381   6.157   3.188
 8498SOL    HW226394   6.261   6.066   3.125
 8499SOL     OW26395   2.107   3.893   6.908
 8499SOL    HW126396   2.045   3.927   6.979
 8499SOL    HW226397   2.055   3.870   6.826
 8500SOL     OW26398   1.715   6.090   5.553
 8500SOL    HW126399   1.720   6.108   5.455
 8500SOL    HW226400   1.622   6.110   5.585
 8501SOL     OW26401   0.381   2.196   6.675
 8501SOL    HW126402   0.451   2.227   6.610
 8501SOL    HW226403   0.388   2.097   6.686
 8502SOL     OW26404   0.402   3.646   0.935
 8502SOL    HW126405   0.400   3.600   0.846
 8502SOL    HW226406   0.494   3.637   0.974
 8503SOL     OW26407   1.028   5.256   4.739
 8503SOL    HW126408   1.061   5.187   4.674
 8503SOL    HW226409   1.080   5.249   4.824
 8504SOL     OW26410   2.380   4.946   3.206
 8504SOL    HW126411   2.460   4.892   3.179
 8504SOL    HW226412   2.391   4.976   3.301
 8505SOL     OW26413   6.515   3.492   3.276
 8505SOL    HW126414   6.486   3.402   3.309
 8505SOL    HW226415   6.459   3.563   3.318
 8506SOL     OW26416   0.819   1.232   6.973
 8506SOL    HW126417   0.774   1.320   6.957
 8506SOL    HW226418   0.881   1.211   6.897
 8507SOL     OW26419   4.019   0.620   4.760
 8507SOL    HW126420   3.940   0.672   4.726
 8507SOL    HW226421   3.987   0.550   4.824
 8508SOL     OW26422   5.120   1.887   4.500
 8508SOL    HW126423   5.115   1.788   4.486
 8508SOL    HW226424   5.198   1.908   4.559
 8509SOL     OW26425   4.322   0.919   3.615
 8509SOL    HW126426   4.252   0.963   3.672
 8509SOL    HW226427   4.344   0.830   3.653
 8510SOL     OW26428   5.744   4.553   2.385
 8510SOL    HW126429   5.691   4.593   2.310
 8510SOL    HW226430   5.718   4.595   2.471
 8511SOL     OW26431   6.209   4.071   2.274
 8511SOL    HW126432   6.216   4.090   2.372
 8511SOL    HW226433   6.113   4.075   2.247
 8512SOL     OW26434   2.354   1.350   2.597
 8512SOL    HW126435   2.345   1.361   2.696
 8512SOL    HW226436   2.450   1.354   2.571
 8513SOL     OW26437   6.904   5.405   0.646
 8513SOL    HW126438   6.820   5.459   0.653
 8513SOL    HW226439   6.888   5.313   0.682
 8514SOL     OW26440   2.175   2.285   3.969
 8514SOL    HW126441   2.117   2.252   3.895
 8514SOL    HW226442   2.195   2.382   3.955
 8515SOL     OW26443   4.973   2.180   0.946
 8515SOL    HW126444   4.904   2.249   0.969
 8515SOL    HW226445   4.976   2.111   1.019
 8516SOL     OW26446   0.211   2.037   2.097
 8516SOL    HW126447   0.134   2.097   2.079
 8516SOL    HW226448   0.263   2.023   2.013
 8517SOL     OW26449   0.614   2.478   6.168
 8517SOL    HW126450   0.565   2.458   6.253
 8517SOL    HW226451   0.581   2.417   6.096
 8518SOL     OW26452   4.238   4.040   0.078
 8518SOL    HW126453   4.222   3.949   0.039
 8518SOL    HW226454   4.332   4.069   0.058
 8519SOL     OW26455   1.877   4.982   2.121
 8519SOL    HW126456   1.861   5.051   2.050
 8519SOL    HW226457   1.808   4.992   2.193
 8520SOL     OW26458   3.732   2.146   0.952
 8520SOL    HW126459   3.809   2.083   0.956
 8520SOL    HW226460   3.657   2.105   0.901
 8521SOL     OW26461   1.808   4.860   5.744
 8521SOL    HW126462   1.716   4.849   5.705
 8521SOL    HW226463   1.876   4.835   5.675
 8522SOL     OW26464   1.426   5.644   1.916
 8522SOL    HW126465   1.508   5.663   1.971
 8522SOL    HW226466   1.370   5.727   1.910
 8523SOL     OW26467   3.234   0.513   6.397
 8523SOL    HW126468   3.222   0.428   6.447
 8523SOL    HW226469   3.252   0.587   6.461
 8524SOL     OW26470   1.242   1.908   5.060
 8524SOL    HW126471   1.282   1.817   5.068
 8524SOL    HW226472   1.309   1.976   5.089
 8525SOL     OW26473   6.281   4.204   2.523
 8525SOL    HW126474   6.192   4.249   2.529
 8525SOL    HW226475   6.348   4.256   2.576
 8526SOL     OW26476   3.545   4.872   0.492
 8526SOL    HW126477   3.459   4.825   0.471
 8526SOL    HW226478   3.613   4.806   0.523
 8527SOL     OW26479   3.054   0.229   4.883
 8527SOL    HW126480   3.096   0.311   4.845
 8527SOL    HW226481   2.960   0.250   4.909
 8528SOL     OW26482   4.926   2.935   6.063
 8528SOL    HW126483   4.828   2.923   6.048
 8528SOL    HW226484   4.941   3.012   6.126
 8529SOL     OW26485   0.937   0.165   0.196
 8529SOL    HW126486   1.024   0.150   0.243
 8529SOL    HW226487   0.928   0.262   0.174
 8530SOL     OW26488   2.367   4.150   5.714
 8530SOL    HW126489   2.405   4.063   5.682
 8530SOL    HW226490   2.359   4.213   5.636
 8531SOL     OW26491   6.344   4.173   1.556
 8531SOL    HW126492   6.326   4.164   1.654
 8531SOL    HW226493   6.273   4.126   1.504
 8532SOL     OW26494   4.263   5.010   4.526
 8532SOL    HW126495   4.191   5.011   4.596
 8532SOL    HW226496   4.347   5.050   4.563
 8533SOL     OW26497   1.826   0.016   6.123
 8533SOL    HW126498   1.851   0.112   6.109
 8533SOL    HW226499   1.906   6.983   6.107
 8534SOL     OW26500   6.817   3.549   4.000
 8534SOL    HW126501   6.893   3.613   3.990
 8534SOL    HW226502   6.770   3.566   4.086
 8535SOL     OW26503   0.506   1.888   5.450
 8535SOL    HW126504   0.442   1.811   5.449
 8535SOL    HW226505   0.460   1.968   5.488
 8536SOL     OW26506   5.857   1.847   5.079
 8536SOL    HW126507   5.910   1.931   5.068
 8536SOL    HW226508   5.898   1.791   5.151
 8537SOL     OW26509   5.858   1.196   2.406
 8537SOL    HW126510   5.768   1.234   2.428
 8537SOL    HW226511   5.906   1.174   2.490
 8538SOL     OW26512   0.687   1.411   5.267
 8538SOL    HW126513   0.644   1.458   5.190
 8538SOL    HW226514   0.674   1.464   5.350
 8539SOL     OW26515   6.629   1.880   1.784
 8539SOL    HW126516   6.696   1.850   1.852
 8539SOL    HW226517   6.595   1.801   1.733
 8540SOL     OW26518   3.539   1.976   0.324
 8540SOL    HW126519   3.443   2.002   0.330
 8540SOL    HW226520   3.578   1.971   0.416
 8541SOL     OW26521   3.196   2.148   4.281
 8541SOL    HW126522   3.176   2.202   4.199
 8541SOL    HW226523   3.228   2.057   4.254
 8542SOL     OW26524   2.567   4.423   5.412
 8542SOL    HW126525   2.646   4.483   5.422
 8542SOL    HW226526   2.489   4.477   5.380
 8543SOL     OW26527   3.315   1.384   6.477
 8543SOL    HW126528   3.316   1.436   6.392
 8543SOL    HW226529   3.251   1.425   6.542
 8544SOL     OW26530   5.127   2.969   4.402
 8544SOL    HW126531   5.110   3.067   4.416
 8544SOL    HW226532   5.055   2.930   4.346
 8545SOL     OW26533   4.283   6.797   4.905
 8545SOL    HW126534   4.319   6.787   4.997
 8545SOL    HW226535   4.276   6.895   4.882
 8546SOL     OW26536   0.647   0.165   2.155
 8546SOL    HW126537   0.590   0.134   2.079
 8546SOL    HW226538   0.589   0.204   2.227
 8547SOL     OW26539   1.160   6.835   6.340
 8547SOL    HW126540   1.229   6.855   6.271
 8547SOL    HW226541   1.069   6.838   6.299
 8548SOL     OW26542   6.881   3.313   5.704
 8548SOL    HW126543   6.920   3.348   5.619
 8548SOL    HW226544   6.937   3.342   5.781
 8549SOL     OW26545   0.731   2.235   4.127
 8549SOL    HW126546   0.731   2.237   4.227
 8549SOL    HW226547   0.742   2.140   4.096
 8550SOL     OW26548   1.482   5.081   0.436
 8550SOL    HW126549   1.444   5.023   0.508
 8550SOL    HW226550   1.518   5.165   0.477
 8551SOL     OW26551   2.680   2.675   0.170
 8551SOL    HW126552   2.615   2.716   0.105
 8551SOL    HW226553   2.692   2.737   0.247
 8552SOL     OW26554   2.082   0.461   2.764
 8552SOL    HW126555   2.099   0.372   2.805
 8552SOL    HW226556   1.988   0.489   2.784
 8553SOL     OW26557   4.071   4.471   6.432
 8553SOL    HW126558   4.004   4.540   6.403
 8553SOL    HW226559   4.162   4.511   6.432
 8554SOL     OW26560   0.482   5.718   0.914
 8554SOL    HW126561   0.572   5.707   0.873
 8554SOL    HW226562   0.434   5.794   0.870
 8555SOL     OW26563   3.177   1.182   3.339
 8555SOL    HW126564   3.216   1.181   3.247
 8555SOL    HW226565   3.252   1.185   3.406
 8556SOL     OW26566   2.416   6.238   5.024
 8556SOL    HW126567   2.460   6.168   4.967
 8556SOL    HW226568   2.347   6.195   5.082
 8557SOL     OW26569   6.410   0.434   2.411
 8557SOL    HW126570   6.424   0.352   2.354
 8557SOL    HW226571   6.372   0.406   2.499
 8558SOL     OW26572   2.040   5.741   3.255
 8558SOL    HW126573   2.091   5.664   3.218
 8558SOL    HW226574   1.963   5.763   3.194
 8559SOL     OW26575   2.060   6.797   2.587
 8559SOL    HW126576   2.123   6.766   2.659
 8559SOL    HW226577   1.969   6.808   2.626
 8560SOL     OW26578   1.559   5.342   2.302
 8560SOL    HW126579   1.508   5.428   2.310
 8560SOL    HW226580   1.515   5.272   2.358
 8561SOL     OW26581   3.245   0.264   3.064
 8561SOL    HW126582   3.193   0.180   3.078
 8561SOL    HW226583   3.339   0.240   3.037
 8562SOL     OW26584   3.520   6.203   6.981
 8562SOL    HW126585   3.500   6.105   6.985
 8562SOL    HW226586   3.593   6.219   6.915
 8563SOL     OW26587   1.234   4.968   2.215
 8563SOL    HW126588   1.262   4.968   2.119
 8563SOL    HW226589   1.156   5.029   2.226
 8564SOL     OW26590   2.808   6.915   5.099
 8564SOL    HW126591   2.729   6.976   5.100
 8564SOL    HW226592   2.826   6.886   5.005
 8565SOL     OW26593   3.328   4.944   1.154
 8565SOL    HW126594   3.270   4.969   1.077
 8565SOL    HW226595   3.279   4.961   1.239
 8566SOL     OW26596   1.225   0.040   1.400
 8566SOL    HW126597   1.155   0.044   1.471
 8566SOL    HW226598   1.274   0.127   1.397
 8567SOL     OW26599   0.557   2.284   2.166
 8567SOL    HW126600   0.562   2.277   2.265
 8567SOL    HW226601   0.650   2.279   2.128
 8568SOL     OW26602   5.757   2.049   0.143
 8568SOL    HW126603   5.786   2.132   0.190
 8568SOL    HW226604   5.787   1.969   0.194
 8569SOL     OW26605   5.083   2.343   5.166
 8569SOL    HW126606   5.007   2.323   5.104
 8569SOL    HW226607   5.152   2.271   5.157
 8570SOL     OW26608   0.939   1.427   4.022
 8570SOL    HW126609   0.894   1.417   3.934
 8570SOL    HW226610   0.920   1.347   4.079
 8571SOL     OW26611   0.956   6.198   5.393
 8571SOL    HW126612   1.052   6.197   5.366
 8571SOL    HW226613   0.912   6.113   5.364
 8572SOL     OW26614   1.818   4.162   5.716
 8572SOL    HW126615   1.824   4.148   5.617
 8572SOL    HW226616   1.898   4.213   5.747
 8573SOL     OW26617   3.268   5.966   6.387
 8573SOL    HW126618   3.242   5.969   6.290
 8573SOL    HW226619   3.336   6.037   6.405
 8574SOL     OW26620   6.030   0.243   6.544
 8574SOL    HW126621   6.035   0.144   6.533
 8574SOL    HW226622   5.979   0.283   6.468
 8575SOL     OW26623   2.466   2.217   3.268
 8575SOL    HW126624   2.508   2.261   3.347
 8575SOL    HW226625   2.495   2.264   3.185
 8576SOL     OW26626   1.591   4.905   4.546
 8576SOL    HW126627   1.606   4.826   4.486
 8576SOL    HW226628   1.510   4.888   4.602
 8577SOL     OW26629   1.195   0.307   5.730
 8577SOL    HW126630   1.169   0.218   5.767
 8577SOL    HW226631   1.295   0.312   5.722
 8578SOL     OW26632   6.794   5.390   5.034
 8578SOL    HW126633   6.733   5.314   5.056
 8578SOL    HW226634   6.794   5.404   4.935
 8579SOL     OW26635   1.663   6.501   1.944
 8579SOL    HW126636   1.587   6.470   1.886
 8579SOL    HW226637   1.682   6.597   1.925
 8580SOL     OW26638   1.736   5.600   0.459
 8580SOL    HW126639   1.787   5.588   0.373
 8580SOL    HW226640   1.643   5.568   0.447
 8581SOL     OW26641   3.283   4.217   1.474
 8581SOL    HW126642   3.241   4.277   1.542
 8581SOL    HW226643   3.292   4.125   1.512
 8582SOL     OW26644   4.813   4.258   5.403
 8582SOL    HW126645   4.841   4.234   5.496
 8582SOL    HW226646   4.832   4.182   5.341
 8583SOL     OW26647   3.866   0.228   4.033
 8583SOL    HW126648   3.847   0.322   4.004
 8583SOL    HW226649   3.809   0.205   4.112
 8584SOL     OW26650   1.049   6.040   5.699
 8584SOL    HW126651   1.010   6.098   5.771
 8584SOL    HW226652   0.994   5.956   5.691
 8585SOL     OW26653   5.988   1.497   0.546
 8585SOL    HW126654   5.947   1.416   0.587
 8585SOL    HW226655   6.028   1.474   0.458
 8586SOL     OW26656   3.465   6.402   1.874
 8586SOL    HW126657   3.495   6.436   1.784
 8586SOL    HW226658   3.371   6.431   1.891
 8587SOL     OW26659   0.933   0.614   4.407
 8587SOL    HW126660   0.928   0.552   4.329
 8587SOL    HW226661   0.858   0.596   4.470
 8588SOL     OW26662   4.331   1.388   6.869
 8588SOL    HW126663   4.405   1.379   6.936
 8588SOL    HW226664   4.267   1.458   6.899
 8589SOL     OW26665   6.028   2.756   5.397
 8589SOL    HW126666   5.955   2.823   5.384
 8589SOL    HW226667   6.116   2.803   5.404
 8590SOL     OW26668   0.331   0.620   2.486
 8590SOL    HW126669   0.337   0.544   2.551
 8590SOL    HW226670   0.360   0.587   2.395
 8591SOL     OW26671   0.329   4.223   6.853
 8591SOL    HW126672   0.410   4.276   6.876
 8591SOL    HW226673   0.354   4.127   6.839
 8592SOL     OW26674   5.617   1.834   6.761
 8592SOL    HW126675   5.537   1.806   6.709
 8592SOL    HW226676   5.686   1.873   6.699
 8593SOL     OW26677   3.544   1.119   6.919
 8593SOL    HW126678   3.572   1.190   6.984
 8593SOL    HW226679   3.603   1.122   6.839
 8594SOL     OW26680   5.701   2.549   5.636
 8594SOL    HW126681   5.743   2.639   5.649
 8594SOL    HW226682   5.703   2.526   5.538
 8595SOL     OW26683   6.999   1.163   3.621
 8595SOL    HW126684   0.033   1.096   3.665
 8595SOL    HW226685   6.904   1.148   3.650
 8596SOL     OW26686   1.294   4.721   3.153
 8596SOL    HW126687   1.260   4.750   3.243
 8596SOL    HW226688   1.218   4.720   3.088
 8597SOL     OW26689   5.221   1.424   2.017
 8597SOL    HW126690   5.292   1.489   2.047
 8597SOL    HW226691   5.132   1.454   2.051
 8598SOL     OW26692   5.775   0.076   6.476
 8598SOL    HW126693   5.773   0.168   6.513
 8598SOL    HW226694   5.707   0.019   6.522
 8599SOL     OW26695   1.781   2.227   4.424
 8599SOL    HW126696   1.779   2.327   4.428
 8599SOL    HW226697   1.707   2.195   4.365
 8600SOL     OW26698   5.103   3.657   6.956
 8600SOL    HW126699   5.147   3.718   6.890
 8600SOL    HW226700   5.037   3.598   6.909
 8601SOL     OW26701   0.793   1.390   3.783
 8601SOL    HW126702   0.710   1.403   3.729
 8601SOL    HW226703   0.869   1.439   3.739
 8602SOL     OW26704   3.089   6.682   2.731
 8602SOL    HW126705   3.025   6.613   2.765
 8602SOL    HW226706   3.143   6.644   2.656
 8603SOL     OW26707   5.119   6.579   1.278
 8603SOL    HW126708   5.158   6.643   1.212
 8603SOL    HW226709   5.185   6.506   1.297
 8604SOL     OW26710   0.958   2.501   5.532
 8604SOL    HW126711   0.894   2.572   5.558
 8604SOL    HW226712   1.044   2.513   5.581
 8605SOL     OW26713   2.545   5.710   4.253
 8605SOL    HW126714   2.478   5.638   4.237
 8605SOL    HW226715   2.618   5.704   4.185
 8606SOL     OW26716   1.900   2.840   6.491
 8606SOL    HW126717   1.870   2.748   6.465
 8606SOL    HW226718   1.909   2.846   6.590
 8607SOL     OW26719   3.077   4.830   6.155
 8607SOL    HW126720   2.977   4.832   6.156
 8607SOL    HW226721   3.109   4.745   6.197
 8608SOL     OW26722   2.689   4.669   2.747
 8608SOL    HW126723   2.668   4.635   2.838
 8608SOL    HW226724   2.643   4.612   2.679
 8609SOL     OW26725   4.997   0.492   3.212
 8609SOL    HW126726   4.954   0.579   3.185
 8609SOL    HW226727   4.993   0.428   3.135
 8610SOL     OW26728   0.961   1.267   2.811
 8610SOL    HW126729   0.991   1.323   2.889
 8610SOL    HW226730   0.888   1.315   2.763
 8611SOL     OW26731   2.924   1.798   4.662
 8611SOL    HW126732   2.893   1.839   4.577
 8611SOL    HW226733   2.904   1.700   4.661
 8612SOL     OW26734   2.793   2.935   0.964
 8612SOL    HW126735   2.885   2.976   0.964
 8612SOL    HW226736   2.726   3.002   0.995
 8613SOL     OW26737   2.961   1.614   2.162
 8613SOL    HW126738   3.039   1.563   2.126
 8613SOL    HW226739   2.886   1.612   2.096
 8614SOL     OW26740   1.223   3.139   3.939
 8614SOL    HW126741   1.277   3.221   3.919
 8614SOL    HW226742   1.134   3.166   3.978
 8615SOL     OW26743   4.372   2.282   5.191
 8615SOL    HW126744   4.335   2.353   5.130
 8615SOL    HW226745   4.446   2.234   5.145
 8616SOL     OW26746   3.224   4.812   2.059
 8616SOL    HW126747   3.269   4.724   2.074
 8616SOL    HW226748   3.142   4.819   2.116
 8617SOL     OW26749   5.508   1.087   4.974
 8617SOL    HW126750   5.581   1.102   5.041
 8617SOL    HW226751   5.419   1.088   5.021
 8618SOL     OW26752   6.478   4.868   1.303
 8618SOL    HW126753   6.574   4.866   1.278
 8618SOL    HW226754   6.469   4.883   1.402
 8619SOL     OW26755   4.033   5.178   1.809
 8619SOL    HW126756   4.130   5.186   1.786
 8619SOL    HW226757   4.022   5.119   1.889
 8620SOL     OW26758   2.191   6.258   3.100
 8620SOL    HW126759   2.106   6.206   3.088
 8620SOL    HW226760   2.170   6.347   3.141
 8621SOL     OW26761   5.469   2.139   2.013
 8621SOL    HW126762   5.384   2.088   2.001
 8621SOL    HW226763   5.484   2.198   1.934
 8622SOL     OW26764   4.956   4.000   1.554
 8622SOL    HW126765   4.930   4.076   1.494
 8622SOL    HW226766   4.971   4.035   1.646
 8623SOL     OW26767   1.190   4.083   5.456
 8623SOL    HW126768   1.185   4.062   5.358
 8623SOL    HW226769   1.180   3.999   5.509
 8624SOL     OW26770   2.158   3.810   4.910
 8624SOL    HW126771   2.225   3.746   4.949
 8624SOL    HW226772   2.200   3.901   4.903
 8625SOL     OW26773   4.876   1.081   5.652
 8625SOL    HW126774   4.915   1.172   5.639
 8625SOL    HW226775   4.948   1.017   5.680
 8626SOL     OW26776   3.963   2.514   6.897
 8626SOL    HW126777   3.995   2.566   6.817
 8626SOL    HW226778   3.944   2.420   6.870
 8627SOL     OW26779   1.653   1.483   2.162
 8627SOL    HW126780   1.602   1.425   2.099
 8627SOL    HW226781   1.612   1.479   2.253
 8628SOL     OW26782   6.148   6.658   0.487
 8628SOL    HW126783   6.213   6.585   0.506
 8628SOL    HW226784   6.151   6.680   0.389
 8629SOL     OW26785   1.783   6.478   4.897
 8629SOL    HW126786   1.758   6.522   4.983
 8629SOL    HW226787   1.699   6.457   4.846
 8630SOL     OW26788   4.796   2.934   3.982
 8630SOL    HW126789   4.792   2.998   4.059
 8630SOL    HW226790   4.874   2.956   3.924
 8631SOL     OW26791   1.074   5.496   6.438
 8631SOL    HW126792   1.125   5.425   6.388
 8631SOL    HW226793   0.976   5.475   6.435
 8632SOL     OW26794   3.922   4.869   5.490
 8632SOL    HW126795   3.950   4.787   5.539
 8632SOL    HW226796   3.906   4.847   5.394
 8633SOL     OW26797   5.779   2.316   6.275
 8633SOL    HW126798   5.752   2.361   6.189
 8633SOL    HW226799   5.793   2.219   6.259
 8634SOL     OW26800   5.247   4.139   6.920
 8634SOL    HW126801   5.292   4.164   6.835
 8634SOL    HW226802   5.220   4.222   6.969
 8635SOL     OW26803   5.076   3.025   6.424
 8635SOL    HW126804   5.056   2.928   6.435
 8635SOL    HW226805   5.042   3.076   6.503
 8636SOL     OW26806   5.447   5.927   1.204
 8636SOL    HW126807   5.511   5.987   1.155
 8636SOL    HW226808   5.354   5.962   1.192
 8637SOL     OW26809   2.472   1.288   6.856
 8637SOL    HW126810   2.464   1.204   6.803
 8637SOL    HW226811   2.392   1.296   6.916
 8638SOL     OW26812   3.515   2.098   4.745
 8638SOL    HW126813   3.438   2.073   4.802
 8638SOL    HW226814   3.485   2.161   4.673
 8639SOL     OW26815   5.291   2.950   0.245
 8639SOL    HW126816   5.388   2.951   0.272
 8639SOL    HW226817   5.255   2.857   0.257
 8640SOL     OW26818   4.064   3.260   6.629
 8640SOL    HW126819   4.109   3.171   6.622
 8640SOL    HW226820   4.130   3.333   6.609
 8641SOL     OW26821   4.184   4.733   3.843
 8641SOL    HW126822   4.134   4.752   3.928
 8641SOL    HW226823   4.276   4.701   3.864
 8642SOL     OW26824   1.103   6.616   4.231
 8642SOL    HW126825   1.142   6.561   4.306
 8642SOL    HW226826   1.045   6.688   4.269
 8643SOL     OW26827   2.351   1.050   6.352
 8643SOL    HW126828   2.326   0.982   6.284
 8643SOL    HW226829   2.400   1.125   6.309
 8644SOL     OW26830   5.686   2.429   6.028
 8644SOL    HW126831   5.595   2.439   5.987
 8644SOL    HW226832   5.753   2.417   5.955
 8645SOL     OW26833   4.403   4.629   1.224
 8645SOL    HW126834   4.346   4.550   1.202
 8645SOL    HW226835   4.357   4.713   1.192
 8646SOL     OW26836   0.417   1.890   0.016
 8646SOL    HW126837   0.391   1.845   6.955
 8646SOL    HW226838   0.379   1.982   0.018
 8647SOL     OW26839   2.280   4.831   6.810
 8647SOL    HW126840   2.379   4.832   6.799
 8647SOL    HW226841   2.236   4.828   6.720
 8648SOL     OW26842   6.948   0.396   2.541
 8648SOL    HW126843   7.008   0.459   2.492
 8648SOL    HW226844   6.865   0.381   2.488
 8649SOL     OW26845   5.241   5.804   6.532
 8649SOL    HW126846   5.290   5.717   6.539
 8649SOL    HW226847   5.307   5.879   6.525
 8650SOL     OW26848   1.240   5.515   5.070
 8650SOL    HW126849   1.306   5.554   5.134
 8650SOL    HW226850   1.147   5.537   5.101
 8651SOL     OW26851   4.443   1.038   0.614
 8651SOL    HW126852   4.403   0.947   0.629
 8651SOL    HW226853   4.450   1.055   0.516
 8652SOL     OW26854   1.994   5.039   3.440
 8652SOL    HW126855   1.969   5.009   3.348
 8652SOL    HW226856   2.083   5.083   3.437
 8653SOL     OW26857   6.772   1.035   6.093
 8653SOL    HW126858   6.789   0.937   6.078
 8653SOL    HW226859   6.847   1.088   6.052
 8654SOL     OW26860   0.631   4.651   1.988
 8654SOL    HW126861   0.657   4.685   1.898
 8654SOL    HW226862   0.571   4.572   1.978
 8655SOL     OW26863   6.064   0.529   4.177
 8655SOL    HW126864   6.010   0.612   4.192
 8655SOL    HW226865   6.040   0.461   4.247
 8656SOL     OW26866   6.391   0.794   1.903
 8656SOL    HW126867   6.448   0.852   1.962
 8656SOL    HW226868   6.427   0.796   1.810
 8657SOL     OW26869   5.170   5.942   0.030
 8657SOL    HW126870   5.219   5.959   0.116
 8657SOL    HW226871   5.144   6.030   7.015
 8658SOL     OW26872   6.292   6.447   0.531
 8658SOL    HW126873   6.357   6.478   0.462
 8658SOL    HW226874   6.287   6.347   0.529
 8659SOL     OW26875   4.738   2.433   1.878
 8659SOL    HW126876   4.831   2.443   1.914
 8659SOL    HW226877   4.675   2.491   1.931
 8660SOL     OW26878   0.127   3.438   1.928
 8660SOL    HW126879   0.208   3.393   1.967
 8660SOL    HW226880   0.097   3.511   1.990
 8661SOL     OW26881   6.829   3.898   1.359
 8661SOL    HW126882   6.764   3.857   1.294
 8661SOL    HW226883   6.872   3.977   1.317
 8662SOL     OW26884   4.351   5.570   1.865
 8662SOL    HW126885   4.380   5.555   1.960
 8662SOL    HW226886   4.322   5.665   1.854
 8663SOL     OW26887   2.944   5.459   2.571
 8663SOL    HW126888   2.973   5.511   2.651
 8663SOL    HW226889   2.855   5.417   2.589
 8664SOL     OW26890   2.239   5.250   1.559
 8664SOL    HW126891   2.210   5.175   1.499
 8664SOL    HW226892   2.309   5.217   1.621
 8665SOL     OW26893   5.603   5.333   4.919
 8665SOL    HW126894   5.595   5.309   4.823
 8665SOL    HW226895   5.512   5.332   4.961
 8666SOL     OW26896   5.399   1.150   3.757
 8666SOL    HW126897   5.352   1.088   3.693
 8666SOL    HW226898   5.432   1.231   3.707
 8667SOL     OW26899   4.403   1.827   4.334
 8667SOL    HW126900   4.479   1.762   4.343
 8667SOL    HW226901   4.411   1.898   4.404
 8668SOL     OW26902   5.507   3.847   3.294
 8668SOL    HW126903   5.460   3.853   3.206
 8668SOL    HW226904   5.565   3.765   3.295
 8669SOL     OW26905   0.532   6.538   6.803
 8669SOL    HW126906   0.464   6.489   6.749
 8669SOL    HW226907   0.620   6.490   6.797
 8670SOL     OW26908   4.131   5.399   6.217
 8670SOL    HW126909   4.071   5.366   6.144
 8670SOL    HW226910   4.086   5.387   6.305
 8671SOL     OW26911   6.611   1.713   3.391
 8671SOL    HW126912   6.630   1.641   3.459
 8671SOL    HW226913   6.517   1.702   3.358
 8672SOL     OW26914   0.510   5.574   3.791
 8672SOL    HW126915   0.520   5.493   3.733
 8672SOL    HW226916   0.504   5.545   3.887
 8673SOL     OW26917   5.903   1.810   0.194
 8673SOL    HW126918   5.943   1.757   0.119
 8673SOL    HW226919   5.964   1.886   0.218
 8674SOL     OW26920   5.580   5.338   2.689
 8674SOL    HW126921   5.501   5.369   2.636
 8674SOL    HW226922   5.566   5.359   2.786
 8675SOL     OW26923   4.275   2.051   5.015
 8675SOL    HW126924   4.221   2.055   5.099
 8675SOL    HW226925   4.321   1.963   5.009
 8676SOL     OW26926   5.553   6.818   3.088
 8676SOL    HW126927   5.484   6.843   3.020
 8676SOL    HW226928   5.559   6.719   3.095
 8677SOL     OW26929   2.129   5.565   6.524
 8677SOL    HW126930   2.117   5.593   6.429
 8677SOL    HW226931   2.080   5.479   6.540
 8678SOL     OW26932   0.967   0.468   0.893
 8678SOL    HW126933   1.042   0.435   0.836
 8678SOL    HW226934   0.905   0.523   0.838
 8679SOL     OW26935   0.779   1.052   3.455
 8679SOL    HW126936   0.782   1.051   3.555
 8679SOL    HW226937   0.725   1.130   3.425
 8680SOL     OW26938   6.129   3.947   0.212
 8680SOL    HW126939   6.100   3.853   0.200
 8680SOL    HW226940   6.218   3.949   0.258
 8681SOL     OW26941   4.821   5.397   1.508
 8681SOL    HW126942   4.786   5.308   1.476
 8681SOL    HW226943   4.743   5.457   1.529
 8682SOL     OW26944   6.255   6.997   2.821
 8682SOL    HW126945   6.231   0.006   2.912
 8682SOL    HW226946   6.344   6.952   2.825
 8683SOL     OW26947   1.591   2.297   5.324
 8683SOL    HW126948   1.560   2.207   5.353
 8683SOL    HW226949   1.603   2.298   5.225
 8684SOL     OW26950   5.746   3.088   4.370
 8684SOL    HW126951   5.744   3.169   4.428
 8684SOL    HW226952   5.756   3.115   4.275
 8685SOL     OW26953   5.483   2.376   6.343
 8685SOL    HW126954   5.454   2.380   6.439
 8685SOL    HW226955   5.578   2.348   6.338
 8686SOL     OW26956   6.782   0.672   2.306
 8686SOL    HW126957   6.852   0.629   2.249
 8686SOL    HW226958   6.782   0.771   2.291
 8687SOL     OW26959   5.362   5.076   2.512
 8687SOL    HW126960   5.449   5.112   2.477
 8687SOL    HW226961   5.326   5.138   2.582
 8688SOL     OW26962   1.170   5.144   6.498
 8688SOL    HW126963   1.116   5.218   6.458
 8688SOL    HW226964   1.242   5.117   6.434
 8689SOL     OW26965   4.098   2.221   1.094
 8689SOL    HW126966   4.080   2.225   0.995
 8689SOL    HW226967   4.118   2.313   1.128
 8690SOL     OW26968   1.402   3.677   4.208
 8690SOL    HW126969   1.420   3.707   4.115
 8690SOL    HW226970   1.446   3.740   4.272
 8691SOL     OW26971   3.890   1.782   6.337
 8691SOL    HW126972   3.942   1.854   6.384
 8691SOL    HW226973   3.801   1.819   6.309
 8692SOL     OW26974   3.369   1.526   4.314
 8692SOL    HW126975   3.318   1.601   4.356
 8692SOL    HW226976   3.355   1.528   4.215
 8693SOL     OW26977   5.815   0.168   0.358
 8693SOL    HW126978   5.833   0.192   0.454
 8693SOL    HW226979   5.769   0.245   0.313
 8694SOL     OW26980   5.361   1.356   4.685
 8694SOL    HW126981   5.286   1.419   4.701
 8694SOL    HW226982   5.401   1.329   4.773
 8695SOL     OW26983   4.376   3.766   6.344
 8695SOL    HW126984   4.279   3.770   6.365
 8695SOL    HW226985   4.391   3.774   6.246
 8696SOL     OW26986   2.549   5.274   5.181
 8696SOL    HW126987   2.588   5.194   5.226
 8696SOL    HW226988   2.622   5.338   5.156
 8697SOL     OW26989   0.307   4.337   6.577
 8697SOL    HW126990   0.404   4.327   6.557
 8697SOL    HW226991   0.292   4.420   6.630
 8698SOL     OW26992   5.044   5.796   4.707
 8698SOL    HW126993   5.122   5.848   4.671
 8698SOL    HW226994   5.077   5.710   4.746
 8699SOL     OW26995   1.720   2.910   4.606
 8699SOL    HW126996   1.794   2.976   4.606
 8699SOL    HW226997   1.633   2.957   4.594
 8700SOL     OW26998   0.884   0.498   4.945
 8700SOL    HW126999   0.898   0.404   4.976
 8700SOL    HW227000   0.847   0.553   5.020
 8701SOL     OW27001   1.419   1.527   0.279
 8701SOL    HW127002   1.413   1.459   0.352
 8701SOL    HW227003   1.464   1.486   0.199
 8702SOL     OW27004   5.160   4.948   1.989
 8702SOL    HW127005   5.244   4.933   1.936
 8702SOL    HW227006   5.184   4.969   2.084
 8703SOL     OW27007   2.868   4.909   0.035
 8703SOL    HW127008   2.945   4.921   0.097
 8703SOL    HW227009   2.789   4.960   0.070
 8704SOL     OW27010   0.828   4.406   3.441
 8704SOL    HW127011   0.737   4.369   3.424
 8704SOL    HW227012   0.883   4.339   3.490
 8705SOL     OW27013   5.236   1.677   6.167
 8705SOL    HW127014   5.317   1.619   6.164
 8705SOL    HW227015   5.263   1.772   6.183
 8706SOL     OW27016   4.951   2.242   0.259
 8706SOL    HW127017   4.896   2.212   0.337
 8706SOL    HW227018   4.996   2.328   0.281
 8707SOL     OW27019   0.541   1.647   5.096
 8707SOL    HW127020   0.453   1.627   5.139
 8707SOL    HW227021   0.566   1.742   5.115
 8708SOL     OW27022   4.376   1.856   3.911
 8708SOL    HW127023   4.305   1.914   3.950
 8708SOL    HW227024   4.335   1.770   3.880
 8709SOL     OW27025   6.504   0.138   6.880
 8709SOL    HW127026   6.498   0.122   6.782
 8709SOL    HW227027   6.488   0.235   6.899
 8710SOL     OW27028   1.854   2.975   2.951
 8710SOL    HW127029   1.764   2.961   2.910
 8710SOL    HW227030   1.847   3.042   3.025
 8711SOL     OW27031   2.148   6.620   2.876
 8711SOL    HW127032   2.111   6.621   2.969
 8711SOL    HW227033   2.232   6.565   2.874
 8712SOL     OW27034   3.554   1.832   4.198
 8712SOL    HW127035   3.644   1.804   4.165
 8712SOL    HW227036   3.561   1.865   4.292
 8713SOL     OW27037   6.960   3.512   2.234
 8713SOL    HW127038   6.905   3.484   2.314
 8713SOL    HW227039   6.899   3.527   2.156
 8714SOL     OW27040   1.410   0.203   5.454
 8714SOL    HW127041   1.317   0.222   5.425
 8714SOL    HW227042   1.459   0.288   5.470
 8715SOL     OW27043   4.230   0.982   0.849
 8715SOL    HW127044   4.306   0.999   0.786
 8715SOL    HW227045   4.266   0.959   0.939
 8716SOL     OW27046   0.258   6.316   0.493
 8716SOL    HW127047   0.273   6.344   0.398
 8716SOL    HW227048   0.341   6.334   0.546
 8717SOL     OW27049   2.735   3.851   5.433
 8717SOL    HW127050   2.807   3.795   5.391
 8717SOL    HW227051   2.648   3.833   5.388
 8718SOL     OW27052   1.265   2.301   5.663
 8718SOL    HW127053   1.321   2.290   5.581
 8718SOL    HW227054   1.236   2.397   5.671
 8719SOL     OW27055   3.797   0.222   0.435
 8719SOL    HW127056   3.821   0.166   0.356
 8719SOL    HW227057   3.710   0.191   0.473
 8720SOL     OW27058   1.079   6.149   6.294
 8720SOL    HW127059   0.993   6.115   6.334
 8720SOL    HW227060   1.135   6.190   6.366
 8721SOL     OW27061   6.813   2.243   1.098
 8721SOL    HW127062   6.890   2.182   1.117
 8721SOL    HW227063   6.727   2.195   1.115
 8722SOL     OW27064   3.226   1.367   1.458
 8722SOL    HW127065   3.183   1.457   1.455
 8722SOL    HW227066   3.323   1.377   1.480
 8723SOL     OW27067   5.069   6.678   1.781
 8723SOL    HW127068   5.075   6.755   1.717
 8723SOL    HW227069   4.981   6.681   1.828
 8724SOL     OW27070   5.510   6.650   4.207
 8724SOL    HW127071   5.483   6.555   4.192
 8724SOL    HW227072   5.436   6.698   4.254
 8725SOL     OW27073   2.012   5.587   5.756
 8725SOL    HW127074   2.042   5.492   5.770
 8725SOL    HW227075   1.946   5.611   5.827
 8726SOL     OW27076   0.199   0.612   2.889
 8726SOL    HW127077   0.172   0.574   2.977
 8726SOL    HW227078   0.128   0.595   2.821
 8727SOL     OW27079   6.383   0.142   1.577
 8727SOL    HW127080   6.385   0.099   1.487
 8727SOL    HW227081   6.370   0.071   1.647
 8728SOL     OW27082   6.098   0.873   1.916
 8728SOL    HW127083   6.195   0.858   1.900
 8728SOL    HW227084   6.048   0.788   1.902
 8729SOL     OW27085   3.214   5.129   5.594
 8729SOL    HW127086   3.216   5.152   5.497
 8729SOL    HW227087   3.215   5.030   5.605
 8730SOL     OW27088   5.269   4.029   2.333
 8730SOL    HW127089   5.320   3.943   2.330
 8730SOL    HW227090   5.178   4.013   2.370
 8731SOL     OW27091   0.815   3.789   3.227
 8731SOL    HW127092   0.850   3.882   3.241
 8731SOL    HW227093   0.892   3.727   3.209
 8732SOL     OW27094   5.670   4.766   2.018
 8732SOL    HW127095   5.714   4.841   2.066
 8732SOL    HW227096   5.740   4.714   1.968
 8733SOL     OW27097   1.310   5.716   1.039
 8733SOL    HW127098   1.225   5.673   1.009
 8733SOL    HW227099   1.331   5.794   0.980
 8734SOL     OW27100   0.840   3.006   3.158
 8734SOL    HW127101   0.923   3.007   3.214
 8734SOL    HW227102   0.766   2.961   3.208
 8735SOL     OW27103   0.478   2.948   6.368
 8735SOL    HW127104   0.400   2.944   6.430
 8735SOL    HW227105   0.554   2.895   6.406
 8736SOL     OW27106   0.237   5.719   1.987
 8736SOL    HW127107   0.277   5.807   2.010
 8736SOL    HW227108   0.258   5.653   2.060
 8737SOL     OW27109   1.684   6.235   0.282
 8737SOL    HW127110   1.661   6.141   0.255
 8737SOL    HW227111   1.670   6.296   0.204
 8738SOL     OW27112   2.908   5.801   3.971
 8738SOL    HW127113   2.952   5.799   3.881
 8738SOL    HW227114   2.867   5.891   3.986
 8739SOL     OW27115   5.839   5.586   5.881
 8739SOL    HW127116   5.821   5.597   5.784
 8739SOL    HW227117   5.936   5.600   5.899
 8740SOL     OW27118   4.087   1.263   3.741
 8740SOL    HW127119   4.015   1.309   3.689
 8740SOL    HW227120   4.171   1.260   3.687
 8741SOL     OW27121   2.421   0.752   3.112
 8741SOL    HW127122   2.492   0.694   3.072
 8741SOL    HW227123   2.434   0.847   3.082
 8742SOL     OW27124   4.705   0.461   1.714
 8742SOL    HW127125   4.784   0.400   1.728
 8742SOL    HW227126   4.626   0.424   1.762
 8743SOL     OW27127   1.225   0.338   1.339
 8743SOL    HW127128   1.138   0.335   1.388
 8743SOL    HW227129   1.290   0.395   1.390
 8744SOL     OW27130   4.547   2.678   0.450
 8744SOL    HW127131   4.458   2.680   0.495
 8744SOL    HW227132   4.572   2.770   0.421
 8745SOL     OW27133   5.895   1.581   6.553
 8745SOL    HW127134   5.886   1.681   6.548
 8745SOL    HW227135   5.990   1.555   6.539
 8746SOL     OW27136   5.296   5.941   4.646
 8746SOL    HW127137   5.266   6.036   4.652
 8746SOL    HW227138   5.376   5.928   4.705
 8747SOL     OW27139   0.117   1.548   2.802
 8747SOL    HW127140   0.209   1.586   2.801
 8747SOL    HW227141   0.068   1.576   2.720
 8748SOL     OW27142   0.289   1.623   5.177
 8748SOL    HW127143   0.247   1.657   5.093
 8748SOL    HW227144   0.253   1.531   5.197
 8749SOL     OW27145   1.889   0.569   5.644
 8749SOL    HW127146   1.915   0.661   5.673
 8749SOL    HW227147   1.904   0.505   5.719
 8750SOL     OW27148   3.564   3.933   5.788
 8750SOL    HW127149   3.571   4.024   5.827
 8750SOL    HW227150   3.536   3.868   5.859
 8751SOL     OW27151   6.601   2.172   2.316
 8751SOL    HW127152   6.534   2.133   2.379
 8751SOL    HW227153   6.560   2.179   2.224
 8752SOL     OW27154   3.430   2.868   6.552
 8752SOL    HW127155   3.497   2.804   6.590
 8752SOL    HW227156   3.417   2.847   6.455
 8753SOL     OW27157   2.782   2.044   6.222
 8753SOL    HW127158   2.875   2.036   6.257
 8753SOL    HW227159   2.721   2.076   6.294
 8754SOL     OW27160   2.020   4.672   5.324
 8754SOL    HW127161   2.039   4.692   5.228
 8754SOL    HW227162   2.026   4.573   5.339
 8755SOL     OW27163   2.224   0.644   1.000
 8755SOL    HW127164   2.188   0.639   0.906
 8755SOL    HW227165   2.219   0.738   1.033
 8756SOL     OW27166   2.066   3.221   3.275
 8756SOL    HW127167   2.100   3.160   3.347
 8756SOL    HW227168   2.139   3.285   3.249
 8757SOL     OW27169   4.530   5.534   6.574
 8757SOL    HW127170   4.566   5.441   6.587
 8757SOL    HW227171   4.515   5.550   6.476
 8758SOL     OW27172   4.346   6.205   2.693
 8758SOL    HW127173   4.366   6.185   2.789
 8758SOL    HW227174   4.430   6.234   2.647
 8759SOL     OW27175   5.164   3.222   6.880
 8759SOL    HW127176   5.221   3.140   6.885
 8759SOL    HW227177   5.179   3.278   6.961
 8760SOL     OW27178   2.689   1.031   4.670
 8760SOL    HW127179   2.615   1.048   4.734
 8760SOL    HW227180   2.655   0.979   4.592
 8761SOL     OW27181   6.397   2.197   1.314
 8761SOL    HW127182   6.329   2.126   1.328
 8761SOL    HW227183   6.367   2.281   1.358
 8762SOL     OW27184   0.689   5.212   4.829
 8762SOL    HW127185   0.721   5.119   4.810
 8762SOL    HW227186   0.729   5.275   4.762
 8763SOL     OW27187   6.010   0.058   5.782
 8763SOL    HW127188   5.991   0.132   5.718
 8763SOL    HW227189   6.010   0.094   5.876
 8764SOL     OW27190   4.218   6.768   5.500
 8764SOL    HW127191   4.145   6.790   5.564
 8764SOL    HW227192   4.211   6.828   5.420
 8765SOL     OW27193   4.923   0.339   4.182
 8765SOL    HW127194   4.995   0.309   4.119
 8765SOL    HW227195   4.839   0.354   4.131
 8766SOL     OW27196   4.408   4.462   5.346
 8766SOL    HW127197   4.366   4.478   5.257
 8766SOL    HW227198   4.338   4.431   5.411
 8767SOL     OW27199   5.667   6.600   2.804
 8767SOL    HW127200   5.617   6.681   2.833
 8767SOL    HW227201   5.607   6.542   2.747
 8768SOL     OW27202   1.091   2.756   0.250
 8768SOL    HW127203   1.044   2.834   0.292
 8768SOL    HW227204   1.185   2.782   0.227
 8769SOL     OW27205   6.837   1.117   3.356
 8769SOL    HW127206   6.929   1.132   3.394
 8769SOL    HW227207   6.780   1.197   3.372
 8770SOL     OW27208   4.571   4.453   2.279
 8770SOL    HW127209   4.579   4.396   2.197
 8770SOL    HW227210   4.635   4.420   2.348
 8771SOL     OW27211   1.362   2.144   6.059
 8771SOL    HW127212   1.262   2.151   6.048
 8771SOL    HW227213   1.397   2.075   5.996
 8772SOL     OW27214   4.618   0.615   6.332
 8772SOL    HW127215   4.546   0.637   6.267
 8772SOL    HW227216   4.579   0.609   6.424
 8773SOL     OW27217   5.812   2.796   3.402
 8773SOL    HW127218   5.764   2.802   3.315
 8773SOL    HW227219   5.793   2.708   3.445
 8774SOL     OW27220   1.314   0.378   0.343
 8774SOL    HW127221   1.387   0.440   0.373
 8774SOL    HW227222   1.353   0.304   0.290
 8775SOL     OW27223   5.304   1.179   5.989
 8775SOL    HW127224   5.274   1.273   6.005
 8775SOL    HW227225   5.241   1.116   6.035
 8776SOL     OW27226   4.681   3.396   0.990
 8776SOL    HW127227   4.640   3.411   0.900
 8776SOL    HW227228   4.629   3.324   1.037
 8777SOL     OW27229   6.484   4.336   3.325
 8777SOL    HW127230   6.482   4.434   3.307
 8777SOL    HW227231   6.553   4.293   3.267
 8778SOL     OW27232   5.079   2.909   5.538
 8778SOL    HW127233   5.108   2.851   5.462
 8778SOL    HW227234   5.128   2.883   5.621
 8779SOL     OW27235   2.628   5.674   2.477
 8779SOL    HW127236   2.535   5.711   2.477
 8779SOL    HW227237   2.652   5.642   2.569
 8780SOL     OW27238   6.813   0.128   3.047
 8780SOL    HW127239   6.882   0.120   2.976
 8780SOL    HW227240   6.854   0.163   3.131
 8781SOL     OW27241   5.106   0.713   3.694
 8781SOL    HW127242   5.120   0.625   3.650
 8781SOL    HW227243   5.131   0.707   3.790
 8782SOL     OW27244   6.969   0.819   1.724
 8782SOL    HW127245   6.926   0.897   1.680
 8782SOL    HW227246   6.980   0.745   1.658
 8783SOL     OW27247   6.788   4.333   3.205
 8783SOL    HW127248   6.731   4.259   3.168
 8783SOL    HW227249   6.866   4.348   3.145
 8784SOL     OW27250   0.213   6.591   6.392
 8784SOL    HW127251   0.117   6.612   6.373
 8784SOL    HW227252   0.258   6.561   6.308
 8785SOL     OW27253   6.150   5.159   6.662
 8785SOL    HW127254   6.170   5.198   6.572
 8785SOL    HW227255   6.208   5.202   6.730
 8786SOL     OW27256   2.970   1.363   0.904
 8786SOL    HW127257   2.995   1.297   0.975
 8786SOL    HW227258   2.876   1.345   0.874
 8787SOL     OW27259   2.825   1.333   2.092
 8787SOL    HW127260   2.861   1.404   2.153
 8787SOL    HW227261   2.785   1.375   2.011
 8788SOL     OW27262   0.077   1.068   5.309
 8788SOL    HW127263   0.025   1.152   5.292
 8788SOL    HW227264   0.171   1.081   5.277
 8789SOL     OW27265   6.526   5.508   5.474
 8789SOL    HW127266   6.594   5.476   5.408
 8789SOL    HW227267   6.435   5.506   5.432
 8790SOL     OW27268   5.893   0.854   6.272
 8790SOL    HW127269   5.809   0.800   6.279
 8790SOL    HW227270   5.881   0.927   6.205
 8791SOL     OW27271   5.407   6.741   5.237
 8791SOL    HW127272   5.367   6.783   5.156
 8791SOL    HW227273   5.373   6.647   5.246
 8792SOL     OW27274   3.396   5.018   3.044
 8792SOL    HW127275   3.443   4.948   3.098
 8792SOL    HW227276   3.432   5.108   3.068
 8793SOL     OW27277   0.632   5.025   2.687
 8793SOL    HW127278   0.719   4.976   2.689
 8793SOL    HW227279   0.593   5.027   2.779
 8794SOL     OW27280   5.284   0.488   3.205
 8794SOL    HW127281   5.349   0.456   3.273
 8794SOL    HW227282   5.191   0.480   3.241
 8795SOL     OW27283   1.209   4.796   5.425
 8795SOL    HW127284   1.141   4.857   5.466
 8795SOL    HW227285   1.201   4.705   5.467
 8796SOL     OW27286   5.137   2.554   3.168
 8796SOL    HW127287   5.060   2.505   3.127
 8796SOL    HW227288   5.122   2.564   3.266
 8797SOL     OW27289   0.271   0.133   6.034
 8797SOL    HW127290   0.184   0.181   6.042
 8797SOL    HW227291   0.322   0.142   6.119
 8798SOL     OW27292   4.596   6.192   6.643
 8798SOL    HW127293   4.515   6.239   6.679
 8798SOL    HW227294   4.617   6.229   6.552
 8799SOL     OW27295   2.556   5.052   3.682
 8799SOL    HW127296   2.546   5.146   3.715
 8799SOL    HW227297   2.494   4.992   3.733
 8800SOL     OW27298   5.281   5.053   6.090
 8800SOL    HW127299   5.249   4.994   6.016
 8800SOL    HW227300   5.364   5.013   6.130
 8801SOL     OW27301   6.023   1.633   4.901
 8801SOL    HW127302   5.984   1.541   4.907
 8801SOL    HW227303   5.999   1.674   4.813
 8802SOL     OW27304   1.831   5.966   5.991
 8802SOL    HW127305   1.853   5.930   5.900
 8802SOL    HW227306   1.735   5.948   6.012
 8803SOL     OW27307   6.759   0.029   0.484
 8803SOL    HW127308   6.830   0.014   0.415
 8803SOL    HW227309   6.721   0.121   0.472
 8804SOL     OW27310   2.287   6.204   1.502
 8804SOL    HW127311   2.215   6.187   1.434
 8804SOL    HW227312   2.308   6.119   1.551
 8805SOL     OW27313   3.790   6.050   3.406
 8805SOL    HW127314   3.724   6.125   3.407
 8805SOL    HW227315   3.751   5.970   3.452
 8806SOL     OW27316   2.638   4.606   1.057
 8806SOL    HW127317   2.597   4.646   1.138
 8806SOL    HW227318   2.599   4.515   1.040
 8807SOL     OW27319   4.882   1.305   0.424
 8807SOL    HW127320   4.835   1.393   0.424
 8807SOL    HW227321   4.844   1.247   0.497
 8808SOL     OW27322   6.397   2.397   6.138
 8808SOL    HW127323   6.497   2.402   6.133
 8808SOL    HW227324   6.363   2.329   6.073
 8809SOL     OW27325   3.131   5.097   3.668
 8809SOL    HW127326   3.196   5.021   3.674
 8809SOL    HW227327   3.096   5.118   3.760
 8810SOL     OW27328   5.678   0.231   4.815
 8810SOL    HW127329   5.579   0.221   4.804
 8810SOL    HW227330   5.701   0.239   4.912
 8811SOL     OW27331   3.131   0.745   3.063
 8811SOL    HW127332   3.122   0.662   3.117
 8811SOL    HW227333   3.225   0.779   3.069
 8812SOL     OW27334   2.297   0.417   0.607
 8812SOL    HW127335   2.319   0.332   0.559
 8812SOL    HW227336   2.292   0.399   0.705
 8813SOL     OW27337   1.877   5.649   3.466
 8813SOL    HW127338   1.937   5.690   3.398
 8813SOL    HW227339   1.813   5.719   3.499
 8814SOL     OW27340   5.905   0.256   0.630
 8814SOL    HW127341   5.985   0.218   0.583
 8814SOL    HW227342   5.873   0.191   0.698
 8815SOL     OW27343   5.403   6.931   1.601
 8815SOL    HW127344   5.397   6.996   1.526
 8815SOL    HW227345   5.355   6.847   1.576
 8816SOL     OW27346   0.966   6.831   6.832
 8816SOL    HW127347   1.037   6.792   6.891
 8816SOL    HW227348   0.891   6.865   6.889
 8817SOL     OW27349   0.201   3.732   3.736
 8817SOL    HW127350   0.256   3.725   3.652
 8817SOL    HW227351   0.218   3.821   3.778
 8818SOL     OW27352   1.264   5.600   3.623
 8818SOL    HW127353   1.176   5.582   3.668
 8818SOL    HW227354   1.299   5.515   3.584
 8819SOL     OW27355   5.944   5.016   4.995
 8819SOL    HW127356   6.033   5.056   5.015
 8819SOL    HW227357   5.873   5.085   5.007
 8820SOL     OW27358   2.653   0.841   5.499
 8820SOL    HW127359   2.582   0.842   5.429
 8820SOL    HW227360   2.611   0.844   5.590
 8821SOL     OW27361   1.383   5.657   0.746
 8821SOL    HW127362   1.423   5.742   0.780
 8821SOL    HW227363   1.429   5.579   0.788
 8822SOL     OW27364   0.836   0.828   3.109
 8822SOL    HW127365   0.889   0.891   3.166
 8822SOL    HW227366   0.739   0.854   3.113
 8823SOL     OW27367   2.125   1.205   2.560
 8823SOL    HW127368   2.140   1.188   2.462
 8823SOL    HW227369   2.193   1.270   2.593
 8824SOL     OW27370   1.436   1.299   0.481
 8824SOL    HW127371   1.485   1.245   0.414
 8824SOL    HW227372   1.449   1.260   0.572
 8825SOL     OW27373   1.232   1.367   1.769
 8825SOL    HW127374   1.263   1.428   1.696
 8825SOL    HW227375   1.238   1.414   1.857
 8826SOL     OW27376   0.984   3.792   1.060
 8826SOL    HW127377   0.974   3.707   1.112
 8826SOL    HW227378   1.078   3.799   1.027
 8827SOL     OW27379   4.055   0.313   2.940
 8827SOL    HW127380   3.975   0.312   2.999
 8827SOL    HW227381   4.133   0.273   2.988
 8828SOL     OW27382   4.365   4.836   6.852
 8828SOL    HW127383   4.423   4.896   6.798
 8828SOL    HW227384   4.358   4.747   6.808
 8829SOL     OW27385   5.480   1.850   1.263
 8829SOL    HW127386   5.397   1.796   1.278
 8829SOL    HW227387   5.483   1.924   1.330
 8830SOL     OW27388   2.269   1.878   2.410
 8830SOL    HW127389   2.257   1.794   2.462
 8830SOL    HW227390   2.179   1.916   2.386
 8831SOL     OW27391   5.565   2.480   2.884
 8831SOL    HW127392   5.537   2.486   2.788
 8831SOL    HW227393   5.642   2.417   2.893
 8832SOL     OW27394   6.346   6.213   3.696
 8832SOL    HW127395   6.312   6.125   3.730
 8832SOL    HW227396   6.304   6.233   3.607
 8833SOL     OW27397   3.077   4.843   6.552
 8833SOL    HW127398   3.002   4.801   6.500
 8833SOL    HW227399   3.076   4.808   6.645
 8834SOL     OW27400   5.828   3.737   4.173
 8834SOL    HW127401   5.841   3.702   4.080
 8834SOL    HW227402   5.897   3.807   4.191
 8835SOL     OW27403   5.117   0.997   5.815
 8835SOL    HW127404   5.152   0.938   5.889
 8835SOL    HW227405   5.175   0.987   5.735
 8836SOL     OW27406   5.130   1.699   0.721
 8836SOL    HW127407   5.091   1.744   0.801
 8836SOL    HW227408   5.068   1.711   0.643
 8837SOL     OW27409   0.103   0.036   2.771
 8837SOL    HW127410   0.138   0.111   2.716
 8837SOL    HW227411   0.119   0.054   2.868
 8838SOL     OW27412   1.782   4.351   3.791
 8838SOL    HW127413   1.728   4.418   3.842
 8838SOL    HW227414   1.874   4.344   3.830
 8839SOL     OW27415   4.299   6.256   1.839
 8839SOL    HW127416   4.394   6.258   1.872
 8839SOL    HW227417   4.245   6.324   1.888
 8840SOL     OW27418   6.639   0.885   2.414
 8840SOL    HW127419   6.576   0.812   2.439
 8840SOL    HW227420   6.676   0.927   2.497
 8841SOL     OW27421   6.610   1.644   4.251
 8841SOL    HW127422   6.539   1.658   4.182
 8841SOL    HW227423   6.660   1.729   4.265
 8842SOL     OW27424   3.059   3.651   3.405
 8842SOL    HW127425   3.153   3.671   3.431
 8842SOL    HW227426   3.005   3.736   3.405
 8843SOL     OW27427   1.859   3.220   3.993
 8843SOL    HW127428   1.840   3.296   4.055
 8843SOL    HW227429   1.891   3.141   4.045
 8844SOL     OW27430   6.713   1.756   4.964
 8844SOL    HW127431   6.620   1.792   4.959
 8844SOL    HW227432   6.754   1.756   4.873
 8845SOL     OW27433   2.350   3.667   1.102
 8845SOL    HW127434   2.347   3.655   1.003
 8845SOL    HW227435   2.285   3.739   1.129
 8846SOL     OW27436   3.559   4.959   4.363
 8846SOL    HW127437   3.484   4.939   4.426
 8846SOL    HW227438   3.625   4.884   4.365
 8847SOL     OW27439   2.689   0.788   2.946
 8847SOL    HW127440   2.623   0.785   2.871
 8847SOL    HW227441   2.750   0.866   2.934
 8848SOL     OW27442   3.069   2.104   2.302
 8848SOL    HW127443   3.104   2.110   2.396
 8848SOL    HW227444   2.973   2.132   2.300
 8849SOL     OW27445   3.721   5.587   3.298
 8849SOL    HW127446   3.818   5.609   3.302
 8849SOL    HW227447   3.707   5.491   3.323
 8850SOL     OW27448   2.202   0.849   7.009
 8850SOL    HW127449   2.151   0.905   0.049
 8850SOL    HW227450   2.225   0.761   0.025
 8851SOL     OW27451   1.011   5.095   2.179
 8851SOL    HW127452   0.964   5.034   2.116
 8851SOL    HW227453   0.945   5.144   2.235
 8852SOL     OW27454   4.287   4.090   5.828
 8852SOL    HW127455   4.386   4.086   5.841
 8852SOL    HW227456   4.247   4.154   5.895
 8853SOL     OW27457   3.489   0.510   5.742
 8853SOL    HW127458   3.468   0.432   5.800
 8853SOL    HW227459   3.484   0.594   5.796
 8854SOL     OW27460   3.262   1.567   6.209
 8854SOL    HW127461   3.361   1.559   6.200
 8854SOL    HW227462   3.218   1.501   6.148
 8855SOL     OW27463   6.730   6.098   0.196
 8855SOL    HW127464   6.675   6.146   0.264
 8855SOL    HW227465   6.691   6.008   0.178
 8856SOL     OW27466   6.082   0.861   6.022
 8856SOL    HW127467   6.180   0.850   6.040
 8856SOL    HW227468   6.053   0.952   6.052
 8857SOL     OW27469   6.611   2.298   4.304
 8857SOL    HW127470   6.577   2.357   4.231
 8857SOL    HW227471   6.579   2.331   4.392
 8858SOL     OW27472   1.421   2.609   5.449
 8858SOL    HW127473   1.478   2.641   5.373
 8858SOL    HW227474   1.478   2.560   5.515
 8859SOL     OW27475   6.393   0.895   4.385
 8859SOL    HW127476   6.398   0.813   4.443
 8859SOL    HW227477   6.455   0.885   4.308
 8860SOL     OW27478   0.931   3.540   3.132
 8860SOL    HW127479   0.916   3.594   3.049
 8860SOL    HW227480   0.863   3.467   3.137
 8861SOL     OW27481   3.725   1.622   6.084
 8861SOL    HW127482   3.734   1.541   6.025
 8861SOL    HW227483   3.815   1.651   6.115
 8862SOL     OW27484   6.108   0.392   3.352
 8862SOL    HW127485   6.078   0.457   3.421
 8862SOL    HW227486   6.084   0.427   3.261
 8863SOL     OW27487   1.022   5.521   3.704
 8863SOL    HW127488   1.039   5.476   3.792
 8863SOL    HW227489   0.940   5.481   3.662
 8864SOL     OW27490   2.428   2.864   6.126
 8864SOL    HW127491   2.526   2.882   6.133
 8864SOL    HW227492   2.412   2.790   6.061
 8865SOL     OW27493   2.835   1.831   5.703
 8865SOL    HW127494   2.787   1.918   5.717
 8865SOL    HW227495   2.805   1.765   5.772
 8866SOL     OW27496   4.979   6.615   3.506
 8866SOL    HW127497   5.057   6.573   3.459
 8866SOL    HW227498   4.903   6.550   3.509
 8867SOL     OW27499   5.221   3.629   2.043
 8867SOL    HW127500   5.239   3.725   2.023
 8867SOL    HW227501   5.122   3.615   2.050
 8868SOL     OW27502   6.392   3.369   0.428
 8868SOL    HW127503   6.362   3.276   0.445
 8868SOL    HW227504   6.465   3.369   0.358
 8869SOL     OW27505   4.156   6.032   4.349
 8869SOL    HW127506   4.178   6.098   4.277
 8869SOL    HW227507   4.104   5.956   4.310
 8870SOL     OW27508   4.381   0.282   0.156
 8870SOL    HW127509   4.372   0.301   0.254
 8870SOL    HW227510   4.470   0.317   0.124
 8871SOL     OW27511   0.962   0.480   3.604
 8871SOL    HW127512   0.952   0.459   3.507
 8871SOL    HW227513   0.932   0.574   3.621
 8872SOL     OW27514   1.757   5.129   5.216
 8872SOL    HW127515   1.816   5.156   5.293
 8872SOL    HW227516   1.664   5.113   5.249
 8873SOL     OW27517   0.846   5.535   2.247
 8873SOL    HW127518   0.815   5.630   2.244
 8873SOL    HW227519   0.768   5.475   2.264
 8874SOL     OW27520   2.832   6.308   1.873
 8874SOL    HW127521   2.811   6.210   1.872
 8874SOL    HW227522   2.784   6.353   1.799
 8875SOL     OW27523   6.074   3.935   4.196
 8875SOL    HW127524   6.040   4.006   4.133
 8875SOL    HW227525   6.109   3.978   4.279
 8876SOL     OW27526   1.857   0.205   4.199
 8876SOL    HW127527   1.785   0.274   4.198
 8876SOL    HW227528   1.939   0.242   4.243
 8877SOL     OW27529   2.816   1.250   4.081
 8877SOL    HW127530   2.813   1.160   4.124
 8877SOL    HW227531   2.875   1.247   4.001
 8878SOL     OW27532   6.886   5.315   0.389
 8878SOL    HW127533   6.799   5.268   0.375
 8878SOL    HW227534   6.891   5.349   0.483
 8879SOL     OW27535   5.067   4.523   1.794
 8879SOL    HW127536   5.066   4.567   1.883
 8879SOL    HW227537   5.083   4.425   1.805
 8880SOL     OW27538   5.800   5.312   4.552
 8880SOL    HW127539   5.820   5.391   4.610
 8880SOL    HW227540   5.845   5.323   4.464
 8881SOL     OW27541   6.443   6.528   4.539
 8881SOL    HW127542   6.350   6.565   4.546
 8881SOL    HW227543   6.439   6.431   4.514
 8882SOL     OW27544   5.465   1.205   1.026
 8882SOL    HW127545   5.366   1.194   1.030
 8882SOL    HW227546   5.492   1.232   0.934
 8883SOL     OW27547   1.812   7.018   5.648
 8883SOL    HW127548   1.819   6.935   5.703
 8883SOL    HW227549   1.767   0.064   5.701
 8884SOL     OW27550   5.931   4.051   6.850
 8884SOL    HW127551   5.999   4.044   6.923
 8884SOL    HW227552   5.840   4.032   6.887
 8885SOL     OW27553   0.651   3.281   0.402
 8885SOL    HW127554   0.618   3.267   0.309
 8885SOL    HW227555   0.574   3.283   0.466
 8886SOL     OW27556   3.671   6.119   5.000
 8886SOL    HW127557   3.719   6.090   5.082
 8886SOL    HW227558   3.573   6.100   5.010
 8887SOL     OW27559   3.285   1.740   1.819
 8887SOL    HW127560   3.226   1.794   1.759
 8887SOL    HW227561   3.257   1.644   1.816
 8888SOL     OW27562   1.176   1.605   0.179
 8888SOL    HW127563   1.257   1.593   0.237
 8888SOL    HW227564   1.135   1.515   0.160
 8889SOL     OW27565   5.418   0.344   4.958
 8889SOL    HW127566   5.451   0.276   5.024
 8889SOL    HW227567   5.318   0.340   4.954
 8890SOL     OW27568   6.408   5.574   4.061
 8890SOL    HW127569   6.482   5.507   4.065
 8890SOL    HW227570   6.322   5.528   4.036
 8891SOL     OW27571   5.381   3.348   5.444
 8891SOL    HW127572   5.468   3.308   5.471
 8891SOL    HW227573   5.315   3.276   5.427
 8892SOL     OW27574   4.078   5.402   3.127
 8892SOL    HW127575   4.093   5.435   3.220
 8892SOL    HW227576   4.058   5.480   3.067
 8893SOL     OW27577   0.919   6.544   2.908
 8893SOL    HW127578   0.875   6.538   2.998
 8893SOL    HW227579   0.848   6.539   2.837
 8894SOL     OW27580   4.215   2.646   5.699
 8894SOL    HW127581   4.179   2.629   5.608
 8894SOL    HW227582   4.277   2.724   5.696
 8895SOL     OW27583   6.729   1.599   2.049
 8895SOL    HW127584   6.802   1.531   2.049
 8895SOL    HW227585   6.713   1.630   2.143
 8896SOL     OW27586   1.757   3.371   5.541
 8896SOL    HW127587   1.664   3.356   5.508
 8896SOL    HW227588   1.818   3.383   5.462
 8897SOL     OW27589   1.492   3.152   3.296
 8897SOL    HW127590   1.550   3.091   3.243
 8897SOL    HW227591   1.549   3.206   3.359
 8898SOL     OW27592   5.350   3.933   3.488
 8898SOL    HW127593   5.400   3.914   3.403
 8898SOL    HW227594   5.412   3.922   3.565
 8899SOL     OW27595   1.858   4.855   0.579
 8899SOL    HW127596   1.838   4.798   0.659
 8899SOL    HW227597   1.864   4.798   0.498
 8900SOL     OW27598   6.067   3.101   2.206
 8900SOL    HW127599   6.010   3.168   2.252
 8900SOL    HW227600   6.025   3.011   2.212
 8901SOL     OW27601   1.584   1.362   4.495
 8901SOL    HW127602   1.505   1.409   4.536
 8901SOL    HW227603   1.668   1.409   4.521
 8902SOL     OW27604   2.646   6.825   0.796
 8902SOL    HW127605   2.730   6.812   0.850
 8902SOL    HW227606   2.670   6.865   0.707
 8903SOL     OW27607   0.570   1.161   4.616
 8903SOL    HW127608   0.564   1.260   4.621
 8903SOL    HW227609   0.486   1.120   4.651
 8904SOL     OW27610   6.238   5.952   3.920
 8904SOL    HW127611   6.229   5.879   3.852
 8904SOL    HW227612   6.171   5.938   3.993
 8905SOL     OW27613   1.918   4.658   4.167
 8905SOL    HW127614   1.870   4.746   4.169
 8905SOL    HW227615   2.002   4.665   4.221
 8906SOL     OW27616   6.745   6.588   6.641
 8906SOL    HW127617   6.746   6.510   6.703
 8906SOL    HW227618   6.691   6.662   6.682
 8907SOL     OW27619   2.865   2.242   4.532
 8907SOL    HW127620   2.771   2.263   4.559
 8907SOL    HW227621   2.873   2.145   4.512
 8908SOL     OW27622   1.096   3.757   7.000
 8908SOL    HW127623   1.161   3.697   0.022
 8908SOL    HW227624   1.042   3.704   6.935
 8909SOL     OW27625   2.068   0.720   5.356
 8909SOL    HW127626   2.143   0.686   5.299
 8909SOL    HW227627   2.082   0.691   5.450
 8910SOL     OW27628   0.511   2.943   5.853
 8910SOL    HW127629   0.490   3.032   5.894
 8910SOL    HW227630   0.441   2.877   5.879
 8911SOL     OW27631   4.452   2.399   4.896
 8911SOL    HW127632   4.473   2.491   4.862
 8911SOL    HW227633   4.360   2.399   4.936
 8912SOL     OW27634   4.051   2.668   0.855
 8912SOL    HW127635   4.017   2.589   0.906
 8912SOL    HW227636   3.974   2.723   0.823
 8913SOL     OW27637   4.845   5.176   6.592
 8913SOL    HW127638   4.820   5.100   6.651
 8913SOL    HW227639   4.936   5.209   6.615
 8914SOL     OW27640   3.537   0.609   3.969
 8914SOL    HW127641   3.578   0.677   4.030
 8914SOL    HW227642   3.608   0.569   3.911
 8915SOL     OW27643   1.012   2.841   3.979
 8915SOL    HW127644   1.004   2.817   3.883
 8915SOL    HW227645   1.103   2.816   4.012
 8916SOL     OW27646   0.119   3.506   0.462
 8916SOL    HW127647   0.092   3.421   0.417
 8916SOL    HW227648   0.215   3.526   0.441
 8917SOL     OW27649   6.514   4.338   6.547
 8917SOL    HW127650   6.504   4.264   6.613
 8917SOL    HW227651   6.603   4.331   6.503
 8918SOL     OW27652   6.758   3.703   1.100
 8918SOL    HW127653   6.707   3.627   1.139
 8918SOL    HW227654   6.855   3.695   1.125
 8919SOL     OW27655   3.927   4.159   0.410
 8919SOL    HW127656   3.890   4.239   0.457
 8919SOL    HW227657   4.022   4.146   0.436
 8920SOL     OW27658   1.123   7.009   0.001
 8920SOL    HW127659   1.103   0.043   6.949
 8920SOL    HW227660   1.055   7.025   0.073
 8921SOL     OW27661   2.634   2.186   2.549
 8921SOL    HW127662   2.595   2.156   2.637
 8921SOL    HW227663   2.730   2.161   2.545
 8922SOL     OW27664   3.461   5.132   1.302
 8922SOL    HW127665   3.423   5.076   1.228
 8922SOL    HW227666   3.425   5.100   1.390
 8923SOL     OW27667   1.311   3.159   6.233
 8923SOL    HW127668   1.399   3.177   6.276
 8923SOL    HW227669   1.314   3.069   6.189
 8924SOL     OW27670   3.126   6.189   5.894
 8924SOL    HW127671   3.108   6.098   5.858
 8924SOL    HW227672   3.140   6.252   5.818
 8925SOL     OW27673   0.674   1.180   2.657
 8925SOL    HW127674   0.678   1.085   2.687
 8925SOL    HW227675   0.654   1.184   2.559
 8926SOL     OW27676   6.014   3.920   6.115
 8926SOL    HW127677   6.041   3.888   6.205
 8926SOL    HW227678   6.085   3.898   6.049
 8927SOL     OW27679   0.961   1.735   4.470
 8927SOL    HW127680   0.991   1.812   4.526
 8927SOL    HW227681   0.861   1.731   4.470
 8928SOL     OW27682   6.824   0.771   6.012
 8928SOL    HW127683   6.920   0.745   6.016
 8928SOL    HW227684   6.783   0.738   5.927
 8929SOL     OW27685   6.676   3.576   4.239
 8929SOL    HW127686   6.647   3.629   4.319
 8929SOL    HW227687   6.706   3.485   4.269
 8930SOL     OW27688   1.800   3.935   4.568
 8930SOL    HW127689   1.765   3.850   4.608
 8930SOL    HW227690   1.899   3.938   4.577
 8931SOL     OW27691   2.970   3.363   1.142
 8931SOL    HW127692   3.039   3.436   1.148
 8931SOL    HW227693   2.996   3.299   1.071
 8932SOL     OW27694   5.340   0.280   0.642
 8932SOL    HW127695   5.325   0.227   0.558
 8932SOL    HW227696   5.434   0.315   0.643
 8933SOL     OW27697   1.507   2.901   6.142
 8933SOL    HW127698   1.569   2.956   6.086
 8933SOL    HW227699   1.560   2.833   6.192
 8934SOL     OW27700   3.101   5.127   4.573
 8934SOL    HW127701   3.004   5.137   4.595
 8934SOL    HW227702   3.110   5.079   4.486
 8935SOL     OW27703   6.121   3.736   1.501
 8935SOL    HW127704   6.026   3.704   1.494
 8935SOL    HW227705   6.183   3.660   1.482
 8936SOL     OW27706   1.284   3.416   1.116
 8936SOL    HW127707   1.335   3.434   1.200
 8936SOL    HW227708   1.312   3.328   1.078
 8937SOL     OW27709   0.107   6.921   4.601
 8937SOL    HW127710   0.160   6.949   4.522
 8937SOL    HW227711   0.017   6.889   4.572
 8938SOL     OW27712   6.945   1.072   0.093
 8938SOL    HW127713   6.925   0.987   0.143
 8938SOL    HW227714   6.862   1.103   0.047
 8939SOL     OW27715   5.701   3.830   4.422
 8939SOL    HW127716   5.660   3.863   4.337
 8939SOL    HW227717   5.757   3.750   4.402
 8940SOL     OW27718   5.884   1.148   1.431
 8940SOL    HW127719   5.898   1.123   1.527
 8940SOL    HW227720   5.873   1.065   1.376
 8941SOL     OW27721   6.346   2.858   3.225
 8941SOL    HW127722   6.247   2.857   3.238
 8941SOL    HW227723   6.384   2.768   3.248
 8942SOL     OW27724   0.762   5.566   5.618
 8942SOL    HW127725   0.676   5.618   5.611
 8942SOL    HW227726   0.839   5.628   5.605
 8943SOL     OW27727   3.526   5.663   0.468
 8943SOL    HW127728   3.596   5.692   0.402
 8943SOL    HW227729   3.441   5.712   0.450
 8944SOL     OW27730   5.230   6.193   4.530
 8944SOL    HW127731   5.180   6.267   4.575
 8944SOL    HW227732   5.328   6.208   4.540
 8945SOL     OW27733   0.084   2.162   4.361
 8945SOL    HW127734   0.130   2.109   4.290
 8945SOL    HW227735   0.016   2.105   4.407
 8946SOL     OW27736   3.915   0.695   4.162
 8946SOL    HW127737   3.907   0.726   4.257
 8946SOL    HW227738   3.994   0.739   4.119
 8947SOL     OW27739   2.013   3.279   5.859
 8947SOL    HW127740   1.968   3.210   5.802
 8947SOL    HW227741   1.944   3.337   5.903
 8948SOL     OW27742   6.204   5.965   3.490
 8948SOL    HW127743   6.300   5.983   3.512
 8948SOL    HW227744   6.194   5.872   3.455
 8949SOL     OW27745   3.841   5.846   0.447
 8949SOL    HW127746   3.905   5.804   0.511
 8949SOL    HW227747   3.809   5.933   0.485
 8950SOL     OW27748   4.055   3.156   0.922
 8950SOL    HW127749   4.022   3.077   0.974
 8950SOL    HW227750   4.098   3.124   0.837
 8951SOL     OW27751   1.923   0.900   5.223
 8951SOL    HW127752   1.932   0.975   5.289
 8951SOL    HW227753   1.951   0.814   5.265
 8952SOL     OW27754   0.840   5.159   3.566
 8952SOL    HW127755   0.757   5.168   3.511
 8952SOL    HW227756   0.844   5.066   3.603
 8953SOL     OW27757   0.200   4.560   0.946
 8953SOL    HW127758   0.114   4.606   0.966
 8953SOL    HW227759   0.212   4.483   1.008
 8954SOL     OW27760   0.086   0.127   4.241
 8954SOL    HW127761   0.112   0.152   4.148
 8954SOL    HW227762   0.120   0.196   4.305
 8955SOL     OW27763   6.941   4.811   3.204
 8955SOL    HW127764   7.010   4.859   3.150
 8955SOL    HW227765   6.893   4.877   3.262
 8956SOL     OW27766   1.829   1.212   5.882
 8956SOL    HW127767   1.907   1.160   5.849
 8956SOL    HW227768   1.747   1.155   5.881
 8957SOL     OW27769   2.139   4.955   1.659
 8957SOL    HW127770   2.096   4.879   1.610
 8957SOL    HW227771   2.109   5.041   1.618
 8958SOL     OW27772   0.930   2.331   5.282
 8958SOL    HW127773   0.915   2.380   5.368
 8958SOL    HW227774   1.009   2.270   5.290
 8959SOL     OW27775   1.908   4.238   3.264
 8959SOL    HW127776   1.882   4.177   3.339
 8959SOL    HW227777   1.939   4.183   3.186
 8960SOL     OW27778   5.352   5.353   4.032
 8960SOL    HW127779   5.346   5.327   4.128
 8960SOL    HW227780   5.267   5.398   4.004
 8961SOL     OW27781   3.638   1.408   3.881
 8961SOL    HW127782   3.546   1.368   3.873
 8961SOL    HW227783   3.702   1.338   3.913
 8962SOL     OW27784   6.095   5.326   2.096
 8962SOL    HW127785   6.117   5.310   2.192
 8962SOL    HW227786   6.078   5.423   2.082
 8963SOL     OW27787   3.702   6.736   4.864
 8963SOL    HW127788   3.705   6.813   4.801
 8963SOL    HW227789   3.785   6.682   4.854
 8964SOL     OW27790   6.146   2.876   2.844
 8964SOL    HW127791   6.100   2.868   2.755
 8964SOL    HW227792   6.091   2.830   2.914
 8965SOL     OW27793   2.616   5.468   0.142
 8965SOL    HW127794   2.624   5.400   0.214
 8965SOL    HW227795   2.529   5.457   0.094
 8966SOL     OW27796   6.574   4.216   0.474
 8966SOL    HW127797   6.543   4.222   0.569
 8966SOL    HW227798   6.646   4.147   0.467
 8967SOL     OW27799   3.753   0.509   2.098
 8967SOL    HW127800   3.755   0.463   2.187
 8967SOL    HW227801   3.746   0.441   2.025
 8968SOL     OW27802   4.162   5.635   2.344
 8968SOL    HW127803   4.168   5.721   2.293
 8968SOL    HW227804   4.095   5.644   2.418
 8969SOL     OW27805   0.139   0.259   4.012
 8969SOL    HW127806   0.110   0.244   3.917
 8969SOL    HW227807   0.121   0.355   4.036
 8970SOL     OW27808   2.276   2.512   6.421
 8970SOL    HW127809   2.197   2.460   6.388
 8970SOL    HW227810   2.263   2.609   6.398
 8971SOL     OW27811   5.563   5.513   1.039
 8971SOL    HW127812   5.532   5.604   1.014
 8971SOL    HW227813   5.619   5.518   1.123
 8972SOL     OW27814   4.587   4.021   0.810
 8972SOL    HW127815   4.507   4.017   0.870
 8972SOL    HW227816   4.646   3.942   0.828
 8973SOL     OW27817   6.849   3.168   3.267
 8973SOL    HW127818   6.809   3.119   3.344
 8973SOL    HW227819   6.802   3.140   3.183
 8974SOL     OW27820   1.535   3.103   4.016
 8974SOL    HW127821   1.601   3.033   4.045
 8974SOL    HW227822   1.505   3.084   3.923
 8975SOL     OW27823   0.711   6.312   6.810
 8975SOL    HW127824   0.693   6.284   6.716
 8975SOL    HW227825   0.651   6.262   6.872
 8976SOL     OW27826   6.838   5.352   0.087
 8976SOL    HW127827   6.910   5.382   0.025
 8976SOL    HW227828   6.871   5.361   0.182
 8977SOL     OW27829   6.548   3.961   6.479
 8977SOL    HW127830   6.532   3.934   6.384
 8977SOL    HW227831   6.624   3.907   6.517
 8978SOL     OW27832   5.663   6.922   4.434
 8978SOL    HW127833   5.736   6.864   4.398
 8978SOL    HW227834   5.698   6.975   4.511
 8979SOL     OW27835   1.374   4.532   6.416
 8979SOL    HW127836   1.409   4.449   6.372
 8979SOL    HW227837   1.365   4.517   6.514
 8980SOL     OW27838   4.827   3.003   5.523
 8980SOL    HW127839   4.924   2.986   5.540
 8980SOL    HW227840   4.771   2.945   5.582
 8981SOL     OW27841   4.907   1.897   5.879
 8981SOL    HW127842   4.982   1.835   5.901
 8981SOL    HW227843   4.903   1.909   5.779
 8982SOL     OW27844   0.424   1.575   0.943
 8982SOL    HW127845   0.412   1.603   0.847
 8982SOL    HW227846   0.343   1.600   0.995
 8983SOL     OW27847   0.383   5.429   0.897
 8983SOL    HW127848   0.323   5.416   0.818
 8983SOL    HW227849   0.413   5.524   0.901
 8984SOL     OW27850   6.195   6.139   4.199
 8984SOL    HW127851   6.263   6.193   4.149
 8984SOL    HW227852   6.133   6.095   4.134
 8985SOL     OW27853   2.549   1.835   0.940
 8985SOL    HW127854   2.624   1.872   0.886
 8985SOL    HW227855   2.549   1.735   0.932
 8986SOL     OW27856   4.011   5.230   2.707
 8986SOL    HW127857   4.099   5.201   2.744
 8986SOL    HW227858   3.937   5.185   2.757
 8987SOL     OW27859   2.975   0.384   1.238
 8987SOL    HW127860   3.061   0.373   1.288
 8987SOL    HW227861   2.995   0.416   1.145
 8988SOL     OW27862   2.138   4.690   0.507
 8988SOL    HW127863   2.046   4.697   0.468
 8988SOL    HW227864   2.200   4.651   0.439
 8989SOL     OW27865   5.034   3.882   2.162
 8989SOL    HW127866   4.954   3.910   2.110
 8989SOL    HW227867   5.113   3.876   2.101
 8990SOL     OW27868   2.293   5.237   1.950
 8990SOL    HW127869   2.344   5.231   2.036
 8990SOL    HW227870   2.292   5.332   1.919
 8991SOL     OW27871   2.127   1.092   0.599
 8991SOL    HW127872   2.104   1.175   0.649
 8991SOL    HW227873   2.172   1.027   0.661
 8992SOL     OW27874   6.844   2.165   6.780
 8992SOL    HW127875   6.804   2.156   6.689
 8992SOL    HW227876   6.893   2.252   6.787
 8993SOL     OW27877   4.630   2.480   2.505
 8993SOL    HW127878   4.609   2.404   2.443
 8993SOL    HW227879   4.650   2.562   2.452
 8994SOL     OW27880   0.937   6.164   4.405
 8994SOL    HW127881   0.951   6.257   4.439
 8994SOL    HW227882   0.844   6.155   4.371
 8995SOL     OW27883   1.200   2.559   5.651
 8995SOL    HW127884   1.223   2.642   5.601
 8995SOL    HW227885   1.233   2.566   5.745
 8996SOL     OW27886   0.184   4.553   2.015
 8996SOL    HW127887   0.214   4.572   2.109
 8996SOL    HW227888   0.138   4.465   2.012
 8997SOL     OW27889   4.341   1.329   6.389
 8997SOL    HW127890   4.342   1.256   6.321
 8997SOL    HW227891   4.324   1.417   6.344
 8998SOL     OW27892   0.578   2.610   4.107
 8998SOL    HW127893   0.618   2.702   4.098
 8998SOL    HW227894   0.484   2.612   4.074
 8999SOL     OW27895   4.192   0.255   6.582
 8999SOL    HW127896   4.258   0.192   6.623
 8999SOL    HW227897   4.235   0.346   6.572
 9000SOL     OW27898   2.113   4.329   6.625
 9000SOL    HW127899   2.090   4.403   6.562
 9000SOL    HW227900   2.119   4.365   6.718
 9001SOL     OW27901   1.443   5.480   3.034
 9001SOL    HW127902   1.469   5.471   3.130
 9001SOL    HW227903   1.422   5.390   2.996
 9002SOL     OW27904   0.809   5.133   5.073
 9002SOL    HW127905   0.771   5.163   4.986
 9002SOL    HW227906   0.894   5.183   5.091
 9003SOL     OW27907   5.268   2.686   1.075
 9003SOL    HW127908   5.341   2.747   1.108
 9003SOL    HW227909   5.182   2.713   1.117
 9004SOL     OW27910   4.190   6.566   1.901
 9004SOL    HW127911   4.184   6.592   1.804
 9004SOL    HW227912   4.235   6.639   1.952
 9005SOL     OW27913   5.963   2.257   4.233
 9005SOL    HW127914   5.976   2.187   4.303
 9005SOL    HW227915   5.879   2.309   4.253
 9006SOL     OW27916   1.395   5.923   0.863
 9006SOL    HW127917   1.371   6.008   0.816
 9006SOL    HW227918   1.466   5.941   0.931
 9007SOL     OW27919   3.491   6.328   4.146
 9007SOL    HW127920   3.415   6.271   4.178
 9007SOL    HW227921   3.570   6.271   4.124
 9008SOL     OW27922   6.611   5.232   2.568
 9008SOL    HW127923   6.639   5.246   2.662
 9008SOL    HW227924   6.690   5.206   2.512
 9009SOL     OW27925   2.469   6.981   0.606
 9009SOL    HW127926   2.476   6.992   0.705
 9009SOL    HW227927   2.502   6.890   0.580
 9010SOL     OW27928   1.183   6.922   4.650
 9010SOL    HW127929   1.200   6.976   4.568
 9010SOL    HW227930   1.098   6.871   4.640
 9011SOL     OW27931   4.214   1.764   1.787
 9011SOL    HW127932   4.166   1.714   1.860
 9011SOL    HW227933   4.152   1.829   1.745
 9012SOL     OW27934   2.561   4.353   1.035
 9012SOL    HW127935   2.528   4.364   1.129
 9012SOL    HW227936   2.560   4.256   1.010
 9013SOL     OW27937   6.322   6.208   4.462
 9013SOL    HW127938   6.281   6.207   4.553
 9013SOL    HW227939   6.316   6.117   4.421
 9014SOL     OW27940   1.417   1.257   0.059
 9014SOL    HW127941   1.477   1.259   7.004
 9014SOL    HW227942   1.457   1.197   0.128
 9015SOL     OW27943   6.283   0.887   0.645
 9015SOL    HW127944   6.241   0.829   0.575
 9015SOL    HW227945   6.264   0.848   0.736
 9016SOL     OW27946   0.220   6.231   6.486
 9016SOL    HW127947   0.156   6.255   6.412
 9016SOL    HW227948   0.254   6.315   6.529
 9017SOL     OW27949   4.857   2.528   2.229
 9017SOL    HW127950   4.770   2.571   2.249
 9017SOL    HW227951   4.926   2.561   2.294
 9018SOL     OW27952   4.250   1.426   5.211
 9018SOL    HW127953   4.219   1.358   5.145
 9018SOL    HW227954   4.231   1.518   5.176
 9019SOL     OW27955   0.835   0.292   1.096
 9019SOL    HW127956   0.738   0.308   1.083
 9019SOL    HW227957   0.887   0.346   1.030
 9020SOL     OW27958   1.296   3.711   1.953
 9020SOL    HW127959   1.335   3.755   1.872
 9020SOL    HW227960   1.244   3.630   1.925
 9021SOL     OW27961   6.174   0.543   3.689
 9021SOL    HW127962   6.248   0.515   3.750
 9021SOL    HW227963   6.212   0.584   3.606
 9022SOL     OW27964   2.675   0.577   1.232
 9022SOL    HW127965   2.587   0.530   1.240
 9022SOL    HW227966   2.717   0.555   1.144
 9023SOL     OW27967   3.588   2.878   2.969
 9023SOL    HW127968   3.521   2.912   3.035
 9023SOL    HW227969   3.546   2.874   2.878
 9024SOL     OW27970   1.104   5.740   6.330
 9024SOL    HW127971   1.095   5.659   6.388
 9024SOL    HW227972   1.115   5.711   6.235
 9025SOL     OW27973   6.992   5.700   0.754
 9025SOL    HW127974   6.936   5.634   0.805
 9025SOL    HW227975   6.988   5.679   0.656
 9026SOL     OW27976   3.619   3.539   2.658
 9026SOL    HW127977   3.601   3.443   2.641
 9026SOL    HW227978   3.710   3.563   2.625
 9027SOL     OW27979   2.174   1.905   3.420
 9027SOL    HW127980   2.107   1.879   3.351
 9027SOL    HW227981   2.203   1.824   3.471
 9028SOL     OW27982   2.443   4.051   6.155
 9028SOL    HW127983   2.535   4.037   6.117
 9028SOL    HW227984   2.391   4.112   6.096
 9029SOL     OW27985   3.137   5.394   5.171
 9029SOL    HW127986   3.127   5.444   5.257
 9029SOL    HW227987   3.209   5.438   5.116
 9030SOL     OW27988   1.818   0.729   3.089
 9030SOL    HW127989   1.833   0.707   2.993
 9030SOL    HW227990   1.803   0.828   3.098
 9031SOL     OW27991   5.114   5.359   5.297
 9031SOL    HW127992   5.194   5.300   5.285
 9031SOL    HW227993   5.085   5.396   5.209
 9032SOL     OW27994   3.775   3.270   0.923
 9032SOL    HW127995   3.874   3.263   0.907
 9032SOL    HW227996   3.752   3.364   0.950
 9033SOL     OW27997   2.222   4.008   3.415
 9033SOL    HW127998   2.271   3.967   3.492
 9033SOL    HW227999   2.246   4.105   3.407
 9034SOL     OW28000   3.127   0.449   4.513
 9034SOL    HW128001   3.103   0.501   4.432
 9034SOL    HW228002   3.210   0.487   4.554
 9035SOL     OW28003   1.114   6.325   5.641
 9035SOL    HW128004   1.058   6.242   5.639
 9035SOL    HW228005   1.186   6.319   5.572
 9036SOL     OW28006   1.443   0.916   4.832
 9036SOL    HW128007   1.382   0.992   4.853
 9036SOL    HW228008   1.518   0.948   4.774
 9037SOL     OW28009   1.310   4.491   6.119
 9037SOL    HW128010   1.229   4.443   6.085
 9037SOL    HW228011   1.378   4.424   6.148
 9038SOL     OW28012   4.445   0.728   5.236
 9038SOL    HW128013   4.500   0.723   5.319
 9038SOL    HW228014   4.368   0.791   5.250
 9039SOL     OW28015   1.759   4.427   4.893
 9039SOL    HW128016   1.755   4.524   4.920
 9039SOL    HW228017   1.772   4.371   4.975
 9040SOL     OW28018   2.615   1.750   3.299
 9040SOL    HW128019   2.627   1.838   3.254
 9040SOL    HW228020   2.640   1.677   3.235
 9041SOL     OW28021   0.726   2.484   1.889
 9041SOL    HW128022   0.770   2.409   1.938
 9041SOL    HW228023   0.629   2.463   1.877
 9042SOL     OW28024   3.477   6.660   3.736
 9042SOL    HW128025   3.377   6.655   3.733
 9042SOL    HW228026   3.509   6.636   3.827
 9043SOL     OW28027   1.981   1.015   6.143
 9043SOL    HW128028   1.982   1.045   6.048
 9043SOL    HW228029   2.064   0.963   6.163
 9044SOL     OW28030   6.588   1.174   1.403
 9044SOL    HW128031   6.684   1.174   1.374
 9044SOL    HW228032   6.532   1.130   1.333
 9045SOL     OW28033   3.569   1.747   2.785
 9045SOL    HW128034   3.533   1.660   2.751
 9045SOL    HW228035   3.545   1.759   2.881
 9046SOL     OW28036   3.365   3.468   4.185
 9046SOL    HW128037   3.374   3.409   4.265
 9046SOL    HW228038   3.455   3.503   4.159
 9047SOL     OW28039   1.803   3.513   4.984
 9047SOL    HW128040   1.813   3.441   5.052
 9047SOL    HW228041   1.879   3.510   4.920
 9048SOL     OW28042   5.914   2.533   6.366
 9048SOL    HW128043   5.907   2.600   6.292
 9048SOL    HW228044   5.870   2.448   6.337
 9049SOL     OW28045   4.139   6.730   6.390
 9049SOL    HW128046   4.121   6.662   6.319
 9049SOL    HW228047   4.055   6.780   6.410
 9050SOL     OW28048   0.482   5.029   5.782
 9050SOL    HW128049   0.487   4.946   5.726
 9050SOL    HW228050   0.572   5.048   5.821
 9051SOL     OW28051   4.592   6.198   0.974
 9051SOL    HW128052   4.545   6.269   0.921
 9051SOL    HW228053   4.686   6.189   0.943
 9052SOL     OW28054   1.909   3.003   3.470
 9052SOL    HW128055   1.896   3.066   3.546
 9052SOL    HW228056   1.856   2.920   3.485
 9053SOL     OW28057   2.135   1.501   3.157
 9053SOL    HW128058   2.199   1.526   3.230
 9053SOL    HW228059   2.107   1.405   3.169
 9054SOL     OW28060   1.341   6.993   2.411
 9054SOL    HW128061   1.278   6.925   2.373
 9054SOL    HW228062   1.337   6.989   2.511
 9055SOL     OW28063   6.714   3.859   3.292
 9055SOL    HW128064   6.761   3.772   3.279
 9055SOL    HW228065   6.765   3.915   3.358
 9056SOL     OW28066   6.108   6.973   1.888
 9056SOL    HW128067   6.054   6.979   1.972
 9056SOL    HW228068   6.064   6.909   1.825
 9057SOL     OW28069   5.886   5.257   6.404
 9057SOL    HW128070   5.923   5.347   6.428
 9057SOL    HW228071   5.797   5.269   6.360
 9058SOL     OW28072   1.811   1.981   3.442
 9058SOL    HW128073   1.895   2.034   3.453
 9058SOL    HW228074   1.793   1.967   3.345
 9059SOL     OW28075   0.488   1.346   4.340
 9059SOL    HW128076   0.483   1.248   4.319
 9059SOL    HW228077   0.571   1.364   4.393
 9060SOL     OW28078   0.433   3.314   1.701
 9060SOL    HW128079   0.476   3.386   1.754
 9060SOL    HW228080   0.502   3.262   1.651
 9061SOL     OW28081   3.892   5.685   2.171
 9061SOL    HW128082   3.919   5.594   2.203
 9061SOL    HW228083   3.970   5.730   2.127
 9062SOL     OW28084   1.868   5.222   2.383
 9062SOL    HW128085   1.846   5.318   2.364
 9062SOL    HW228086   1.784   5.171   2.399
 9063SOL     OW28087   2.556   0.101   2.595
 9063SOL    HW128088   2.569   0.005   2.571
 9063SOL    HW228089   2.636   0.135   2.644
 9064SOL     OW28090   5.860   3.504   4.349
 9064SOL    HW128091   5.791   3.450   4.398
 9064SOL    HW228092   5.818   3.549   4.271
 9065SOL     OW28093   3.372   5.460   6.877
 9065SOL    HW128094   3.398   5.460   6.781
 9065SOL    HW228095   3.289   5.405   6.889
 9066SOL     OW28096   5.733   0.615   0.141
 9066SOL    HW128097   5.759   0.661   0.226
 9066SOL    HW228098   5.741   0.516   0.154
 9067SOL     OW28099   6.052   0.059   4.749
 9067SOL    HW128100   6.151   0.056   4.764
 9067SOL    HW228101   6.006   0.016   4.827
 9068SOL     OW28102   3.177   0.504   4.961
 9068SOL    HW128103   3.255   0.536   4.907
 9068SOL    HW228104   3.189   0.532   5.057
 9069SOL     OW28105   3.231   2.427   1.671
 9069SOL    HW128106   3.315   2.382   1.703
 9069SOL    HW228107   3.186   2.471   1.749
 9070SOL     OW28108   0.805   3.763   5.788
 9070SOL    HW128109   0.892   3.770   5.836
 9070SOL    HW228110   0.760   3.852   5.787
 9071SOL     OW28111   5.002   6.978   0.516
 9071SOL    HW128112   4.983   6.997   0.613
 9071SOL    HW228113   5.099   6.992   0.498
 9072SOL     OW28114   6.212   0.923   1.495
 9072SOL    HW128115   6.174   0.901   1.405
 9072SOL    HW228116   6.258   0.842   1.532
 9073SOL     OW28117   3.613   6.342   0.810
 9073SOL    HW128118   3.590   6.245   0.804
 9073SOL    HW228119   3.706   6.352   0.846
 9074SOL     OW28120   1.858   0.748   2.022
 9074SOL    HW128121   1.920   0.733   2.099
 9074SOL    HW228122   1.910   0.748   1.937
 9075SOL     OW28123   0.637   0.562   1.085
 9075SOL    HW128124   0.575   0.510   1.144
 9075SOL    HW228125   0.668   0.644   1.134
 9076SOL     OW28126   5.346   1.474   5.011
 9076SOL    HW128127   5.429   1.455   5.062
 9076SOL    HW228128   5.278   1.402   5.027
 9077SOL     OW28129   5.649   1.034   6.800
 9077SOL    HW128130   5.573   0.985   6.758
 9077SOL    HW228131   5.698   0.973   6.862
 9078SOL     OW28132   4.913   3.822   0.279
 9078SOL    HW128133   4.851   3.750   0.245
 9078SOL    HW228134   4.942   3.879   0.203
 9079SOL     OW28135   2.306   6.247   4.399
 9079SOL    HW128136   2.401   6.265   4.421
 9079SOL    HW228137   2.247   6.295   4.464
 9080SOL     OW28138   5.842   2.313   0.326
 9080SOL    HW128139   5.898   2.274   0.399
 9080SOL    HW228140   5.901   2.338   0.248
 9081SOL     OW28141   3.546   6.963   2.384
 9081SOL    HW128142   3.566   0.011   2.319
 9081SOL    HW228143   3.628   6.943   2.437
 9082SOL     OW28144   2.542   6.919   5.419
 9082SOL    HW128145   2.466   6.916   5.354
 9082SOL    HW228146   2.606   6.991   5.392
 9083SOL     OW28147   3.875   4.562   6.030
 9083SOL    HW128148   3.799   4.504   6.062
 9083SOL    HW228149   3.887   4.549   5.932
 9084SOL     OW28150   2.782   3.290   6.030
 9084SOL    HW128151   2.750   3.377   6.069
 9084SOL    HW228152   2.712   3.252   5.971
 9085SOL     OW28153   1.346   4.930   0.614
 9085SOL    HW128154   1.275   5.001   0.612
 9085SOL    HW228155   1.302   4.840   0.606
 9086SOL     OW28156   0.022   4.397   0.772
 9086SOL    HW128157   0.030   4.422   0.869
 9086SOL    HW228158   0.078   4.316   0.754
 9087SOL     OW28159   4.743   2.642   1.494
 9087SOL    HW128160   4.759   2.727   1.543
 9087SOL    HW228161   4.696   2.660   1.408
 9088SOL     OW28162   6.696   6.129   1.040
 9088SOL    HW128163   6.735   6.041   1.065
 9088SOL    HW228164   6.604   6.116   1.002
 9089SOL     OW28165   5.070   6.116   5.263
 9089SOL    HW128166   5.160   6.073   5.271
 9089SOL    HW228167   5.080   6.209   5.228
 9090SOL     OW28168   6.619   6.352   3.688
 9090SOL    HW128169   6.661   6.264   3.667
 9090SOL    HW228170   6.525   6.337   3.720
 9091SOL     OW28171   2.558   3.820   0.972
 9091SOL    HW128172   2.487   3.799   1.039
 9091SOL    HW228173   2.639   3.764   0.990
 9092SOL     OW28174   0.087   0.953   0.752
 9092SOL    HW128175   0.024   1.027   0.778
 9092SOL    HW228176   0.034   0.873   0.724
 9093SOL     OW28177   1.576   6.170   6.251
 9093SOL    HW128178   1.547   6.265   6.267
 9093SOL    HW228179   1.665   6.155   6.294
 9094SOL     OW28180   5.965   5.044   2.776
 9094SOL    HW128181   5.981   5.089   2.864
 9094SOL    HW228182   5.880   5.079   2.736
 9095SOL     OW28183   4.421   3.927   6.730
 9095SOL    HW128184   4.334   3.960   6.767
 9095SOL    HW228185   4.471   3.879   6.803
 9096SOL     OW28186   5.700   4.074   1.639
 9096SOL    HW128187   5.729   4.062   1.544
 9096SOL    HW228188   5.743   4.004   1.695
 9097SOL     OW28189   0.795   2.467   6.707
 9097SOL    HW128190   0.892   2.482   6.689
 9097SOL    HW228191   0.776   2.369   6.706
 9098SOL     OW28192   3.505   2.845   6.881
 9098SOL    HW128193   3.537   2.801   6.797
 9098SOL    HW228194   3.407   2.865   6.874
 9099SOL     OW28195   2.665   3.084   6.964
 9099SOL    HW128196   2.695   3.008   6.905
 9099SOL    HW228197   2.708   3.169   6.932
 9100SOL     OW28198   1.171   3.816   4.365
 9100SOL    HW128199   1.221   3.879   4.424
 9100SOL    HW228200   1.221   3.804   4.279
 9101SOL     OW28201   2.699   2.368   2.862
 9101SOL    HW128202   2.616   2.322   2.831
 9101SOL    HW228203   2.710   2.455   2.814
 9102SOL     OW28204   2.880   0.296   2.114
 9102SOL    HW128205   2.831   0.303   2.201
 9102SOL    HW228206   2.816   0.302   2.038
 9103SOL     OW28207   6.444   3.267   6.529
 9103SOL    HW128208   6.535   3.230   6.511
 9103SOL    HW228209   6.388   3.198   6.576
 9104SOL     OW28210   6.108   6.582   2.546
 9104SOL    HW128211   6.169   6.613   2.473
 9104SOL    HW228212   6.023   6.634   2.543
 9105SOL     OW28213   1.777   1.539   6.833
 9105SOL    HW128214   1.760   1.638   6.833
 9105SOL    HW228215   1.871   1.522   6.803
 9106SOL     OW28216   0.033   3.829   0.062
 9106SOL    HW128217   0.080   3.765   0.002
 9106SOL    HW228218   6.988   3.878   0.010
 9107SOL     OW28219   3.398   0.955   6.062
 9107SOL    HW128220   3.353   0.929   6.148
 9107SOL    HW228221   3.344   1.026   6.016
 9108SOL     OW28222   4.493   3.866   5.640
 9108SOL    HW128223   4.493   3.944   5.703
 9108SOL    HW228224   4.457   3.895   5.551
 9109SOL     OW28225   0.633   3.002   2.590
 9109SOL    HW128226   0.635   2.902   2.591
 9109SOL    HW228227   0.625   3.037   2.684
 9110SOL     OW28228   2.068   3.613   3.945
 9110SOL    HW128229   2.055   3.708   3.915
 9110SOL    HW228230   2.010   3.595   4.024
 9111SOL     OW28231   4.419   1.526   0.884
 9111SOL    HW128232   4.423   1.481   0.972
 9111SOL    HW228233   4.355   1.478   0.824
 9112SOL     OW28234   0.448   4.813   3.679
 9112SOL    HW128235   0.435   4.782   3.774
 9112SOL    HW228236   0.530   4.771   3.642
 9113SOL     OW28237   5.478   1.101   2.392
 9113SOL    HW128238   5.426   1.060   2.318
 9113SOL    HW228239   5.494   1.198   2.372
 9114SOL     OW28240   0.685   4.319   2.153
 9114SOL    HW128241   0.751   4.288   2.221
 9114SOL    HW228242   0.706   4.412   2.125
 9115SOL     OW28243   6.974   4.824   5.152
 9115SOL    HW128244   7.023   4.815   5.065
 9115SOL    HW228245   6.882   4.858   5.134
 9116SOL     OW28246   7.013   1.136   1.895
 9116SOL    HW128247   6.974   1.207   1.836
 9116SOL    HW228248   6.944   1.105   1.960
 9117SOL     OW28249   6.084   2.890   0.404
 9117SOL    HW128250   5.996   2.937   0.412
 9117SOL    HW228251   6.091   2.821   0.477
 9118SOL     OW28252   6.707   3.736   0.310
 9118SOL    HW128253   6.683   3.646   0.346
 9118SOL    HW228254   6.796   3.732   0.266
 9119SOL     OW28255   4.992   0.456   2.027
 9119SOL    HW128256   4.915   0.474   2.088
 9119SOL    HW228257   4.957   0.431   1.936
 9120SOL     OW28258   6.122   1.919   5.877
 9120SOL    HW128259   6.037   1.928   5.825
 9120SOL    HW228260   6.119   1.977   5.958
 9121SOL     OW28261   3.747   1.122   5.020
 9121SOL    HW128262   3.788   1.191   5.079
 9121SOL    HW228263   3.721   1.042   5.074
 9122SOL     OW28264   1.763   4.177   2.367
 9122SOL    HW128265   1.795   4.260   2.323
 9122SOL    HW228266   1.746   4.107   2.297
 9123SOL     OW28267   2.343   0.958   3.894
 9123SOL    HW128268   2.258   0.936   3.940
 9123SOL    HW228269   2.420   0.914   3.941
 9124SOL     OW28270   5.459   6.440   6.798
 9124SOL    HW128271   5.428   6.529   6.831
 9124SOL    HW228272   5.397   6.368   6.831
 9125SOL     OW28273   4.700   3.755   0.781
 9125SOL    HW128274   4.696   3.795   0.689
 9125SOL    HW228275   4.612   3.712   0.803
 9126SOL     OW28276   6.441   3.579   1.368
 9126SOL    HW128277   6.453   3.671   1.331
 9126SOL    HW228278   6.419   3.585   1.466
 9127SOL     OW28279   6.870   2.141   6.085
 9127SOL    HW128280   6.785   2.137   6.138
 9127SOL    HW228281   6.897   2.236   6.070
 9128SOL     OW28282   5.167   1.775   5.324
 9128SOL    HW128283   5.230   1.812   5.256
 9128SOL    HW228284   5.180   1.822   5.411
 9129SOL     OW28285   0.433   2.551   0.361
 9129SOL    HW128286   0.445   2.455   0.387
 9129SOL    HW228287   0.523   2.594   0.349
 9130SOL     OW28288   0.141   3.634   6.385
 9130SOL    HW128289   0.142   3.558   6.320
 9130SOL    HW228290   0.230   3.678   6.387
 9131SOL     OW28291   5.795   2.642   4.838
 9131SOL    HW128292   5.709   2.692   4.850
 9131SOL    HW228293   5.792   2.558   4.891
 9132SOL     OW28294   0.941   5.598   4.288
 9132SOL    HW128295   0.874   5.659   4.330
 9132SOL    HW228296   0.942   5.511   4.336
 9133SOL     OW28297   3.277   6.642   1.491
 9133SOL    HW128298   3.252   6.661   1.585
 9133SOL    HW228299   3.350   6.704   1.462
 9134SOL     OW28300   4.514   5.651   1.212
 9134SOL    HW128301   4.574   5.701   1.274
 9134SOL    HW228302   4.480   5.712   1.141
 9135SOL     OW28303   6.631   6.816   1.815
 9135SOL    HW128304   6.593   6.736   1.862
 9135SOL    HW228305   6.632   6.800   1.717
 9136SOL     OW28306   4.895   6.592   0.042
 9136SOL    HW128307   4.964   6.588   6.995
 9136SOL    HW228308   4.905   6.677   0.093
 9137SOL     OW28309   5.404   1.193   0.375
 9137SOL    HW128310   5.310   1.186   0.409
 9137SOL    HW228311   5.431   1.289   0.372
 9138SOL     OW28312   0.488   5.986   6.691
 9138SOL    HW128313   0.546   6.019   6.618
 9138SOL    HW228314   0.482   6.055   6.763
 9139SOL     OW28315   2.384   1.791   2.995
 9139SOL    HW128316   2.472   1.826   2.963
 9139SOL    HW228317   2.348   1.851   3.067
 9140SOL     OW28318   7.021   3.436   3.005
 9140SOL    HW128319   7.017   3.534   3.025
 9140SOL    HW228320   6.952   3.413   2.936
 9141SOL     OW28321   5.511   0.422   0.333
 9141SOL    HW128322   5.436   0.369   0.372
 9141SOL    HW228323   5.572   0.453   0.406
 9142SOL     OW28324   0.823   2.694   0.824
 9142SOL    HW128325   0.815   2.782   0.777
 9142SOL    HW228326   0.881   2.705   0.905
 9143SOL     OW28327   6.539   3.510   6.830
 9143SOL    HW128328   6.596   3.589   6.811
 9143SOL    HW228329   6.447   3.525   6.793
 9144SOL     OW28330   2.495   5.094   4.346
 9144SOL    HW128331   2.419   5.046   4.390
 9144SOL    HW228332   2.525   5.170   4.403
 9145SOL     OW28333   0.293   5.707   0.018
 9145SOL    HW128334   0.325   5.612   0.013
 9145SOL    HW228335   0.320   5.747   0.106
 9146SOL     OW28336   5.097   3.137   3.572
 9146SOL    HW128337   5.051   3.184   3.648
 9146SOL    HW228338   5.193   3.163   3.571
 9147SOL     OW28339   5.781   0.263   5.096
 9147SOL    HW128340   5.852   0.225   5.155
 9147SOL    HW228341   5.784   0.363   5.102
 9148SOL     OW28342   5.354   6.405   1.367
 9148SOL    HW128343   5.297   6.323   1.366
 9148SOL    HW228344   5.448   6.381   1.393
 9149SOL     OW28345   5.814   4.129   2.599
 9149SOL    HW128346   5.857   4.052   2.647
 9149SOL    HW228347   5.885   4.182   2.552
 9150SOL     OW28348   3.761   5.480   1.202
 9150SOL    HW128349   3.731   5.461   1.295
 9150SOL    HW228350   3.714   5.562   1.169
 9151SOL     OW28351   2.293   4.256   3.367
 9151SOL    HW128352   2.216   4.319   3.374
 9151SOL    HW228353   2.378   4.303   3.393
 9152SOL     OW28354   1.849   4.326   4.665
 9152SOL    HW128355   1.775   4.270   4.628
 9152SOL    HW228356   1.823   4.362   4.754
 9153SOL     OW28357   0.363   2.979   6.887
 9153SOL    HW128358   0.444   2.942   6.931
 9153SOL    HW228359   0.384   3.070   6.849
 9154SOL     OW28360   5.016   4.763   6.771
 9154SOL    HW128361   5.048   4.857   6.763
 9154SOL    HW228362   4.916   4.761   6.772
 9155SOL     OW28363   1.507   3.798   2.111
 9155SOL    HW128364   1.581   3.730   2.112
 9155SOL    HW228365   1.435   3.768   2.049
 9156SOL     OW28366   1.042   2.309   0.254
 9156SOL    HW128367   1.012   2.402   0.273
 9156SOL    HW228368   0.963   2.254   0.225
 9157SOL     OW28369   1.574   3.831   6.542
 9157SOL    HW128370   1.537   3.761   6.602
 9157SOL    HW228371   1.588   3.793   6.450
 9158SOL     OW28372   6.001   3.702   4.471
 9158SOL    HW128373   5.966   3.618   4.429
 9158SOL    HW228374   6.039   3.762   4.400
 9159SOL     OW28375   1.458   1.164   2.208
 9159SOL    HW128376   1.496   1.193   2.120
 9159SOL    HW228377   1.481   1.231   2.278
 9160SOL     OW28378   6.885   6.589   5.831
 9160SOL    HW128379   6.796   6.633   5.845
 9160SOL    HW228380   6.946   6.653   5.785
 9161SOL     OW28381   5.668   4.999   4.116
 9161SOL    HW128382   5.623   5.021   4.030
 9161SOL    HW228383   5.681   5.083   4.170
 9162SOL     OW28384   4.105   0.887   3.461
 9162SOL    HW128385   4.130   0.943   3.382
 9162SOL    HW228386   4.181   0.883   3.525
 9163SOL     OW28387   0.769   2.418   4.552
 9163SOL    HW128388   0.721   2.501   4.582
 9163SOL    HW228389   0.861   2.442   4.522
 9164SOL     OW28390   2.540   0.314   6.998
 9164SOL    HW128391   2.577   0.352   0.057
 9164SOL    HW228392   2.561   0.217   6.993
 9165SOL     OW28393   6.099   0.896   5.554
 9165SOL    HW128394   6.197   0.911   5.561
 9165SOL    HW228395   6.081   0.799   5.536
 9166SOL     OW28396   4.511   6.084   1.209
 9166SOL    HW128397   4.552   6.143   1.140
 9166SOL    HW228398   4.412   6.086   1.200
 9167SOL     OW28399   2.224   1.916   6.218
 9167SOL    HW128400   2.237   1.957   6.309
 9167SOL    HW228401   2.184   1.825   6.228
 9168SOL     OW28402   6.876   5.992   5.821
 9168SOL    HW128403   6.846   5.959   5.910
 9168SOL    HW228404   6.967   5.958   5.801
 9169SOL     OW28405   6.641   0.224   6.207
 9169SOL    HW128406   6.633   0.242   6.306
 9169SOL    HW228407   6.658   0.311   6.159
 9170SOL     OW28408   1.839   0.342   6.512
 9170SOL    HW128409   1.828   0.244   6.532
 9170SOL    HW228410   1.781   0.395   6.574
 9171SOL     OW28411   3.784   5.438   0.439
 9171SOL    HW128412   3.782   5.343   0.408
 9171SOL    HW228413   3.729   5.495   0.378
 9172SOL     OW28414   5.146   0.984   2.775
 9172SOL    HW128415   5.242   0.967   2.795
 9172SOL    HW228416   5.105   0.901   2.738
 9173SOL     OW28417   5.911   4.375   6.037
 9173SOL    HW128418   5.895   4.469   6.006
 9173SOL    HW228419   5.942   4.320   5.960
 9174SOL     OW28420   6.772   4.338   0.852
 9174SOL    HW128421   6.830   4.363   0.774
 9174SOL    HW228422   6.697   4.404   0.860
 9175SOL     OW28423   1.348   6.133   6.455
 9175SOL    HW128424   1.408   6.107   6.380
 9175SOL    HW228425   1.289   6.056   6.479
 9176SOL     OW28426   2.463   1.130   3.204
 9176SOL    HW128427   2.560   1.109   3.192
 9176SOL    HW228428   2.407   1.063   3.155
 9177SOL     OW28429   0.631   4.764   4.185
 9177SOL    HW128430   0.706   4.829   4.202
 9177SOL    HW228431   0.668   4.671   4.179
 9178SOL     OW28432   1.627   5.303   1.051
 9178SOL    HW128433   1.682   5.383   1.074
 9178SOL    HW228434   1.624   5.291   0.952
 9179SOL     OW28435   2.412   5.500   3.986
 9179SOL    HW128436   2.324   5.468   4.021
 9179SOL    HW228437   2.403   5.593   3.952
 9180SOL     OW28438   6.793   2.793   3.473
 9180SOL    HW128439   6.800   2.882   3.518
 9180SOL    HW228440   6.837   2.724   3.530
 9181SOL     OW28441   5.817   2.672   4.204
 9181SOL    HW128442   5.760   2.728   4.264
 9181SOL    HW228443   5.798   2.575   4.221
 9182SOL     OW28444   2.864   6.976   3.005
 9182SOL    HW128445   2.854   6.877   3.011
 9182SOL    HW228446   2.773   7.019   3.004
 9183SOL     OW28447   4.573   4.344   6.996
 9183SOL    HW128448   4.639   4.331   0.044
 9183SOL    HW228449   4.529   4.257   6.975
 9184SOL     OW28450   4.734   1.865   1.104
 9184SOL    HW128451   4.687   1.785   1.140
 9184SOL    HW228452   4.766   1.922   1.180
 9185SOL     OW28453   5.808   6.350   5.158
 9185SOL    HW128454   5.715   6.335   5.193
 9185SOL    HW228455   5.870   6.284   5.199
 9186SOL     OW28456   5.875   0.135   4.311
 9186SOL    HW128457   5.907   0.214   4.365
 9186SOL    HW228458   5.779   0.147   4.288
 9187SOL     OW28459   3.296   2.330   0.296
 9187SOL    HW128460   3.357   2.254   0.273
 9187SOL    HW228461   3.201   2.298   0.294
 9188SOL     OW28462   2.177   0.368   2.021
 9188SOL    HW128463   2.263   0.420   2.016
 9188SOL    HW228464   2.172   0.323   2.110
 9189SOL     OW28465   3.048   5.428   1.980
 9189SOL    HW128466   2.951   5.442   2.001
 9189SOL    HW228467   3.056   5.379   1.893
 9190SOL     OW28468   1.386   3.553   5.465
 9190SOL    HW128469   1.401   3.571   5.562
 9190SOL    HW228470   1.462   3.591   5.412
 9191SOL     OW28471   5.784   1.031   0.180
 9191SOL    HW128472   5.766   0.950   0.125
 9191SOL    HW228473   5.877   1.063   0.165
 9192SOL     OW28474   0.200   2.235   6.341
 9192SOL    HW128475   0.193   2.202   6.435
 9192SOL    HW228476   0.217   2.334   6.342
 9193SOL     OW28477   4.104   3.747   4.986
 9193SOL    HW128478   4.103   3.667   5.046
 9193SOL    HW228479   4.104   3.717   4.890
 9194SOL     OW28480   2.688   0.884   2.574
 9194SOL    HW128481   2.769   0.925   2.616
 9194SOL    HW228482   2.607   0.937   2.599
 9195SOL     OW28483   1.175   3.884   3.293
 9195SOL    HW128484   1.182   3.979   3.323
 9195SOL    HW228485   1.162   3.824   3.372
 9196SOL     OW28486   5.473   6.737   3.555
 9196SOL    HW128487   5.401   6.760   3.490
 9196SOL    HW228488   5.546   6.688   3.507
 9197SOL     OW28489   3.001   4.396   1.403
 9197SOL    HW128490   2.940   4.397   1.324
 9197SOL    HW228491   3.068   4.323   1.393
 9198SOL     OW28492   6.138   4.493   6.494
 9198SOL    HW128493   6.087   4.448   6.567
 9198SOL    HW228494   6.228   4.521   6.528
 9199SOL     OW28495   6.934   3.035   5.631
 9199SOL    HW128496   6.895   3.123   5.659
 9199SOL    HW228497   7.012   3.052   5.570
 9200SOL     OW28498   3.231   6.405   5.706
 9200SOL    HW128499   3.323   6.416   5.742
 9200SOL    HW228500   3.172   6.478   5.742
 9201SOL     OW28501   6.947   3.585   0.186
 9201SOL    HW128502   6.877   3.551   0.123
 9201SOL    HW228503   7.001   3.655   0.140
 9202SOL     OW28504   0.691   6.288   3.602
 9202SOL    HW128505   0.739   6.375   3.597
 9202SOL    HW228506   0.655   6.264   3.512
 9203SOL     OW28507   6.123   3.025   6.133
 9203SOL    HW128508   6.112   3.102   6.197
 9203SOL    HW228509   6.125   3.060   6.040
 9204SOL     OW28510   5.002   3.848   4.468
 9204SOL    HW128511   4.952   3.768   4.501
 9204SOL    HW228512   4.938   3.919   4.440
 9205SOL     OW28513   5.280   5.797   3.250
 9205SOL    HW128514   5.299   5.786   3.348
 9205SOL    HW228515   5.218   5.726   3.220
 9206SOL     OW28516   3.535   5.716   3.142
 9206SOL    HW128517   3.602   5.662   3.193
 9206SOL    HW228518   3.477   5.655   3.088
 9207SOL     OW28519   4.419   3.856   0.333
 9207SOL    HW128520   4.488   3.858   0.260
 9207SOL    HW228521   4.447   3.918   0.406
 9208SOL     OW28522   5.550   4.445   2.779
 9208SOL    HW128523   5.476   4.464   2.844
 9208SOL    HW228524   5.638   4.447   2.826
 9209SOL     OW28525   4.703   1.051   0.400
 9209SOL    HW128526   4.737   1.088   0.487
 9209SOL    HW228527   4.654   1.123   0.351
 9210SOL     OW28528   0.912   1.726   1.523
 9210SOL    HW128529   0.902   1.734   1.622
 9210SOL    HW228530   0.913   1.817   1.481
 9211SOL     OW28531   6.097   2.480   6.131
 9211SOL    HW128532   6.190   2.443   6.131
 9211SOL    HW228533   6.100   2.576   6.160
 9212SOL     OW28534   5.227   4.983   3.770
 9212SOL    HW128535   5.216   5.018   3.864
 9212SOL    HW228536   5.278   4.897   3.773
 9213SOL     OW28537   5.207   4.697   4.890
 9213SOL    HW128538   5.263   4.660   4.816
 9213SOL    HW228539   5.139   4.629   4.917
 9214SOL     OW28540   6.985   2.871   5.286
 9214SOL    HW128541   0.007   2.809   5.349
 9214SOL    HW228542   6.992   2.965   5.320
 9215SOL     OW28543   1.732   3.985   2.143
 9215SOL    HW128544   1.656   3.921   2.127
 9215SOL    HW228545   1.812   3.934   2.173
 9216SOL     OW28546   2.671   6.785   3.280
 9216SOL    HW128547   2.669   6.822   3.373
 9216SOL    HW228548   2.735   6.708   3.276
 9217SOL     OW28549   6.194   3.797   6.415
 9217SOL    HW128550   6.231   3.761   6.330
 9217SOL    HW228551   6.265   3.850   6.462
 9218SOL     OW28552   3.523   0.878   0.042
 9218SOL    HW128553   3.520   0.964   7.015
 9218SOL    HW228554   3.573   0.809   7.016
 9219SOL     OW28555   5.206   3.972   6.189
 9219SOL    HW128556   5.217   3.906   6.263
 9219SOL    HW228557   5.278   4.041   6.195
 9220SOL     OW28558   1.128   5.944   2.424
 9220SOL    HW128559   1.079   5.949   2.510
 9220SOL    HW228560   1.226   5.935   2.442
 9221SOL     OW28561   1.888   0.303   3.186
 9221SOL    HW128562   1.916   0.397   3.170
 9221SOL    HW228563   1.836   0.270   3.106
 9222SOL     OW28564   2.682   5.815   5.451
 9222SOL    HW128565   2.760   5.795   5.510
 9222SOL    HW228566   2.703   5.787   5.357
 9223SOL     OW28567   1.483   2.094   4.459
 9223SOL    HW128568   1.426   2.012   4.460
 9223SOL    HW228569   1.516   2.110   4.366
 9224SOL     OW28570   0.755   5.419   4.014
 9224SOL    HW128571   0.737   5.513   3.983
 9224SOL    HW228572   0.767   5.418   4.113
 9225SOL     OW28573   2.920   6.028   6.147
 9225SOL    HW128574   2.908   5.988   6.238
 9225SOL    HW228575   3.017   6.034   6.126
 9226SOL     OW28576   0.186   6.627   1.598
 9226SOL    HW128577   0.230   6.624   1.688
 9226SOL    HW228578   0.088   6.609   1.609
 9227SOL     OW28579   1.824   5.484   1.190
 9227SOL    HW128580   1.825   5.481   1.290
 9227SOL    HW228581   1.764   5.557   1.160
 9228SOL     OW28582   3.151   1.184   6.318
 9228SOL    HW128583   3.211   1.262   6.331
 9228SOL    HW228584   3.062   1.202   6.359
 9229SOL     OW28585   0.705   5.098   5.545
 9229SOL    HW128586   0.764   5.134   5.618
 9229SOL    HW228587   0.614   5.082   5.582
 9230SOL     OW28588   4.937   3.227   3.808
 9230SOL    HW128589   4.913   3.285   3.885
 9230SOL    HW228590   4.962   3.136   3.841
 9231SOL     OW28591   1.216   3.777   4.847
 9231SOL    HW128592   1.229   3.839   4.770
 9231SOL    HW228593   1.239   3.684   4.819
 9232SOL     OW28594   3.693   5.270   6.737
 9232SOL    HW128595   3.632   5.244   6.812
 9232SOL    HW228596   3.781   5.223   6.748
 9233SOL     OW28597   6.067   5.944   1.602
 9233SOL    HW128598   5.983   5.944   1.657
 9233SOL    HW228599   6.120   6.026   1.622
 9234SOL     OW28600   3.053   5.668   0.396
 9234SOL    HW128601   3.147   5.698   0.412
 9234SOL    HW228602   3.019   5.619   0.476
 9235SOL     OW28603   1.935   2.706   3.624
 9235SOL    HW128604   1.922   2.706   3.525
 9235SOL    HW228605   1.847   2.703   3.670
 9236SOL     OW28606   2.065   4.232   6.932
 9236SOL    HW128607   2.110   4.316   6.902
 9236SOL    HW228608   2.110   4.154   6.891
 9237SOL     OW28609   0.174   5.899   3.169
 9237SOL    HW128610   0.261   5.919   3.124
 9237SOL    HW228611   0.186   5.820   3.230
 9238SOL     OW28612   1.766   2.714   6.103
 9238SOL    HW128613   1.766   2.732   6.202
 9238SOL    HW228614   1.853   2.744   6.064
 9239SOL     OW28615   0.390   3.768   6.444
 9239SOL    HW128616   0.379   3.757   6.345
 9239SOL    HW228617   0.367   3.862   6.470
 9240SOL     OW28618   5.314   2.761   2.284
 9240SOL    HW128619   5.252   2.818   2.229
 9240SOL    HW228620   5.264   2.685   2.324
 9241SOL     OW28621   0.762   5.188   6.359
 9241SOL    HW128622   0.664   5.173   6.351
 9241SOL    HW228623   0.803   5.115   6.414
 9242SOL     OW28624   1.337   4.471   0.574
 9242SOL    HW128625   1.415   4.531   0.592
 9242SOL    HW228626   1.357   4.380   0.610
 9243SOL     OW28627   0.543   0.236   1.220
 9243SOL    HW128628   0.546   0.137   1.227
 9243SOL    HW228629   0.461   0.271   1.264
 9244SOL     OW28630   3.571   4.827   5.839
 9244SOL    HW128631   3.571   4.835   5.739
 9244SOL    HW228632   3.504   4.891   5.878
 9245SOL     OW28633   1.175   5.424   3.931
 9245SOL    HW128634   1.179   5.354   4.002
 9245SOL    HW228635   1.158   5.513   3.974
 9246SOL     OW28636   6.610   6.766   2.438
 9246SOL    HW128637   6.592   6.791   2.343
 9246SOL    HW228638   6.550   6.819   2.498
 9247SOL     OW28639   2.407   6.110   3.022
 9247SOL    HW128640   2.396   6.011   3.031
 9247SOL    HW228641   2.321   6.155   3.046
 9248SOL     OW28642   2.848   1.976   4.432
 9248SOL    HW128643   2.908   2.009   4.359
 9248SOL    HW228644   2.756   2.014   4.419
 9249SOL     OW28645   3.332   4.656   1.163
 9249SOL    HW128646   3.337   4.755   1.178
 9249SOL    HW228647   3.318   4.610   1.250
 9250SOL     OW28648   5.921   2.932   4.023
 9250SOL    HW128649   5.971   2.851   4.053
 9250SOL    HW228650   5.849   2.905   3.958
 9251SOL     OW28651   3.954   1.820   3.341
 9251SOL    HW128652   3.893   1.899   3.346
 9251SOL    HW228653   4.041   1.841   3.386
 9252SOL     OW28654   5.040   0.687   3.998
 9252SOL    HW128655   5.006   0.774   4.033
 9252SOL    HW228656   4.967   0.642   3.945
 9253SOL     OW28657   5.704   5.257   5.627
 9253SOL    HW128658   5.660   5.168   5.627
 9253SOL    HW228659   5.650   5.320   5.571
 9254SOL     OW28660   5.488   5.091   3.348
 9254SOL    HW128661   5.475   5.118   3.443
 9254SOL    HW228662   5.450   5.161   3.287
 9255SOL     OW28663   4.302   4.246   0.821
 9255SOL    HW128664   4.359   4.195   0.886
 9255SOL    HW228665   4.206   4.236   0.847
 9256SOL     OW28666   2.965   0.669   2.815
 9256SOL    HW128667   3.036   0.669   2.885
 9256SOL    HW228668   2.885   0.619   2.850
 9257SOL     OW28669   0.455   4.409   3.540
 9257SOL    HW128670   0.419   4.410   3.447
 9257SOL    HW228671   0.439   4.320   3.582
 9258SOL     OW28672   3.546   4.142   2.839
 9258SOL    HW128673   3.588   4.224   2.800
 9258SOL    HW228674   3.614   4.093   2.894
 9259SOL     OW28675   0.257   2.052   0.214
 9259SOL    HW128676   0.292   2.049   0.307
 9259SOL    HW228677   0.293   2.132   0.166
 9260SOL     OW28678   5.879   2.012   5.539
 9260SOL    HW128679   5.846   2.106   5.528
 9260SOL    HW228680   5.821   1.950   5.486
 9261SOL     OW28681   2.866   1.302   0.236
 9261SOL    HW128682   2.965   1.299   0.228
 9261SOL    HW228683   2.826   1.222   0.192
 9262SOL     OW28684   6.713   4.903   5.040
 9262SOL    HW128685   6.700   4.840   5.116
 9262SOL    HW228686   6.665   4.870   4.959
 9263SOL     OW28687   4.951   0.314   1.786
 9263SOL    HW128688   4.969   0.222   1.820
 9263SOL    HW228689   5.022   0.339   1.719
 9264SOL     OW28690   4.920   4.556   0.473
 9264SOL    HW128691   4.982   4.479   0.459
 9264SOL    HW228692   4.968   4.642   0.452
 9265SOL     OW28693   4.224   2.331   0.435
 9265SOL    HW128694   4.281   2.378   0.367
 9265SOL    HW228695   4.174   2.399   0.489
 9266SOL     OW28696   1.346   6.511   0.962
 9266SOL    HW128697   1.326   6.588   1.023
 9266SOL    HW228698   1.266   6.453   0.953
 9267SOL     OW28699   7.013   2.431   4.607
 9267SOL    HW128700   0.017   2.337   4.591
 9267SOL    HW228701   6.929   2.450   4.556
 9268SOL     OW28702   0.905   4.942   2.652
 9268SOL    HW128703   0.906   4.845   2.626
 9268SOL    HW228704   0.971   4.992   2.596
 9269SOL     OW28705   3.996   1.158   6.229
 9269SOL    HW128706   4.051   1.074   6.226
 9269SOL    HW228707   4.030   1.223   6.161
 9270SOL     OW28708   4.272   6.782   6.018
 9270SOL    HW128709   4.313   6.691   6.017
 9270SOL    HW228710   4.178   6.776   5.986
 9271SOL     OW28711   5.951   0.144   1.260
 9271SOL    HW128712   5.900   0.086   1.324
 9271SOL    HW228713   6.040   0.165   1.298
 9272SOL     OW28714   1.042   5.908   5.197
 9272SOL    HW128715   1.093   5.992   5.174
 9272SOL    HW228716   0.974   5.929   5.267
 9273SOL     OW28717   5.830   6.607   2.571
 9273SOL    HW128718   5.796   6.618   2.665
 9273SOL    HW228719   5.810   6.515   2.539
 9274SOL     OW28720   6.376   1.269   0.460
 9274SOL    HW128721   6.419   1.180   0.440
 9274SOL    HW228722   6.431   1.342   0.419
 9275SOL     OW28723   6.379   0.980   0.382
 9275SOL    HW128724   6.292   1.014   0.347
 9275SOL    HW228725   6.367   0.948   0.476
 9276SOL     OW28726   1.418   3.325   1.384
 9276SOL    HW128727   1.411   3.364   1.476
 9276SOL    HW228728   1.476   3.383   1.327
 9277SOL     OW28729   4.488   4.441   0.351
 9277SOL    HW128730   4.408   4.420   0.294
 9277SOL    HW228731   4.457   4.476   0.439
 9278SOL     OW28732   1.946   0.253   6.129
 9278SOL    HW128733   1.985   0.342   6.107
 9278SOL    HW228734   1.984   0.220   6.215
 9279SOL     OW28735   3.686   0.959   2.275
 9279SOL    HW128736   3.704   0.929   2.181
 9279SOL    HW228737   3.712   0.887   2.338
 9280SOL     OW28738   2.194   1.595   2.901
 9280SOL    HW128739   2.133   1.568   2.976
 9280SOL    HW228740   2.251   1.671   2.930
 9281SOL     OW28741   2.241   3.538   6.585
 9281SOL    HW128742   2.211   3.618   6.637
 9281SOL    HW228743   2.287   3.567   6.501
 9282SOL     OW28744   5.737   0.529   3.497
 9282SOL    HW128745   5.725   0.516   3.596
 9282SOL    HW228746   5.699   0.618   3.471
 9283SOL     OW28747   5.339   0.754   4.035
 9283SOL    HW128748   5.395   0.688   4.085
 9283SOL    HW228749   5.252   0.712   4.010
 9284SOL     OW28750   2.778   3.311   5.652
 9284SOL    HW128751   2.850   3.294   5.720
 9284SOL    HW228752   2.721   3.230   5.643
 9285SOL     OW28753   4.809   2.369   1.104
 9285SOL    HW128754   4.839   2.464   1.089
 9285SOL    HW228755   4.710   2.363   1.092
 9286SOL     OW28756   5.428   5.752   0.985
 9286SOL    HW128757   5.387   5.809   0.914
 9286SOL    HW228758   5.429   5.802   1.071
 9287SOL     OW28759   3.212   5.109   0.245
 9287SOL    HW128760   3.132   5.157   0.211
 9287SOL    HW228761   3.204   5.095   0.344
 9288SOL     OW28762   4.420   1.604   2.880
 9288SOL    HW128763   4.421   1.538   2.805
 9288SOL    HW228764   4.437   1.696   2.845
 9289SOL     OW28765   3.746   0.299   1.940
 9289SOL    HW128766   3.663   0.250   1.966
 9289SOL    HW228767   3.761   0.291   1.842
 9290SOL     OW28768   5.725   1.302   3.131
 9290SOL    HW128769   5.801   1.245   3.100
 9290SOL    HW228770   5.640   1.250   3.125
 9291SOL     OW28771   1.096   5.704   5.463
 9291SOL    HW128772   1.112   5.611   5.432
 9291SOL    HW228773   1.117   5.768   5.389
 9292SOL     OW28774   1.976   3.411   6.312
 9292SOL    HW128775   2.008   3.317   6.311
 9292SOL    HW228776   2.036   3.468   6.256
 9293SOL     OW28777   5.603   2.771   6.185
 9293SOL    HW128778   5.608   2.741   6.280
 9293SOL    HW228779   5.511   2.755   6.150
 9294SOL     OW28780   4.500   6.906   6.079
 9294SOL    HW128781   4.489   6.995   6.036
 9294SOL    HW228782   4.414   6.855   6.073
 9295SOL     OW28783   5.782   0.903   5.298
 9295SOL    HW128784   5.811   0.956   5.378
 9295SOL    HW228785   5.828   0.814   5.299
 9296SOL     OW28786   1.650   5.765   6.860
 9296SOL    HW128787   1.749   5.772   6.848
 9296SOL    HW228788   1.607   5.854   6.840
 9297SOL     OW28789   0.751   6.849   2.822
 9297SOL    HW128790   0.711   6.916   2.759
 9297SOL    HW228791   0.850   6.860   2.825
 9298SOL     OW28792   0.633   6.395   6.520
 9298SOL    HW128793   0.614   6.328   6.449
 9298SOL    HW228794   0.717   6.445   6.497
 9299SOL     OW28795   0.793   2.368   4.820
 9299SOL    HW128796   0.755   2.382   4.729
 9299SOL    HW228797   0.867   2.302   4.816
 9300SOL     OW28798   0.519   4.540   6.117
 9300SOL    HW128799   0.553   4.470   6.180
 9300SOL    HW228800   0.596   4.593   6.083
 9301SOL     OW28801   5.546   5.574   4.431
 9301SOL    HW128802   5.625   5.615   4.477
 9301SOL    HW228803   5.515   5.634   4.357
 9302SOL     OW28804   2.438   2.555   4.134
 9302SOL    HW128805   2.461   2.534   4.039
 9302SOL    HW228806   2.377   2.634   4.137
 9303SOL     OW28807   2.592   4.082   0.996
 9303SOL    HW128808   2.605   4.092   0.898
 9303SOL    HW228809   2.589   3.985   1.020
 9304SOL     OW28810   4.178   4.652   1.878
 9304SOL    HW128811   4.104   4.606   1.829
 9304SOL    HW228812   4.259   4.594   1.877
 9305SOL     OW28813   3.337   1.207   0.712
 9305SOL    HW128814   3.344   1.209   0.812
 9305SOL    HW228815   3.294   1.290   0.680
 9306SOL     OW28816   0.550   4.848   5.587
 9306SOL    HW128817   0.514   4.759   5.562
 9306SOL    HW228818   0.583   4.896   5.505
 9307SOL     OW28819   0.927   3.552   1.202
 9307SOL    HW128820   0.985   3.518   1.277
 9307SOL    HW228821   0.831   3.545   1.230
 9308SOL     OW28822   2.071   3.470   0.490
 9308SOL    HW128823   2.087   3.396   0.426
 9308SOL    HW228824   2.042   3.432   0.578
 9309SOL     OW28825   3.762   4.929   6.315
 9309SOL    HW128826   3.675   4.916   6.268
 9309SOL    HW228827   3.805   5.013   6.283
 9310SOL     OW28828   5.714   5.324   5.888
 9310SOL    HW128829   5.755   5.408   5.923
 9310SOL    HW228830   5.704   5.331   5.789
 9311SOL     OW28831   4.796   4.552   1.753
 9311SOL    HW128832   4.893   4.532   1.763
 9311SOL    HW228833   4.750   4.541   1.841
 9312SOL     OW28834   1.063   3.471   0.960
 9312SOL    HW128835   1.155   3.484   0.999
 9312SOL    HW228836   0.998   3.454   1.034
 9313SOL     OW28837   7.007   7.024   1.154
 9313SOL    HW128838   0.050   0.034   1.090
 9313SOL    HW228839   6.940   0.070   1.173
 9314SOL     OW28840   6.111   4.417   7.018
 9314SOL    HW128841   6.071   4.355   0.060
 9314SOL    HW228842   6.062   4.410   6.932
 9315SOL     OW28843   6.521   0.088   5.711
 9315SOL    HW128844   6.531   7.022   5.672
 9315SOL    HW228845   6.546   0.086   5.808
 9316SOL     OW28846   5.341   6.651   5.840
 9316SOL    HW128847   5.309   6.596   5.762
 9316SOL    HW228848   5.269   6.653   5.910
 9317SOL     OW28849   5.475   5.184   3.819
 9317SOL    HW128850   5.509   5.090   3.811
 9317SOL    HW228851   5.412   5.190   3.896
 9318SOL     OW28852   5.735   1.331   6.157
 9318SOL    HW128853   5.755   1.309   6.061
 9318SOL    HW228854   5.717   1.247   6.208
 9319SOL     OW28855   2.510   2.644   6.616
 9319SOL    HW128856   2.423   2.676   6.655
 9319SOL    HW228857   2.493   2.593   6.532
 9320SOL     OW28858   3.491   0.549   5.013
 9320SOL    HW128859   3.538   0.634   4.991
 9320SOL    HW228860   3.415   0.568   5.076
 9321SOL     OW28861   0.462   0.237   4.836
 9321SOL    HW128862   0.474   0.336   4.824
 9321SOL    HW228863   0.403   0.219   4.915
 9322SOL     OW28864   6.786   3.493   5.985
 9322SOL    HW128865   6.720   3.542   6.042
 9322SOL    HW228866   6.805   3.403   6.025
 9323SOL     OW28867   1.253   0.721   5.099
 9323SOL    HW128868   1.321   0.671   5.046
 9323SOL    HW228869   1.241   0.677   5.188
 9324SOL     OW28870   1.368   4.288   1.813
 9324SOL    HW128871   1.430   4.366   1.810
 9324SOL    HW228872   1.275   4.319   1.795
 9325SOL     OW28873   5.821   1.443   0.223
 9325SOL    HW128874   5.747   1.508   0.236
 9325SOL    HW228875   5.909   1.491   0.230
 9326SOL     OW28876   2.845   4.861   0.384
 9326SOL    HW128877   2.822   4.803   0.462
 9326SOL    HW228878   2.939   4.842   0.354
 9327SOL     OW28879   4.642   0.136   2.404
 9327SOL    HW128880   4.692   0.181   2.479
 9327SOL    HW228881   4.546   0.161   2.409
 9328SOL     OW28882   2.601   1.197   4.927
 9328SOL    HW128883   2.507   1.228   4.945
 9328SOL    HW228884   2.654   1.272   4.889
 9329SOL     OW28885   5.658   3.733   0.877
 9329SOL    HW128886   5.623   3.729   0.970
 9329SOL    HW228887   5.740   3.677   0.869
 9330SOL     OW28888   6.270   0.132   5.573
 9330SOL    HW128889   6.355   0.087   5.599
 9330SOL    HW228890   6.201   0.063   5.549
 9331SOL     OW28891   2.280   0.994   6.598
 9331SOL    HW128892   2.305   1.024   6.506
 9331SOL    HW228893   2.195   0.942   6.594
 9332SOL     OW28894   4.053   4.728   0.745
 9332SOL    HW128895   4.151   4.715   0.732
 9332SOL    HW228896   4.037   4.801   0.812
 9333SOL     OW28897   3.415   4.607   6.855
 9333SOL    HW128898   3.390   4.583   6.948
 9333SOL    HW228899   3.335   4.602   6.796
 9334SOL     OW28900   4.984   6.345   4.090
 9334SOL    HW128901   4.962   6.387   4.178
 9334SOL    HW228902   4.987   6.415   4.020
 9335SOL     OW28903   1.244   0.876   6.823
 9335SOL    HW128904   1.243   0.794   6.880
 9335SOL    HW228905   1.196   0.858   6.738
 9336SOL     OW28906   3.750   6.486   5.135
 9336SOL    HW128907   3.721   6.485   5.039
 9336SOL    HW228908   3.672   6.507   5.193
 9337SOL     OW28909   4.216   0.969   5.221
 9337SOL    HW128910   4.272   1.039   5.264
 9337SOL    HW228911   4.122   0.974   5.256
 9338SOL     OW28912   6.295   6.951   1.702
 9338SOL    HW128913   6.245   6.884   1.648
 9338SOL    HW228914   6.232   6.996   1.766
 9339SOL     OW28915   6.082   6.382   0.822
 9339SOL    HW128916   6.139   6.300   0.813
 9339SOL    HW228917   6.028   6.395   0.738
 9340SOL     OW28918   4.562   4.968   3.414
 9340SOL    HW128919   4.661   4.966   3.421
 9340SOL    HW228920   4.524   5.018   3.492
 9341SOL     OW28921   6.671   4.985   0.980
 9341SOL    HW128922   6.594   4.938   0.936
 9341SOL    HW228923   6.690   4.941   1.068
 9342SOL     OW28924   3.067   0.118   3.878
 9342SOL    HW128925   2.993   0.165   3.831
 9342SOL    HW228926   3.115   0.182   3.937
 9343SOL     OW28927   5.161   3.837   1.653
 9343SOL    HW128928   5.088   3.873   1.595
 9343SOL    HW228929   5.249   3.847   1.607
 9344SOL     OW28930   5.246   6.318   1.735
 9344SOL    HW128931   5.285   6.368   1.812
 9344SOL    HW228932   5.196   6.382   1.676
 9345SOL     OW28933   6.988   5.767   1.673
 9345SOL    HW128934   6.913   5.737   1.614
 9345SOL    HW228935   6.955   5.838   1.735
 9346SOL     OW28936   5.397   0.945   1.773
 9346SOL    HW128937   5.446   1.029   1.752
 9346SOL    HW228938   5.345   0.957   1.858
 9347SOL     OW28939   3.680   4.184   0.702
 9347SOL    HW128940   3.728   4.249   0.643
 9347SOL    HW228941   3.662   4.100   0.651
 9348SOL     OW28942   2.467   6.294   2.715
 9348SOL    HW128943   2.373   6.297   2.749
 9348SOL    HW228944   2.469   6.323   2.619
 9349SOL     OW28945   5.809   4.968   2.126
 9349SOL    HW128946   5.859   4.992   2.209
 9349SOL    HW228947   5.871   4.968   2.048
 9350SOL     OW28948   6.728   2.450   5.468
 9350SOL    HW128949   6.793   2.523   5.446
 9350SOL    HW228950   6.649   2.455   5.407
 9351SOL     OW28951   3.242   0.585   6.090
 9351SOL    HW128952   3.217   0.496   6.130
 9351SOL    HW228953   3.332   0.613   6.124
 9352SOL     OW28954   3.741   1.319   6.347
 9352SOL    HW128955   3.834   1.288   6.366
 9352SOL    HW228956   3.693   1.248   6.294
 9353SOL     OW28957   0.176   4.191   0.925
 9353SOL    HW128958   0.274   4.207   0.913
 9353SOL    HW228959   0.134   4.172   0.836
 9354SOL     OW28960   0.102   2.111   5.817
 9354SOL    HW128961   0.045   2.169   5.759
 9354SOL    HW228962   0.071   2.016   5.810
 9355SOL     OW28963   0.130   1.781   4.681
 9355SOL    HW128964   0.065   1.708   4.704
 9355SOL    HW228965   0.198   1.745   4.617
 9356SOL     OW28966   4.487   5.982   2.014
 9356SOL    HW128967   4.538   6.061   1.979
 9356SOL    HW228968   4.401   6.013   2.054
 9357SOL     OW28969   1.314   3.141   6.637
 9357SOL    HW128970   1.357   3.110   6.552
 9357SOL    HW228971   1.309   3.065   6.702
 9358SOL     OW28972   6.677   3.041   2.423
 9358SOL    HW128973   6.761   3.018   2.374
 9358SOL    HW228974   6.606   3.066   2.358
 9359SOL     OW28975   1.889   3.739   5.536
 9359SOL    HW128976   1.975   3.761   5.582
 9359SOL    HW228977   1.879   3.640   5.528
 9360SOL     OW28978   1.300   5.429   6.926
 9360SOL    HW128979   1.381   5.379   6.955
 9360SOL    HW228980   1.253   5.466   7.006
 9361SOL     OW28981   1.707   5.414   2.577
 9361SOL    HW128982   1.615   5.414   2.615
 9361SOL    HW228983   1.762   5.345   2.624
 9362SOL     OW28984   2.155   3.199   2.556
 9362SOL    HW128985   2.155   3.102   2.532
 9362SOL    HW228986   2.136   3.210   2.653
 9363SOL     OW28987   3.557   6.416   2.134
 9363SOL    HW128988   3.597   6.505   2.112
 9363SOL    HW228989   3.521   6.374   2.051
 9364SOL     OW28990   3.658   3.185   6.163
 9364SOL    HW128991   3.684   3.249   6.235
 9364SOL    HW228992   3.577   3.220   6.115
 9365SOL     OW28993   2.307   1.773   4.308
 9365SOL    HW128994   2.219   1.791   4.353
 9365SOL    HW228995   2.305   1.682   4.266
 9366SOL     OW28996   3.536   6.048   6.575
 9366SOL    HW128997   3.529   5.949   6.588
 9366SOL    HW228998   3.454   6.092   6.611
 9367SOL     OW28999   0.153   6.795   3.080
 9367SOL    HW129000   0.100   6.721   3.038
 9367SOL    HW229001   0.139   6.794   3.179
 9368SOL     OW29002   2.908   0.945   2.786
 9368SOL    HW129003   2.964   1.009   2.839
 9368SOL    HW229004   2.927   0.852   2.816
 9369SOL     OW29005   6.491   6.059   4.901
 9369SOL    HW129006   6.569   5.999   4.884
 9369SOL    HW229007   6.520   6.154   4.890
 9370SOL     OW29008   5.425   0.173   3.703
 9370SOL    HW129009   5.439   0.115   3.623
 9370SOL    HW229010   5.505   0.168   3.763
 9371SOL     OW29011   2.685   5.075   0.794
 9371SOL    HW129012   2.670   5.167   0.759
 9371SOL    HW229013   2.618   5.056   0.866
 9372SOL     OW29014   5.263   0.426   2.611
 9372SOL    HW129015   5.335   0.384   2.666
 9372SOL    HW229016   5.190   0.460   2.671
 9373SOL     OW29017   5.144   1.617   2.350
 9373SOL    HW129018   5.239   1.619   2.381
 9373SOL    HW229019   5.104   1.709   2.360
 9374SOL     OW29020   0.344   3.744   0.152
 9374SOL    HW129021   0.363   3.838   0.180
 9374SOL    HW229022   0.375   3.681   0.223
 9375SOL     OW29023   0.518   1.303   1.477
 9375SOL    HW129024   0.536   1.229   1.411
 9375SOL    HW229025   0.588   1.302   1.548
 9376SOL     OW29026   2.329   4.099   1.358
 9376SOL    HW129027   2.332   4.007   1.396
 9376SOL    HW229028   2.256   4.151   1.403
 9377SOL     OW29029   1.719   5.548   3.859
 9377SOL    HW129030   1.660   5.561   3.780
 9377SOL    HW229031   1.691   5.609   3.933
 9378SOL     OW29032   2.049   0.934   3.956
 9378SOL    HW129033   2.053   1.020   4.008
 9378SOL    HW229034   2.022   0.954   3.861
 9379SOL     OW29035   4.831   6.344   5.771
 9379SOL    HW129036   4.888   6.263   5.788
 9379SOL    HW229037   4.801   6.383   5.858
 9380SOL     OW29038   4.711   5.688   5.224
 9380SOL    HW129039   4.790   5.741   5.195
 9380SOL    HW229040   4.742   5.602   5.265
 9381SOL     OW29041   4.117   3.175   5.920
 9381SOL    HW129042   4.021   3.167   5.945
 9381SOL    HW229043   4.142   3.100   5.859
 9382SOL     OW29044   3.254   0.832   4.062
 9382SOL    HW129045   3.354   0.833   4.056
 9382SOL    HW229046   3.224   0.908   4.120
 9383SOL     OW29047   0.052   5.797   4.319
 9383SOL    HW129048   0.016   5.725   4.378
 9383SOL    HW229049   7.003   5.836   4.265
 9384SOL     OW29050   4.195   0.501   2.039
 9384SOL    HW129051   4.118   0.442   2.014
 9384SOL    HW229052   4.275   0.476   1.984
 9385SOL     OW29053   3.941   1.378   3.524
 9385SOL    HW129054   3.859   1.391   3.468
 9385SOL    HW229055   4.001   1.312   3.479
 9386SOL     OW29056   2.779   5.800   4.863
 9386SOL    HW129057   2.824   5.855   4.794
 9386SOL    HW229058   2.829   5.807   4.950
 9387SOL     OW29059   2.895   1.964   0.078
 9387SOL    HW129060   2.913   1.868   0.098
 9387SOL    HW229061   2.973   2.020   0.106
 9388SOL     OW29062   2.864   6.060   3.150
 9388SOL    HW129063   2.873   6.092   3.244
 9388SOL    HW229064   2.931   6.107   3.093
 9389SOL     OW29065   2.198   0.620   3.501
 9389SOL    HW129066   2.204   0.709   3.455
 9389SOL    HW229067   2.104   0.587   3.497
 9390SOL     OW29068   5.321   4.864   6.657
 9390SOL    HW129069   5.335   4.925   6.735
 9390SOL    HW229070   5.329   4.916   6.572
 9391SOL     OW29071   1.415   1.056   5.372
 9391SOL    HW129072   1.327   1.069   5.326
 9391SOL    HW229073   1.478   1.008   5.310
 9392SOL     OW29074   5.964   5.121   5.574
 9392SOL    HW129075   6.042   5.135   5.514
 9392SOL    HW229076   5.913   5.206   5.583
 9393SOL     OW29077   3.094   6.889   6.697
 9393SOL    HW129078   3.095   6.818   6.627
 9393SOL    HW229079   3.185   6.931   6.704
 9394SOL     OW29080   6.800   0.569   1.887
 9394SOL    HW129081   6.795   0.577   1.787
 9394SOL    HW229082   6.737   0.634   1.929
 9395SOL     OW29083   3.268   1.669   1.353
 9395SOL    HW129084   3.264   1.613   1.271
 9395SOL    HW229085   3.361   1.670   1.389
 9396SOL     OW29086   2.105   4.071   4.158
 9396SOL    HW129087   2.124   3.991   4.214
 9396SOL    HW229088   2.022   4.056   4.104
 9397SOL     OW29089   3.643   6.336   6.146
 9397SOL    HW129090   3.692   6.373   6.225
 9397SOL    HW229091   3.573   6.402   6.117
 9398SOL     OW29092   5.898   0.994   5.022
 9398SOL    HW129093   5.943   0.965   5.106
 9398SOL    HW229094   5.963   1.045   4.966
 9399SOL     OW29095   1.348   3.152   5.198
 9399SOL    HW129096   1.386   3.229   5.250
 9399SOL    HW229097   1.385   3.066   5.233
 9400SOL     OW29098   4.836   1.026   1.141
 9400SOL    HW129099   4.910   1.086   1.173
 9400SOL    HW229100   4.801   1.061   1.054
 9401SOL     OW29101   6.411   0.860   3.349
 9401SOL    HW129102   6.468   0.814   3.281
 9401SOL    HW229103   6.460   0.938   3.387
 9402SOL     OW29104   1.035   5.193   2.520
 9402SOL    HW129105   0.992   5.248   2.592
 9402SOL    HW229106   0.964   5.153   2.462
 9403SOL     OW29107   6.901   1.317   1.727
 9403SOL    HW129108   6.902   1.358   1.636
 9403SOL    HW229109   6.809   1.325   1.766
 9404SOL     OW29110   0.940   2.268   0.609
 9404SOL    HW129111   0.997   2.321   0.671
 9404SOL    HW229112   0.997   2.209   0.552
 9405SOL     OW29113   2.289   4.234   4.037
 9405SOL    HW129114   2.238   4.158   4.077
 9405SOL    HW229115   2.231   4.315   4.036
 9406SOL     OW29116   6.998   2.781   6.574
 9406SOL    HW129117   0.012   2.811   6.487
 9406SOL    HW229118   6.964   2.861   6.624
 9407SOL     OW29119   2.808   5.057   3.576
 9407SOL    HW129120   2.881   4.998   3.612
 9407SOL    HW229121   2.722   5.036   3.622
 9408SOL     OW29122   6.396   2.266   6.414
 9408SOL    HW129123   6.355   2.357   6.402
 9408SOL    HW229124   6.383   2.213   6.331
 9409SOL     OW29125   6.261   5.226   0.598
 9409SOL    HW129126   6.203   5.256   0.673
 9409SOL    HW229127   6.227   5.265   0.512
 9410SOL     OW29128   1.384   0.623   2.238
 9410SOL    HW129129   1.437   0.698   2.198
 9410SOL    HW229130   1.289   0.630   2.209
 9411SOL     OW29131   3.691   3.471   2.973
 9411SOL    HW129132   3.767   3.467   2.909
 9411SOL    HW229133   3.633   3.390   2.961
 9412SOL     OW29134   0.716   1.311   2.391
 9412SOL    HW129135   0.635   1.324   2.335
 9412SOL    HW229136   0.787   1.266   2.336
 9413SOL     OW29137   4.177   5.563   3.796
 9413SOL    HW129138   4.084   5.559   3.758
 9413SOL    HW229139   4.171   5.576   3.895
 9414SOL     OW29140   3.147   1.106   2.983
 9414SOL    HW129141   3.078   1.175   3.004
 9414SOL    HW229142   3.234   1.132   3.023
 9415SOL     OW29143   2.401   6.694   2.420
 9415SOL    HW129144   2.473   6.718   2.356
 9415SOL    HW229145   2.312   6.701   2.375
 9416SOL     OW29146   6.824   1.664   6.215
 9416SOL    HW129147   6.774   1.745   6.183
 9416SOL    HW229148   6.863   1.683   6.305
 9417SOL     OW29149   3.792   0.708   0.637
 9417SOL    HW129150   3.742   0.653   0.570
 9417SOL    HW229151   3.834   0.647   0.705
 9418SOL     OW29152   2.939   0.820   1.602
 9418SOL    HW129153   2.868   0.788   1.539
 9418SOL    HW229154   3.022   0.843   1.551
 9419SOL     OW29155   2.261   4.344   6.196
 9419SOL    HW129156   2.327   4.326   6.124
 9419SOL    HW229157   2.309   4.367   6.281
 9420SOL     OW29158   5.380   5.039   6.886
 9420SOL    HW129159   5.342   5.104   6.951
 9420SOL    HW229160   5.437   5.086   6.819
 9421SOL     OW29161   2.464   6.742   4.533
 9421SOL    HW129162   2.476   6.831   4.489
 9421SOL    HW229163   2.370   6.711   4.519
 9422SOL     OW29164   3.479   5.668   2.677
 9422SOL    HW129165   3.405   5.735   2.685
 9422SOL    HW229166   3.440   5.579   2.653
 9423SOL     OW29167   3.208   6.632   3.672
 9423SOL    HW129168   3.152   6.556   3.704
 9423SOL    HW229169   3.230   6.619   3.576
 9424SOL     OW29170   4.680   1.855   4.557
 9424SOL    HW129171   4.732   1.883   4.638
 9424SOL    HW229172   4.700   1.917   4.482
 9425SOL     OW29173   5.085   3.966   1.287
 9425SOL    HW129174   4.997   4.005   1.314
 9425SOL    HW229175   5.093   3.873   1.323
 9426SOL     OW29176   3.540   1.820   6.048
 9426SOL    HW129177   3.463   1.797   5.989
 9426SOL    HW229178   3.609   1.747   6.043
 9427SOL     OW29179   3.133   5.642   3.147
 9427SOL    HW129180   3.091   5.687   3.068
 9427SOL    HW229181   3.062   5.603   3.205
 9428SOL     OW29182   6.527   0.944   1.193
 9428SOL    HW129183   6.460   0.935   1.120
 9428SOL    HW229184   6.618   0.922   1.159
 9429SOL     OW29185   2.113   3.800   3.222
 9429SOL    HW129186   2.137   3.850   3.305
 9429SOL    HW229187   2.184   3.815   3.153
 9430SOL     OW29188   0.423   2.743   5.153
 9430SOL    HW129189   0.372   2.658   5.144
 9430SOL    HW229190   0.511   2.726   5.197
 9431SOL     OW29191   6.557   4.479   1.113
 9431SOL    HW129192   6.484   4.419   1.078
 9431SOL    HW229193   6.569   4.556   1.051
 9432SOL     OW29194   5.701   0.525   3.780
 9432SOL    HW129195   5.763   0.469   3.835
 9432SOL    HW229196   5.727   0.621   3.788
 9433SOL     OW29197   3.295   6.239   3.131
 9433SOL    HW129198   3.259   6.305   3.197
 9433SOL    HW229199   3.333   6.288   3.052
 9434SOL     OW29200   5.511   5.950   1.914
 9434SOL    HW129201   5.543   5.866   1.870
 9434SOL    HW229202   5.442   5.927   1.983
 9435SOL     OW29203   0.414   2.718   3.443
 9435SOL    HW129204   0.455   2.672   3.365
 9435SOL    HW229205   0.341   2.779   3.411
 9436SOL     OW29206   1.712   2.556   1.413
 9436SOL    HW129207   1.700   2.639   1.359
 9436SOL    HW229208   1.686   2.476   1.359
 9437SOL     OW29209   0.893   5.987   2.913
 9437SOL    HW129210   0.871   6.026   3.003
 9437SOL    HW229211   0.981   6.024   2.881
 9438SOL     OW29212   0.727   0.256   1.754
 9438SOL    HW129213   0.675   0.208   1.683
 9438SOL    HW229214   0.664   0.299   1.818
 9439SOL     OW29215   0.656   2.976   0.048
 9439SOL    HW129216   0.669   3.073   0.027
 9439SOL    HW229217   0.630   2.965   0.144
 9440SOL     OW29218   3.701   4.963   3.036
 9440SOL    HW129219   3.657   4.931   3.120
 9440SOL    HW229220   3.800   4.953   3.045
 9441SOL     OW29221   5.917   4.638   6.004
 9441SOL    HW129222   5.892   4.690   5.923
 9441SOL    HW229223   5.940   4.700   6.079
 9442SOL     OW29224   5.126   3.711   1.402
 9442SOL    HW129225   5.182   3.681   1.479
 9442SOL    HW229226   5.035   3.672   1.409
 9443SOL     OW29227   2.361   4.903   0.649
 9443SOL    HW129228   2.312   4.915   0.563
 9443SOL    HW229229   2.407   4.814   0.650
 9444SOL     OW29230   1.734   3.574   0.724
 9444SOL    HW129231   1.699   3.622   0.804
 9444SOL    HW229232   1.764   3.482   0.750
 9445SOL     OW29233   6.041   3.263   2.762
 9445SOL    HW129234   6.047   3.348   2.813
 9445SOL    HW229235   6.127   3.213   2.770
 9446SOL     OW29236   6.400   5.359   4.940
 9446SOL    HW129237   6.441   5.268   4.933
 9446SOL    HW229238   6.428   5.413   4.861
 9447SOL     OW29239   5.819   4.881   3.699
 9447SOL    HW129240   5.869   4.801   3.668
 9447SOL    HW229241   5.759   4.914   3.626
 9448SOL     OW29242   7.008   0.190   6.038
 9448SOL    HW129243   6.956   0.273   6.016
 9448SOL    HW229244   6.945   0.118   6.068
 9449SOL     OW29245   5.556   6.887   0.389
 9449SOL    HW129246   5.519   6.980   0.398
 9449SOL    HW229247   5.540   6.837   0.474
 9450SOL     OW29248   2.188   5.950   3.370
 9450SOL    HW129249   2.152   5.965   3.463
 9450SOL    HW229250   2.121   5.897   3.317
 9451SOL     OW29251   4.236   6.484   5.710
 9451SOL    HW129252   4.307   6.548   5.739
 9451SOL    HW229253   4.194   6.441   5.790
 9452SOL     OW29254   1.736   3.963   6.859
 9452SOL    HW129255   1.638   3.979   6.868
 9452SOL    HW229256   1.779   3.965   6.950
 9453SOL     OW29257   2.810   5.444   3.039
 9453SOL    HW129258   2.846   5.350   3.039
 9453SOL    HW229259   2.835   5.489   2.954
 9454SOL     OW29260   3.369   3.595   6.443
 9454SOL    HW129261   3.443   3.660   6.426
 9454SOL    HW229262   3.406   3.512   6.486
 9455SOL     OW29263   2.441   2.109   3.612
 9455SOL    HW129264   2.491   2.033   3.571
 9455SOL    HW229265   2.407   2.082   3.702
 9456SOL     OW29266   6.979   3.086   0.360
 9456SOL    HW129267   6.897   3.075   0.416
 9456SOL    HW229268   6.997   3.183   0.346
 9457SOL     OW29269   1.311   4.111   4.165
 9457SOL    HW129270   1.237   4.124   4.231
 9457SOL    HW229271   1.272   4.096   4.074
 9458SOL     OW29272   0.386   3.739   6.142
 9458SOL    HW129273   0.305   3.789   6.113
 9458SOL    HW229274   0.463   3.802   6.150
 9459SOL     OW29275   5.063   4.815   3.449
 9459SOL    HW129276   5.024   4.888   3.504
 9459SOL    HW229277   5.072   4.846   3.354
 9460SOL     OW29278   1.843   3.928   4.156
 9460SOL    HW129279   1.754   3.888   4.135
 9460SOL    HW229280   1.831   4.016   4.201
 9461SOL     OW29281   0.332   1.914   1.849
 9461SOL    HW129282   0.291   1.959   1.769
 9461SOL    HW229283   0.417   1.960   1.873
 9462SOL     OW29284   1.648   3.253   3.519
 9462SOL    HW129285   1.586   3.327   3.544
 9462SOL    HW229286   1.710   3.234   3.595
 9463SOL     OW29287   6.150   0.238   1.456
 9463SOL    HW129288   6.069   0.236   1.514
 9463SOL    HW229289   6.232   0.222   1.512
 9464SOL     OW29290   5.841   0.290   1.053
 9464SOL    HW129291   5.895   0.358   1.003
 9464SOL    HW229292   5.886   0.269   1.140
 9465SOL     OW29293   0.075   4.140   1.460
 9465SOL    HW129294   0.022   4.148   1.545
 9465SOL    HW229295   0.015   4.108   1.387
 9466SOL     OW29296   3.408   4.637   5.423
 9466SOL    HW129297   3.468   4.561   5.399
 9466SOL    HW229298   3.319   4.601   5.452
 9467SOL     OW29299   1.521   2.552   1.119
 9467SOL    HW129300   1.450   2.496   1.076
 9467SOL    HW229301   1.480   2.634   1.157
 9468SOL     OW29302   5.475   3.901   6.576
 9468SOL    HW129303   5.565   3.914   6.617
 9468SOL    HW229304   5.432   3.990   6.561
 9469SOL     OW29305   0.266   4.912   2.045
 9469SOL    HW129306   0.251   4.881   1.951
 9469SOL    HW229307   0.193   4.975   2.071
 9470SOL     OW29308   4.984   3.112   6.671
 9470SOL    HW129309   5.062   3.117   6.732
 9470SOL    HW229310   4.912   3.055   6.712
 9471SOL     OW29311   6.459   2.715   4.176
 9471SOL    HW129312   6.420   2.628   4.203
 9471SOL    HW229313   6.443   2.730   4.078
 9472SOL     OW29314   6.193   2.853   5.012
 9472SOL    HW129315   6.192   2.938   4.960
 9472SOL    HW229316   6.163   2.778   4.953
 9473SOL     OW29317   3.118   5.052   0.524
 9473SOL    HW129318   3.044   5.024   0.585
 9473SOL    HW229319   3.144   5.147   0.543
 9474SOL     OW29320   0.455   3.552   0.363
 9474SOL    HW129321   0.499   3.515   0.444
 9474SOL    HW229322   0.405   3.480   0.315
 9475SOL     OW29323   3.654   2.927   0.475
 9475SOL    HW129324   3.697   3.014   0.449
 9475SOL    HW229325   3.565   2.919   0.432
 9476SOL     OW29326   4.015   3.891   4.273
 9476SOL    HW129327   4.048   3.976   4.233
 9476SOL    HW229328   4.017   3.818   4.204
 9477SOL     OW29329   0.680   2.911   0.317
 9477SOL    HW129330   0.700   2.827   0.367
 9477SOL    HW229331   0.588   2.943   0.342
 9478SOL     OW29332   5.158   3.383   1.226
 9478SOL    HW129333   5.098   3.303   1.222
 9478SOL    HW229334   5.122   3.454   1.166
 9479SOL     OW29335   4.267   6.676   0.153
 9479SOL    HW129336   4.300   6.708   0.242
 9479SOL    HW229337   4.177   6.633   0.163
 9480SOL     OW29338   5.353   4.680   0.396
 9480SOL    HW129339   5.322   4.594   0.438
 9480SOL    HW229340   5.274   4.730   0.361
 9481SOL     OW29341   4.904   3.201   2.415
 9481SOL    HW129342   4.988   3.146   2.425
 9481SOL    HW229343   4.908   3.251   2.328
 9482SOL     OW29344   0.312   1.077   2.813
 9482SOL    HW129345   0.339   1.152   2.873
 9482SOL    HW229346   0.334   1.101   2.718
 9483SOL     OW29347   1.824   0.175   0.781
 9483SOL    HW129348   1.914   0.209   0.807
 9483SOL    HW229349   1.799   0.097   0.839
 9484SOL     OW29350   4.092   0.048   4.391
 9484SOL    HW129351   4.123   7.004   4.455
 9484SOL    HW229352   4.168   0.109   4.367
 9485SOL     OW29353   0.340   0.837   0.851
 9485SOL    HW129354   0.401   0.912   0.828
 9485SOL    HW229355   0.266   0.831   0.784
 9486SOL     OW29356   3.915   6.282   0.863
 9486SOL    HW129357   3.956   6.199   0.827
 9486SOL    HW229358   3.924   6.283   0.962
 9487SOL     OW29359   3.077   3.913   4.019
 9487SOL    HW129360   3.133   3.848   4.070
 9487SOL    HW229361   3.007   3.864   3.967
 9488SOL     OW29362   2.734   0.251   1.330
 9488SOL    HW129363   2.787   0.332   1.307
 9488SOL    HW229364   2.794   0.172   1.337
 9489SOL     OW29365   4.747   4.390   1.458
 9489SOL    HW129366   4.793   4.458   1.515
 9489SOL    HW229367   4.672   4.349   1.510
 9490SOL     OW29368   5.869   5.390   2.506
 9490SOL    HW129369   5.850   5.310   2.562
 9490SOL    HW229370   5.816   5.468   2.540
 9491SOL     OW29371   5.163   4.632   4.061
 9491SOL    HW129372   5.110   4.551   4.086
 9491SOL    HW229373   5.104   4.712   4.061
 9492SOL     OW29374   3.806   3.426   4.615
 9492SOL    HW129375   3.792   3.465   4.706
 9492SOL    HW229376   3.758   3.339   4.608
 9493SOL     OW29377   2.821   5.982   4.185
 9493SOL    HW129378   2.811   5.972   4.284
 9493SOL    HW229379   2.915   5.961   4.158
 9494SOL     OW29380   5.516   2.878   2.724
 9494SOL    HW129381   5.564   2.932   2.794
 9494SOL    HW229382   5.577   2.806   2.690
 9495SOL     OW29383   6.998   1.903   3.209
 9495SOL    HW129384   0.049   1.919   3.146
 9495SOL    HW229385   6.918   1.873   3.157
 9496SOL     OW29386   6.385   3.589   1.634
 9496SOL    HW129387   6.406   3.683   1.659
 9496SOL    HW229388   6.336   3.545   1.709
 9497SOL     OW29389   5.782   0.039   5.505
 9497SOL    HW129390   5.785   6.995   5.576
 9497SOL    HW229391   5.686   0.060   5.483
 9498SOL     OW29392   5.712   6.001   4.386
 9498SOL    HW129393   5.769   6.080   4.408
 9498SOL    HW229394   5.674   5.964   4.471
 9499SOL     OW29395   2.374   4.872   6.242
 9499SOL    HW129396   2.276   4.850   6.238
 9499SOL    HW229397   2.409   4.848   6.333
 9500SOL     OW29398   4.577   0.453   0.814
 9500SOL    HW129399   4.619   0.458   0.904
 9500SOL    HW229400   4.583   0.360   0.779
 9501SOL     OW29401   2.766   0.999   5.296
 9501SOL    HW129402   2.705   0.966   5.369
 9501SOL    HW229403   2.796   1.092   5.318
 9502SOL     OW29404   5.951   2.571   5.194
 9502SOL    HW129405   5.919   2.619   5.112
 9502SOL    HW229406   5.987   2.638   5.259
 9503SOL     OW29407   0.604   1.225   0.669
 9503SOL    HW129408   0.642   1.294   0.730
 9503SOL    HW229409   0.593   1.263   0.578
 9504SOL     OW29410   6.591   3.374   0.242
 9504SOL    HW129411   6.514   3.331   0.195
 9504SOL    HW229412   6.665   3.391   0.177
 9505SOL     OW29413   5.237   4.242   4.450
 9505SOL    HW129414   5.168   4.207   4.513
 9505SOL    HW229415   5.195   4.305   4.385
 9506SOL     OW29416   1.666   2.413   6.713
 9506SOL    HW129417   1.750   2.380   6.671
 9506SOL    HW229418   1.686   2.496   6.766
 9507SOL     OW29419   0.317   1.117   2.266
 9507SOL    HW129420   0.366   1.033   2.291
 9507SOL    HW229421   0.221   1.109   2.293
 9508SOL     OW29422   6.356   1.903   1.859
 9508SOL    HW129423   6.336   1.805   1.867
 9508SOL    HW229424   6.436   1.915   1.801
 9509SOL     OW29425   0.320   0.955   3.921
 9509SOL    HW129426   0.377   1.026   3.881
 9509SOL    HW229427   0.374   0.872   3.935
 9510SOL     OW29428   1.837   3.757   3.560
 9510SOL    HW129429   1.765   3.723   3.500
 9510SOL    HW229430   1.884   3.680   3.602
 9511SOL     OW29431   1.825   0.209   1.072
 9511SOL    HW129432   1.765   0.139   1.032
 9511SOL    HW229433   1.780   0.298   1.067
 9512SOL     OW29434   6.357   1.774   1.488
 9512SOL    HW129435   6.317   1.772   1.396
 9512SOL    HW229436   6.343   1.864   1.529
 9513SOL     OW29437   2.268   3.776   6.175
 9513SOL    HW129438   2.318   3.863   6.174
 9513SOL    HW229439   2.223   3.764   6.263
 9514SOL     OW29440   2.484   5.481   6.002
 9514SOL    HW129441   2.527   5.459   5.915
 9514SOL    HW229442   2.456   5.397   6.048
 9515SOL     OW29443   1.316   5.639   1.283
 9515SOL    HW129444   1.254   5.562   1.297
 9515SOL    HW229445   1.314   5.666   1.187
 9516SOL     OW29446   6.264   5.247   6.398
 9516SOL    HW129447   6.230   5.165   6.351
 9516SOL    HW229448   6.264   5.324   6.334
 9517SOL     OW29449   1.163   4.086   1.271
 9517SOL    HW129450   1.260   4.063   1.264
 9517SOL    HW229451   1.145   4.127   1.361
 9518SOL     OW29452   2.261   1.802   0.543
 9518SOL    HW129453   2.253   1.828   0.640
 9518SOL    HW229454   2.173   1.768   0.510
 9519SOL     OW29455   3.360   3.266   4.809
 9519SOL    HW129456   3.392   3.352   4.849
 9519SOL    HW229457   3.382   3.190   4.870
 9520SOL     OW29458   1.791   1.997   3.160
 9520SOL    HW129459   1.876   1.944   3.161
 9520SOL    HW229460   1.750   1.992   3.069
 9521SOL     OW29461   5.180   5.821   1.897
 9521SOL    HW129462   5.124   5.740   1.878
 9521SOL    HW229463   5.125   5.887   1.947
 9522SOL     OW29464   2.302   5.651   1.241
 9522SOL    HW129465   2.294   5.585   1.166
 9522SOL    HW229466   2.268   5.610   1.326
 9523SOL     OW29467   3.117   5.164   4.961
 9523SOL    HW129468   3.040   5.123   5.010
 9523SOL    HW229469   3.200   5.157   5.015
 9524SOL     OW29470   3.758   2.807   1.508
 9524SOL    HW129471   3.830   2.739   1.496
 9524SOL    HW229472   3.668   2.764   1.496
 9525SOL     OW29473   2.351   3.029   5.766
 9525SOL    HW129474   2.284   2.961   5.795
 9525SOL    HW229475   2.324   3.067   5.677
 9526SOL     OW29476   5.348   5.437   1.844
 9526SOL    HW129477   5.414   5.474   1.778
 9526SOL    HW229478   5.286   5.510   1.872
 9527SOL     OW29479   0.889   0.342   3.163
 9527SOL    HW129480   0.968   0.399   3.143
 9527SOL    HW229481   0.920   0.249   3.184
 9528SOL     OW29482   0.325   1.247   6.815
 9528SOL    HW129483   0.411   1.225   6.859
 9528SOL    HW229484   0.251   1.242   6.882
 9529SOL     OW29485   6.301   2.934   5.253
 9529SOL    HW129486   6.276   2.929   5.156
 9529SOL    HW229487   6.326   3.028   5.276
 9530SOL     OW29488   1.840   3.591   2.312
 9530SOL    HW129489   1.775   3.537   2.365
 9530SOL    HW229490   1.800   3.613   2.223
 9531SOL     OW29491   4.664   5.652   2.983
 9531SOL    HW129492   4.622   5.587   2.920
 9531SOL    HW229493   4.743   5.608   3.028
 9532SOL     OW29494   0.324   6.986   2.058
 9532SOL    HW129495   0.245   0.022   2.058
 9532SOL    HW229496   0.338   6.948   2.149
 9533SOL     OW29497   6.619   0.005   5.198
 9533SOL    HW129498   6.625   0.081   5.133
 9533SOL    HW229499   6.662   6.949   5.158
 9534SOL     OW29500   6.472   3.258   5.533
 9534SOL    HW129501   6.539   3.308   5.588
 9534SOL    HW229502   6.518   3.186   5.482
 9535SOL     OW29503   2.633   1.291   5.619
 9535SOL    HW129504   2.663   1.387   5.615
 9535SOL    HW229505   2.608   1.261   5.527
 9536SOL     OW29506   3.040   4.650   5.321
 9536SOL    HW129507   3.039   4.723   5.253
 9536SOL    HW229508   2.963   4.588   5.303
 9537SOL     OW29509   2.624   6.612   3.070
 9537SOL    HW129510   2.619   6.684   3.139
 9537SOL    HW229511   2.706   6.624   3.014
 9538SOL     OW29512   6.770   2.264   3.989
 9538SOL    HW129513   6.759   2.278   3.891
 9538SOL    HW229514   6.702   2.318   4.038
 9539SOL     OW29515   1.794   3.781   4.983
 9539SOL    HW129516   1.705   3.802   4.943
 9539SOL    HW229517   1.803   3.682   4.993
 9540SOL     OW29518   5.468   3.860   4.244
 9540SOL    HW129519   5.496   3.882   4.151
 9540SOL    HW229520   5.452   3.762   4.251
 9541SOL     OW29521   3.102   1.857   5.756
 9541SOL    HW129522   3.003   1.851   5.749
 9541SOL    HW229523   3.143   1.772   5.723
 9542SOL     OW29524   5.193   3.896   4.270
 9542SOL    HW129525   5.291   3.875   4.265
 9542SOL    HW229526   5.144   3.818   4.308
 9543SOL     OW29527   3.133   1.074   4.617
 9543SOL    HW129528   3.200   1.128   4.669
 9543SOL    HW229529   3.046   1.122   4.615
 9544SOL     OW29530   0.284   1.426   3.122
 9544SOL    HW129531   0.281   1.415   3.023
 9544SOL    HW229532   0.222   1.361   3.165
 9545SOL     OW29533   6.496   5.222   3.647
 9545SOL    HW129534   6.490   5.123   3.641
 9545SOL    HW229535   6.408   5.259   3.678
 9546SOL     OW29536   2.893   2.652   6.071
 9546SOL    HW129537   2.893   2.554   6.049
 9546SOL    HW229538   2.941   2.666   6.158
 9547SOL     OW29539   2.263   6.377   3.865
 9547SOL    HW129540   2.291   6.344   3.956
 9547SOL    HW229541   2.246   6.475   3.870
 9548SOL     OW29542   5.955   5.954   5.396
 9548SOL    HW129543   5.945   6.021   5.322
 9548SOL    HW229544   6.051   5.950   5.424
 9549SOL     OW29545   2.739   3.688   1.504
 9549SOL    HW129546   2.727   3.592   1.527
 9549SOL    HW229547   2.695   3.708   1.417
 9550SOL     OW29548   0.142   1.386   0.090
 9550SOL    HW129549   0.046   1.380   0.120
 9550SOL    HW229550   0.199   1.330   0.149
 9551SOL     OW29551   6.045   0.881   3.993
 9551SOL    HW129552   5.997   0.798   4.020
 9551SOL    HW229553   6.115   0.903   4.062
 9552SOL     OW29554   1.086   6.083   2.709
 9552SOL    HW129555   1.140   6.052   2.788
 9552SOL    HW229556   1.131   6.162   2.667
 9553SOL     OW29557   6.613   4.157   0.057
 9553SOL    HW129558   6.591   4.066   0.090
 9553SOL    HW229559   6.539   4.220   0.083
 9554SOL     OW29560   2.529   0.433   1.597
 9554SOL    HW129561   2.606   0.400   1.541
 9554SOL    HW229562   2.477   0.355   1.631
 9555SOL     OW29563   0.940   1.135   1.654
 9555SOL    HW129564   0.988   1.065   1.601
 9555SOL    HW229565   0.964   1.126   1.751
 9556SOL     OW29566   2.679   2.710   1.089
 9556SOL    HW129567   2.757   2.651   1.110
 9556SOL    HW229568   2.705   2.776   1.019
 9557SOL     OW29569   6.542   0.833   3.090
 9557SOL    HW129570   6.539   0.923   3.048
 9557SOL    HW229571   6.477   0.772   3.043
 9558SOL     OW29572   6.559   5.721   4.637
 9558SOL    HW129573   6.629   5.765   4.581
 9558SOL    HW229574   6.570   5.750   4.732
 9559SOL     OW29575   0.056   3.821   1.440
 9559SOL    HW129576   0.101   3.736   1.414
 9559SOL    HW229577   6.998   3.832   1.386
 9560SOL     OW29578   1.243   1.550   2.693
 9560SOL    HW129579   1.172   1.551   2.763
 9560SOL    HW229580   1.208   1.509   2.609
 9561SOL     OW29581   1.655   6.387   0.511
 9561SOL    HW129582   1.592   6.463   0.498
 9561SOL    HW229583   1.638   6.317   0.442
 9562SOL     OW29584   3.316   6.669   4.947
 9562SOL    HW129585   3.222   6.639   4.930
 9562SOL    HW229586   3.355   6.616   5.022
 9563SOL     OW29587   6.142   6.597   0.204
 9563SOL    HW129588   6.145   6.681   0.150
 9563SOL    HW229589   6.083   6.531   0.159
 9564SOL     OW29590   2.717   0.138   6.733
 9564SOL    HW129591   2.646   0.112   6.799
 9564SOL    HW229592   2.730   0.237   6.736
 9565SOL     OW29593   3.722   5.934   5.379
 9565SOL    HW129594   3.779   5.858   5.412
 9565SOL    HW229595   3.717   6.004   5.449
 9566SOL     OW29596   3.407   4.911   6.976
 9566SOL    HW129597   3.332   4.849   6.955
 9566SOL    HW229598   3.374   5.005   6.974
 9567SOL     OW29599   6.788   5.032   6.360
 9567SOL    HW129600   6.712   5.028   6.424
 9567SOL    HW229601   6.817   4.940   6.336
 9568SOL     OW29602   5.075   2.808   6.889
 9568SOL    HW129603   5.119   2.871   6.953
 9568SOL    HW229604   5.132   2.727   6.877
 9569SOL     OW29605   6.906   0.703   2.696
 9569SOL    HW129606   6.927   0.791   2.739
 9569SOL    HW229607   6.923   0.708   2.598
 9570SOL     OW29608   0.964   1.991   1.934
 9570SOL    HW129609   0.972   2.014   1.837
 9570SOL    HW229610   0.871   1.958   1.953
 9571SOL     OW29611   2.695   3.943   6.906
 9571SOL    HW129612   2.772   3.981   6.958
 9571SOL    HW229613   2.669   3.855   6.946
 9572SOL     OW29614   1.455   5.309   1.261
 9572SOL    HW129615   1.520   5.309   1.185
 9572SOL    HW229616   1.495   5.259   1.338
 9573SOL     OW29617   0.308   1.531   6.184
 9573SOL    HW129618   0.250   1.610   6.207
 9573SOL    HW229619   0.404   1.559   6.187
 9574SOL     OW29620   3.735   2.958   4.423
 9574SOL    HW129621   3.668   2.947   4.496
 9574SOL    HW229622   3.824   2.984   4.462
 9575SOL     OW29623   5.567   0.313   1.080
 9575SOL    HW129624   5.524   0.356   1.001
 9575SOL    HW229625   5.660   0.285   1.056
 9576SOL     OW29626   3.025   0.639   2.559
 9576SOL    HW129627   3.001   0.659   2.654
 9576SOL    HW229628   3.121   0.664   2.543
 9577SOL     OW29629   1.099   1.038   3.554
 9577SOL    HW129630   1.108   1.113   3.619
 9577SOL    HW229631   1.006   1.002   3.557
 9578SOL     OW29632   6.952   3.871   3.653
 9578SOL    HW129633   7.004   3.786   3.651
 9578SOL    HW229634   6.955   3.909   3.746
 9579SOL     OW29635   1.291   5.178   3.101
 9579SOL    HW129636   1.234   5.256   3.125
 9579SOL    HW229637   1.371   5.210   3.050
 9580SOL     OW29638   4.804   2.988   1.122
 9580SOL    HW129639   4.817   2.933   1.204
 9580SOL    HW229640   4.719   3.040   1.130
 9581SOL     OW29641   1.392   5.321   6.676
 9581SOL    HW129642   1.462   5.388   6.701
 9581SOL    HW229643   1.318   5.324   6.743
 9582SOL     OW29644   4.245   4.731   4.752
 9582SOL    HW129645   4.294   4.674   4.818
 9582SOL    HW229646   4.295   4.733   4.665
 9583SOL     OW29647   2.685   3.434   1.112
 9583SOL    HW129648   2.638   3.483   1.185
 9583SOL    HW229649   2.771   3.397   1.148
 9584SOL     OW29650   6.168   6.306   6.830
 9584SOL    HW129651   6.081   6.260   6.816
 9584SOL    HW229652   6.236   6.268   6.767
 9585SOL     OW29653   6.589   1.091   2.994
 9585SOL    HW129654   6.669   1.145   2.966
 9585SOL    HW229655   6.554   1.127   3.081
 9586SOL     OW29656   6.364   4.153   1.827
 9586SOL    HW129657   6.390   4.228   1.888
 9586SOL    HW229658   6.286   4.104   1.866
 9587SOL     OW29659   6.178   0.206   2.344
 9587SOL    HW129660   6.193   0.247   2.254
 9587SOL    HW229661   6.084   0.222   2.373
 9588SOL     OW29662   0.702   1.735   2.155
 9588SOL    HW129663   0.719   1.795   2.234
 9588SOL    HW229664   0.679   1.791   2.076
 9589SOL     OW29665   3.084   5.782   6.192
 9589SOL    HW129666   3.071   5.802   6.289
 9589SOL    HW229667   3.163   5.721   6.182
 9590SOL     OW29668   6.965   4.963   2.617
 9590SOL    HW129669   6.966   4.876   2.568
 9590SOL    HW229670   0.010   4.962   2.689
 9591SOL     OW29671   3.050   5.713   6.978
 9591SOL    HW129672   3.017   5.626   6.941
 9591SOL    HW229673   2.972   5.766   7.012
 9592SOL     OW29674   3.762   4.953   1.805
 9592SOL    HW129675   3.720   4.900   1.878
 9592SOL    HW229676   3.706   5.032   1.784
 9593SOL     OW29677   5.600   1.023   4.698
 9593SOL    HW129678   5.519   1.037   4.642
 9593SOL    HW229679   5.579   1.042   4.794
 9594SOL     OW29680   0.244   5.863   3.589
 9594SOL    HW129681   0.237   5.822   3.680
 9594SOL    HW229682   0.274   5.795   3.523
 9595SOL     OW29683   1.925   4.375   4.135
 9595SOL    HW129684   1.918   4.472   4.158
 9595SOL    HW229685   1.982   4.365   4.054
 9596SOL     OW29686   0.279   5.512   0.368
 9596SOL    HW129687   0.357   5.543   0.315
 9596SOL    HW229688   0.273   5.565   0.453
 9597SOL     OW29689   6.749   4.211   1.107
 9597SOL    HW129690   6.727   4.252   1.195
 9597SOL    HW229691   6.729   4.276   1.034
 9598SOL     OW29692   0.305   3.686   5.182
 9598SOL    HW129693   0.324   3.589   5.173
 9598SOL    HW229694   0.346   3.721   5.266
 9599SOL     OW29695   3.137   0.816   4.643
 9599SOL    HW129696   3.157   0.913   4.628
 9599SOL    HW229697   3.040   0.805   4.663
 9600SOL     OW29698   2.260   6.853   5.630
 9600SOL    HW129699   2.278   6.875   5.534
 9600SOL    HW229700   2.192   6.780   5.635
 9601SOL     OW29701   6.415   4.237   6.283
 9601SOL    HW129702   6.332   4.254   6.230
 9601SOL    HW229703   6.403   4.272   6.375
 9602SOL     OW29704   6.942   4.803   6.357
 9602SOL    HW129705   6.998   4.760   6.286
 9602SOL    HW229706   7.002   4.834   6.431
 9603SOL     OW29707   2.231   6.984   4.281
 9603SOL    HW129708   2.213   0.046   4.327
 9603SOL    HW229709   2.304   6.996   4.215
 9604SOL     OW29710   4.974   0.529   0.890
 9604SOL    HW129711   5.039   0.501   0.820
 9604SOL    HW229712   4.930   0.615   0.864
 9605SOL     OW29713   0.321   4.683   6.034
 9605SOL    HW129714   0.382   4.612   6.069
 9605SOL    HW229715   0.297   4.664   5.939
 9606SOL     OW29716   0.986   6.751   4.882
 9606SOL    HW129717   0.917   6.787   4.945
 9606SOL    HW229718   1.077   6.770   4.918
 9607SOL     OW29719   1.444   2.187   1.887
 9607SOL    HW129720   1.355   2.169   1.929
 9607SOL    HW229721   1.445   2.150   1.794
 9608SOL     OW29722   0.405   6.776   2.601
 9608SOL    HW129723   0.398   6.676   2.598
 9608SOL    HW229724   0.342   6.812   2.671
 9609SOL     OW29725   1.373   3.955   5.258
 9609SOL    HW129726   1.298   4.009   5.219
 9609SOL    HW229727   1.342   3.861   5.272
 9610SOL     OW29728   1.603   3.702   5.316
 9610SOL    HW129729   1.567   3.793   5.336
 9610SOL    HW229730   1.700   3.699   5.339
 9611SOL     OW29731   0.420   6.720   0.774
 9611SOL    HW129732   0.367   6.763   0.847
 9611SOL    HW229733   0.514   6.708   0.803
 9612SOL     OW29734   6.096   3.084   1.046
 9612SOL    HW129735   6.110   2.988   1.023
 9612SOL    HW229736   6.067   3.092   1.141
 9613SOL     OW29737   5.032   5.835   3.854
 9613SOL    HW129738   5.101   5.824   3.926
 9613SOL    HW229739   5.069   5.893   3.782
 9614SOL     OW29740   4.042   3.631   1.540
 9614SOL    HW129741   3.971   3.609   1.474
 9614SOL    HW229742   4.059   3.729   1.539
 9615SOL     OW29743   1.513   6.216   2.406
 9615SOL    HW129744   1.534   6.285   2.336
 9615SOL    HW229745   1.596   6.163   2.426
 9616SOL     OW29746   4.362   3.427   0.909
 9616SOL    HW129747   4.437   3.457   0.850
 9616SOL    HW229748   4.342   3.497   0.977
 9617SOL     OW29749   1.109   4.217   4.358
 9617SOL    HW129750   1.144   4.310   4.370
 9617SOL    HW229751   1.052   4.192   4.436
 9618SOL     OW29752   3.253   0.316   6.579
 9618SOL    HW129753   3.189   0.291   6.652
 9618SOL    HW229754   3.336   0.353   6.619
 9619SOL     OW29755   1.041   6.993   0.645
 9619SOL    HW129756   1.063   6.915   0.587
 9619SOL    HW229757   1.092   6.986   0.731
 9620SOL     OW29758   4.987   2.018   6.709
 9620SOL    HW129759   4.987   1.981   6.616
 9620SOL    HW229760   4.894   2.011   6.747
 9621SOL     OW29761   1.182   1.044   2.299
 9621SOL    HW129762   1.209   0.988   2.378
 9621SOL    HW229763   1.261   1.093   2.265
 9622SOL     OW29764   6.108   1.272   6.880
 9622SOL    HW129765   6.022   1.322   6.872
 9622SOL    HW229766   6.184   1.337   6.879
 9623SOL     OW29767   4.274   5.136   6.254
 9623SOL    HW129768   4.338   5.110   6.182
 9623SOL    HW229769   4.226   5.220   6.227
 9624SOL     OW29770   5.464   4.315   4.992
 9624SOL    HW129771   5.395   4.341   4.924
 9624SOL    HW229772   5.437   4.349   5.082
 9625SOL     OW29773   4.917   4.457   0.049
 9625SOL    HW129774   4.872   4.368   0.057
 9625SOL    HW229775   4.884   4.517   0.122
 9626SOL     OW29776   2.496   5.759   4.927
 9626SOL    HW129777   2.534   5.734   4.837
 9626SOL    HW229778   2.504   5.857   4.940
 9627SOL     OW29779   0.407   4.379   4.711
 9627SOL    HW129780   0.357   4.424   4.784
 9627SOL    HW229781   0.440   4.290   4.743
 9628SOL     OW29782   5.486   3.382   0.852
 9628SOL    HW129783   5.443   3.410   0.937
 9628SOL    HW229784   5.469   3.452   0.782
 9629SOL     OW29785   6.804   6.040   3.126
 9629SOL    HW129786   6.789   6.067   3.031
 9629SOL    HW229787   6.733   5.976   3.154
 9630SOL     OW29788   6.692   6.398   5.543
 9630SOL    HW129789   6.683   6.315   5.488
 9630SOL    HW229790   6.646   6.386   5.631
 9631SOL     OW29791   4.590   1.745   0.777
 9631SOL    HW129792   4.577   1.833   0.823
 9631SOL    HW229793   4.532   1.676   0.821
 9632SOL     OW29794   1.975   5.392   2.037
 9632SOL    HW129795   2.008   5.389   1.943
 9632SOL    HW229796   2.001   5.308   2.084
 9633SOL     OW29797   4.001   3.853   0.198
 9633SOL    HW129798   4.012   3.933   0.258
 9633SOL    HW229799   4.015   3.769   0.251
 9634SOL     OW29800   6.121   5.468   3.569
 9634SOL    HW129801   6.175   5.530   3.513
 9634SOL    HW229802   6.024   5.477   3.547
 9635SOL     OW29803   1.122   4.577   5.553
 9635SOL    HW129804   1.051   4.637   5.590
 9635SOL    HW229805   1.080   4.511   5.491
 9636SOL     OW29806   4.049   1.525   6.247
 9636SOL    HW129807   3.999   1.601   6.287
 9636SOL    HW229808   4.095   1.473   6.319
 9637SOL     OW29809   3.870   3.256   1.277
 9637SOL    HW129810   3.836   3.218   1.364
 9637SOL    HW229811   3.891   3.182   1.214
 9638SOL     OW29812   6.906   3.259   6.109
 9638SOL    HW129813   6.885   3.161   6.108
 9638SOL    HW229814   6.973   3.279   6.037
 9639SOL     OW29815   4.346   2.470   1.876
 9639SOL    HW129816   4.406   2.499   1.802
 9639SOL    HW229817   4.252   2.465   1.843
 9640SOL     OW29818   3.229   0.551   1.912
 9640SOL    HW129819   3.199   0.511   1.998
 9640SOL    HW229820   3.151   0.561   1.850
 9641SOL     OW29821   5.621   6.362   2.188
 9641SOL    HW129822   5.526   6.333   2.202
 9641SOL    HW229823   5.672   6.287   2.146
 9642SOL     OW29824   1.463   6.541   3.988
 9642SOL    HW129825   1.555   6.505   3.974
 9642SOL    HW229826   1.398   6.491   3.931
 9643SOL     OW29827   5.340   3.635   3.692
 9643SOL    HW129828   5.344   3.616   3.594
 9643SOL    HW229829   5.432   3.639   3.730
 9644SOL     OW29830   1.446   5.735   5.444
 9644SOL    HW129831   1.545   5.741   5.454
 9644SOL    HW229832   1.410   5.673   5.514
 9645SOL     OW29833   2.394   4.619   4.880
 9645SOL    HW129834   2.378   4.569   4.965
 9645SOL    HW229835   2.377   4.716   4.894
 9646SOL     OW29836   2.897   5.663   2.393
 9646SOL    HW129837   2.806   5.695   2.419
 9646SOL    HW229838   2.920   5.583   2.449
 9647SOL     OW29839   0.234   0.141   3.271
 9647SOL    HW129840   0.321   0.111   3.231
 9647SOL    HW229841   0.194   0.066   3.323
 9648SOL     OW29842   4.590   2.706   0.868
 9648SOL    HW129843   4.539   2.735   0.787
 9648SOL    HW229844   4.538   2.729   0.950
 9649SOL     OW29845   2.463   4.134   6.803
 9649SOL    HW129846   2.527   4.061   6.827
 9649SOL    HW229847   2.429   4.178   6.885
 9650SOL     OW29848   4.736   4.244   3.022
 9650SOL    HW129849   4.776   4.287   3.103
 9650SOL    HW229850   4.788   4.162   2.999
 9651SOL     OW29851   4.178   1.315   1.103
 9651SOL    HW129852   4.145   1.221   1.092
 9651SOL    HW229853   4.270   1.313   1.141
 9652SOL     OW29854   0.908   4.775   1.521
 9652SOL    HW129855   0.866   4.866   1.517
 9652SOL    HW229856   0.978   4.767   1.450
 9653SOL     OW29857   4.671   4.512   5.390
 9653SOL    HW129858   4.574   4.493   5.373
 9653SOL    HW229859   4.725   4.431   5.365
 9654SOL     OW29860   3.205   3.633   3.115
 9654SOL    HW129861   3.201   3.695   3.194
 9654SOL    HW229862   3.134   3.658   3.049
 9655SOL     OW29863   0.406   1.742   0.237
 9655SOL    HW129864   0.420   1.815   0.171
 9655SOL    HW229865   0.344   1.674   0.198
 9656SOL     OW29866   4.830   2.620   1.037
 9656SOL    HW129867   4.765   2.648   0.966
 9656SOL    HW229868   4.922   2.650   1.012
 9657SOL     OW29869   5.998   4.340   2.503
 9657SOL    HW129870   6.011   4.423   2.557
 9657SOL    HW229871   5.970   4.364   2.410
 9658SOL     OW29872   5.587   1.876   2.222
 9658SOL    HW129873   5.546   1.859   2.133
 9658SOL    HW229874   5.657   1.947   2.213
 9659SOL     OW29875   0.904   2.559   0.257
 9659SOL    HW129876   0.966   2.635   0.241
 9659SOL    HW229877   0.812   2.594   0.273
 9660SOL     OW29878   0.853   6.961   2.233
 9660SOL    HW129879   0.794   0.011   2.205
 9660SOL    HW229880   0.920   6.994   2.299
 9661SOL     OW29881   4.043   6.116   1.200
 9661SOL    HW129882   4.045   6.113   1.300
 9661SOL    HW229883   4.085   6.033   1.164
 9662SOL     OW29884   5.181   3.734   0.247
 9662SOL    HW129885   5.084   3.741   0.272
 9662SOL    HW229886   5.188   3.707   0.151
 9663SOL     OW29887   0.171   5.680   2.654
 9663SOL    HW129888   0.096   5.647   2.711
 9663SOL    HW229889   0.223   5.749   2.705
 9664SOL     OW29890   5.418   4.635   4.189
 9664SOL    HW129891   5.336   4.617   4.134
 9664SOL    HW229892   5.429   4.733   4.200
 9665SOL     OW29893   6.020   6.372   5.875
 9665SOL    HW129894   6.002   6.353   5.971
 9665SOL    HW229895   6.113   6.343   5.852
 9666SOL     OW29896   6.331   3.480   2.197
 9666SOL    HW129897   6.289   3.445   2.280
 9666SOL    HW229898   6.350   3.578   2.208
 9667SOL     OW29899   3.766   3.449   0.329
 9667SOL    HW129900   3.730   3.518   0.392
 9667SOL    HW229901   3.697   3.427   0.260
 9668SOL     OW29902   1.123   0.760   6.606
 9668SOL    HW129903   1.163   0.766   6.515
 9668SOL    HW229904   1.088   0.668   6.621
 9669SOL     OW29905   1.712   6.934   2.109
 9669SOL    HW129906   1.794   6.989   2.126
 9669SOL    HW229907   1.714   6.852   2.166
 9670SOL     OW29908   0.263   5.224   5.607
 9670SOL    HW129909   0.232   5.221   5.702
 9670SOL    HW229910   0.338   5.290   5.598
 9671SOL     OW29911   6.732   4.000   0.416
 9671SOL    HW129912   6.770   4.053   0.340
 9671SOL    HW229913   6.740   3.903   0.397
 9672SOL     OW29914   2.114   4.868   3.641
 9672SOL    HW129915   2.058   4.907   3.567
 9672SOL    HW229916   2.207   4.903   3.634
 9673SOL     OW29917   3.649   3.506   1.018
 9673SOL    HW129918   3.662   3.584   1.079
 9673SOL    HW229919   3.552   3.485   1.011
 9674SOL     OW29920   4.282   6.577   3.291
 9674SOL    HW129921   4.271   6.675   3.277
 9674SOL    HW229922   4.354   6.543   3.231
 9675SOL     OW29923   4.897   2.336   6.895
 9675SOL    HW129924   4.846   2.372   6.973
 9675SOL    HW229925   4.835   2.320   6.819
 9676SOL     OW29926   1.565   3.236   6.336
 9676SOL    HW129927   1.633   3.256   6.407
 9676SOL    HW229928   1.585   3.291   6.255
 9677SOL     OW29929   6.730   5.053   5.297
 9677SOL    HW129930   6.711   4.963   5.257
 9677SOL    HW229931   6.669   5.069   5.374
 9678SOL     OW29932   2.917   3.421   4.414
 9678SOL    HW129933   2.898   3.419   4.512
 9678SOL    HW229934   2.946   3.512   4.387
 9679SOL     OW29935   2.237   0.058   3.898
 9679SOL    HW129936   2.150   0.010   3.895
 9679SOL    HW229937   2.225   0.152   3.866
 9680SOL     OW29938   4.526   0.297   4.598
 9680SOL    HW129939   4.588   0.373   4.583
 9680SOL    HW229940   4.568   0.212   4.566
 9681SOL     OW29941   2.987   2.410   0.747
 9681SOL    HW129942   2.902   2.458   0.725
 9681SOL    HW229943   3.051   2.420   0.671
 9682SOL     OW29944   4.712   4.176   3.806
 9682SOL    HW129945   4.752   4.084   3.814
 9682SOL    HW229946   4.683   4.191   3.712
 9683SOL     OW29947   3.017   6.830   1.475
 9683SOL    HW129948   3.067   6.763   1.419
 9683SOL    HW229949   2.989   6.906   1.417
 9684SOL     OW29950   0.606   3.744   5.291
 9684SOL    HW129951   0.554   3.685   5.229
 9684SOL    HW229952   0.694   3.701   5.311
 9685SOL     OW29953   4.603   4.156   1.088
 9685SOL    HW129954   4.599   4.159   1.188
 9685SOL    HW229955   4.663   4.230   1.055
 9686SOL     OW29956   0.590   3.190   6.252
 9686SOL    HW129957   0.526   3.246   6.200
 9686SOL    HW229958   0.560   3.094   6.251
 9687SOL     OW29959   0.301   1.192   3.437
 9687SOL    HW129960   0.213   1.236   3.457
 9687SOL    HW229961   0.295   1.094   3.456
 9688SOL     OW29962   1.069   2.507   0.692
 9688SOL    HW129963   1.081   2.574   0.618
 9688SOL    HW229964   0.989   2.531   0.747
 9689SOL     OW29965   1.197   4.594   6.803
 9689SOL    HW129966   1.259   4.543   6.743
 9689SOL    HW229967   1.249   4.633   6.879
 9690SOL     OW29968   6.004   6.333   6.179
 9690SOL    HW129969   6.004   6.320   6.278
 9690SOL    HW229970   6.091   6.372   6.149
 9691SOL     OW29971   2.618   4.282   1.700
 9691SOL    HW129972   2.716   4.263   1.688
 9691SOL    HW229973   2.603   4.380   1.696
 9692SOL     OW29974   4.208   5.937   1.110
 9692SOL    HW129975   4.236   5.902   1.021
 9692SOL    HW229976   4.155   5.868   1.158
 9693SOL     OW29977   6.023   4.198   2.973
 9693SOL    HW129978   6.054   4.104   2.960
 9693SOL    HW229979   5.962   4.224   2.898
 9694SOL     OW29980   3.235   1.408   1.763
 9694SOL    HW129981   3.267   1.364   1.679
 9694SOL    HW229982   3.143   1.375   1.786
 9695SOL     OW29983   6.746   2.703   3.220
 9695SOL    HW129984   6.730   2.737   3.313
 9695SOL    HW229985   6.801   2.770   3.170
 9696SOL     OW29986   5.560   2.772   1.418
 9696SOL    HW129987   5.579   2.764   1.320
 9696SOL    HW229988   5.461   2.774   1.433
 9697SOL     OW29989   0.532   5.794   0.470
 9697SOL    HW129990   0.519   5.883   0.515
 9697SOL    HW229991   0.613   5.749   0.509
 9698SOL     OW29992   5.364   2.570   6.182
 9698SOL    HW129993   5.439   2.512   6.213
 9698SOL    HW229994   5.378   2.596   6.087
 9699SOL     OW29995   6.960   5.691   0.152
 9699SOL    HW129996   6.983   5.599   0.182
 9699SOL    HW229997   0.009   5.729   0.097
 9700SOL     OW29998   6.107   5.319   4.872
 9700SOL    HW129999   6.110   5.269   4.785
 9700SOL    HW230000   6.197   5.318   4.915
 9701SOL     OW30001   4.946   4.235   5.830
 9701SOL    HW130002   4.955   4.137   5.849
 9701SOL    HW230003   4.857   4.252   5.788
 9702SOL     OW30004   3.656   2.506   7.020
 9702SOL    HW130005   3.653   2.536   0.090
 9702SOL    HW230006   3.749   2.517   6.984
 9703SOL     OW30007   4.925   3.468   3.466
 9703SOL    HW130008   4.927   3.399   3.395
 9703SOL    HW230009   5.001   3.453   3.530
 9704SOL     OW30010   3.146   6.267   1.470
 9704SOL    HW130011   3.129   6.169   1.454
 9704SOL    HW230012   3.150   6.284   1.569
 9705SOL     OW30013   5.590   4.156   6.090
 9705SOL    HW130014   5.640   4.175   6.174
 9705SOL    HW230015   5.635   4.081   6.041
 9706SOL     OW30016   2.872   2.297   0.979
 9706SOL    HW130017   2.915   2.207   0.986
 9706SOL    HW230018   2.917   2.349   0.906
 9707SOL     OW30019   6.514   4.526   2.207
 9707SOL    HW130020   6.415   4.541   2.200
 9707SOL    HW230021   6.562   4.610   2.179
 9708SOL     OW30022   0.406   1.604   3.505
 9708SOL    HW130023   0.427   1.698   3.480
 9708SOL    HW230024   0.313   1.581   3.475
 9709SOL     OW30025   5.220   5.882   2.462
 9709SOL    HW130026   5.175   5.797   2.490
 9709SOL    HW230027   5.180   5.958   2.512
 9710SOL     OW30028   6.994   1.642   1.355
 9710SOL    HW130029   0.025   1.672   1.432
 9710SOL    HW230030   6.960   1.723   1.306
 9711SOL     OW30031   4.151   5.527   5.900
 9711SOL    HW130032   4.186   5.443   5.858
 9711SOL    HW230033   4.213   5.557   5.972
 9712SOL     OW30034   5.515   3.414   0.175
 9712SOL    HW130035   5.538   3.490   0.235
 9712SOL    HW230036   5.566   3.333   0.202
 9713SOL     OW30037   2.116   4.262   3.642
 9713SOL    HW130038   2.163   4.274   3.555
 9713SOL    HW230039   2.146   4.177   3.685
 9714SOL     OW30040   4.320   6.638   6.589
 9714SOL    HW130041   4.353   6.701   6.659
 9714SOL    HW230042   4.247   6.684   6.537
 9715SOL     OW30043   5.836   4.279   0.117
 9715SOL    HW130044   5.904   4.236   0.177
 9715SOL    HW230045   5.766   4.213   0.093
 9716SOL     OW30046   3.396   4.273   0.014
 9716SOL    HW130047   3.346   4.231   0.090
 9716SOL    HW230048   3.430   4.363   0.043
 9717SOL     OW30049   5.219   6.785   6.140
 9717SOL    HW130050   5.161   6.837   6.203
 9717SOL    HW230051   5.293   6.845   6.107
 9718SOL     OW30052   4.976   3.623   0.748
 9718SOL    HW130053   4.885   3.659   0.770
 9718SOL    HW230054   5.027   3.693   0.698
 9719SOL     OW30055   5.829   0.852   5.860
 9719SOL    HW130056   5.797   0.941   5.893
 9719SOL    HW230057   5.920   0.833   5.895
 9720SOL     OW30058   0.880   4.236   2.348
 9720SOL    HW130059   0.974   4.204   2.339
 9720SOL    HW230060   0.872   4.295   2.428
 9721SOL     OW30061   0.517   1.272   0.414
 9721SOL    HW130062   0.478   1.350   0.461
 9721SOL    HW230063   0.520   1.291   0.315
 9722SOL     OW30064   3.521   1.548   4.713
 9722SOL    HW130065   3.521   1.647   4.717
 9722SOL    HW230066   3.604   1.516   4.667
 9723SOL     OW30067   3.936   6.891   3.612
 9723SOL    HW130068   3.917   6.932   3.701
 9723SOL    HW230069   3.866   6.920   3.546
 9724SOL     OW30070   1.528   5.285   6.996
 9724SOL    HW130071   1.571   5.342   6.926
 9724SOL    HW230072   1.534   5.189   6.970
 9725SOL     OW30073   4.267   5.990   6.290
 9725SOL    HW130074   4.257   6.022   6.196
 9725SOL    HW230075   4.357   6.017   6.325
 9726SOL     OW30076   4.519   1.130   3.302
 9726SOL    HW130077   4.560   1.167   3.385
 9726SOL    HW230078   4.500   1.204   3.238
 9727SOL     OW30079   0.817   2.237   6.885
 9727SOL    HW130080   0.830   2.178   6.965
 9727SOL    HW230081   0.817   2.181   6.802
 9728SOL     OW30082   0.365   0.766   5.278
 9728SOL    HW130083   0.455   0.791   5.244
 9728SOL    HW230084   0.325   0.696   5.219
 9729SOL     OW30085   1.308   4.375   3.683
 9729SOL    HW130086   1.339   4.415   3.597
 9729SOL    HW230087   1.381   4.318   3.721
 9730SOL     OW30088   1.829   4.729   2.906
 9730SOL    HW130089   1.805   4.722   3.003
 9730SOL    HW230090   1.927   4.749   2.897
 9731SOL     OW30091   5.237   5.541   1.284
 9731SOL    HW130092   5.291   5.599   1.223
 9731SOL    HW230093   5.171   5.597   1.335
 9732SOL     OW30094   0.698   4.021   2.390
 9732SOL    HW130095   0.697   3.977   2.300
 9732SOL    HW230096   0.735   4.114   2.381
 9733SOL     OW30097   5.113   5.460   0.334
 9733SOL    HW130098   5.111   5.514   0.250
 9733SOL    HW230099   5.067   5.372   0.319
 9734SOL     OW30100   6.929   0.603   0.401
 9734SOL    HW130101   7.019   0.614   0.441
 9734SOL    HW230102   6.916   0.507   0.374
 9735SOL     OW30103   1.823   3.111   3.184
 9735SOL    HW130104   1.903   3.172   3.192
 9735SOL    HW230105   1.836   3.032   3.243
 9736SOL     OW30106   5.572   1.473   5.375
 9736SOL    HW130107   5.573   1.468   5.275
 9736SOL    HW230108   5.570   1.380   5.412
 9737SOL     OW30109   5.259   2.299   3.096
 9737SOL    HW130110   5.207   2.236   3.152
 9737SOL    HW230111   5.252   2.392   3.134
 9738SOL     OW30112   2.217   6.786   0.223
 9738SOL    HW130113   2.122   6.756   0.213
 9738SOL    HW230114   2.276   6.707   0.237
 9739SOL     OW30115   4.950   6.023   0.584
 9739SOL    HW130116   4.966   5.967   0.665
 9739SOL    HW230117   4.989   5.978   0.504
 9740SOL     OW30118   0.170   1.697   3.365
 9740SOL    HW130119   0.263   1.724   3.341
 9740SOL    HW230120   0.104   1.755   3.317
 9741SOL     OW30121   2.398   1.026   2.568
 9741SOL    HW130122   2.421   1.018   2.471
 9741SOL    HW230123   2.342   1.108   2.582
 9742SOL     OW30124   3.491   1.208   0.342
 9742SOL    HW130125   3.521   1.267   0.416
 9742SOL    HW230126   3.411   1.248   0.297
 9743SOL     OW30127   0.063   3.641   3.966
 9743SOL    HW130128   0.107   3.553   3.982
 9743SOL    HW230129   0.095   3.679   3.879
 9744SOL     OW30130   0.894   6.651   1.981
 9744SOL    HW130131   0.940   6.736   1.958
 9744SOL    HW230132   0.892   6.592   1.901
 9745SOL     OW30133   4.860   2.648   6.680
 9745SOL    HW130134   4.786   2.637   6.745
 9745SOL    HW230135   4.947   2.624   6.724
 9746SOL     OW30136   5.843   0.439   5.923
 9746SOL    HW130137   5.811   0.365   5.984
 9746SOL    HW230138   5.934   0.468   5.952
 9747SOL     OW30139   2.800   2.089   1.702
 9747SOL    HW130140   2.744   2.152   1.648
 9747SOL    HW230141   2.796   2.114   1.799
 9748SOL     OW30142   5.962   6.871   3.628
 9748SOL    HW130143   6.028   6.945   3.615
 9748SOL    HW230144   5.873   6.909   3.654
 9749SOL     OW30145   1.449   0.423   4.362
 9749SOL    HW130146   1.494   0.471   4.437
 9749SOL    HW230147   1.350   0.423   4.375
 9750SOL     OW30148   5.852   5.313   3.377
 9750SOL    HW130149   5.781   5.327   3.307
 9750SOL    HW230150   5.842   5.382   3.449
 9751SOL     OW30151   2.220   0.232   1.279
 9751SOL    HW130152   2.308   0.193   1.309
 9751SOL    HW230153   2.209   0.215   1.181
 9752SOL     OW30154   4.084   1.588   5.451
 9752SOL    HW130155   4.015   1.610   5.381
 9752SOL    HW230156   4.173   1.578   5.407
 9753SOL     OW30157   0.257   5.718   6.439
 9753SOL    HW130158   0.330   5.740   6.503
 9753SOL    HW230159   0.291   5.658   6.367
 9754SOL     OW30160   1.804   6.964   0.917
 9754SOL    HW130161   1.851   6.947   1.004
 9754SOL    HW230162   1.775   6.877   0.878
 9755SOL     OW30163   3.745   3.621   4.426
 9755SOL    HW130164   3.829   3.673   4.440
 9755SOL    HW230165   3.746   3.541   4.487
 9756SOL     OW30166   5.449   2.700   5.965
 9756SOL    HW130167   5.522   2.765   5.947
 9756SOL    HW230168   5.407   2.673   5.878
 9757SOL     OW30169   5.731   4.643   4.064
 9757SOL    HW130170   5.726   4.678   4.158
 9757SOL    HW230171   5.774   4.712   4.005
 9758SOL     OW30172   2.176   0.536   6.981
 9758SOL    HW130173   2.213   0.558   0.045
 9758SOL    HW230174   2.217   0.451   6.948
 9759SOL     OW30175   1.513   0.987   6.907
 9759SOL    HW130176   1.604   0.949   6.920
 9759SOL    HW230177   1.445   0.914   6.913
 9760SOL     OW30178   4.949   3.344   5.605
 9760SOL    HW130179   4.893   3.263   5.623
 9760SOL    HW230180   5.044   3.326   5.630
 9761SOL     OW30181   0.647   1.777   1.692
 9761SOL    HW130182   0.705   1.704   1.726
 9761SOL    HW230183   0.613   1.754   1.601
 9762SOL     OW30184   3.338   2.160   4.509
 9762SOL    HW130185   3.281   2.151   4.428
 9762SOL    HW230186   3.289   2.213   4.579
 9763SOL     OW30187   4.779   2.160   3.022
 9763SOL    HW130188   4.807   2.085   3.081
 9763SOL    HW230189   4.814   2.145   2.929
 9764SOL     OW30190   6.356   3.267   3.333
 9764SOL    HW130191   6.258   3.289   3.332
 9764SOL    HW230192   6.367   3.170   3.355
 9765SOL     OW30193   6.480   6.696   3.540
 9765SOL    HW130194   6.443   6.639   3.614
 9765SOL    HW230195   6.573   6.666   3.518
 9766SOL     OW30196   2.618   6.777   2.251
 9766SOL    HW130197   2.613   6.832   2.168
 9766SOL    HW230198   2.683   6.702   2.238
 9767SOL     OW30199   3.492   1.647   5.441
 9767SOL    HW130200   3.550   1.722   5.473
 9767SOL    HW230201   3.457   1.670   5.350
 9768SOL     OW30202   5.294   1.285   1.618
 9768SOL    HW130203   5.344   1.359   1.574
 9768SOL    HW230204   5.259   1.222   1.548
 9769SOL     OW30205   4.285   0.406   4.533
 9769SOL    HW130206   4.373   0.365   4.557
 9769SOL    HW230207   4.272   0.490   4.586
 9770SOL     OW30208   3.723   0.812   6.230
 9770SOL    HW130209   3.816   0.784   6.252
 9770SOL    HW230210   3.714   0.823   6.131
 9771SOL     OW30211   2.623   5.535   0.532
 9771SOL    HW130212   2.661   5.620   0.495
 9771SOL    HW230213   2.533   5.518   0.491
 9772SOL     OW30214   1.041   5.953   1.500
 9772SOL    HW130215   0.983   5.947   1.419
 9772SOL    HW230216   1.135   5.926   1.477
 9773SOL     OW30217   5.402   5.414   4.643
 9773SOL    HW130218   5.322   5.368   4.605
 9773SOL    HW230219   5.446   5.469   4.571
 9774SOL     OW30220   6.498   5.640   2.073
 9774SOL    HW130221   6.514   5.584   1.992
 9774SOL    HW230222   6.578   5.699   2.089
 9775SOL     OW30223   2.819   0.507   3.601
 9775SOL    HW130224   2.886   0.486   3.672
 9775SOL    HW230225   2.740   0.447   3.611
 9776SOL     OW30226   6.968   4.637   5.445
 9776SOL    HW130227   6.985   4.733   5.462
 9776SOL    HW230228   7.000   4.613   5.353
 9777SOL     OW30229   5.869   5.598   0.112
 9777SOL    HW130230   5.861   5.572   0.015
 9777SOL    HW230231   5.951   5.653   0.125
 9778SOL     OW30232   0.326   1.932   4.407
 9778SOL    HW130233   0.283   1.939   4.317
 9778SOL    HW230234   0.373   2.017   4.428
 9779SOL     OW30235   0.463   1.889   3.986
 9779SOL    HW130236   0.504   1.827   3.919
 9779SOL    HW230237   0.392   1.944   3.942
 9780SOL     OW30238   2.302   2.459   0.390
 9780SOL    HW130239   2.237   2.487   0.319
 9780SOL    HW230240   2.381   2.415   0.347
 9781SOL     OW30241   2.393   2.249   4.739
 9781SOL    HW130242   2.312   2.307   4.731
 9781SOL    HW230243   2.401   2.216   4.833
 9782SOL     OW30244   0.511   1.067   0.883
 9782SOL    HW130245   0.597   1.083   0.931
 9782SOL    HW230246   0.513   1.114   0.795
 9783SOL     OW30247   4.776   2.892   3.101
 9783SOL    HW130248   4.864   2.846   3.090
 9783SOL    HW230249   4.753   2.897   3.199
 9784SOL     OW30250   3.484   2.364   6.397
 9784SOL    HW130251   3.452   2.389   6.306
 9784SOL    HW230252   3.536   2.278   6.393
 9785SOL     OW30253   0.735   2.025   5.869
 9785SOL    HW130254   0.729   1.979   5.780
 9785SOL    HW230255   0.683   1.973   5.937
 9786SOL     OW30256   2.948   3.951   0.412
 9786SOL    HW130257   3.007   3.949   0.332
 9786SOL    HW230258   3.002   3.937   0.495
 9787SOL     OW30259   3.283   3.337   2.672
 9787SOL    HW130260   3.220   3.414   2.663
 9787SOL    HW230261   3.233   3.251   2.665
 9788SOL     OW30262   0.750   0.123   3.541
 9788SOL    HW130263   0.762   0.218   3.572
 9788SOL    HW230264   0.838   0.087   3.510
 9789SOL     OW30265   1.560   5.053   0.792
 9789SOL    HW130266   1.596   4.965   0.824
 9789SOL    HW230267   1.460   5.048   0.788
 9790SOL     OW30268   6.769   5.138   6.715
 9790SOL    HW130269   6.853   5.085   6.725
 9790SOL    HW230270   6.749   5.153   6.618
 9791SOL     OW30271   0.600   0.363   7.009
 9791SOL    HW130272   0.594   0.312   0.069
 9791SOL    HW230273   0.632   0.456   0.002
 9792SOL     OW30274   3.280   4.015   0.846
 9792SOL    HW130275   3.293   3.988   0.750
 9792SOL    HW230276   3.187   3.991   0.875
 9793SOL     OW30277   3.980   0.109   2.502
 9793SOL    HW130278   4.068   0.064   2.520
 9793SOL    HW230279   3.974   0.194   2.555
 9794SOL     OW30280   0.059   3.887   6.766
 9794SOL    HW130281   0.045   3.973   6.717
 9794SOL    HW230282   0.156   3.878   6.790
 9795SOL     OW30283   1.439   1.775   4.422
 9795SOL    HW130284   1.538   1.787   4.426
 9795SOL    HW230285   1.404   1.749   4.512
 9796SOL     OW30286   3.283   2.934   2.706
 9796SOL    HW130287   3.221   2.983   2.645
 9796SOL    HW230288   3.270   2.967   2.800
 9797SOL     OW30289   2.132   5.599   0.292
 9797SOL    HW130290   2.044   5.643   0.311
 9797SOL    HW230291   2.201   5.634   0.355
 9798SOL     OW30292   3.315   0.272   2.354
 9798SOL    HW130293   3.223   0.257   2.391
 9798SOL    HW230294   3.365   0.334   2.414
 9799SOL     OW30295   2.896   4.022   5.281
 9799SOL    HW130296   2.878   3.926   5.260
 9799SOL    HW230297   2.813   4.065   5.316
 9800SOL     OW30298   4.896   4.920   4.899
 9800SOL    HW130299   4.852   4.993   4.952
 9800SOL    HW230300   4.928   4.849   4.961
 9801SOL     OW30301   4.976   3.920   0.047
 9801SOL    HW130302   4.935   3.978   7.001
 9801SOL    HW230303   5.001   3.832   0.007
 9802SOL     OW30304   6.751   4.336   1.851
 9802SOL    HW130305   6.849   4.333   1.873
 9802SOL    HW230306   6.706   4.256   1.891
 9803SOL     OW30307   1.636   2.135   6.258
 9803SOL    HW130308   1.693   2.209   6.222
 9803SOL    HW230309   1.565   2.113   6.191
 9804SOL     OW30310   1.351   5.864   3.316
 9804SOL    HW130311   1.345   5.918   3.400
 9804SOL    HW230312   1.439   5.818   3.313
 9805SOL     OW30313   1.073   6.602   3.216
 9805SOL    HW130314   0.975   6.620   3.222
 9805SOL    HW230315   1.114   6.661   3.146
 9806SOL     OW30316   1.772   0.832   6.944
 9806SOL    HW130317   1.790   0.930   6.930
 9806SOL    HW230318   1.848   0.779   6.905
 9807SOL     OW30319   3.813   4.155   0.936
 9807SOL    HW130320   3.747   4.162   0.861
 9807SOL    HW230321   3.768   4.173   1.023
 9808SOL     OW30322   3.607   6.876   5.092
 9808SOL    HW130323   3.541   6.848   5.163
 9808SOL    HW230324   3.634   6.796   5.039
 9809SOL     OW30325   0.698   3.507   6.242
 9809SOL    HW130326   0.604   3.511   6.208
 9809SOL    HW230327   0.724   3.412   6.259
 9810SOL     OW30328   2.133   2.570   3.898
 9810SOL    HW130329   2.062   2.640   3.907
 9810SOL    HW230330   2.212   2.609   3.851
 9811SOL     OW30331   5.475   4.761   2.951
 9811SOL    HW130332   5.396   4.700   2.944
 9811SOL    HW230333   5.499   4.772   3.048
 9812SOL     OW30334   3.851   1.576   5.613
 9812SOL    HW130335   3.889   1.493   5.654
 9812SOL    HW230336   3.911   1.608   5.540
 9813SOL     OW30337   4.709   1.498   0.657
 9813SOL    HW130338   4.678   1.500   0.562
 9813SOL    HW230339   4.689   1.586   0.700
 9814SOL     OW30340   6.829   0.288   6.772
 9814SOL    HW130341   6.808   0.366   6.830
 9814SOL    HW230342   6.910   0.309   6.716
 9815SOL     OW30343   5.334   3.720   4.823
 9815SOL    HW130344   5.321   3.768   4.910
 9815SOL    HW230345   5.310   3.782   4.748
 9816SOL     OW30346   0.922   0.740   6.198
 9816SOL    HW130347   0.949   0.718   6.104
 9816SOL    HW230348   0.924   0.658   6.254
 9817SOL     OW30349   2.877   6.578   3.261
 9817SOL    HW130350   2.870   6.479   3.279
 9817SOL    HW230351   2.933   6.593   3.181
 9818SOL     OW30352   0.915   0.256   3.978
 9818SOL    HW130353   0.928   0.158   3.994
 9818SOL    HW230354   0.970   0.284   3.899
 9819SOL     OW30355   4.878   3.674   3.639
 9819SOL    HW130356   4.845   3.593   3.591
 9819SOL    HW230357   4.962   3.652   3.689
 9820SOL     OW30358   4.246   3.157   6.165
 9820SOL    HW130359   4.222   3.174   6.070
 9820SOL    HW230360   4.169   3.182   6.224
 9821SOL     OW30361   5.098   1.068   6.311
 9821SOL    HW130362   5.084   0.997   6.380
 9821SOL    HW230363   5.081   1.158   6.350
 9822SOL     OW30364   1.809   0.333   3.514
 9822SOL    HW130365   1.709   0.324   3.508
 9822SOL    HW230366   1.850   0.306   3.427
 9823SOL     OW30367   2.679   0.985   0.353
 9823SOL    HW130368   2.615   1.056   0.322
 9823SOL    HW230369   2.754   0.977   0.287
 9824SOL     OW30370   1.545   5.160   4.419
 9824SOL    HW130371   1.599   5.076   4.426
 9824SOL    HW230372   1.606   5.239   4.423
 9825SOL     OW30373   5.127   5.691   5.215
 9825SOL    HW130374   5.052   5.668   5.278
 9825SOL    HW230375   5.163   5.781   5.240
 9826SOL     OW30376   4.838   4.968   6.221
 9826SOL    HW130377   4.746   4.972   6.260
 9826SOL    HW230378   4.847   5.037   6.149
 9827SOL     OW30379   2.099   3.274   3.648
 9827SOL    HW130380   2.017   3.233   3.688
 9827SOL    HW230381   2.151   3.322   3.719
 9828SOL     OW30382   2.458   2.651   5.548
 9828SOL    HW130383   2.496   2.733   5.506
 9828SOL    HW230384   2.526   2.609   5.608
 9829SOL     OW30385   4.122   4.941   6.776
 9829SOL    HW130386   4.112   4.889   6.690
 9829SOL    HW230387   4.210   4.920   6.818
 9830SOL     OW30388   5.981   2.232   2.261
 9830SOL    HW130389   6.061   2.280   2.225
 9830SOL    HW230390   5.938   2.179   2.189
 9831SOL     OW30391   2.508   5.024   1.042
 9831SOL    HW130392   2.487   4.945   1.100
 9831SOL    HW230393   2.424   5.076   1.025
 9832SOL     OW30394   5.196   5.228   2.693
 9832SOL    HW130395   5.229   5.285   2.768
 9832SOL    HW230396   5.107   5.261   2.662
 9833SOL     OW30397   3.332   3.313   5.246
 9833SOL    HW130398   3.292   3.277   5.162
 9833SOL    HW230399   3.413   3.369   5.223
 9834SOL     OW30400   2.919   4.319   5.352
 9834SOL    HW130401   2.886   4.392   5.293
 9834SOL    HW230402   2.874   4.233   5.327
 9835SOL     OW30403   4.024   3.324   5.280
 9835SOL    HW130404   3.939   3.359   5.240
 9835SOL    HW230405   4.005   3.285   5.370
 9836SOL     OW30406   6.834   4.512   3.406
 9836SOL    HW130407   6.864   4.604   3.380
 9836SOL    HW230408   6.827   4.455   3.324
 9837SOL     OW30409   3.428   0.533   2.854
 9837SOL    HW130410   3.394   0.439   2.850
 9837SOL    HW230411   3.382   0.582   2.928
 9838SOL     OW30412   1.769   0.096   6.592
 9838SOL    HW130413   1.843   0.028   6.598
 9838SOL    HW230414   1.682   0.048   6.577
 9839SOL     OW30415   5.457   0.443   3.684
 9839SOL    HW130416   5.552   0.469   3.701
 9839SOL    HW230417   5.446   0.345   3.697
 9840SOL     OW30418   5.764   1.476   0.879
 9840SOL    HW130419   5.801   1.383   0.889
 9840SOL    HW230420   5.676   1.482   0.926
 9841SOL     OW30421   2.217   5.041   5.560
 9841SOL    HW130422   2.232   5.140   5.562
 9841SOL    HW230423   2.280   5.000   5.494
 9842SOL     OW30424   3.866   3.511   2.235
 9842SOL    HW130425   3.816   3.431   2.267
 9842SOL    HW230426   3.876   3.576   2.311
 9843SOL     OW30427   6.084   0.843   1.262
 9843SOL    HW130428   6.007   0.824   1.322
 9843SOL    HW230429   6.063   0.811   1.169
 9844SOL     OW30430   6.366   0.888   2.255
 9844SOL    HW130431   6.266   0.883   2.251
 9844SOL    HW230432   6.399   0.822   2.322
 9845SOL     OW30433   1.987   2.767   3.077
 9845SOL    HW130434   2.060   2.747   3.012
 9845SOL    HW230435   1.926   2.836   3.039
 9846SOL     OW30436   3.695   3.316   2.336
 9846SOL    HW130437   3.670   3.310   2.240
 9846SOL    HW230438   3.681   3.228   2.380
 9847SOL     OW30439   3.504   2.849   3.927
 9847SOL    HW130440   3.486   2.753   3.906
 9847SOL    HW230441   3.540   2.858   4.019
 9848SOL     OW30442   3.585   3.395   5.133
 9848SOL    HW130443   3.537   3.434   5.054
 9848SOL    HW230444   3.666   3.449   5.153
 9849SOL     OW30445   0.916   6.789   6.588
 9849SOL    HW130446   0.934   6.798   6.686
 9849SOL    HW230447   0.941   6.874   6.542
 9850SOL     OW30448   5.707   6.728   4.039
 9850SOL    HW130449   5.638   6.699   4.105
 9850SOL    HW230450   5.753   6.810   4.073
 9851SOL     OW30451   6.305   0.662   4.535
 9851SOL    HW130452   6.363   0.659   4.617
 9851SOL    HW230453   6.214   0.695   4.560
 9852SOL     OW30454   3.981   2.202   3.836
 9852SOL    HW130455   3.927   2.169   3.914
 9852SOL    HW230456   4.078   2.195   3.857
 9853SOL     OW30457   5.015   3.859   4.799
 9853SOL    HW130458   5.040   3.895   4.889
 9853SOL    HW230459   5.017   3.933   4.732
 9854SOL     OW30460   0.013   5.491   5.051
 9854SOL    HW130461   6.952   5.441   5.042
 9854SOL    HW230462   0.012   5.569   4.988
 9855SOL     OW30463   2.249   3.406   1.053
 9855SOL    HW130464   2.269   3.321   1.102
 9855SOL    HW230465   2.293   3.482   1.100
 9856SOL     OW30466   4.791   4.073   5.192
 9856SOL    HW130467   4.697   4.059   5.160
 9856SOL    HW230468   4.845   3.990   5.175
 9857SOL     OW30469   4.697   2.823   2.835
 9857SOL    HW130470   4.752   2.878   2.773
 9857SOL    HW230471   4.730   2.834   2.929
 9858SOL     OW30472   0.187   0.888   1.255
 9858SOL    HW130473   0.213   0.821   1.325
 9858SOL    HW230474   0.210   0.980   1.286
 9859SOL     OW30475   6.454   6.900   2.594
 9859SOL    HW130476   6.366   6.948   2.592
 9859SOL    HW230477   6.475   6.873   2.688
 9860SOL     OW30478   1.168   1.540   3.434
 9860SOL    HW130479   1.256   1.580   3.407
 9860SOL    HW230480   1.181   1.445   3.462
 9861SOL     OW30481   3.014   0.295   3.577
 9861SOL    HW130482   3.103   0.326   3.611
 9861SOL    HW230483   2.998   0.337   3.487
 9862SOL     OW30484   3.846   3.187   0.206
 9862SOL    HW130485   3.796   3.168   0.291
 9862SOL    HW230486   3.799   3.260   0.155
 9863SOL     OW30487   3.333   0.243   2.738
 9863SOL    HW130488   3.235   0.234   2.756
 9863SOL    HW230489   3.364   0.168   2.681
 9864SOL     OW30490   3.687   6.891   3.841
 9864SOL    HW130491   3.701   6.812   3.782
 9864SOL    HW230492   3.669   6.859   3.935
 9865SOL     OW30493   1.141   0.284   4.734
 9865SOL    HW130494   1.135   0.376   4.773
 9865SOL    HW230495   1.078   0.276   4.657
 9866SOL     OW30496   5.164   4.403   6.290
 9866SOL    HW130497   5.226   4.478   6.266
 9866SOL    HW230498   5.075   4.441   6.317
 9867SOL     OW30499   6.444   1.129   0.956
 9867SOL    HW130500   6.361   1.083   0.989
 9867SOL    HW230501   6.484   1.076   0.881
 9868SOL     OW30502   0.431   3.687   5.636
 9868SOL    HW130503   0.490   3.649   5.564
 9868SOL    HW230504   0.482   3.690   5.722
 9869SOL     OW30505   1.490   3.010   1.373
 9869SOL    HW130506   1.540   3.095   1.358
 9869SOL    HW230507   1.532   2.959   1.449
 9870SOL     OW30508   3.585   6.364   2.851
 9870SOL    HW130509   3.593   6.265   2.844
 9870SOL    HW230510   3.649   6.408   2.788
 9871SOL     OW30511   0.119   5.819   5.905
 9871SOL    HW130512   0.187   5.889   5.928
 9871SOL    HW230513   0.102   5.760   5.984
 9872SOL     OW30514   2.518   5.782   4.512
 9872SOL    HW130515   2.538   5.730   4.429
 9872SOL    HW230516   2.593   5.845   4.531
 9873SOL     OW30517   2.342   2.719   0.430
 9873SOL    HW130518   2.339   2.774   0.347
 9873SOL    HW230519   2.364   2.625   0.408
 9874SOL     OW30520   5.842   3.112   5.160
 9874SOL    HW130521   5.860   3.038   5.095
 9874SOL    HW230522   5.879   3.198   5.123
 9875SOL     OW30523   5.637   6.119   1.717
 9875SOL    HW130524   5.628   6.218   1.733
 9875SOL    HW230525   5.577   6.070   1.780
 9876SOL     OW30526   6.398   0.494   3.827
 9876SOL    HW130527   6.442   0.414   3.786
 9876SOL    HW230528   6.377   0.475   3.923
 9877SOL     OW30529   7.008   5.513   4.276
 9877SOL    HW130530   6.944   5.438   4.264
 9877SOL    HW230531   0.076   5.478   4.267
 9878SOL     OW30532   2.640   4.348   5.830
 9878SOL    HW130533   2.718   4.375   5.887
 9878SOL    HW230534   2.671   4.333   5.736
 9879SOL     OW30535   5.724   5.754   5.207
 9879SOL    HW130536   5.698   5.660   5.186
 9879SOL    HW230537   5.790   5.755   5.282
 9880SOL     OW30538   3.838   0.902   6.929
 9880SOL    HW130539   3.826   0.943   7.019
 9880SOL    HW230540   3.808   0.807   6.932
 9881SOL     OW30541   1.162   1.255   4.347
 9881SOL    HW130542   1.229   1.202   4.399
 9881SOL    HW230543   1.073   1.207   4.349
 9882SOL     OW30544   1.497   3.223   4.278
 9882SOL    HW130545   1.429   3.293   4.256
 9882SOL    HW230546   1.501   3.156   4.204
 9883SOL     OW30547   1.422   6.072   1.229
 9883SOL    HW130548   1.358   6.104   1.160
 9883SOL    HW230549   1.410   6.125   1.313
 9884SOL     OW30550   4.864   2.451   1.647
 9884SOL    HW130551   4.798   2.509   1.601
 9884SOL    HW230552   4.824   2.415   1.731
 9885SOL     OW30553   0.049   2.328   5.007
 9885SOL    HW130554   0.065   2.266   4.930
 9885SOL    HW230555   0.011   2.277   5.084
 9886SOL     OW30556   1.320   4.893   1.947
 9886SOL    HW130557   1.420   4.900   1.942
 9886SOL    HW230558   1.295   4.797   1.957
 9887SOL     OW30559   4.473   0.278   6.724
 9887SOL    HW130560   4.494   0.356   6.665
 9887SOL    HW230561   4.386   0.295   6.771
 9888SOL     OW30562   5.570   4.874   2.384
 9888SOL    HW130563   5.590   4.792   2.330
 9888SOL    HW230564   5.591   4.856   2.480
 9889SOL     OW30565   6.439   4.865   0.886
 9889SOL    HW130566   6.355   4.891   0.838
 9889SOL    HW230567   6.478   4.785   0.842
 9890SOL     OW30568   0.898   3.080   0.932
 9890SOL    HW130569   0.875   2.984   0.945
 9890SOL    HW230570   0.952   3.091   0.848
 9891SOL     OW30571   5.906   3.230   1.516
 9891SOL    HW130572   5.826   3.179   1.484
 9891SOL    HW230573   5.901   3.324   1.482
 9892SOL     OW30574   1.580   4.676   2.163
 9892SOL    HW130575   1.635   4.601   2.128
 9892SOL    HW230576   1.627   4.763   2.145
 9893SOL     OW30577   0.338   0.612   2.199
 9893SOL    HW130578   0.256   0.670   2.202
 9893SOL    HW230579   0.348   0.572   2.108
 9894SOL     OW30580   2.976   2.627   0.133
 9894SOL    HW130581   2.981   2.725   0.113
 9894SOL    HW230582   2.902   2.586   0.080
 9895SOL     OW30583   5.552   3.652   5.006
 9895SOL    HW130584   5.539   3.569   5.060
 9895SOL    HW230585   5.471   3.669   4.951
 9896SOL     OW30586   6.102   1.124   0.676
 9896SOL    HW130587   6.138   1.165   0.760
 9896SOL    HW230588   6.159   1.046   0.650
 9897SOL     OW30589   6.177   6.982   2.492
 9897SOL    HW130590   6.185   0.046   2.448
 9897SOL    HW230591   6.088   6.943   2.472
 9898SOL     OW30592   1.341   5.339   5.818
 9898SOL    HW130593   1.350   5.283   5.900
 9898SOL    HW230594   1.244   5.347   5.794
 9899SOL     OW30595   1.239   5.322   1.638
 9899SOL    HW130596   1.188   5.399   1.678
 9899SOL    HW230597   1.247   5.249   1.706
 9900SOL     OW30598   1.374   3.127   2.627
 9900SOL    HW130599   1.372   3.226   2.614
 9900SOL    HW230600   1.466   3.099   2.654
 9901SOL     OW30601   2.988   0.827   6.499
 9901SOL    HW130602   3.034   0.781   6.423
 9901SOL    HW230603   3.053   0.885   6.547
 9902SOL     OW30604   3.248   4.216   1.216
 9902SOL    HW130605   3.174   4.150   1.204
 9902SOL    HW230606   3.259   4.235   1.313
 9903SOL     OW30607   5.472   1.443   1.449
 9903SOL    HW130608   5.526   1.526   1.441
 9903SOL    HW230609   5.530   1.363   1.436
 9904SOL     OW30610   0.722   3.742   6.608
 9904SOL    HW130611   0.695   3.653   6.571
 9904SOL    HW230612   0.647   3.779   6.664
 9905SOL     OW30613   2.449   0.193   5.646
 9905SOL    HW130614   2.485   0.282   5.675
 9905SOL    HW230615   2.375   0.166   5.708
 9906SOL     OW30616   1.756   2.989   0.726
 9906SOL    HW130617   1.722   3.064   0.669
 9906SOL    HW230618   1.847   2.962   0.696
 9907SOL     OW30619   1.677   0.751   1.246
 9907SOL    HW130620   1.744   0.778   1.315
 9907SOL    HW230621   1.587   0.745   1.289
 9908SOL     OW30622   6.503   2.276   4.924
 9908SOL    HW130623   6.458   2.365   4.936
 9908SOL    HW230624   6.593   2.290   4.883
 9909SOL     OW30625   3.974   0.673   2.458
 9909SOL    HW130626   4.042   0.604   2.482
 9909SOL    HW230627   3.961   0.674   2.359
 9910SOL     OW30628   1.182   5.259   2.018
 9910SOL    HW130629   1.173   5.357   2.030
 9910SOL    HW230630   1.120   5.211   2.080
 9911SOL     OW30631   2.411   6.119   2.333
 9911SOL    HW130632   2.498   6.099   2.289
 9911SOL    HW230633   2.337   6.108   2.267
 9912SOL     OW30634   3.695   1.549   1.074
 9912SOL    HW130635   3.750   1.484   1.127
 9912SOL    HW230636   3.737   1.563   0.984
 9913SOL     OW30637   6.256   3.394   0.719
 9913SOL    HW130638   6.180   3.348   0.672
 9913SOL    HW230639   6.331   3.407   0.655
 9914SOL     OW30640   6.199   0.404   5.477
 9914SOL    HW130641   6.238   0.485   5.523
 9914SOL    HW230642   6.250   0.323   5.504
 9915SOL     OW30643   5.854   0.925   3.652
 9915SOL    HW130644   5.849   0.974   3.739
 9915SOL    HW230645   5.942   0.877   3.646
 9916SOL     OW30646   1.947   2.581   3.276
 9916SOL    HW130647   1.960   2.617   3.184
 9916SOL    HW230648   2.032   2.539   3.308
 9917SOL     OW30649   3.794   3.769   5.785
 9917SOL    HW130650   3.707   3.817   5.783
 9917SOL    HW230651   3.857   3.816   5.846
 9918SOL     OW30652   1.482   2.543   2.915
 9918SOL    HW130653   1.570   2.581   2.883
 9918SOL    HW230654   1.431   2.508   2.837
 9919SOL     OW30655   1.979   5.264   1.129
 9919SOL    HW130656   1.961   5.217   1.043
 9919SOL    HW230657   1.934   5.354   1.128
 9920SOL     OW30658   5.012   0.775   2.663
 9920SOL    HW130659   4.929   0.748   2.713
 9920SOL    HW230660   5.015   0.728   2.575
 9921SOL     OW30661   4.350   6.095   3.947
 9921SOL    HW130662   4.347   6.110   3.849
 9921SOL    HW230663   4.393   6.173   3.992
 9922SOL     OW30664   4.067   4.276   0.968
 9922SOL    HW130665   4.063   4.370   1.003
 9922SOL    HW230666   3.982   4.255   0.920
 9923SOL     OW30667   6.197   4.012   6.984
 9923SOL    HW130668   6.272   4.066   7.022
 9923SOL    HW230669   6.153   3.961   0.032
 9924SOL     OW30670   5.631   2.210   2.732
 9924SOL    HW130671   5.645   2.128   2.787
 9924SOL    HW230672   5.633   2.186   2.635
 9925SOL     OW30673   0.373   5.323   3.881
 9925SOL    HW130674   0.438   5.247   3.873
 9925SOL    HW230675   0.293   5.294   3.933
 9926SOL     OW30676   4.465   2.292   1.055
 9926SOL    HW130677   4.412   2.207   1.053
 9926SOL    HW230678   4.414   2.363   1.005
 9927SOL     OW30679   1.564   1.168   0.685
 9927SOL    HW130680   1.657   1.141   0.709
 9927SOL    HW230681   1.501   1.093   0.703
 9928SOL     OW30682   4.865   4.609   3.470
 9928SOL    HW130683   4.926   4.687   3.454
 9928SOL    HW230684   4.870   4.546   3.393
 9929SOL     OW30685   3.676   4.074   4.542
 9929SOL    HW130686   3.601   4.035   4.596
 9929SOL    HW230687   3.741   4.119   4.603
 9930SOL     OW30688   0.444   6.800   5.884
 9930SOL    HW130689   0.521   6.740   5.864
 9930SOL    HW230690   0.360   6.747   5.890
 9931SOL     OW30691   6.774   4.809   4.758
 9931SOL    HW130692   6.749   4.905   4.763
 9931SOL    HW230693   6.702   4.753   4.799
 9932SOL     OW30694   2.598   3.073   5.624
 9932SOL    HW130695   2.519   3.062   5.684
 9932SOL    HW230696   2.571   3.051   5.530
 9933SOL     OW30697   2.038   6.507   4.305
 9933SOL    HW130698   2.010   6.455   4.225
 9933SOL    HW230699   1.957   6.537   4.355
 9934SOL     OW30700   0.334   2.136   6.115
 9934SOL    HW130701   0.292   2.051   6.084
 9934SOL    HW230702   0.276   2.179   6.184
 9935SOL     OW30703   2.470   0.092   1.305
 9935SOL    HW130704   2.561   0.134   1.308
 9935SOL    HW230705   2.452   0.046   1.392
 9936SOL     OW30706   6.315   4.686   0.337
 9936SOL    HW130707   6.268   4.695   0.249
 9936SOL    HW230708   6.354   4.774   0.364
 9937SOL     OW30709   0.627   2.050   1.564
 9937SOL    HW130710   0.618   1.971   1.625
 9937SOL    HW230711   0.714   2.044   1.514
 9938SOL     OW30712   5.530   4.913   3.881
 9938SOL    HW130713   5.438   4.880   3.904
 9938SOL    HW230714   5.561   4.869   3.797
 9939SOL     OW30715   3.736   2.819   1.169
 9939SOL    HW130716   3.659   2.781   1.118
 9939SOL    HW230717   3.732   2.786   1.263
 9940SOL     OW30718   0.981   0.540   1.525
 9940SOL    HW130719   0.980   0.537   1.625
 9940SOL    HW230720   0.991   0.447   1.488
 9941SOL     OW30721   3.082   4.347   5.688
 9941SOL    HW130722   3.114   4.353   5.783
 9941SOL    HW230723   2.998   4.292   5.685
 9942SOL     OW30724   3.366   5.431   2.620
 9942SOL    HW130725   3.446   5.378   2.649
 9942SOL    HW230726   3.324   5.387   2.540
 9943SOL     OW30727   1.142   4.882   6.532
 9943SOL    HW130728   1.221   4.835   6.492
 9943SOL    HW230729   1.157   4.981   6.531
 9944SOL     OW30730   0.686   4.490   6.509
 9944SOL    HW130731   0.666   4.565   6.573
 9944SOL    HW230732   0.777   4.502   6.471
 9945SOL     OW30733   4.791   5.615   0.012
 9945SOL    HW130734   4.861   5.590   6.970
 9945SOL    HW230735   4.770   5.712   0.003
 9946SOL     OW30736   6.170   0.142   3.301
 9946SOL    HW130737   6.143   0.236   3.322
 9946SOL    HW230738   6.269   0.137   3.293
 9947SOL     OW30739   2.766   2.368   4.280
 9947SOL    HW130740   2.809   2.361   4.370
 9947SOL    HW230741   2.727   2.459   4.269
 9948SOL     OW30742   6.854   4.471   5.618
 9948SOL    HW130743   6.892   4.455   5.709
 9948SOL    HW230744   6.900   4.550   5.576
 9949SOL     OW30745   6.741   4.504   3.805
 9949SOL    HW130746   6.689   4.469   3.727
 9949SOL    HW230747   6.721   4.450   3.886
 9950SOL     OW30748   5.762   5.978   5.914
 9950SOL    HW130749   5.697   5.925   5.968
 9950SOL    HW230750   5.719   6.063   5.884
 9951SOL     OW30751   1.473   2.454   3.439
 9951SOL    HW130752   1.571   2.469   3.433
 9951SOL    HW230753   1.454   2.375   3.497
 9952SOL     OW30754   1.667   4.194   0.636
 9952SOL    HW130755   1.699   4.230   0.724
 9952SOL    HW230756   1.746   4.159   0.585
 9953SOL     OW30757   6.243   2.530   4.216
 9953SOL    HW130758   6.211   2.460   4.152
 9953SOL    HW230759   6.272   2.487   4.301
 9954SOL     OW30760   1.166   0.218   5.336
 9954SOL    HW130761   1.148   0.312   5.310
 9954SOL    HW230762   1.086   0.180   5.383
 9955SOL     OW30763   4.646   4.220   6.404
 9955SOL    HW130764   4.608   4.131   6.428
 9955SOL    HW230765   4.746   4.216   6.410
 9956SOL     OW30766   1.017   5.329   4.405
 9956SOL    HW130767   0.951   5.254   4.410
 9956SOL    HW230768   1.080   5.314   4.329
 9957SOL     OW30769   5.918   7.011   1.511
 9957SOL    HW130770   5.913   0.080   1.541
 9957SOL    HW230771   5.831   6.966   1.527
 9958SOL     OW30772   2.435   5.808   6.965
 9958SOL    HW130773   2.429   5.816   6.866
 9958SOL    HW230774   2.506   5.741   6.989
 9959SOL     OW30775   4.115   3.643   3.860
 9959SOL    HW130776   4.185   3.651   3.789
 9959SOL    HW230777   4.043   3.711   3.844
 9960SOL     OW30778   0.456   0.278   1.859
 9960SOL    HW130779   0.481   0.181   1.852
 9960SOL    HW230780   0.369   0.286   1.908
 9961SOL     OW30781   1.204   5.045   4.865
 9961SOL    HW130782   1.282   4.988   4.890
 9961SOL    HW230783   1.211   5.134   4.909
 9962SOL     OW30784   4.761   0.717   2.820
 9962SOL    HW130785   4.714   0.686   2.737
 9962SOL    HW230786   4.782   0.639   2.878
 9963SOL     OW30787   2.278   2.409   6.038
 9963SOL    HW130788   2.312   2.413   5.944
 9963SOL    HW230789   2.348   2.445   6.100
 9964SOL     OW30790   4.566   4.074   5.848
 9964SOL    HW130791   4.533   4.167   5.865
 9964SOL    HW230792   4.619   4.043   5.927
 9965SOL     OW30793   4.221   5.085   5.597
 9965SOL    HW130794   4.133   5.118   5.631
 9965SOL    HW230795   4.262   5.023   5.664
 9966SOL     OW30796   2.555   5.740   1.980
 9966SOL    HW130797   2.642   5.747   2.029
 9966SOL    HW230798   2.480   5.735   2.046
 9967SOL     OW30799   5.927   5.832   1.374
 9967SOL    HW130800   5.906   5.744   1.416
 9967SOL    HW230801   5.943   5.900   1.446
 9968SOL     OW30802   3.191   4.518   6.695
 9968SOL    HW130803   3.201   4.528   6.596
 9968SOL    HW230804   3.222   4.427   6.723
 9969SOL     OW30805   1.661   2.714   4.065
 9969SOL    HW130806   1.672   2.620   4.096
 9969SOL    HW230807   1.649   2.716   3.966
 9970SOL     OW30808   5.846   4.318   2.239
 9970SOL    HW130809   5.856   4.336   2.141
 9970SOL    HW230810   5.804   4.397   2.284
 9971SOL     OW30811   2.723   3.895   0.258
 9971SOL    HW130812   2.806   3.915   0.311
 9971SOL    HW230813   2.736   3.810   0.207
 9972SOL     OW30814   3.591   4.601   1.111
 9972SOL    HW130815   3.493   4.597   1.126
 9972SOL    HW230816   3.611   4.663   1.035
 9973SOL     OW30817   4.294   2.047   4.674
 9973SOL    HW130818   4.233   2.125   4.684
 9973SOL    HW230819   4.378   2.063   4.726
 9974SOL     OW30820   6.296   3.558   3.771
 9974SOL    HW130821   6.387   3.547   3.812
 9974SOL    HW230822   6.305   3.604   3.683
 9975SOL     OW30823   6.686   4.447   0.161
 9975SOL    HW130824   6.664   4.531   0.111
 9975SOL    HW230825   6.617   4.431   0.232
 9976SOL     OW30826   0.379   5.541   5.867
 9976SOL    HW130827   0.317   5.487   5.924
 9976SOL    HW230828   0.396   5.493   5.781
 9977SOL     OW30829   0.140   5.410   6.390
 9977SOL    HW130830   0.064   5.467   6.358
 9977SOL    HW230831   0.109   5.353   6.467
 9978SOL     OW30832   6.260   2.802   3.624
 9978SOL    HW130833   6.359   2.810   3.625
 9978SOL    HW230834   6.223   2.823   3.715
 9979SOL     OW30835   6.157   4.516   5.704
 9979SOL    HW130836   6.077   4.457   5.694
 9979SOL    HW230837   6.233   4.462   5.742
 9980SOL     OW30838   1.523   1.561   6.627
 9980SOL    HW130839   1.620   1.539   6.638
 9980SOL    HW230840   1.513   1.659   6.608
 9981SOL     OW30841   2.344   1.486   1.224
 9981SOL    HW130842   2.405   1.479   1.304
 9981SOL    HW230843   2.264   1.428   1.239
 9982SOL     OW30844   0.555   1.269   3.381
 9982SOL    HW130845   0.456   1.266   3.393
 9982SOL    HW230846   0.576   1.330   3.304
 9983SOL     OW30847   1.295   2.221   2.246
 9983SOL    HW130848   1.252   2.141   2.204
 9983SOL    HW230849   1.230   2.267   2.307
 9984SOL     OW30850   1.478   6.804   0.660
 9984SOL    HW130851   1.395   6.758   0.689
 9984SOL    HW230852   1.458   6.901   0.642
 9985SOL     OW30853   2.661   0.863   1.889
 9985SOL    HW130854   2.624   0.862   1.982
 9985SOL    HW230855   2.679   0.769   1.860
 9986SOL     OW30856   4.990   4.057   6.838
 9986SOL    HW130857   4.972   4.116   6.759
 9986SOL    HW230858   5.087   4.061   6.862
 9987SOL     OW30859   5.784   1.771   3.141
 9987SOL    HW130860   5.836   1.857   3.138
 9987SOL    HW230861   5.815   1.711   3.067
 9988SOL     OW30862   0.185   4.835   5.313
 9988SOL    HW130863   0.090   4.863   5.301
 9988SOL    HW230864   0.234   4.906   5.364
 9989SOL     OW30865   5.620   4.112   3.047
 9989SOL    HW130866   5.640   4.210   3.039
 9989SOL    HW230867   5.701   4.059   3.023
 9990SOL     OW30868   2.157   0.457   2.497
 9990SOL    HW130869   2.124   0.434   2.588
 9990SOL    HW230870   2.178   0.555   2.492
 9991SOL     OW30871   2.174   2.969   4.259
 9991SOL    HW130872   2.267   3.002   4.272
 9991SOL    HW230873   2.175   2.887   4.203
 9992SOL     OW30874   4.489   3.578   0.470
 9992SOL    HW130875   4.566   3.516   0.460
 9992SOL    HW230876   4.519   3.671   0.448
 9993SOL     OW30877   4.036   0.300   1.975
 9993SOL    HW130878   3.936   0.294   1.986
 9993SOL    HW230879   4.078   0.221   2.020
 9994SOL     OW30880   6.936   4.224   3.892
 9994SOL    HW130881   6.965   4.130   3.913
 9994SOL    HW230882   7.014   4.285   3.901
 9995SOL     OW30883   2.834   0.401   2.593
 9995SOL    HW130884   2.917   0.456   2.583
 9995SOL    HW230885   2.851   0.328   2.659
 9996SOL     OW30886   2.714   3.418   1.530
 9996SOL    HW130887   2.759   3.372   1.453
 9996SOL    HW230888   2.623   3.378   1.543
 9997SOL     OW30889   4.209   1.855   0.822
 9997SOL    HW130890   4.228   1.850   0.920
 9997SOL    HW230891   4.256   1.934   0.783
 9998SOL     OW30892   6.672   4.059   1.886
 9998SOL    HW130893   6.574   4.041   1.877
 9998SOL    HW230894   6.722   3.997   1.826
 9999SOL     OW30895   6.233   4.181   4.888
 9999SOL    HW130896   6.173   4.164   4.810
 9999SOL    HW230897   6.178   4.195   4.970
10000SOL     OW30898   5.581   3.020   6.917
10000SOL    HW130899   5.652   3.057   6.976
10000SOL    HW230900   5.614   2.937   6.873
10001SOL     OW30901   5.440   1.416   1.817
10001SOL    HW130902   5.402   1.352   1.750
10001SOL    HW230903   5.370   1.481   1.844
10002SOL     OW30904   1.557   0.525   0.788
10002SOL    HW130905   1.581   0.473   0.869
10002SOL    HW230906   1.575   0.470   0.706
10003SOL     OW30907   3.526   1.917   3.682
10003SOL    HW130908   3.436   1.877   3.702
10003SOL    HW230909   3.515   2.013   3.658
10004SOL     OW30910   4.665   2.344   4.614
10004SOL    HW130911   4.689   2.404   4.691
10004SOL    HW230912   4.741   2.281   4.597
10005SOL     OW30913   4.584   6.919   3.547
10005SOL    HW130914   4.508   6.978   3.571
10005SOL    HW230915   4.569   6.827   3.583
10006SOL     OW30916   4.983   1.103   3.798
10006SOL    HW130917   4.954   1.187   3.751
10006SOL    HW230918   4.969   1.024   3.738
10007SOL     OW30919   0.685   4.636   4.938
10007SOL    HW130920   0.666   4.684   4.853
10007SOL    HW230921   0.602   4.633   4.994
10008SOL     OW30922   4.503   1.117   3.748
10008SOL    HW130923   4.476   1.069   3.665
10008SOL    HW230924   4.450   1.082   3.825
10009SOL     OW30925   1.822   4.131   1.313
10009SOL    HW130926   1.820   4.157   1.410
10009SOL    HW230927   1.765   4.195   1.260
10010SOL     OW30928   2.411   6.463   6.572
10010SOL    HW130929   2.323   6.508   6.555
10010SOL    HW230930   2.397   6.364   6.580
10011SOL     OW30931   5.844   2.319   4.781
10011SOL    HW130932   5.786   2.241   4.804
10011SOL    HW230933   5.877   2.310   4.687
10012SOL     OW30934   4.827   0.166   2.861
10012SOL    HW130935   4.804   0.120   2.775
10012SOL    HW230936   4.760   0.141   2.931
10013SOL     OW30937   1.411   1.542   3.880
10013SOL    HW130938   1.486   1.603   3.906
10013SOL    HW230939   1.326   1.575   3.921
10014SOL     OW30940   6.269   3.135   6.815
10014SOL    HW130941   6.258   3.038   6.834
10014SOL    HW230942   6.366   3.155   6.800
10015SOL     OW30943   2.460   4.305   0.592
10015SOL    HW130944   2.449   4.246   0.512
10015SOL    HW230945   2.372   4.313   0.639
10016SOL     OW30946   1.941   0.328   5.247
10016SOL    HW130947   1.884   0.353   5.325
10016SOL    HW230948   2.014   0.395   5.235
10017SOL     OW30949   2.222   2.254   2.356
10017SOL    HW130950   2.264   2.330   2.405
10017SOL    HW230951   2.149   2.214   2.412
10018SOL     OW30952   4.963   6.925   5.906
10018SOL    HW130953   5.030   6.852   5.895
10018SOL    HW230954   4.986   7.001   5.844
10019SOL     OW30955   1.335   1.759   3.025
10019SOL    HW130956   1.398   1.768   3.103
10019SOL    HW230957   1.354   1.673   2.977
10020SOL     OW30958   0.571   3.147   1.537
10020SOL    HW130959   0.585   3.058   1.494
10020SOL    HW230960   0.635   3.214   1.498
10021SOL     OW30961   0.138   3.076   1.023
10021SOL    HW130962   0.171   3.006   1.086
10021SOL    HW230963   0.075   3.137   1.071
10022SOL     OW30964   3.604   6.941   0.260
10022SOL    HW130965   3.564   6.999   0.331
10022SOL    HW230966   3.696   6.975   0.237
10023SOL     OW30967   1.597   5.075   6.143
10023SOL    HW130968   1.644   5.001   6.095
10023SOL    HW230969   1.652   5.104   6.221
10024SOL     OW30970   2.328   6.763   2.035
10024SOL    HW130971   2.268   6.761   1.955
10024SOL    HW230972   2.318   6.679   2.087
10025SOL     OW30973   1.152   1.448   1.467
10025SOL    HW130974   1.198   1.360   1.456
10025SOL    HW230975   1.065   1.446   1.418
10026SOL     OW30976   4.807   6.719   4.134
10026SOL    HW130977   4.899   6.691   4.164
10026SOL    HW230978   4.739   6.681   4.196
10027SOL     OW30979   0.224   4.362   5.348
10027SOL    HW130980   0.197   4.314   5.265
10027SOL    HW230981   0.316   4.333   5.375
10028SOL     OW30982   1.267   1.648   1.293
10028SOL    HW130983   1.226   1.584   1.358
10028SOL    HW230984   1.280   1.601   1.205
10029SOL     OW30985   3.503   2.127   4.243
10029SOL    HW130986   3.449   2.170   4.314
10029SOL    HW230987   3.469   2.035   4.225
10030SOL     OW30988   2.142   6.644   3.842
10030SOL    HW130989   2.121   6.630   3.745
10030SOL    HW230990   2.058   6.666   3.892
10031SOL     OW30991   6.257   4.917   3.819
10031SOL    HW130992   6.253   4.991   3.886
10031SOL    HW230993   6.222   4.833   3.861
10032SOL     OW30994   2.998   1.832   4.911
10032SOL    HW130995   2.990   1.928   4.938
10032SOL    HW230996   2.958   1.820   4.820
10033SOL     OW30997   5.506   2.151   3.614
10033SOL    HW130998   5.431   2.172   3.677
10033SOL    HW230999   5.566   2.083   3.657
10034SOL     OW31000   2.934   0.437   4.113
10034SOL    HW131001   2.968   0.355   4.158
10034SOL    HW231002   2.944   0.516   4.174
10035SOL     OW31003   6.436   4.740   1.855
10035SOL    HW131004   6.346   4.705   1.829
10035SOL    HW231005   6.507   4.676   1.827
10036SOL     OW31006   6.134   1.656   1.638
10036SOL    HW131007   6.159   1.561   1.623
10036SOL    HW231008   6.208   1.716   1.606
10037SOL     OW31009   6.519   0.978   0.749
10037SOL    HW131010   6.442   0.938   0.700
10037SOL    HW231011   6.603   0.932   0.722
10038SOL     OW31012   5.158   0.549   0.294
10038SOL    HW131013   5.082   0.485   0.302
10038SOL    HW231014   5.184   0.582   0.385
10039SOL     OW31015   3.575   0.418   3.321
10039SOL    HW131016   3.538   0.326   3.331
10039SOL    HW231017   3.499   0.484   3.317
10040SOL     OW31018   4.657   5.716   6.377
10040SOL    HW131019   4.558   5.702   6.371
10040SOL    HW231020   4.681   5.757   6.465
10041SOL     OW31021   4.189   6.150   6.695
10041SOL    HW131022   4.179   6.113   6.787
10041SOL    HW231023   4.260   6.221   6.696
10042SOL     OW31024   1.028   1.837   4.205
10042SOL    HW131025   1.005   1.800   4.294
10042SOL    HW231026   1.066   1.765   4.147
10043SOL     OW31027   6.531   1.109   5.210
10043SOL    HW131028   6.527   1.096   5.309
10043SOL    HW231029   6.440   1.094   5.171
10044SOL     OW31030   2.587   1.478   4.838
10044SOL    HW131031   2.501   1.457   4.791
10044SOL    HW231032   2.575   1.559   4.895
10045SOL     OW31033   4.023   0.265   3.269
10045SOL    HW131034   3.982   0.355   3.285
10045SOL    HW231035   4.044   0.223   3.357
10046SOL     OW31036   2.086   3.791   0.867
10046SOL    HW131037   2.112   3.827   0.956
10046SOL    HW231038   2.153   3.724   0.837
10047SOL     OW31039   0.977   3.449   4.670
10047SOL    HW131040   0.965   3.362   4.622
10047SOL    HW231041   0.950   3.437   4.766
10048SOL     OW31042   6.702   0.432   2.407
10048SOL    HW131043   6.606   0.435   2.435
10048SOL    HW231044   6.734   0.525   2.388
10049SOL     OW31045   1.109   1.715   5.877
10049SOL    HW131046   1.035   1.716   5.810
10049SOL    HW231047   1.197   1.711   5.830
10050SOL     OW31048   5.493   3.435   5.180
10050SOL    HW131049   5.471   3.342   5.150
10050SOL    HW231050   5.456   3.450   5.272
10051SOL     OW31051   6.399   4.073   5.246
10051SOL    HW131052   6.448   4.140   5.190
10051SOL    HW231053   6.390   3.988   5.195
10052SOL     OW31054   1.997   1.128   2.967
10052SOL    HW131055   1.946   1.172   2.893
10052SOL    HW231056   2.039   1.044   2.934
10053SOL     OW31057   4.445   5.552   3.709
10053SOL    HW131058   4.448   5.454   3.728
10053SOL    HW231059   4.369   5.593   3.759
10054SOL     OW31060   5.299   6.242   5.667
10054SOL    HW131061   5.282   6.225   5.764
10054SOL    HW231062   5.238   6.314   5.635
10055SOL     OW31063   5.950   1.478   5.491
10055SOL    HW131064   5.956   1.522   5.402
10055SOL    HW231065   5.891   1.397   5.485
10056SOL     OW31066   5.143   4.566   2.704
10056SOL    HW131067   5.068   4.627   2.730
10056SOL    HW231068   5.136   4.480   2.755
10057SOL     OW31069   4.562   3.324   5.324
10057SOL    HW131070   4.546   3.333   5.422
10057SOL    HW231071   4.583   3.414   5.285
10058SOL     OW31072   6.342   3.578   4.699
10058SOL    HW131073   6.347   3.608   4.604
10058SOL    HW231074   6.247   3.581   4.730
10059SOL     OW31075   0.262   1.808   6.775
10059SOL    HW131076   0.251   1.715   6.741
10059SOL    HW231077   0.173   1.853   6.780
10060SOL     OW31078   2.492   2.576   2.096
10060SOL    HW131079   2.590   2.557   2.106
10060SOL    HW231080   2.475   2.623   2.010
10061SOL     OW31081   4.451   1.410   3.798
10061SOL    HW131082   4.432   1.315   3.773
10061SOL    HW231083   4.531   1.413   3.859
10062SOL     OW31084   5.783   0.748   3.928
10062SOL    HW131085   5.734   0.833   3.910
10062SOL    HW231086   5.728   0.689   3.987
10063SOL     OW31087   3.201   1.462   4.519
10063SOL    HW131088   3.284   1.462   4.462
10063SOL    HW231089   3.205   1.538   4.583
10064SOL     OW31090   4.715   6.380   7.010
10064SOL    HW131091   4.775   6.459   7.025
10064SOL    HW231092   4.622   6.411   6.995
10065SOL     OW31093   2.317   0.641   2.240
10065SOL    HW131094   2.294   0.685   2.327
10065SOL    HW231095   2.406   0.596   2.248
10066SOL     OW31096   0.836   2.722   4.827
10066SOL    HW131097   0.934   2.707   4.843
10066SOL    HW231098   0.785   2.643   4.861
10067SOL     OW31099   0.155   3.478   5.629
10067SOL    HW131100   0.220   3.402   5.620
10067SOL    HW231101   0.160   3.514   5.722
10068SOL     OW31102   0.887   3.700   4.112
10068SOL    HW131103   0.793   3.722   4.137
10068SOL    HW231104   0.906   3.604   4.134
10069SOL     OW31105   3.154   5.102   1.814
10069SOL    HW131106   3.055   5.102   1.826
10069SOL    HW231107   3.198   5.139   1.896
10070SOL     OW31108   0.348   5.985   5.158
10070SOL    HW131109   0.266   5.930   5.144
10070SOL    HW231110   0.378   5.976   5.253
10071SOL     OW31111   0.167   6.380   4.287
10071SOL    HW131112   0.254   6.339   4.261
10071SOL    HW231113   0.093   6.315   4.270
10072SOL     OW31114   0.092   0.538   4.054
10072SOL    HW131115   0.107   0.605   4.127
10072SOL    HW231116   0.024   0.574   3.989
10073SOL     OW31117   6.950   3.955   3.940
10073SOL    HW131118   6.869   3.898   3.955
10073SOL    HW231119   7.016   3.940   4.013
10074SOL     OW31120   2.429   6.799   6.385
10074SOL    HW131121   2.474   6.714   6.355
10074SOL    HW231122   2.499   6.863   6.417
10075SOL     OW31123   1.702   2.086   1.911
10075SOL    HW131124   1.749   2.013   1.861
10075SOL    HW231125   1.609   2.097   1.874
10076SOL     OW31126   4.960   6.330   2.969
10076SOL    HW131127   4.938   6.234   2.990
10076SOL    HW231128   5.031   6.332   2.898
10077SOL     OW31129   4.079   3.148   0.556
10077SOL    HW131130   4.177   3.145   0.535
10077SOL    HW231131   4.058   3.230   0.608
10078SOL     OW31132   6.320   5.717   4.495
10078SOL    HW131133   6.409   5.714   4.541
10078SOL    HW231134   6.307   5.806   4.452
10079SOL     OW31135   6.040   3.053   3.068
10079SOL    HW131136   6.054   3.005   3.154
10079SOL    HW231137   6.100   3.015   2.998
10080SOL     OW31138   4.768   1.592   6.036
10080SOL    HW131139   4.710   1.596   6.118
10080SOL    HW231140   4.860   1.564   6.062
10081SOL     OW31141   0.914   1.689   6.881
10081SOL    HW131142   0.878   1.762   6.939
10081SOL    HW231143   1.014   1.693   6.880
10082SOL     OW31144   0.627   5.359   2.323
10082SOL    HW131145   0.585   5.302   2.252
10082SOL    HW231146   0.614   5.317   2.412
10083SOL     OW31147   2.843   0.188   3.749
10083SOL    HW131148   2.896   0.240   3.682
10083SOL    HW231149   2.774   0.133   3.702
10084SOL     OW31150   0.484   0.374   5.467
10084SOL    HW131151   0.406   0.394   5.408
10084SOL    HW231152   0.510   0.457   5.517
10085SOL     OW31153   3.355   0.065   0.720
10085SOL    HW131154   3.446   0.100   0.697
10085SOL    HW231155   3.352   6.992   0.704
10086SOL     OW31156   6.096   6.073   3.061
10086SOL    HW131157   6.023   6.076   2.993
10086SOL    HW231158   6.068   6.124   3.142
10087SOL     OW31159   6.008   5.924   4.097
10087SOL    HW131160   5.993   5.832   4.133
10087SOL    HW231161   5.924   5.977   4.105
10088SOL     OW31162   6.955   0.329   1.486
10088SOL    HW131163   6.920   0.238   1.462
10088SOL    HW231164   7.011   0.363   1.410
10089SOL     OW31165   3.284   2.017   3.059
10089SOL    HW131166   3.261   2.070   2.977
10089SOL    HW231167   3.364   2.057   3.103
10090SOL     OW31168   0.329   5.252   2.135
10090SOL    HW131169   0.274   5.227   2.214
10090SOL    HW231170   0.322   5.350   2.118
10091SOL     OW31171   6.826   5.759   6.555
10091SOL    HW131172   6.919   5.796   6.553
10091SOL    HW231173   6.773   5.796   6.478
10092SOL     OW31174   1.149   2.948   5.940
10092SOL    HW131175   1.101   2.929   5.854
10092SOL    HW231176   1.101   2.903   6.016
10093SOL     OW31177   4.897   3.319   5.070
10093SOL    HW131178   4.850   3.260   5.135
10093SOL    HW231179   4.869   3.414   5.084
10094SOL     OW31180   2.319   6.231   1.037
10094SOL    HW131181   2.333   6.246   0.939
10094SOL    HW231182   2.319   6.319   1.084
10095SOL     OW31183   5.107   1.617   4.532
10095SOL    HW131184   5.162   1.565   4.466
10095SOL    HW231185   5.119   1.578   4.623
10096SOL     OW31186   4.386   6.807   2.712
10096SOL    HW131187   4.427   6.813   2.620
10096SOL    HW231188   4.360   6.713   2.731
10097SOL     OW31189   2.041   2.204   6.733
10097SOL    HW131190   1.975   2.196   6.808
10097SOL    HW231191   2.070   2.299   6.724
10098SOL     OW31192   2.811   6.804   4.841
10098SOL    HW131193   2.904   6.840   4.828
10098SOL    HW231194   2.788   6.744   4.766
10099SOL     OW31195   7.010   5.058   2.033
10099SOL    HW131196   6.953   5.140   2.031
10099SOL    HW231197   6.951   4.978   2.048
10100SOL     OW31198   5.383   6.064   5.488
10100SOL    HW131199   5.445   6.109   5.424
10100SOL    HW231200   5.350   6.131   5.556
10101SOL     OW31201   6.807   3.386   1.796
10101SOL    HW131202   6.883   3.408   1.735
10101SOL    HW231203   6.800   3.456   1.867
10102SOL     OW31204   7.006   0.611   1.048
10102SOL    HW131205   0.031   0.555   0.982
10102SOL    HW231206   7.004   0.706   1.017
10103SOL     OW31207   1.745   0.341   5.512
10103SOL    HW131208   1.780   0.428   5.547
10103SOL    HW231209   1.665   0.358   5.455
10104SOL     OW31210   1.503   0.925   5.572
10104SOL    HW131211   1.422   0.877   5.606
10104SOL    HW231212   1.477   0.983   5.494
10105SOL     OW31213   1.708   0.371   5.994
10105SOL    HW131214   1.719   0.362   5.895
10105SOL    HW231215   1.770   0.307   6.040
10106SOL     OW31216   4.031   6.647   0.740
10106SOL    HW131217   4.029   6.644   0.640
10106SOL    HW231218   4.083   6.569   0.774
10107SOL     OW31219   5.470   1.522   6.211
10107SOL    HW131220   5.467   1.424   6.190
10107SOL    HW231221   5.458   1.536   6.309
10108SOL     OW31222   0.408   2.276   0.150
10108SOL    HW131223   0.489   2.318   0.109
10108SOL    HW231224   0.333   2.341   0.148
10109SOL     OW31225   0.754   1.021   0.585
10109SOL    HW131226   0.837   1.075   0.574
10109SOL    HW231227   0.679   1.080   0.614
10110SOL     OW31228   4.550   4.532   4.235
10110SOL    HW131229   4.506   4.473   4.167
10110SOL    HW231230   4.640   4.496   4.258
10111SOL     OW31231   6.902   3.677   3.199
10111SOL    HW131232   6.988   3.694   3.248
10111SOL    HW231233   6.865   3.588   3.227
10112SOL     OW31234   5.670   3.458   2.587
10112SOL    HW131235   5.626   3.368   2.579
10112SOL    HW231236   5.707   3.485   2.498
10113SOL     OW31237   4.534   0.144   1.041
10113SOL    HW131238   4.517   0.173   0.947
10113SOL    HW231239   4.570   0.051   1.041
10114SOL     OW31240   4.353   1.926   3.208
10114SOL    HW131241   4.393   1.885   3.290
10114SOL    HW231242   4.425   1.964   3.151
10115SOL     OW31243   3.827   1.568   5.019
10115SOL    HW131244   3.900   1.563   4.950
10115SOL    HW231245   3.784   1.659   5.016
10116SOL     OW31246   0.533   6.802   6.939
10116SOL    HW131247   0.519   6.792   0.012
10116SOL    HW231248   0.533   6.711   6.896
10117SOL     OW31249   7.011   6.318   5.899
10117SOL    HW131250   0.065   6.309   5.839
10117SOL    HW231251   6.958   6.399   5.873
10118SOL     OW31252   2.460   4.479   4.172
10118SOL    HW131253   2.524   4.426   4.118
10118SOL    HW231254   2.393   4.418   4.215
10119SOL     OW31255   6.464   4.910   3.622
10119SOL    HW131256   6.428   4.942   3.535
10119SOL    HW231257   6.389   4.902   3.688
10120SOL     OW31258   1.601   3.376   4.006
10120SOL    HW131259   1.601   3.276   4.011
10120SOL    HW231260   1.662   3.413   4.076
10121SOL     OW31261   6.014   4.399   0.433
10121SOL    HW131262   6.108   4.411   0.463
10121SOL    HW231263   6.009   4.321   0.370
10122SOL     OW31264   6.223   2.512   3.850
10122SOL    HW131265   6.169   2.481   3.772
10122SOL    HW231266   6.200   2.457   3.930
10123SOL     OW31267   6.046   6.381   1.239
10123SOL    HW131268   5.978   6.432   1.188
10123SOL    HW231269   6.007   6.351   1.327
10124SOL     OW31270   1.299   5.053   0.911
10124SOL    HW131271   1.314   5.044   1.010
10124SOL    HW231272   1.244   4.976   0.879
10125SOL     OW31273   2.757   1.620   0.890
10125SOL    HW131274   2.718   1.529   0.874
10125SOL    HW231275   2.828   1.614   0.960
10126SOL     OW31276   0.016   0.000   5.852
10126SOL    HW131277   0.009   0.073   5.919
10126SOL    HW231278   6.952   7.007   5.813
10127SOL     OW31279   2.102   3.652   0.299
10127SOL    HW131280   2.082   3.580   0.364
10127SOL    HW231281   2.018   3.681   0.254
10128SOL     OW31282   2.685   0.795   5.907
10128SOL    HW131283   2.654   0.790   6.002
10128SOL    HW231284   2.768   0.740   5.896
10129SOL     OW31285   0.154   2.105   2.361
10129SOL    HW131286   0.123   2.199   2.370
10129SOL    HW231287   0.187   2.090   2.267
10130SOL     OW31288   0.745   3.345   1.469
10130SOL    HW131289   0.776   3.362   1.563
10130SOL    HW231290   0.815   3.294   1.419
10131SOL     OW31291   1.256   0.618   4.231
10131SOL    HW131292   1.260   0.716   4.249
10131SOL    HW231293   1.247   0.568   4.318
10132SOL     OW31294   1.376   0.315   3.114
10132SOL    HW131295   1.469   0.284   3.133
10132SOL    HW231296   1.373   0.358   3.024
10133SOL     OW31297   4.584   6.541   0.935
10133SOL    HW131298   4.513   6.548   1.004
10133SOL    HW231299   4.543   6.513   0.848
10134SOL     OW31300   6.220   1.434   3.456
10134SOL    HW131301   6.218   1.412   3.553
10134SOL    HW231302   6.222   1.349   3.403
10135SOL     OW31303   4.825   2.205   3.619
10135SOL    HW131304   4.862   2.298   3.611
10135SOL    HW231305   4.762   2.187   3.544
10136SOL     OW31306   5.619   2.181   2.234
10136SOL    HW131307   5.707   2.220   2.205
10136SOL    HW231308   5.563   2.161   2.154
10137SOL     OW31309   0.168   4.998   6.116
10137SOL    HW131310   0.117   5.022   6.033
10137SOL    HW231311   0.146   4.904   6.142
10138SOL     OW31312   5.720   2.791   0.629
10138SOL    HW131313   5.699   2.761   0.722
10138SOL    HW231314   5.734   2.711   0.570
10139SOL     OW31315   3.410   3.505   4.951
10139SOL    HW131316   3.346   3.564   4.902
10139SOL    HW231317   3.443   3.553   5.033
10140SOL     OW31318   6.996   6.272   6.373
10140SOL    HW131319   6.976   6.327   6.454
10140SOL    HW231320   6.994   6.330   6.292
10141SOL     OW31321   4.431   0.965   4.204
10141SOL    HW131322   4.473   0.874   4.200
10141SOL    HW231323   4.492   1.028   4.252
10142SOL     OW31324   6.193   6.870   5.764
10142SOL    HW131325   6.127   6.944   5.777
10142SOL    HW231326   6.234   6.878   5.673
10143SOL     OW31327   5.843   2.727   0.268
10143SOL    HW131328   5.943   2.721   0.263
10143SOL    HW231329   5.812   2.695   0.358
10144SOL     OW31330   4.774   6.747   5.310
10144SOL    HW131331   4.685   6.719   5.273
10144SOL    HW231332   4.846   6.713   5.250
10145SOL     OW31333   3.991   6.047   3.245
10145SOL    HW131334   4.061   6.111   3.276
10145SOL    HW231335   3.907   6.061   3.297
10146SOL     OW31336   6.612   4.442   4.060
10146SOL    HW131337   6.532   4.383   4.075
10146SOL    HW231338   6.617   4.510   4.133
10147SOL     OW31339   5.081   4.326   6.616
10147SOL    HW131340   5.151   4.360   6.679
10147SOL    HW231341   5.090   4.373   6.528
10148SOL     OW31342   5.658   3.998   0.763
10148SOL    HW131343   5.601   4.001   0.681
10148SOL    HW231344   5.673   3.903   0.790
10149SOL     OW31345   5.249   4.830   1.482
10149SOL    HW131346   5.326   4.832   1.546
10149SOL    HW231347   5.169   4.790   1.527
10150SOL     OW31348   4.820   3.173   1.733
10150SOL    HW131349   4.748   3.129   1.787
10150SOL    HW231350   4.863   3.105   1.674
10151SOL     OW31351   0.658   6.967   5.937
10151SOL    HW131352   0.668   6.932   6.030
10151SOL    HW231353   0.570   6.935   5.899
10152SOL     OW31354   6.457   5.826   4.032
10152SOL    HW131355   6.438   5.729   4.046
10152SOL    HW231356   6.374   5.872   4.000
10153SOL     OW31357   4.569   5.993   4.324
10153SOL    HW131358   4.540   6.073   4.378
10153SOL    HW231359   4.661   5.966   4.351
10154SOL     OW31360   3.267   6.339   6.337
10154SOL    HW131361   3.191   6.387   6.294
10154SOL    HW231362   3.338   6.405   6.362
10155SOL     OW31363   5.058   2.599   5.663
10155SOL    HW131364   5.092   2.604   5.569
10155SOL    HW231365   5.121   2.649   5.724
10156SOL     OW31366   5.024   0.548   1.325
10156SOL    HW131367   5.098   0.537   1.391
10156SOL    HW231368   4.936   0.534   1.371
10157SOL     OW31369   6.879   2.141   0.357
10157SOL    HW131370   6.888   2.062   0.417
10157SOL    HW231371   6.963   2.154   0.305
10158SOL     OW31372   6.045   6.540   2.065
10158SOL    HW131373   6.096   6.483   2.130
10158SOL    HW231374   5.948   6.539   2.089
10159SOL     OW31375   3.798   3.315   2.741
10159SOL    HW131376   3.724   3.258   2.707
10159SOL    HW231377   3.832   3.373   2.668
10160SOL     OW31378   1.588   3.753   3.417
10160SOL    HW131379   1.540   3.832   3.378
10160SOL    HW231380   1.537   3.670   3.397
10161SOL     OW31381   3.673   4.911   0.024
10161SOL    HW131382   3.664   4.959   0.111
10161SOL    HW231383   3.582   4.895   7.010
10162SOL     OW31384   2.320   4.120   1.086
10162SOL    HW131385   2.399   4.117   1.023
10162SOL    HW231386   2.352   4.108   1.180
10163SOL     OW31387   0.805   5.463   6.421
10163SOL    HW131388   0.756   5.379   6.398
10163SOL    HW231389   0.793   5.530   6.348
10164SOL     OW31390   5.890   3.398   4.080
10164SOL    HW131391   5.964   3.358   4.135
10164SOL    HW231392   5.929   3.451   4.004
10165SOL     OW31393   6.543   2.855   3.643
10165SOL    HW131394   6.603   2.778   3.623
10165SOL    HW231395   6.590   2.919   3.704
10166SOL     OW31396   1.184   1.912   1.180
10166SOL    HW131397   1.220   1.990   1.230
10166SOL    HW231398   1.185   1.831   1.239
10167SOL     OW31399   0.041   5.462   0.243
10167SOL    HW131400   7.004   5.413   0.304
10167SOL    HW231401   0.126   5.482   0.290
10168SOL     OW31402   6.461   1.694   6.141
10168SOL    HW131403   6.499   1.657   6.226
10168SOL    HW231404   6.368   1.659   6.129
10169SOL     OW31405   6.443   3.848   3.359
10169SOL    HW131406   6.385   3.832   3.279
10169SOL    HW231407   6.539   3.848   3.330
10170SOL     OW31408   6.269   5.442   6.209
10170SOL    HW131409   6.313   5.527   6.237
10170SOL    HW231410   6.299   5.417   6.117
10171SOL     OW31411   0.393   2.687   4.743
10171SOL    HW131412   0.297   2.678   4.769
10171SOL    HW231413   0.430   2.772   4.781
10172SOL     OW31414   0.508   0.155   4.541
10172SOL    HW131415   0.471   0.212   4.614
10172SOL    HW231416   0.553   0.075   4.580
10173SOL     OW31417   2.500   3.405   6.677
10173SOL    HW131418   2.541   3.377   6.590
10173SOL    HW231419   2.406   3.435   6.661
10174SOL     OW31420   4.446   4.537   3.640
10174SOL    HW131421   4.366   4.526   3.699
10174SOL    HW231422   4.424   4.601   3.566
10175SOL     OW31423   6.506   1.803   3.739
10175SOL    HW131424   6.502   1.873   3.667
10175SOL    HW231425   6.595   1.757   3.735
10176SOL     OW31426   6.204   3.643   5.534
10176SOL    HW131427   6.130   3.580   5.557
10176SOL    HW231428   6.186   3.687   5.446
10177SOL     OW31429   1.515   6.762   1.402
10177SOL    HW131430   1.564   6.838   1.359
10177SOL    HW231431   1.483   6.699   1.331
10178SOL     OW31432   1.837   1.135   0.719
10178SOL    HW131433   1.891   1.205   0.765
10178SOL    HW231434   1.884   1.107   0.636
10179SOL     OW31435   0.495   4.004   6.752
10179SOL    HW131436   0.583   3.959   6.767
10179SOL    HW231437   0.506   4.076   6.683
10180SOL     OW31438   4.257   0.621   0.385
10180SOL    HW131439   4.252   0.695   0.317
10180SOL    HW231440   4.332   0.560   0.362
10181SOL     OW31441   0.499   3.175   1.212
10181SOL    HW131442   0.402   3.170   1.192
10181SOL    HW231443   0.529   3.092   1.259
10182SOL     OW31444   5.155   1.246   0.012
10182SOL    HW131445   5.243   1.234   0.057
10182SOL    HW231446   5.094   1.171   0.036
10183SOL     OW31447   6.105   2.757   6.096
10183SOL    HW131448   6.018   2.740   6.142
10183SOL    HW231449   6.127   2.855   6.101
10184SOL     OW31450   5.305   2.997   6.957
10184SOL    HW131451   5.281   3.038   0.020
10184SOL    HW231452   5.401   3.016   6.936
10185SOL     OW31453   5.769   6.361   2.440
10185SOL    HW131454   5.793   6.364   2.343
10185SOL    HW231455   5.720   6.276   2.460
10186SOL     OW31456   4.967   3.586   4.828
10186SOL    HW131457   4.994   3.680   4.809
10186SOL    HW231458   4.922   3.582   4.917
10187SOL     OW31459   1.932   4.415   5.395
10187SOL    HW131460   1.901   4.321   5.409
10187SOL    HW231461   1.865   4.478   5.434
10188SOL     OW31462   2.690   5.199   6.813
10188SOL    HW131463   2.757   5.239   6.750
10188SOL    HW231464   2.610   5.258   6.819
10189SOL     OW31465   1.800   1.017   6.477
10189SOL    HW131466   1.741   1.068   6.540
10189SOL    HW231467   1.745   0.952   6.425
10190SOL     OW31468   4.363   3.313   1.655
10190SOL    HW131469   4.453   3.308   1.699
10190SOL    HW231470   4.375   3.346   1.561
10191SOL     OW31471   5.597   5.806   0.226
10191SOL    HW131472   5.658   5.729   0.211
10191SOL    HW231473   5.599   5.867   0.146
10192SOL     OW31474   3.200   1.659   5.014
10192SOL    HW131475   3.203   1.639   5.112
10192SOL    HW231476   3.125   1.723   4.996
10193SOL     OW31477   2.979   3.874   2.535
10193SOL    HW131478   3.055   3.923   2.492
10193SOL    HW231479   2.984   3.885   2.634
10194SOL     OW31480   4.277   0.636   4.675
10194SOL    HW131481   4.182   0.618   4.702
10194SOL    HW231482   4.330   0.665   4.755
10195SOL     OW31483   0.066   6.945   1.758
10195SOL    HW131484   0.025   6.914   1.672
10195SOL    HW231485   0.126   7.023   1.740
10196SOL     OW31486   5.240   1.925   3.018
10196SOL    HW131487   5.180   1.885   2.948
10196SOL    HW231488   5.292   2.000   2.978
10197SOL     OW31489   4.984   1.683   4.108
10197SOL    HW131490   4.998   1.663   4.011
10197SOL    HW231491   5.073   1.695   4.152
10198SOL     OW31492   3.655   6.799   0.832
10198SOL    HW131493   3.694   6.829   0.745
10198SOL    HW231494   3.592   6.868   0.867
10199SOL     OW31495   0.438   1.979   6.333
10199SOL    HW131496   0.445   1.962   6.431
10199SOL    HW231497   0.387   2.064   6.317
10200SOL     OW31498   5.147   3.298   5.160
10200SOL    HW131499   5.211   3.247   5.103
10200SOL    HW231500   5.060   3.309   5.112
10201SOL     OW31501   0.532   6.204   1.438
10201SOL    HW131502   0.490   6.161   1.358
10201SOL    HW231503   0.631   6.207   1.426
10202SOL     OW31504   1.354   3.308   0.408
10202SOL    HW131505   1.323   3.386   0.462
10202SOL    HW231506   1.425   3.337   0.344
10203SOL     OW31507   1.191   2.920   1.634
10203SOL    HW131508   1.261   2.857   1.669
10203SOL    HW231509   1.116   2.927   1.700
10204SOL     OW31510   3.488   5.444   6.264
10204SOL    HW131511   3.434   5.386   6.204
10204SOL    HW231512   3.585   5.426   6.248
10205SOL     OW31513   3.611   1.279   2.544
10205SOL    HW131514   3.614   1.180   2.553
10205SOL    HW231515   3.588   1.304   2.450
10206SOL     OW31516   4.861   6.555   6.609
10206SOL    HW131517   4.852   6.493   6.686
10206SOL    HW231518   4.771   6.577   6.572
10207SOL     OW31519   1.740   0.988   0.444
10207SOL    HW131520   1.715   0.902   0.488
10207SOL    HW231521   1.838   0.987   0.422
10208SOL     OW31522   6.451   4.809   4.052
10208SOL    HW131523   6.380   4.745   4.021
10208SOL    HW231524   6.504   4.766   4.126
10209SOL     OW31525   0.746   0.524   5.754
10209SOL    HW131526   0.819   0.464   5.721
10209SOL    HW231527   0.658   0.491   5.719
10210SOL     OW31528   4.973   0.039   1.855
10210SOL    HW131529   4.973   0.027   1.954
10210SOL    HW231530   4.896   7.015   1.815
10211SOL     OW31531   4.324   6.100   5.433
10211SOL    HW131532   4.332   6.199   5.437
10211SOL    HW231533   4.228   6.074   5.443
10212SOL     OW31534   0.218   1.222   4.669
10212SOL    HW131535   0.206   1.292   4.599
10212SOL    HW231536   0.130   1.204   4.714
10213SOL     OW31537   5.883   2.176   2.008
10213SOL    HW131538   5.881   2.273   2.032
10213SOL    HW231539   5.953   2.160   1.938
10214SOL     OW31540   1.019   2.049   2.422
10214SOL    HW131541   1.057   1.959   2.397
10214SOL    HW231542   1.085   2.097   2.480
10215SOL     OW31543   3.288   2.940   4.435
10215SOL    HW131544   3.208   2.988   4.399
10215SOL    HW231545   3.270   2.842   4.437
10216SOL     OW31546   0.701   6.974   0.650
10216SOL    HW131547   0.771   0.015   0.627
10216SOL    HW231548   0.610   7.011   0.627
10217SOL     OW31549   2.680   1.604   3.993
10217SOL    HW131550   2.760   1.568   3.945
10217SOL    HW231551   2.643   1.683   3.942
10218SOL     OW31552   1.558   0.935   1.499
10218SOL    HW131553   1.517   0.984   1.576
10218SOL    HW231554   1.489   0.877   1.456
10219SOL     OW31555   0.625   3.196   2.137
10219SOL    HW131556   0.564   3.122   2.108
10219SOL    HW231557   0.686   3.163   2.209
10220SOL     OW31558   4.295   1.498   2.128
10220SOL    HW131559   4.250   1.409   2.142
10220SOL    HW231560   4.235   1.571   2.161
10221SOL     OW31561   1.799   2.384   3.691
10221SOL    HW131562   1.747   2.300   3.707
10221SOL    HW231563   1.781   2.419   3.599
10222SOL     OW31564   1.592   3.065   5.924
10222SOL    HW131565   1.609   3.006   5.845
10222SOL    HW231566   1.652   3.145   5.919
10223SOL     OW31567   1.534   6.157   6.789
10223SOL    HW131568   1.593   6.122   6.862
10223SOL    HW231569   1.528   6.090   6.716
10224SOL     OW31570   6.419   1.458   5.207
10224SOL    HW131571   6.501   1.477   5.153
10224SOL    HW231572   6.445   1.419   5.295
10225SOL     OW31573   1.916   6.184   5.705
10225SOL    HW131574   1.996   6.123   5.701
10225SOL    HW231575   1.845   6.149   5.644
10226SOL     OW31576   2.298   0.043   6.728
10226SOL    HW131577   2.233   0.064   6.800
10226SOL    HW231578   2.386   0.017   6.769
10227SOL     OW31579   5.025   4.896   0.760
10227SOL    HW131580   5.086   4.849   0.696
10227SOL    HW231581   5.021   4.844   0.846
10228SOL     OW31582   1.458   5.603   2.261
10228SOL    HW131583   1.523   5.676   2.245
10228SOL    HW231584   1.369   5.641   2.285
10229SOL     OW31585   0.480   1.059   4.355
10229SOL    HW131586   0.515   0.972   4.319
10229SOL    HW231587   0.543   1.094   4.425
10230SOL     OW31588   6.128   0.040   3.567
10230SOL    HW131589   6.177   0.070   3.485
10230SOL    HW231590   6.160   0.093   3.646
10231SOL     OW31591   6.756   5.649   6.092
10231SOL    HW131592   6.695   5.576   6.062
10231SOL    HW231593   6.790   5.629   6.184
10232SOL     OW31594   2.615   0.706   3.778
10232SOL    HW131595   2.619   0.615   3.737
10232SOL    HW231596   2.551   0.706   3.855
10233SOL     OW31597   5.059   3.598   5.202
10233SOL    HW131598   4.969   3.608   5.159
10233SOL    HW231599   5.096   3.507   5.180
10234SOL     OW31600   5.083   1.071   1.250
10234SOL    HW131601   5.119   0.983   1.282
10234SOL    HW231602   5.128   1.095   1.164
10235SOL     OW31603   4.802   2.434   0.112
10235SOL    HW131604   4.847   2.373   0.178
10235SOL    HW231605   4.746   2.500   0.162
10236SOL     OW31606   2.182   6.579   2.176
10236SOL    HW131607   2.192   6.669   2.219
10236SOL    HW231608   2.085   6.560   2.160
10237SOL     OW31609   6.434   3.654   0.975
10237SOL    HW131610   6.473   3.581   1.032
10237SOL    HW231611   6.507   3.715   0.945
10238SOL     OW31612   3.276   4.040   3.882
10238SOL    HW131613   3.312   4.117   3.934
10238SOL    HW231614   3.213   3.987   3.940
10239SOL     OW31615   0.891   4.319   5.100
10239SOL    HW131616   0.891   4.235   5.046
10239SOL    HW231617   0.984   4.353   5.109
10240SOL     OW31618   2.271   5.179   3.406
10240SOL    HW131619   2.266   5.225   3.495
10240SOL    HW231620   2.228   5.237   3.337
10241SOL     OW31621   0.064   0.589   2.408
10241SOL    HW131622   0.154   0.616   2.444
10241SOL    HW231623   0.057   0.617   2.312
10242SOL     OW31624   6.847   1.624   6.587
10242SOL    HW131625   6.938   1.638   6.548
10242SOL    HW231626   6.838   1.678   6.671
10243SOL     OW31627   0.652   5.080   1.065
10243SOL    HW131628   0.658   4.984   1.092
10243SOL    HW231629   0.674   5.138   1.143
10244SOL     OW31630   1.564   4.680   0.608
10244SOL    HW131631   1.582   4.775   0.582
10244SOL    HW231632   1.651   4.630   0.613
10245SOL     OW31633   3.007   5.075   6.856
10245SOL    HW131634   3.009   5.007   6.783
10245SOL    HW231635   2.914   5.083   6.891
10246SOL     OW31636   2.914   3.560   4.102
10246SOL    HW131637   2.934   3.471   4.060
10246SOL    HW231638   2.876   3.545   4.194
10247SOL     OW31639   0.336   5.064   5.378
10247SOL    HW131640   0.387   5.118   5.311
10247SOL    HW231641   0.326   5.116   5.463
10248SOL     OW31642   3.606   6.719   2.105
10248SOL    HW131643   3.652   6.795   2.058
10248SOL    HW231644   3.518   6.751   2.140
10249SOL     OW31645   3.632   1.392   5.917
10249SOL    HW131646   3.696   1.330   5.962
10249SOL    HW231647   3.566   1.339   5.864
10250SOL     OW31648   6.897   2.751   1.108
10250SOL    HW131649   6.907   2.741   1.207
10250SOL    HW231650   6.869   2.663   1.068
10251SOL     OW31651   2.986   2.056   5.037
10251SOL    HW131652   2.952   2.047   5.131
10251SOL    HW231653   3.041   2.139   5.030
10252SOL     OW31654   6.085   5.866   0.761
10252SOL    HW131655   6.077   5.804   0.683
10252SOL    HW231656   5.999   5.868   0.811
10253SOL     OW31657   5.067   5.873   0.355
10253SOL    HW131658   5.147   5.905   0.305
10253SOL    HW231659   4.988   5.869   0.293
10254SOL     OW31660   4.199   1.965   5.270
10254SOL    HW131661   4.274   2.000   5.325
10254SOL    HW231662   4.113   1.978   5.318
10255SOL     OW31663   2.088   5.828   1.207
10255SOL    HW131664   2.012   5.763   1.207
10255SOL    HW231665   2.174   5.779   1.221
10256SOL     OW31666   6.355   0.459   1.974
10256SOL    HW131667   6.439   0.485   2.023
10256SOL    HW231668   6.352   0.508   1.887
10257SOL     OW31669   1.763   5.304   4.218
10257SOL    HW131670   1.812   5.235   4.272
10257SOL    HW231671   1.720   5.370   4.279
10258SOL     OW31672   4.574   0.142   3.934
10258SOL    HW131673   4.585   0.046   3.960
10258SOL    HW231674   4.490   0.153   3.880
10259SOL     OW31675   0.384   4.449   3.218
10259SOL    HW131676   0.381   4.382   3.144
10259SOL    HW231677   0.416   4.537   3.183
10260SOL     OW31678   0.163   0.055   3.014
10260SOL    HW131679   0.159   6.987   3.048
10260SOL    HW231680   0.222   0.110   3.074
10261SOL     OW31681   6.488   5.544   2.849
10261SOL    HW131682   6.550   5.617   2.876
10261SOL    HW231683   6.490   5.534   2.749
10262SOL     OW31684   2.523   6.955   4.350
10262SOL    HW131685   2.481   7.020   4.287
10262SOL    HW231686   2.596   6.905   4.303
10263SOL     OW31687   4.793   0.834   6.332
10263SOL    HW131688   4.796   0.871   6.239
10263SOL    HW231689   4.739   0.750   6.332
10264SOL     OW31690   5.767   2.285   6.583
10264SOL    HW131691   5.782   2.256   6.488
10264SOL    HW231692   5.841   2.345   6.612
10265SOL     OW31693   3.168   1.816   3.227
10265SOL    HW131694   3.201   1.891   3.171
10265SOL    HW231695   3.089   1.846   3.280
10266SOL     OW31696   3.106   2.953   5.540
10266SOL    HW131697   3.081   3.050   5.538
10266SOL    HW231698   3.164   2.935   5.620
10267SOL     OW31699   5.730   1.612   6.950
10267SOL    HW131700   5.664   1.569   7.012
10267SOL    HW231701   5.692   1.699   6.917
10268SOL     OW31702   4.546   5.101   1.683
10268SOL    HW131703   4.639   5.111   1.647
10268SOL    HW231704   4.549   5.046   1.767
10269SOL     OW31705   1.350   2.344   5.124
10269SOL    HW131706   1.416   2.416   5.100
10269SOL    HW231707   1.266   2.356   5.071
10270SOL     OW31708   2.619   5.545   3.537
10270SOL    HW131709   2.656   5.460   3.574
10270SOL    HW231710   2.619   5.541   3.437
10271SOL     OW31711   4.293   2.711   0.534
10271SOL    HW131712   4.225   2.642   0.560
10271SOL    HW231713   4.271   2.744   0.442
10272SOL     OW31714   0.252   0.177   4.663
10272SOL    HW131715   0.165   0.141   4.697
10272SOL    HW231716   0.321   0.174   4.735
10273SOL     OW31717   4.496   5.132   3.613
10273SOL    HW131718   4.420   5.089   3.662
10273SOL    HW231719   4.461   5.200   3.549
10274SOL     OW31720   0.880   4.152   4.907
10274SOL    HW131721   0.861   4.230   4.847
10274SOL    HW231722   0.893   4.070   4.851
10275SOL     OW31723   0.867   6.329   2.255
10275SOL    HW131724   0.791   6.278   2.217
10275SOL    HW231725   0.942   6.266   2.277
10276SOL     OW31726   6.117   5.521   5.925
10276SOL    HW131727   6.148   5.432   5.890
10276SOL    HW231728   6.074   5.509   6.014
10277SOL     OW31729   2.700   5.510   3.976
10277SOL    HW131730   2.603   5.520   3.997
10277SOL    HW231731   2.725   5.574   3.903
10278SOL     OW31732   5.802   1.432   4.577
10278SOL    HW131733   5.813   1.333   4.578
10278SOL    HW231734   5.742   1.457   4.501
10279SOL     OW31735   2.321   5.951   4.367
10279SOL    HW131736   2.337   6.049   4.355
10279SOL    HW231737   2.400   5.910   4.412
10280SOL     OW31738   1.528   3.527   1.255
10280SOL    HW131739   1.579   3.530   1.169
10280SOL    HW231740   1.504   3.620   1.283
10281SOL     OW31741   5.825   1.817   2.820
10281SOL    HW131742   5.747   1.872   2.848
10281SOL    HW231743   5.895   1.875   2.780
10282SOL     OW31744   6.332   4.178   3.932
10282SOL    HW131745   6.371   4.190   4.023
10282SOL    HW231746   6.257   4.112   3.936
10283SOL     OW31747   0.941   3.206   0.439
10283SOL    HW131748   0.844   3.224   0.459
10283SOL    HW231749   0.988   3.180   0.523
10284SOL     OW31750   5.406   3.855   5.301
10284SOL    HW131751   5.388   3.954   5.306
10284SOL    HW231752   5.341   3.807   5.360
10285SOL     OW31753   4.472   1.287   1.138
10285SOL    HW131754   4.484   1.189   1.151
10285SOL    HW231755   4.562   1.332   1.135
10286SOL     OW31756   3.086   2.190   4.022
10286SOL    HW131757   3.015   2.260   4.011
10286SOL    HW231758   3.043   2.102   4.041
10287SOL     OW31759   2.374   6.233   1.893
10287SOL    HW131760   2.371   6.331   1.878
10287SOL    HW231761   2.459   6.196   1.856
10288SOL     OW31762   4.949   6.307   2.385
10288SOL    HW131763   5.030   6.327   2.439
10288SOL    HW231764   4.901   6.229   2.425
10289SOL     OW31765   3.065   1.132   2.425
10289SOL    HW131766   3.066   1.081   2.511
10289SOL    HW231767   3.092   1.072   2.350
10290SOL     OW31768   3.366   3.959   1.910
10290SOL    HW131769   3.380   3.863   1.932
10290SOL    HW231770   3.284   3.992   1.956
10291SOL     OW31771   4.194   1.476   4.278
10291SOL    HW131772   4.160   1.433   4.362
10291SOL    HW231773   4.294   1.478   4.279
10292SOL     OW31774   1.546   0.548   4.587
10292SOL    HW131775   1.484   0.596   4.649
10292SOL    HW231776   1.639   0.580   4.602
10293SOL     OW31777   2.252   5.986   3.751
10293SOL    HW131778   2.173   5.971   3.691
10293SOL    HW231779   2.221   6.023   3.839
10294SOL     OW31780   4.775   4.056   2.465
10294SOL    HW131781   4.773   3.958   2.485
10294SOL    HW231782   4.869   4.084   2.444
10295SOL     OW31783   5.953   5.095   5.894
10295SOL    HW131784   5.916   5.176   5.940
10295SOL    HW231785   6.000   5.122   5.810
10296SOL     OW31786   4.531   3.140   6.517
10296SOL    HW131787   4.617   3.188   6.500
10296SOL    HW231788   4.550   3.046   6.544
10297SOL     OW31789   1.917   6.877   5.435
10297SOL    HW131790   1.829   6.835   5.415
10297SOL    HW231791   1.905   6.946   5.507
10298SOL     OW31792   3.780   5.321   2.027
10298SOL    HW131793   3.822   5.411   2.020
10298SOL    HW231794   3.783   5.275   1.939
10299SOL     OW31795   4.843   4.829   2.608
10299SOL    HW131796   4.867   4.926   2.616
10299SOL    HW231797   4.823   4.808   2.512
10300SOL     OW31798   1.922   4.948   3.196
10300SOL    HW131799   1.861   5.020   3.164
10300SOL    HW231800   1.875   4.860   3.191
10301SOL     OW31801   6.399   2.588   3.279
10301SOL    HW131802   6.360   2.536   3.203
10301SOL    HW231803   6.488   2.550   3.304
10302SOL     OW31804   0.669   6.182   4.143
10302SOL    HW131805   0.722   6.260   4.176
10302SOL    HW231806   0.718   6.137   4.069
10303SOL     OW31807   2.522   5.303   1.389
10303SOL    HW131808   2.548   5.306   1.293
10303SOL    HW231809   2.453   5.372   1.408
10304SOL     OW31810   5.422   0.913   2.806
10304SOL    HW131811   5.388   0.820   2.822
10304SOL    HW231812   5.460   0.919   2.713
10305SOL     OW31813   0.557   5.123   6.890
10305SOL    HW131814   0.473   5.162   6.853
10305SOL    HW231815   0.617   5.196   6.922
10306SOL     OW31816   4.464   6.475   6.978
10306SOL    HW131817   4.473   6.572   6.999
10306SOL    HW231818   4.399   6.434   0.017
10307SOL     OW31819   2.085   2.023   4.087
10307SOL    HW131820   2.100   2.116   4.055
10307SOL    HW231821   2.163   1.992   4.140
10308SOL     OW31822   2.776   5.331   4.180
10308SOL    HW131823   2.795   5.239   4.146
10308SOL    HW231824   2.796   5.398   4.108
10309SOL     OW31825   6.308   1.072   3.623
10309SOL    HW131826   6.263   0.983   3.623
10309SOL    HW231827   6.337   1.095   3.716
10310SOL     OW31828   4.300   2.544   1.338
10310SOL    HW131829   4.391   2.507   1.318
10310SOL    HW231830   4.261   2.496   1.416
10311SOL     OW31831   0.523   5.623   1.459
10311SOL    HW131832   0.452   5.680   1.500
10311SOL    HW231833   0.539   5.543   1.517
10312SOL     OW31834   2.387   5.690   0.834
10312SOL    HW131835   2.439   5.766   0.874
10312SOL    HW231836   2.332   5.724   0.757
10313SOL     OW31837   3.557   0.140   1.494
10313SOL    HW131838   3.510   0.128   1.407
10313SOL    HW231839   3.617   0.220   1.489
10314SOL     OW31840   6.922   0.603   1.568
10314SOL    HW131841   6.963   0.533   1.509
10314SOL    HW231842   6.823   0.586   1.576
10315SOL     OW31843   5.853   5.536   4.677
10315SOL    HW131844   5.909   5.607   4.635
10315SOL    HW231845   5.871   5.534   4.775
10316SOL     OW31846   6.270   2.639   4.664
10316SOL    HW131847   6.229   2.659   4.575
10316SOL    HW231848   6.198   2.633   4.733
10317SOL     OW31849   3.352   5.658   6.213
10317SOL    HW131850   3.402   5.744   6.220
10317SOL    HW231851   3.415   5.581   6.227
10318SOL     OW31852   4.975   6.371   0.289
10318SOL    HW131853   4.900   6.326   0.240
10318SOL    HW231854   5.021   6.436   0.229
10319SOL     OW31855   1.386   2.967   5.465
10319SOL    HW131856   1.334   2.895   5.511
10319SOL    HW231857   1.376   3.053   5.515
10320SOL     OW31858   0.743   0.794   1.233
10320SOL    HW131859   0.812   0.850   1.186
10320SOL    HW231860   0.653   0.833   1.219
10321SOL     OW31861   4.158   0.680   3.764
10321SOL    HW131862   4.129   0.638   3.678
10321SOL    HW231863   4.117   0.771   3.773
10322SOL     OW31864   6.027   5.823   6.511
10322SOL    HW131865   5.960   5.820   6.437
10322SOL    HW231866   6.087   5.902   6.498
10323SOL     OW31867   6.534   3.684   6.031
10323SOL    HW131868   6.559   3.689   5.935
10323SOL    HW231869   6.453   3.625   6.041
10324SOL     OW31870   3.134   3.043   3.215
10324SOL    HW131871   3.187   3.028   3.298
10324SOL    HW231872   3.044   3.081   3.239
10325SOL     OW31873   6.619   4.520   3.056
10325SOL    HW131874   6.702   4.486   3.100
10325SOL    HW231875   6.596   4.610   3.093
10326SOL     OW31876   4.110   2.811   0.195
10326SOL    HW131877   4.025   2.821   0.247
10326SOL    HW231878   4.187   2.844   0.249
10327SOL     OW31879   2.378   1.856   2.155
10327SOL    HW131880   2.450   1.920   2.129
10327SOL    HW231881   2.338   1.883   2.242
10328SOL     OW31882   6.546   3.369   1.644
10328SOL    HW131883   6.472   3.434   1.623
10328SOL    HW231884   6.612   3.411   1.706
10329SOL     OW31885   3.853   0.517   3.968
10329SOL    HW131886   3.889   0.591   4.024
10329SOL    HW231887   3.810   0.555   3.886
10330SOL     OW31888   2.949   5.587   2.838
10330SOL    HW131889   3.037   5.540   2.845
10330SOL    HW231890   2.953   5.675   2.886
10331SOL     OW31891   6.543   0.522   3.502
10331SOL    HW131892   6.457   0.571   3.484
10331SOL    HW231893   6.620   0.586   3.495
10332SOL     OW31894   5.992   1.755   0.479
10332SOL    HW131895   5.985   1.661   0.512
10332SOL    HW231896   5.940   1.764   0.394
10333SOL     OW31897   6.313   4.294   4.512
10333SOL    HW131898   6.276   4.372   4.563
10333SOL    HW231899   6.413   4.296   4.516
10334SOL     OW31900   2.369   5.740   3.882
10334SOL    HW131901   2.462   5.777   3.878
10334SOL    HW231902   2.317   5.787   3.953
10335SOL     OW31903   2.201   4.688   0.006
10335SOL    HW131904   2.208   4.756   0.078
10335SOL    HW231905   2.247   4.721   6.949
10336SOL     OW31906   5.824   6.534   3.217
10336SOL    HW131907   5.737   6.520   3.170
10336SOL    HW231908   5.895   6.555   3.150
10337SOL     OW31909   6.536   6.584   5.391
10337SOL    HW131910   6.616   6.526   5.406
10337SOL    HW231911   6.510   6.581   5.294
10338SOL     OW31912   3.097   6.690   1.713
10338SOL    HW131913   3.045   6.732   1.787
10338SOL    HW231914   3.060   6.721   1.625
10339SOL     OW31915   3.661   4.800   0.930
10339SOL    HW131916   3.601   4.879   0.944
10339SOL    HW231917   3.748   4.815   0.978
10340SOL     OW31918   1.230   5.166   0.200
10340SOL    HW131919   1.267   5.081   0.236
10340SOL    HW231920   1.210   5.154   0.102
10341SOL     OW31921   2.204   3.328   1.685
10341SOL    HW131922   2.234   3.380   1.765
10341SOL    HW231923   2.127   3.375   1.642
10342SOL     OW31924   2.367   5.608   5.127
10342SOL    HW131925   2.409   5.669   5.059
10342SOL    HW231926   2.281   5.647   5.159
10343SOL     OW31927   2.434   3.804   0.475
10343SOL    HW131928   2.505   3.754   0.425
10343SOL    HW231929   2.470   3.834   0.563
10344SOL     OW31930   3.886   3.557   2.545
10344SOL    HW131931   3.975   3.513   2.547
10344SOL    HW231932   3.892   3.642   2.492
10345SOL     OW31933   1.600   0.533   6.224
10345SOL    HW131934   1.564   0.452   6.269
10345SOL    HW231935   1.639   0.508   6.136
10346SOL     OW31936   6.251   0.954   1.036
10346SOL    HW131937   6.181   0.912   0.979
10346SOL    HW231938   6.247   0.916   1.128
10347SOL     OW31939   5.381   2.562   1.574
10347SOL    HW131940   5.364   2.636   1.639
10347SOL    HW231941   5.444   2.496   1.614
10348SOL     OW31942   6.549   1.264   6.806
10348SOL    HW131943   6.513   1.187   6.754
10348SOL    HW231944   6.633   1.297   6.762
10349SOL     OW31945   6.929   1.548   0.400
10349SOL    HW131946   6.889   1.639   0.413
10349SOL    HW231947   6.912   1.492   0.481
10350SOL     OW31948   2.876   6.308   4.798
10350SOL    HW131949   2.967   6.341   4.773
10350SOL    HW231950   2.821   6.384   4.831
10351SOL     OW31951   6.060   4.924   6.106
10351SOL    HW131952   5.985   4.968   6.056
10351SOL    HW231953   6.146   4.941   6.058
10352SOL     OW31954   5.090   2.018   6.358
10352SOL    HW131955   5.180   2.014   6.401
10352SOL    HW231956   5.088   2.092   6.290
10353SOL     OW31957   6.817   3.220   4.118
10353SOL    HW131958   6.818   3.233   4.019
10353SOL    HW231959   6.837   3.124   4.138
10354SOL     OW31960   0.924   2.807   1.048
10354SOL    HW131961   0.858   2.780   1.117
10354SOL    HW231962   1.004   2.746   1.053
10355SOL     OW31963   1.272   0.655   0.484
10355SOL    HW131964   1.275   0.559   0.458
10355SOL    HW231965   1.348   0.704   0.441
10356SOL     OW31966   6.620   3.711   5.744
10356SOL    HW131967   6.608   3.765   5.660
10356SOL    HW231968   6.692   3.644   5.730
10357SOL     OW31969   3.825   2.198   5.597
10357SOL    HW131970   3.750   2.131   5.601
10357SOL    HW231971   3.789   2.289   5.615
10358SOL     OW31972   0.959   3.138   3.995
10358SOL    HW131973   0.906   3.151   3.912
10358SOL    HW231974   0.962   3.041   4.018
10359SOL     OW31975   5.139   1.885   2.183
10359SOL    HW131976   5.219   1.838   2.147
10359SOL    HW231977   5.162   1.981   2.199
10360SOL     OW31978   5.386   6.025   2.300
10360SOL    HW131979   5.359   5.997   2.208
10360SOL    HW231980   5.353   5.958   2.366
10361SOL     OW31981   2.476   0.860   2.763
10361SOL    HW131982   2.447   0.767   2.739
10361SOL    HW231983   2.427   0.926   2.706
10362SOL     OW31984   0.670   5.364   2.869
10362SOL    HW131985   0.588   5.404   2.910
10362SOL    HW231986   0.650   5.337   2.775
10363SOL     OW31987   5.294   2.451   0.953
10363SOL    HW131988   5.278   2.530   1.012
10363SOL    HW231989   5.334   2.482   0.867
10364SOL     OW31990   4.953   4.102   1.808
10364SOL    HW131991   4.927   4.072   1.900
10364SOL    HW231992   4.874   4.143   1.762
10365SOL     OW31993   6.199   4.681   0.043
10365SOL    HW131994   6.172   4.588   0.016
10365SOL    HW231995   6.118   4.734   0.065
10366SOL     OW31996   3.495   6.826   3.509
10366SOL    HW131997   3.402   6.864   3.508
10366SOL    HW231998   3.506   6.767   3.589
10367SOL     OW31999   0.190   2.015   1.648
10367SOL    HW132000   0.213   2.103   1.690
10367SOL    HW232001   0.121   2.028   1.578
10368SOL     OW32002   2.171   1.135   2.294
10368SOL    HW132003   2.077   1.102   2.301
10368SOL    HW232004   2.174   1.212   2.231
10369SOL     OW32005   2.750   6.475   5.724
10369SOL    HW132006   2.810   6.549   5.753
10369SOL    HW232007   2.656   6.496   5.750
10370SOL     OW32008   6.163   1.330   5.147
10370SOL    HW132009   6.227   1.405   5.167
10370SOL    HW232010   6.214   1.245   5.137
10371SOL     OW32011   2.289   6.676   4.294
10371SOL    HW132012   2.232   6.605   4.254
10371SOL    HW232013   2.238   6.762   4.296
10372SOL     OW32014   2.803   1.022   0.951
10372SOL    HW132015   2.740   0.946   0.938
10372SOL    HW232016   2.814   1.072   0.865
10373SOL     OW32017   0.556   6.738   4.968
10373SOL    HW132018   0.466   6.767   4.999
10373SOL    HW232019   0.627   6.797   5.007
10374SOL     OW32020   3.357   0.658   3.763
10374SOL    HW132021   3.418   0.653   3.842
10374SOL    HW232022   3.357   0.570   3.715
10375SOL     OW32023   2.935   2.376   5.964
10375SOL    HW132024   2.969   2.292   6.006
10375SOL    HW232025   2.898   2.356   5.874
10376SOL     OW32026   1.171   6.320   4.187
10376SOL    HW132027   1.229   6.381   4.241
10376SOL    HW232028   1.102   6.373   4.138
10377SOL     OW32029   0.507   1.169   1.928
10377SOL    HW132030   0.437   1.218   1.875
10377SOL    HW232031   0.536   1.225   2.005
10378SOL     OW32032   6.143   5.623   5.648
10378SOL    HW132033   6.182   5.707   5.687
10378SOL    HW232034   6.107   5.567   5.722
10379SOL     OW32035   3.557   5.657   4.301
10379SOL    HW132036   3.550   5.659   4.401
10379SOL    HW232037   3.546   5.564   4.268
10380SOL     OW32038   1.078   2.651   4.859
10380SOL    HW132039   1.118   2.693   4.777
10380SOL    HW232040   1.118   2.693   4.941
10381SOL     OW32041   4.372   3.962   1.473
10381SOL    HW132042   4.294   3.993   1.420
10381SOL    HW232043   4.390   3.866   1.454
10382SOL     OW32044   3.025   5.928   1.794
10382SOL    HW132045   2.990   5.920   1.701
10382SOL    HW232046   2.970   5.872   1.856
10383SOL     OW32047   1.031   4.287   0.735
10383SOL    HW132048   1.029   4.208   0.796
10383SOL    HW232049   1.082   4.361   0.778
10384SOL     OW32050   6.753   6.768   0.268
10384SOL    HW132051   6.831   6.830   0.269
10384SOL    HW232052   6.763   6.701   0.342
10385SOL     OW32053   4.255   5.859   6.641
10385SOL    HW132054   4.210   5.787   6.589
10385SOL    HW232055   4.205   5.945   6.630
10386SOL     OW32056   0.308   1.058   5.853
10386SOL    HW132057   0.308   1.104   5.942
10386SOL    HW232058   0.341   0.964   5.863
10387SOL     OW32059   4.923   2.923   2.708
10387SOL    HW132060   5.014   2.885   2.715
10387SOL    HW232061   4.903   2.979   2.788
10388SOL     OW32062   1.325   5.888   1.748
10388SOL    HW132063   1.322   5.853   1.654
10388SOL    HW232064   1.420   5.911   1.772
10389SOL     OW32065   6.399   3.863   1.285
10389SOL    HW132066   6.431   3.853   1.379
10389SOL    HW232067   6.444   3.942   1.243
10390SOL     OW32068   1.958   3.141   6.995
10390SOL    HW132069   2.032   3.084   0.006
10390SOL    HW232070   1.881   3.140   0.033
10391SOL     OW32071   0.422   5.992   4.585
10391SOL    HW132072   0.381   6.083   4.598
10391SOL    HW232073   0.409   5.938   4.669
10392SOL     OW32074   5.951   4.652   5.544
10392SOL    HW132075   5.884   4.622   5.612
10392SOL    HW232076   6.013   4.577   5.523
10393SOL     OW32077   2.202   2.920   3.220
10393SOL    HW132078   2.102   2.925   3.223
10393SOL    HW232079   2.241   2.989   3.281
10394SOL     OW32080   2.881   5.313   5.255
10394SOL    HW132081   2.953   5.371   5.216
10394SOL    HW232082   2.889   5.311   5.354
10395SOL     OW32083   0.283   0.708   1.423
10395SOL    HW132084   0.380   0.709   1.397
10395SOL    HW232085   0.276   0.716   1.522
10396SOL     OW32086   3.472   1.609   4.017
10396SOL    HW132087   3.513   1.669   4.086
10396SOL    HW232088   3.541   1.548   3.980
10397SOL     OW32089   3.735   1.094   4.373
10397SOL    HW132090   3.689   1.061   4.455
10397SOL    HW232091   3.676   1.160   4.326
10398SOL     OW32092   5.790   2.565   0.472
10398SOL    HW132093   5.713   2.505   0.449
10398SOL    HW232094   5.864   2.510   0.512
10399SOL     OW32095   4.695   1.894   3.307
10399SOL    HW132096   4.626   1.906   3.236
10399SOL    HW232097   4.686   1.966   3.376
10400SOL     OW32098   4.601   5.867   6.942
10400SOL    HW132099   4.560   5.802   6.878
10400SOL    HW232100   4.542   5.877   7.022
10401SOL     OW32101   0.167   6.287   2.601
10401SOL    HW132102   0.094   6.355   2.595
10401SOL    HW232103   0.134   6.199   2.570
10402SOL     OW32104   6.765   1.880   5.597
10402SOL    HW132105   6.741   1.784   5.585
10402SOL    HW232106   6.836   1.888   5.667
10403SOL     OW32107   4.690   2.577   3.028
10403SOL    HW132108   4.690   2.673   3.054
10403SOL    HW232109   4.670   2.569   2.931
10404SOL     OW32110   6.067   6.442   4.572
10404SOL    HW132111   6.139   6.445   4.641
10404SOL    HW232112   6.108   6.422   4.483
10405SOL     OW32113   1.344   6.563   4.790
10405SOL    HW132114   1.278   6.500   4.748
10405SOL    HW232115   1.372   6.631   4.722
10406SOL     OW32116   2.204   3.086   3.473
10406SOL    HW132117   2.173   3.145   3.547
10406SOL    HW232118   2.211   2.992   3.505
10407SOL     OW32119   2.784   6.733   6.497
10407SOL    HW132120   2.796   6.821   6.543
10407SOL    HW232121   2.754   6.665   6.563
10408SOL     OW32122   4.747   0.453   1.074
10408SOL    HW132123   4.828   0.508   1.053
10408SOL    HW232124   4.774   0.367   1.115
10409SOL     OW32125   6.742   4.856   1.200
10409SOL    HW132126   6.821   4.908   1.166
10409SOL    HW232127   6.770   4.762   1.219
10410SOL     OW32128   5.018   1.902   1.779
10410SOL    HW132129   4.979   1.980   1.731
10410SOL    HW232130   4.971   1.891   1.867
10411SOL     OW32131   2.951   6.503   3.701
10411SOL    HW132132   2.933   6.552   3.787
10411SOL    HW232133   2.868   6.500   3.646
10412SOL     OW32134   0.215   1.473   0.388
10412SOL    HW132135   0.209   1.545   0.319
10412SOL    HW232136   0.199   1.384   0.345
10413SOL     OW32137   6.906   2.759   0.677
10413SOL    HW132138   6.806   2.768   0.679
10413SOL    HW232139   6.948   2.847   0.698
10414SOL     OW32140   4.078   5.567   5.540
10414SOL    HW132141   4.079   5.547   5.638
10414SOL    HW232142   3.985   5.557   5.505
10415SOL     OW32143   1.072   3.755   5.298
10415SOL    HW132144   1.002   3.799   5.242
10415SOL    HW232145   1.155   3.743   5.244
10416SOL     OW32146   5.397   7.006   5.629
10416SOL    HW132147   5.396   0.074   5.665
10416SOL    HW232148   5.442   6.946   5.695
10417SOL     OW32149   2.974   4.824   3.987
10417SOL    HW132150   3.065   4.862   3.972
10417SOL    HW232151   2.980   4.748   4.052
10418SOL     OW32152   6.605   4.264   6.085
10418SOL    HW132153   6.537   4.270   6.158
10418SOL    HW232154   6.696   4.277   6.123
10419SOL     OW32155   3.103   6.858   6.153
10419SOL    HW132156   3.048   6.779   6.183
10419SOL    HW232157   3.084   6.936   6.213
10420SOL     OW32158   0.279   3.736   4.203
10420SOL    HW132159   0.352   3.682   4.246
10420SOL    HW232160   0.270   3.710   4.107
10421SOL     OW32161   1.280   2.746   4.033
10421SOL    HW132162   1.350   2.695   3.984
10421SOL    HW232163   1.209   2.683   4.064
10422SOL     OW32164   6.258   3.293   5.169
10422SOL    HW132165   6.288   3.382   5.135
10422SOL    HW232166   6.159   3.283   5.154
10423SOL     OW32167   5.543   5.020   5.564
10423SOL    HW132168   5.553   5.004   5.466
10423SOL    HW232169   5.447   5.008   5.590
10424SOL     OW32170   4.343   3.139   0.848
10424SOL    HW132171   4.355   3.128   0.749
10424SOL    HW232172   4.371   3.231   0.875
10425SOL     OW32173   1.218   6.357   2.227
10425SOL    HW132174   1.231   6.392   2.134
10425SOL    HW232175   1.248   6.426   2.293
10426SOL     OW32176   4.947   5.242   0.288
10426SOL    HW132177   5.006   5.171   0.248
10426SOL    HW232178   4.878   5.269   0.221
10427SOL     OW32179   3.907   1.116   6.810
10427SOL    HW132180   3.904   1.190   6.878
10427SOL    HW232181   3.884   1.029   6.855
10428SOL     OW32182   3.387   1.110   3.516
10428SOL    HW132183   3.484   1.133   3.509
10428SOL    HW232184   3.377   1.026   3.570
10429SOL     OW32185   6.696   4.294   1.354
10429SOL    HW132186   6.665   4.229   1.424
10429SOL    HW232187   6.676   4.387   1.384
10430SOL     OW32188   5.034   0.255   4.614
10430SOL    HW132189   4.993   0.245   4.705
10430SOL    HW232190   5.128   0.222   4.616
10431SOL     OW32191   2.917   6.258   4.112
10431SOL    HW132192   2.867   6.209   4.183
10431SOL    HW232193   2.972   6.330   4.154
10432SOL     OW32194   5.444   0.396   4.590
10432SOL    HW132195   5.396   0.472   4.633
10432SOL    HW232196   5.541   0.401   4.612
10433SOL     OW32197   0.875   5.921   2.627
10433SOL    HW132198   0.906   5.957   2.715
10433SOL    HW232199   0.886   5.821   2.627
10434SOL     OW32200   4.058   6.078   2.970
10434SOL    HW132201   4.006   6.014   2.913
10434SOL    HW232202   4.033   6.066   3.066
10435SOL     OW32203   0.940   1.124   5.567
10435SOL    HW132204   0.846   1.123   5.603
10435SOL    HW232205   0.986   1.208   5.597
10436SOL     OW32206   6.459   4.583   5.393
10436SOL    HW132207   6.493   4.576   5.486
10436SOL    HW232208   6.520   4.534   5.330
10437SOL     OW32209   4.694   4.015   6.118
10437SOL    HW132210   4.773   3.969   6.158
10437SOL    HW232211   4.691   4.110   6.148
10438SOL     OW32212   6.206   6.575   6.947
10438SOL    HW132213   6.155   6.496   6.979
10438SOL    HW232214   6.164   6.610   6.863
10439SOL     OW32215   3.964   1.044   4.773
10439SOL    HW132216   3.904   1.121   4.792
10439SOL    HW232217   3.992   1.047   4.677
10440SOL     OW32218   1.612   6.542   1.012
10440SOL    HW132219   1.652   6.499   0.930
10440SOL    HW232220   1.513   6.537   1.006
10441SOL     OW32221   3.875   1.399   1.225
10441SOL    HW132222   3.957   1.452   1.242
10441SOL    HW232223   3.900   1.303   1.213
10442SOL     OW32224   3.969   6.561   6.618
10442SOL    HW132225   4.021   6.587   6.699
10442SOL    HW232226   4.026   6.503   6.560
10443SOL     OW32227   4.981   3.871   4.045
10443SOL    HW132228   5.048   3.886   4.117
10443SOL    HW232229   4.973   3.773   4.026
10444SOL     OW32230   4.602   5.634   4.069
10444SOL    HW132231   4.665   5.629   3.991
10444SOL    HW232232   4.518   5.679   4.040
10445SOL     OW32233   0.846   4.505   4.466
10445SOL    HW132234   0.865   4.422   4.518
10445SOL    HW232235   0.757   4.541   4.493
10446SOL     OW32236   1.466   3.301   5.388
10446SOL    HW132237   1.451   3.245   5.470
10446SOL    HW232238   1.428   3.392   5.403
10447SOL     OW32239   0.048   1.170   2.325
10447SOL    HW132240   0.022   1.130   2.413
10447SOL    HW232241   0.088   1.260   2.339
10448SOL     OW32242   4.671   0.679   2.514
10448SOL    HW132243   4.578   0.641   2.515
10448SOL    HW232244   4.671   0.763   2.459
10449SOL     OW32245   2.325   5.350   4.562
10449SOL    HW132246   2.296   5.444   4.544
10449SOL    HW232247   2.388   5.349   4.641
10450SOL     OW32248   0.998   1.427   0.807
10450SOL    HW132249   0.903   1.440   0.835
10450SOL    HW232250   1.011   1.331   0.780
10451SOL     OW32251   1.853   5.513   2.389
10451SOL    HW132252   1.796   5.471   2.460
10451SOL    HW232253   1.794   5.559   2.323
10452SOL     OW32254   6.796   3.068   2.065
10452SOL    HW132255   6.719   3.113   2.021
10452SOL    HW232256   6.779   2.970   2.072
10453SOL     OW32257   3.805   6.927   1.149
10453SOL    HW132258   3.741   6.992   1.107
10453SOL    HW232259   3.841   6.866   1.078
10454SOL     OW32260   4.689   3.366   0.324
10454SOL    HW132261   4.788   3.368   0.312
10454SOL    HW232262   4.647   3.322   0.244
10455SOL     OW32263   6.621   6.170   3.361
10455SOL    HW132264   6.561   6.244   3.329
10455SOL    HW232265   6.656   6.119   3.283
10456SOL     OW32266   2.219   6.095   0.740
10456SOL    HW132267   2.189   6.046   0.821
10456SOL    HW232268   2.252   6.186   0.766
10457SOL     OW32269   3.258   3.424   1.718
10457SOL    HW132270   3.174   3.376   1.691
10457SOL    HW232271   3.336   3.361   1.710
10458SOL     OW32272   6.122   1.194   6.364
10458SOL    HW132273   6.093   1.152   6.450
10458SOL    HW232274   6.117   1.294   6.373
10459SOL     OW32275   5.098   5.695   1.453
10459SOL    HW132276   5.102   5.616   1.514
10459SOL    HW232277   5.155   5.768   1.489
10460SOL     OW32278   0.891   4.354   2.581
10460SOL    HW132279   0.881   4.453   2.571
10460SOL    HW232280   0.827   4.321   2.650
10461SOL     OW32281   6.969   5.042   5.953
10461SOL    HW132282   6.885   5.095   5.940
10461SOL    HW232283   6.949   4.945   5.940
10462SOL     OW32284   5.921   1.520   3.359
10462SOL    HW132285   5.943   1.524   3.261
10462SOL    HW232286   5.979   1.586   3.408
10463SOL     OW32287   4.332   2.895   5.645
10463SOL    HW132288   4.409   2.958   5.656
10463SOL    HW232289   4.296   2.902   5.552
10464SOL     OW32290   6.677   0.281   1.320
10464SOL    HW132291   6.590   0.244   1.289
10464SOL    HW232292   6.708   0.230   1.400
10465SOL     OW32293   6.493   5.225   0.969
10465SOL    HW132294   6.417   5.209   0.906
10465SOL    HW232295   6.562   5.154   0.956
10466SOL     OW32296   4.580   4.937   6.293
10466SOL    HW132297   4.553   4.972   6.383
10466SOL    HW232298   4.514   4.868   6.263
10467SOL     OW32299   2.682   1.503   6.268
10467SOL    HW132300   2.618   1.574   6.298
10467SOL    HW232301   2.644   1.413   6.287
10468SOL     OW32302   4.138   5.427   3.455
10468SOL    HW132303   4.108   5.369   3.531
10468SOL    HW232304   4.234   5.409   3.435
10469SOL     OW32305   3.936   4.478   5.753
10469SOL    HW132306   3.962   4.389   5.715
10469SOL    HW232307   3.870   4.522   5.693
10470SOL     OW32308   2.460   2.673   3.671
10470SOL    HW132309   2.459   2.652   3.574
10470SOL    HW232310   2.500   2.596   3.722
10471SOL     OW32311   2.850   2.101   1.251
10471SOL    HW132312   2.943   2.138   1.261
10471SOL    HW232313   2.799   2.157   1.186
10472SOL     OW32314   4.238   5.449   0.323
10472SOL    HW132315   4.235   5.358   0.280
10472SOL    HW232316   4.165   5.456   0.390
10473SOL     OW32317   6.742   0.570   6.385
10473SOL    HW132318   6.794   0.571   6.471
10473SOL    HW232319   6.660   0.626   6.395
10474SOL     OW32320   3.886   2.195   4.527
10474SOL    HW132321   3.884   2.138   4.609
10474SOL    HW232322   3.958   2.264   4.536
10475SOL     OW32323   4.468   6.626   1.687
10475SOL    HW132324   4.525   6.567   1.631
10475SOL    HW232325   4.507   6.718   1.689
10476SOL     OW32326   0.075   6.072   0.056
10476SOL    HW132327   0.077   5.983   0.010
10476SOL    HW232328   0.013   6.067   0.135
10477SOL     OW32329   6.903   1.887   4.286
10477SOL    HW132330   6.897   1.939   4.200
10477SOL    HW232331   6.926   1.792   4.265
10478SOL     OW32332   0.092   0.524   1.317
10478SOL    HW132333   0.161   0.582   1.361
10478SOL    HW232334   0.075   0.557   1.225
10479SOL     OW32335   0.514   2.833   1.755
10479SOL    HW132336   0.563   2.808   1.672
10479SOL    HW232337   0.448   2.905   1.734
10480SOL     OW32338   6.789   0.075   1.502
10480SOL    HW132339   6.848   0.048   1.578
10480SOL    HW232340   6.760   7.019   1.451
10481SOL     OW32341   2.252   0.153   4.622
10481SOL    HW132342   2.314   0.200   4.685
10481SOL    HW232343   2.257   0.055   4.637
10482SOL     OW32344   6.429   5.457   4.667
10482SOL    HW132345   6.408   5.425   4.575
10482SOL    HW232346   6.436   5.557   4.666
10483SOL     OW32347   6.582   4.879   6.754
10483SOL    HW132348   6.629   4.811   6.698
10483SOL    HW232349   6.508   4.836   6.805
10484SOL     OW32350   6.022   1.041   1.659
10484SOL    HW132351   6.000   0.950   1.693
10484SOL    HW232352   6.069   1.034   1.571
10485SOL     OW32353   3.303   3.966   1.610
10485SOL    HW132354   3.276   3.997   1.701
10485SOL    HW232355   3.379   3.902   1.618
10486SOL     OW32356   6.536   0.723   6.448
10486SOL    HW132357   6.463   0.748   6.512
10486SOL    HW232358   6.562   0.804   6.395
10487SOL     OW32359   4.896   1.489   2.448
10487SOL    HW132360   4.819   1.495   2.385
10487SOL    HW232361   4.949   1.574   2.444
10488SOL     OW32362   2.583   1.787   5.316
10488SOL    HW132363   2.561   1.708   5.372
10488SOL    HW232364   2.518   1.795   5.241
10489SOL     OW32365   6.454   0.040   4.553
10489SOL    HW132366   6.537   0.096   4.543
10489SOL    HW232367   6.421   0.013   4.463
10490SOL     OW32368   6.389   1.801   0.769
10490SOL    HW132369   6.329   1.806   0.689
10490SOL    HW232370   6.339   1.760   0.845
10491SOL     OW32371   2.696   2.205   5.500
10491SOL    HW132372   2.757   2.132   5.470
10491SOL    HW232373   2.652   2.247   5.421
10492SOL     OW32374   5.296   5.858   0.777
10492SOL    HW132375   5.331   5.912   0.700
10492SOL    HW232376   5.210   5.898   0.809
10493SOL     OW32377   3.005   6.782   2.400
10493SOL    HW132378   2.984   6.809   2.306
10493SOL    HW232379   3.066   6.703   2.398
10494SOL     OW32380   5.649   4.214   6.345
10494SOL    HW132381   5.574   4.219   6.411
10494SOL    HW232382   5.730   4.175   6.389
10495SOL     OW32383   0.803   6.667   0.894
10495SOL    HW132384   0.738   6.659   0.970
10495SOL    HW232385   0.890   6.702   0.928
10496SOL     OW32386   5.911   4.159   6.204
10496SOL    HW132387   5.909   4.210   6.117
10496SOL    HW232388   5.948   4.068   6.188
10497SOL     OW32389   1.628   6.972   2.364
10497SOL    HW132390   1.531   6.955   2.379
10497SOL    HW232391   1.647   6.973   2.265
10498SOL     OW32392   5.370   5.328   0.383
10498SOL    HW132393   5.277   5.358   0.403
10498SOL    HW232394   5.431   5.407   0.381
10499SOL     OW32395   5.010   0.099   2.439
10499SOL    HW132396   4.988   0.136   2.349
10499SOL    HW232397   5.108   0.110   2.456
10500SOL     OW32398   5.872   1.250   5.752
10500SOL    HW132399   5.920   1.330   5.788
10500SOL    HW232400   5.938   1.181   5.722
10501SOL     OW32401   2.192   5.357   2.323
10501SOL    HW132402   2.134   5.279   2.342
10501SOL    HW232403   2.164   5.434   2.380
10502SOL     OW32404   2.726   2.508   1.383
10502SOL    HW132405   2.787   2.545   1.313
10502SOL    HW232406   2.740   2.556   1.469
10503SOL     OW32407   4.942   2.880   0.742
10503SOL    HW132408   4.922   2.967   0.787
10503SOL    HW232409   5.014   2.894   0.673
10504SOL     OW32410   0.954   2.973   5.750
10504SOL    HW132411   0.902   3.048   5.710
10504SOL    HW232412   0.894   2.920   5.811
10505SOL     OW32413   5.789   5.379   0.868
10505SOL    HW132414   5.768   5.292   0.823
10505SOL    HW232415   5.705   5.433   0.877
10506SOL     OW32416   0.286   3.897   6.895
10506SOL    HW132417   0.359   3.926   6.833
10506SOL    HW232418   0.325   3.880   6.986
10507SOL     OW32419   1.651   5.642   1.058
10507SOL    HW132420   1.681   5.664   0.965
10507SOL    HW232421   1.581   5.707   1.087
10508SOL     OW32422   0.233   5.321   4.990
10508SOL    HW132423   0.187   5.233   4.974
10508SOL    HW232424   0.165   5.391   5.011
10509SOL     OW32425   6.744   5.419   5.299
10509SOL    HW132426   6.732   5.508   5.254
10509SOL    HW232427   6.818   5.369   5.254
10510SOL     OW32428   4.641   6.797   0.322
10510SOL    HW132429   4.675   6.737   0.394
10510SOL    HW232430   4.690   6.884   0.326
10511SOL     OW32431   2.486   1.596   2.235
10511SOL    HW132432   2.538   1.679   2.256
10511SOL    HW232433   2.456   1.599   2.140
10512SOL     OW32434   3.700   0.436   5.517
10512SOL    HW132435   3.715   0.534   5.528
10512SOL    HW232436   3.727   0.388   5.601
10513SOL     OW32437   6.757   3.548   3.595
10513SOL    HW132438   6.691   3.620   3.617
10513SOL    HW232439   6.708   3.468   3.559
10514SOL     OW32440   0.683   3.268   1.017
10514SOL    HW132441   0.616   3.220   1.073
10514SOL    HW232442   0.763   3.210   1.003
10515SOL     OW32443   1.527   3.854   4.383
10515SOL    HW132444   1.452   3.878   4.444
10515SOL    HW232445   1.614   3.861   4.433
10516SOL     OW32446   3.220   1.807   0.675
10516SOL    HW132447   3.157   1.730   0.683
10516SOL    HW232448   3.172   1.884   0.632
10517SOL     OW32449   0.804   2.927   0.704
10517SOL    HW132450   0.855   3.002   0.664
10517SOL    HW232451   0.708   2.953   0.713
10518SOL     OW32452   7.022   5.908   1.119
10518SOL    HW132453   0.046   5.839   1.066
10518SOL    HW232454   0.051   5.936   1.197
10519SOL     OW32455   3.229   3.607   0.915
10519SOL    HW132456   3.301   3.675   0.901
10519SOL    HW232457   3.144   3.639   0.873
10520SOL     OW32458   0.828   2.384   5.778
10520SOL    HW132459   0.844   2.378   5.679
10520SOL    HW232460   0.910   2.358   5.827
10521SOL     OW32461   6.355   5.093   1.197
10521SOL    HW132462   6.395   5.004   1.219
10521SOL    HW232463   6.364   5.110   1.099
10522SOL     OW32464   0.246   1.414   4.496
10522SOL    HW132465   0.275   1.501   4.536
10522SOL    HW232466   0.316   1.380   4.434
10523SOL     OW32467   0.912   4.608   2.813
10523SOL    HW132468   0.905   4.628   2.716
10523SOL    HW232469   1.008   4.612   2.842
10524SOL     OW32470   0.326   6.259   4.567
10524SOL    HW132471   0.402   6.320   4.589
10524SOL    HW232472   0.304   6.267   4.470
10525SOL     OW32473   3.689   0.713   5.552
10525SOL    HW132474   3.653   0.673   5.636
10525SOL    HW232475   3.631   0.789   5.523
10526SOL     OW32476   1.042   6.946   1.991
10526SOL    HW132477   1.062   0.011   2.028
10526SOL    HW232478   0.978   6.899   2.052
10527SOL     OW32479   1.152   1.071   5.286
10527SOL    HW132480   1.109   1.138   5.347
10527SOL    HW232481   1.120   1.086   5.193
10528SOL     OW32482   1.513   4.127   6.139
10528SOL    HW132483   1.517   4.186   6.220
10528SOL    HW232484   1.597   4.137   6.086
10529SOL     OW32485   2.535   6.526   4.289
10529SOL    HW132486   2.586   6.557   4.210
10529SOL    HW232487   2.448   6.575   4.294
10530SOL     OW32488   1.635   0.268   6.315
10530SOL    HW132489   1.707   0.287   6.382
10530SOL    HW232490   1.672   0.213   6.240
10531SOL     OW32491   1.630   2.423   4.119
10531SOL    HW132492   1.718   2.410   4.073
10531SOL    HW232493   1.558   2.428   4.050
10532SOL     OW32494   0.527   0.070   6.630
10532SOL    HW132495   0.559   7.001   6.635
10532SOL    HW232496   0.464   0.087   6.706
10533SOL     OW32497   3.062   6.950   3.426
10533SOL    HW132498   2.980   7.002   3.400
10533SOL    HW232499   3.131   6.960   3.354
10534SOL     OW32500   6.118   5.470   2.366
10534SOL    HW132501   6.036   5.508   2.408
10534SOL    HW232502   6.145   5.386   2.414
10535SOL     OW32503   1.750   2.222   2.311
10535SOL    HW132504   1.694   2.285   2.257
10535SOL    HW232505   1.803   2.164   2.249
10536SOL     OW32506   4.580   0.735   4.109
10536SOL    HW132507   4.623   0.763   4.024
10536SOL    HW232508   4.524   0.653   4.093
10537SOL     OW32509   4.129   6.268   4.493
10537SOL    HW132510   4.081   6.336   4.438
10537SOL    HW232511   4.136   6.182   4.442
10538SOL     OW32512   6.664   3.791   0.871
10538SOL    HW132513   6.726   3.762   0.799
10538SOL    HW232514   6.710   3.786   0.960
10539SOL     OW32515   6.716   4.652   0.642
10539SOL    HW132516   6.681   4.559   0.651
10539SOL    HW232517   6.804   4.649   0.594
10540SOL     OW32518   1.714   3.340   5.200
10540SOL    HW132519   1.676   3.270   5.260
10540SOL    HW232520   1.640   3.391   5.157
10541SOL     OW32521   3.618   3.863   2.224
10541SOL    HW132522   3.545   3.804   2.259
10541SOL    HW232523   3.578   3.948   2.191
10542SOL     OW32524   6.703   1.231   5.645
10542SOL    HW132525   6.758   1.153   5.675
10542SOL    HW232526   6.747   1.316   5.676
10543SOL     OW32527   0.710   1.724   4.452
10543SOL    HW132528   0.682   1.704   4.358
10543SOL    HW232529   0.647   1.790   4.493
10544SOL     OW32530   2.551   6.595   1.935
10544SOL    HW132531   2.503   6.664   1.990
10544SOL    HW232532   2.624   6.639   1.883
10545SOL     OW32533   0.672   2.107   1.149
10545SOL    HW132534   0.749   2.048   1.173
10545SOL    HW232535   0.591   2.051   1.132
10546SOL     OW32536   2.274   6.685   0.570
10546SOL    HW132537   2.238   6.593   0.583
10546SOL    HW232538   2.373   6.681   0.557
10547SOL     OW32539   5.316   2.946   3.113
10547SOL    HW132540   5.218   2.946   3.130
10547SOL    HW232541   5.348   2.852   3.100
10548SOL     OW32542   6.425   4.198   4.207
10548SOL    HW132543   6.515   4.155   4.209
10548SOL    HW232544   6.396   4.220   4.300
10549SOL     OW32545   0.632   1.165   1.294
10549SOL    HW132546   0.613   1.088   1.233
10549SOL    HW232547   0.706   1.220   1.256
10550SOL     OW32548   4.501   6.686   3.676
10550SOL    HW132549   4.582   6.652   3.724
10550SOL    HW232550   4.424   6.692   3.739
10551SOL     OW32551   2.080   2.331   6.422
10551SOL    HW132552   2.101   2.264   6.494
10551SOL    HW232553   2.100   2.291   6.332
10552SOL     OW32554   2.043   0.777   5.922
10552SOL    HW132555   1.949   0.801   5.943
10552SOL    HW232556   2.076   0.707   5.985
10553SOL     OW32557   0.472   4.747   1.680
10553SOL    HW132558   0.387   4.767   1.729
10553SOL    HW232559   0.465   4.658   1.635
10554SOL     OW32560   4.976   4.753   0.988
10554SOL    HW132561   5.022   4.785   1.071
10554SOL    HW232562   4.991   4.655   0.977
10555SOL     OW32563   2.918   2.758   0.809
10555SOL    HW132564   2.870   2.818   0.874
10555SOL    HW232565   2.952   2.677   0.857
10556SOL     OW32566   1.175   1.453   4.179
10556SOL    HW132567   1.083   1.445   4.141
10556SOL    HW232568   1.185   1.387   4.254
10557SOL     OW32569   2.172   2.942   2.921
10557SOL    HW132570   2.159   3.034   2.885
10557SOL    HW232571   2.222   2.947   3.008
10558SOL     OW32572   3.949   6.067   5.250
10558SOL    HW132573   4.012   6.004   5.206
10558SOL    HW232574   3.906   6.022   5.328
10559SOL     OW32575   4.408   1.214   1.641
10559SOL    HW132576   4.376   1.184   1.732
10559SOL    HW232577   4.487   1.273   1.652
10560SOL     OW32578   4.711   6.997   2.708
10560SOL    HW132579   4.646   6.979   2.782
10560SOL    HW232580   4.669   6.974   2.621
10561SOL     OW32581   3.715   4.535   1.663
10561SOL    HW132582   3.687   4.484   1.581
10561SOL    HW232583   3.635   4.555   1.719
10562SOL     OW32584   4.250   5.525   6.841
10562SOL    HW132585   4.326   5.517   6.906
10562SOL    HW232586   4.168   5.483   6.880
10563SOL     OW32587   0.362   1.198   2.574
10563SOL    HW132588   0.420   1.275   2.602
10563SOL    HW232589   0.328   1.214   2.481
10564SOL     OW32590   5.574   6.313   3.528
10564SOL    HW132591   5.603   6.396   3.480
10564SOL    HW232592   5.652   6.273   3.576
10565SOL     OW32593   0.193   6.696   5.940
10565SOL    HW132594   0.154   6.668   5.852
10565SOL    HW232595   0.146   6.778   5.972
10566SOL     OW32596   4.125   2.205   0.178
10566SOL    HW132597   4.100   2.159   0.093
10566SOL    HW232598   4.161   2.138   0.243
10567SOL     OW32599   2.536   2.586   5.212
10567SOL    HW132600   2.536   2.566   5.114
10567SOL    HW232601   2.533   2.501   5.263
10568SOL     OW32602   6.911   3.153   0.663
10568SOL    HW132603   6.946   3.246   0.675
10568SOL    HW232604   6.976   3.088   0.701
10569SOL     OW32605   5.434   1.361   2.315
10569SOL    HW132606   5.458   1.397   2.224
10569SOL    HW232607   5.337   1.338   2.316
10570SOL     OW32608   1.762   4.571   3.370
10570SOL    HW132609   1.690   4.507   3.343
10570SOL    HW232610   1.783   4.559   3.467
10571SOL     OW32611   0.429   4.563   5.060
10571SOL    HW132612   0.357   4.517   5.008
10571SOL    HW232613   0.395   4.588   5.150
10572SOL     OW32614   6.991   4.371   2.628
10572SOL    HW132615   6.982   4.316   2.545
10572SOL    HW232616   6.921   4.344   2.694
10573SOL     OW32617   5.406   0.805   5.069
10573SOL    HW132618   5.362   0.716   5.056
10573SOL    HW232619   5.476   0.819   4.999
10574SOL     OW32620   0.660   1.479   4.566
10574SOL    HW132621   0.689   1.567   4.529
10574SOL    HW232622   0.738   1.433   4.608
10575SOL     OW32623   6.912   0.906   3.897
10575SOL    HW132624   6.945   0.816   3.868
10575SOL    HW232625   6.971   0.941   3.970
10576SOL     OW32626   0.687   5.874   4.646
10576SOL    HW132627   0.596   5.879   4.604
10576SOL    HW232628   0.685   5.806   4.719
10577SOL     OW32629   1.906   4.663   0.372
10577SOL    HW132630   1.916   4.565   0.388
10577SOL    HW232631   1.877   4.679   0.278
10578SOL     OW32632   4.236   1.415   3.197
10578SOL    HW132633   4.334   1.406   3.181
10578SOL    HW232634   4.216   1.506   3.233
10579SOL     OW32635   4.305   2.815   1.584
10579SOL    HW132636   4.350   2.898   1.616
10579SOL    HW232637   4.332   2.795   1.490
10580SOL     OW32638   0.022   7.013   6.652
10580SOL    HW132639   0.065   0.077   6.641
10580SOL    HW232640   0.081   6.943   6.611
10581SOL     OW32641   5.706   0.224   2.906
10581SOL    HW132642   5.683   0.242   3.002
10581SOL    HW232643   5.708   0.126   2.890
10582SOL     OW32644   4.553   4.403   5.658
10582SOL    HW132645   4.590   4.310   5.649
10582SOL    HW232646   4.597   4.463   5.591
10583SOL     OW32647   4.025   1.267   4.144
10583SOL    HW132648   4.098   1.334   4.153
10583SOL    HW232649   4.039   1.192   4.209
10584SOL     OW32650   6.667   0.559   0.467
10584SOL    HW132651   6.767   0.558   0.476
10584SOL    HW232652   6.640   0.631   0.403
10585SOL     OW32653   2.803   1.757   5.073
10585SOL    HW132654   2.870   1.773   5.000
10585SOL    HW232655   2.715   1.797   5.046
10586SOL     OW32656   5.493   4.554   5.569
10586SOL    HW132657   5.501   4.609   5.653
10586SOL    HW232658   5.486   4.457   5.593
10587SOL     OW32659   6.380   5.173   6.840
10587SOL    HW132660   6.461   5.193   6.896
10587SOL    HW232661   6.393   5.085   6.794
10588SOL     OW32662   1.421   2.082   5.140
10588SOL    HW132663   1.395   2.177   5.122
10588SOL    HW232664   1.433   2.069   5.239
10589SOL     OW32665   5.746   1.027   4.449
10589SOL    HW132666   5.690   1.013   4.530
10589SOL    HW232667   5.716   0.966   4.376
10590SOL     OW32668   0.617   0.318   0.477
10590SOL    HW132669   0.658   0.233   0.444
10590SOL    HW232670   0.523   0.325   0.442
10591SOL     OW32671   1.631   2.101   7.012
10591SOL    HW132672   1.648   2.017   0.040
10591SOL    HW232673   1.557   2.152   0.030
10592SOL     OW32674   6.040   3.717   3.174
10592SOL    HW132675   5.955   3.709   3.121
10592SOL    HW232676   6.035   3.797   3.233
10593SOL     OW32677   2.949   6.121   1.215
10593SOL    HW132678   2.849   6.124   1.207
10593SOL    HW232679   2.990   6.179   1.145
10594SOL     OW32680   5.490   1.423   2.736
10594SOL    HW132681   5.444   1.504   2.701
10594SOL    HW232682   5.541   1.447   2.819
10595SOL     OW32683   5.514   6.893   0.083
10595SOL    HW132684   5.601   6.909   0.038
10595SOL    HW232685   5.529   6.864   0.178
10596SOL     OW32686   4.196   1.096   0.102
10596SOL    HW132687   4.100   1.114   0.123
10596SOL    HW232688   4.239   1.180   0.069
10597SOL     OW32689   3.513   1.371   5.454
10597SOL    HW132690   3.498   1.469   5.436
10597SOL    HW232691   3.426   1.323   5.444
10598SOL     OW32692   3.173   2.953   0.342
10598SOL    HW132693   3.170   2.886   0.415
10598SOL    HW232694   3.123   2.919   0.263
10599SOL     OW32695   5.419   3.527   6.720
10599SOL    HW132696   5.447   3.596   6.786
10599SOL    HW232697   5.457   3.548   6.630
10600SOL     OW32698   3.505   2.682   1.543
10600SOL    HW132699   3.559   2.639   1.615
10600SOL    HW232700   3.494   2.618   1.467
10601SOL     OW32701   1.367   4.905   5.190
10601SOL    HW132702   1.411   4.878   5.104
10601SOL    HW232703   1.417   4.866   5.267
10602SOL     OW32704   1.263   0.755   1.694
10602SOL    HW132705   1.316   0.814   1.755
10602SOL    HW232706   1.200   0.699   1.747
10603SOL     OW32707   4.139   0.430   3.545
10603SOL    HW132708   4.087   0.487   3.481
10603SOL    HW232709   4.099   0.339   3.549
10604SOL     OW32710   6.655   5.939   5.356
10604SOL    HW132711   6.612   5.896   5.276
10604SOL    HW232712   6.732   5.995   5.326
10605SOL     OW32713   2.124   6.458   6.535
10605SOL    HW132714   2.088   6.365   6.524
10605SOL    HW232715   2.103   6.511   6.453
10606SOL     OW32716   0.340   0.202   0.683
10606SOL    HW132717   0.373   0.224   0.775
10606SOL    HW232718   0.387   0.121   0.649
10607SOL     OW32719   3.858   5.167   6.267
10607SOL    HW132720   3.931   5.195   6.205
10607SOL    HW232721   3.857   5.227   6.347
10608SOL     OW32722   6.717   3.627   4.642
10608SOL    HW132723   6.752   3.640   4.735
10608SOL    HW232724   6.706   3.715   4.597
10609SOL     OW32725   2.593   6.661   0.032
10609SOL    HW132726   2.669   6.662   6.992
10609SOL    HW232727   2.630   6.664   0.125
10610SOL     OW32728   0.854   2.481   4.146
10610SOL    HW132729   0.785   2.542   4.185
10610SOL    HW232730   0.815   2.390   4.133
10611SOL     OW32731   2.509   4.438   6.945
10611SOL    HW132732   2.470   4.373   7.011
10611SOL    HW232733   2.555   4.512   6.994
10612SOL     OW32734   3.935   2.058   4.767
10612SOL    HW132735   3.997   2.134   4.784
10612SOL    HW232736   3.885   2.037   4.851
10613SOL     OW32737   5.881   5.867   5.698
10613SOL    HW132738   5.945   5.941   5.675
10613SOL    HW232739   5.841   5.883   5.788
10614SOL     OW32740   4.646   1.651   4.959
10614SOL    HW132741   4.574   1.671   4.893
10614SOL    HW232742   4.639   1.714   5.036
10615SOL     OW32743   3.736   0.828   5.946
10615SOL    HW132744   3.723   0.912   5.894
10615SOL    HW232745   3.805   0.771   5.901
10616SOL     OW32746   2.068   6.829   6.963
10616SOL    HW132747   1.971   6.815   6.982
10616SOL    HW232748   2.095   6.775   6.884
10617SOL     OW32749   3.093   3.977   1.218
10617SOL    HW132750   3.019   3.918   1.251
10617SOL    HW232751   3.181   3.933   1.235
10618SOL     OW32752   1.148   4.455   5.825
10618SOL    HW132753   1.122   4.496   5.738
10618SOL    HW232754   1.103   4.366   5.834
10619SOL     OW32755   0.678   3.507   3.485
10619SOL    HW132756   0.775   3.532   3.484
10619SOL    HW232757   0.623   3.590   3.477
10620SOL     OW32758   1.008   6.841   5.181
10620SOL    HW132759   1.050   6.810   5.267
10620SOL    HW232760   1.079   6.877   5.121
10621SOL     OW32761   0.985   4.947   1.805
10621SOL    HW132762   1.042   5.028   1.790
10621SOL    HW232763   1.029   4.867   1.763
10622SOL     OW32764   5.165   1.317   2.359
10622SOL    HW132765   5.164   1.281   2.453
10622SOL    HW232766   5.141   1.414   2.361
10623SOL     OW32767   6.897   5.283   6.268
10623SOL    HW132768   6.966   5.274   6.196
10623SOL    HW232769   6.861   5.192   6.291
10624SOL     OW32770   1.065   2.211   4.936
10624SOL    HW132771   1.044   2.292   4.989
10624SOL    HW232772   1.123   2.235   4.859
10625SOL     OW32773   0.276   4.547   1.315
10625SOL    HW132774   0.318   4.499   1.239
10625SOL    HW232775   0.266   4.484   1.393
10626SOL     OW32776   3.640   2.614   0.982
10626SOL    HW132777   3.555   2.562   0.964
10626SOL    HW232778   3.680   2.641   0.895
10627SOL     OW32779   5.657   1.220   7.005
10627SOL    HW132780   5.637   1.161   6.927
10627SOL    HW232781   5.704   1.167   0.050
10628SOL     OW32782   4.749   5.936   0.845
10628SOL    HW132783   4.818   5.876   0.805
10628SOL    HW232784   4.779   5.965   0.936
10629SOL     OW32785   2.600   5.102   4.742
10629SOL    HW132786   2.613   5.070   4.836
10629SOL    HW232787   2.553   5.032   4.688
10630SOL     OW32788   6.353   1.683   3.334
10630SOL    HW132789   6.348   1.584   3.346
10630SOL    HW232790   6.261   1.719   3.320
10631SOL     OW32791   3.329   5.100   5.104
10631SOL    HW132792   3.382   5.016   5.108
10631SOL    HW232793   3.308   5.132   5.196
10632SOL     OW32794   5.009   6.902   3.700
10632SOL    HW132795   4.960   6.906   3.787
10632SOL    HW232796   5.043   6.809   3.685
10633SOL     OW32797   3.060   2.265   1.329
10633SOL    HW132798   3.068   2.365   1.328
10633SOL    HW232799   3.062   2.233   1.423
10634SOL     OW32800   2.175   4.255   0.656
10634SOL    HW132801   2.167   4.157   0.641
10634SOL    HW232802   2.133   4.280   0.743
10635SOL     OW32803   1.739   3.696   6.879
10635SOL    HW132804   1.735   3.795   6.868
10635SOL    HW232805   1.687   3.652   6.805
10636SOL     OW32806   0.508   1.932   0.936
10636SOL    HW132807   0.554   1.997   0.877
10636SOL    HW232808   0.425   1.899   0.892
10637SOL     OW32809   1.444   4.591   5.769
10637SOL    HW132810   1.362   4.540   5.796
10637SOL    HW232811   1.500   4.535   5.708
10638SOL     OW32812   5.443   5.936   2.724
10638SOL    HW132813   5.450   6.026   2.767
10638SOL    HW232814   5.365   5.886   2.762
10639SOL     OW32815   1.138   4.166   3.402
10639SOL    HW132816   1.143   4.263   3.381
10639SOL    HW232817   1.061   4.126   3.353
10640SOL     OW32818   4.879   6.948   3.961
10640SOL    HW132819   4.801   6.981   3.908
10640SOL    HW232820   4.854   6.861   4.005
10641SOL     OW32821   2.038   2.157   2.560
10641SOL    HW132822   2.040   2.249   2.597
10641SOL    HW232823   2.020   2.091   2.633
10642SOL     OW32824   6.258   2.353   0.807
10642SOL    HW132825   6.229   2.258   0.820
10642SOL    HW232826   6.349   2.365   0.846
10643SOL     OW32827   1.718   6.141   4.631
10643SOL    HW132828   1.669   6.055   4.611
10643SOL    HW232829   1.776   6.128   4.711
10644SOL     OW32830   6.049   2.686   1.948
10644SOL    HW132831   6.060   2.781   1.918
10644SOL    HW232832   6.134   2.654   1.989
10645SOL     OW32833   2.180   2.401   4.680
10645SOL    HW132834   2.143   2.488   4.715
10645SOL    HW232835   2.114   2.359   4.619
10646SOL     OW32836   0.388   6.906   6.150
10646SOL    HW132837   0.308   6.876   6.201
10646SOL    HW232838   0.362   6.923   6.055
10647SOL     OW32839   3.315   5.574   5.037
10647SOL    HW132840   3.291   5.583   4.940
10647SOL    HW232841   3.403   5.619   5.054
10648SOL     OW32842   5.756   3.958   6.602
10648SOL    HW132843   5.815   3.878   6.588
10648SOL    HW232844   5.800   4.040   6.566
10649SOL     OW32845   0.511   4.443   2.736
10649SOL    HW132846   0.553   4.453   2.645
10649SOL    HW232847   0.582   4.426   2.804
10650SOL     OW32848   0.652   0.430   3.568
10650SOL    HW132849   0.742   0.446   3.528
10650SOL    HW232850   0.589   0.500   3.536
10651SOL     OW32851   5.760   6.354   6.860
10651SOL    HW132852   5.665   6.332   6.840
10651SOL    HW232853   5.805   6.273   6.899
10652SOL     OW32854   3.553   6.782   5.480
10652SOL    HW132855   3.583   6.877   5.471
10652SOL    HW232856   3.503   6.755   5.398
10653SOL     OW32857   4.609   5.599   4.348
10653SOL    HW132858   4.631   5.609   4.251
10653SOL    HW232859   4.675   5.651   4.402
10654SOL     OW32860   5.466   0.891   0.369
10654SOL    HW132861   5.432   0.828   0.300
10654SOL    HW232862   5.419   0.979   0.360
10655SOL     OW32863   2.437   5.102   0.374
10655SOL    HW132864   2.424   5.026   0.438
10655SOL    HW232865   2.389   5.183   0.409
10656SOL     OW32866   0.350   1.671   2.858
10656SOL    HW132867   0.404   1.743   2.813
10656SOL    HW232868   0.364   1.677   2.957
10657SOL     OW32869   5.386   0.275   5.643
10657SOL    HW132870   5.451   0.330   5.695
10657SOL    HW232871   5.363   0.322   5.558
10658SOL     OW32872   6.569   4.672   4.919
10658SOL    HW132873   6.619   4.617   4.985
10658SOL    HW232874   6.500   4.615   4.873
10659SOL     OW32875   0.547   5.460   1.715
10659SOL    HW132876   0.609   5.456   1.793
10659SOL    HW232877   0.488   5.379   1.714
10660SOL     OW32878   4.948   3.712   5.773
10660SOL    HW132879   5.042   3.730   5.802
10660SOL    HW232880   4.914   3.631   5.821
10661SOL     OW32881   1.300   6.870   1.966
10661SOL    HW132882   1.203   6.886   1.984
10661SOL    HW232883   1.311   6.808   1.888
10662SOL     OW32884   5.363   0.100   2.409
10662SOL    HW132885   5.349   0.198   2.396
10662SOL    HW232886   5.456   0.083   2.443
10663SOL     OW32887   0.560   2.229   2.685
10663SOL    HW132888   0.503   2.312   2.680
10663SOL    HW232889   0.622   2.236   2.763
10664SOL     OW32890   6.498   4.179   4.791
10664SOL    HW132891   6.401   4.198   4.808
10664SOL    HW232892   6.507   4.085   4.758
10665SOL     OW32893   0.545   2.017   0.539
10665SOL    HW132894   0.605   2.064   0.475
10665SOL    HW232895   0.577   2.033   0.632
10666SOL     OW32896   4.005   3.621   2.022
10666SOL    HW132897   4.010   3.720   2.006
10666SOL    HW232898   3.945   3.603   2.100
10667SOL     OW32899   5.137   2.575   4.511
10667SOL    HW132900   5.133   2.582   4.412
10667SOL    HW232901   5.164   2.664   4.549
10668SOL     OW32902   2.457   0.516   4.829
10668SOL    HW132903   2.458   0.523   4.928
10668SOL    HW232904   2.363   0.517   4.796
10669SOL     OW32905   5.954   0.043   2.149
10669SOL    HW132906   5.973   0.051   2.246
10669SOL    HW232907   5.859   0.013   2.136
10670SOL     OW32908   5.723   4.296   5.448
10670SOL    HW132909   5.682   4.271   5.360
10670SOL    HW232910   5.752   4.214   5.497
10671SOL     OW32911   2.501   2.614   3.388
10671SOL    HW132912   2.567   2.560   3.336
10671SOL    HW232913   2.443   2.665   3.324
10672SOL     OW32914   6.676   3.264   1.106
10672SOL    HW132915   6.680   3.287   1.008
10672SOL    HW232916   6.598   3.311   1.148
10673SOL     OW32917   0.900   0.775   6.808
10673SOL    HW132918   0.981   0.782   6.749
10673SOL    HW232919   0.927   0.742   6.898
10674SOL     OW32920   3.362   3.796   2.327
10674SOL    HW132921   3.386   3.750   2.413
10674SOL    HW232922   3.297   3.869   2.346
10675SOL     OW32923   1.913   6.890   6.348
10675SOL    HW132924   1.846   6.956   6.314
10675SOL    HW232925   1.894   6.869   6.444
10676SOL     OW32926   6.900   6.174   5.608
10676SOL    HW132927   6.833   6.247   5.620
10676SOL    HW232928   6.886   6.105   5.679
10677SOL     OW32929   1.147   0.655   1.917
10677SOL    HW132930   1.118   0.730   1.977
10677SOL    HW232931   1.067   0.601   1.891
10678SOL     OW32932   4.305   5.071   4.197
10678SOL    HW132933   4.340   4.983   4.165
10678SOL    HW232934   4.207   5.062   4.217
10679SOL     OW32935   5.000   5.523   6.877
10679SOL    HW132936   5.065   5.567   6.815
10679SOL    HW232937   5.041   5.438   6.913
10680SOL     OW32938   4.042   1.881   3.890
10680SOL    HW132939   3.948   1.890   3.857
10680SOL    HW232940   4.048   1.806   3.956
10681SOL     OW32941   1.035   3.935   0.653
10681SOL    HW132942   0.935   3.935   0.653
10681SOL    HW232943   1.068   3.888   0.571
10682SOL     OW32944   0.915   1.278   5.325
10682SOL    HW132945   0.854   1.352   5.298
10682SOL    HW232946   0.867   1.216   5.387
10683SOL     OW32947   3.484   2.170   3.602
10683SOL    HW132948   3.584   2.168   3.605
10683SOL    HW232949   3.450   2.254   3.644
10684SOL     OW32950   5.342   4.278   2.474
10684SOL    HW132951   5.405   4.279   2.551
10684SOL    HW232952   5.343   4.188   2.431
10685SOL     OW32953   0.662   5.852   2.878
10685SOL    HW132954   0.751   5.888   2.905
10685SOL    HW232955   0.674   5.781   2.809
10686SOL     OW32956   0.732   4.728   6.270
10686SOL    HW132957   0.763   4.801   6.332
10686SOL    HW232958   0.647   4.756   6.226
10687SOL     OW32959   6.104   5.747   2.512
10687SOL    HW132960   6.141   5.763   2.421
10687SOL    HW232961   6.012   5.787   2.519
10688SOL     OW32962   6.504   3.932   2.160
10688SOL    HW132963   6.442   3.893   2.227
10688SOL    HW232964   6.502   4.032   2.165
10689SOL     OW32965   0.237   5.677   3.353
10689SOL    HW132966   0.213   5.646   3.261
10689SOL    HW232967   0.336   5.683   3.362
10690SOL     OW32968   6.779   6.716   3.609
10690SOL    HW132969   6.848   6.687   3.675
10690SOL    HW232970   6.739   6.636   3.565
10691SOL     OW32971   0.491   2.641   2.461
10691SOL    HW132972   0.489   2.643   2.361
10691SOL    HW232973   0.419   2.700   2.497
10692SOL     OW32974   3.362   5.791   3.375
10692SOL    HW132975   3.420   5.744   3.308
10692SOL    HW232976   3.369   5.890   3.362
10693SOL     OW32977   2.396   6.203   6.651
10693SOL    HW132978   2.408   6.246   6.741
10693SOL    HW232979   2.300   6.176   6.639
10694SOL     OW32980   5.328   6.623   1.884
10694SOL    HW132981   5.355   6.658   1.974
10694SOL    HW232982   5.231   6.640   1.869
10695SOL     OW32983   6.415   2.329   3.090
10695SOL    HW132984   6.494   2.389   3.073
10695SOL    HW232985   6.434   2.239   3.053
10696SOL     OW32986   0.354   3.721   3.489
10696SOL    HW132987   0.439   3.757   3.527
10696SOL    HW232988   0.358   3.723   3.389
10697SOL     OW32989   7.008   5.725   4.885
10697SOL    HW132990   0.004   5.821   4.905
10697SOL    HW232991   0.051   5.688   4.822
10698SOL     OW32992   4.878   5.013   5.784
10698SOL    HW132993   4.939   5.070   5.729
10698SOL    HW232994   4.867   5.054   5.875
10699SOL     OW32995   4.036   3.321   2.025
10699SOL    HW132996   4.069   3.271   2.105
10699SOL    HW232997   4.035   3.419   2.046
10700SOL     OW32998   6.992   6.487   1.292
10700SOL    HW132999   6.955   6.509   1.382
10700SOL    HW233000   6.918   6.462   1.230
10701SOL     OW33001   3.607   6.107   0.277
10701SOL    HW133002   3.568   6.057   0.200
10701SOL    HW233003   3.606   6.205   0.259
10702SOL     OW33004   6.142   2.885   1.493
10702SOL    HW133005   6.166   2.789   1.478
10702SOL    HW233006   6.198   2.922   1.567
10703SOL     OW33007   2.967   3.612   5.048
10703SOL    HW133008   3.007   3.520   5.045
10703SOL    HW233009   2.954   3.645   4.954
10704SOL     OW33010   6.321   5.860   1.584
10704SOL    HW133011   6.221   5.855   1.581
10704SOL    HW233012   6.355   5.899   1.499
10705SOL     OW33013   6.403   4.390   1.401
10705SOL    HW133014   6.401   4.309   1.460
10705SOL    HW233015   6.483   4.446   1.424
10706SOL     OW33016   4.998   6.229   1.468
10706SOL    HW133017   4.972   6.154   1.529
10706SOL    HW233018   4.994   6.316   1.518
10707SOL     OW33019   0.383   6.220   4.232
10707SOL    HW133020   0.339   6.147   4.285
10707SOL    HW233021   0.477   6.194   4.211
10708SOL     OW33022   4.188   0.341   2.293
10708SOL    HW133023   4.220   0.402   2.221
10708SOL    HW233024   4.136   0.266   2.252
10709SOL     OW33025   6.771   5.795   5.055
10709SOL    HW133026   6.747   5.857   4.981
10709SOL    HW233027   6.870   5.781   5.056
10710SOL     OW33028   0.555   6.426   4.663
10710SOL    HW133029   0.638   6.389   4.621
10710SOL    HW233030   0.568   6.434   4.762
10711SOL     OW33031   1.428   6.211   4.008
10711SOL    HW133032   1.361   6.255   3.949
10711SOL    HW233033   1.404   6.228   4.104
10712SOL     OW33034   2.965   1.257   1.488
10712SOL    HW133035   3.059   1.289   1.475
10712SOL    HW233036   2.908   1.332   1.520
10713SOL     OW33037   1.027   3.923   1.730
10713SOL    HW133038   1.120   3.888   1.742
10713SOL    HW233039   1.010   3.942   1.634
10714SOL     OW33040   6.132   4.045   4.471
10714SOL    HW133041   6.193   4.124   4.474
10714SOL    HW233042   6.092   4.030   4.561
10715SOL     OW33043   5.582   7.012   2.493
10715SOL    HW133044   5.611   6.971   2.407
10715SOL    HW233045   5.653   7.001   2.562
10716SOL     OW33046   5.723   2.364   4.301
10716SOL    HW133047   5.624   2.355   4.287
10716SOL    HW233048   5.740   2.404   4.391
10717SOL     OW33049   1.201   2.691   0.515
10717SOL    HW133050   1.282   2.745   0.538
10717SOL    HW233051   1.190   2.687   0.416
10718SOL     OW33052   1.041   2.434   6.449
10718SOL    HW133053   1.056   2.524   6.406
10718SOL    HW233054   0.988   2.376   6.387
10719SOL     OW33055   5.709   5.640   1.233
10719SOL    HW133056   5.688   5.729   1.274
10719SOL    HW233057   5.741   5.577   1.303
10720SOL     OW33058   6.979   3.593   5.223
10720SOL    HW133059   6.997   3.676   5.277
10720SOL    HW233060   6.887   3.598   5.185
10721SOL     OW33061   6.010   4.073   4.721
10721SOL    HW133062   5.934   4.137   4.716
10721SOL    HW233063   5.978   3.987   4.761
10722SOL     OW33064   0.445   4.200   0.928
10722SOL    HW133065   0.494   4.123   0.969
10722SOL    HW233066   0.443   4.277   0.992
10723SOL     OW33067   0.901   3.875   6.255
10723SOL    HW133068   0.991   3.842   6.227
10723SOL    HW233069   0.906   3.908   6.350
10724SOL     OW33070   4.815   0.893   6.748
10724SOL    HW133071   4.873   0.901   6.667
10724SOL    HW233072   4.849   0.819   6.806
10725SOL     OW33073   0.784   4.309   4.706
10725SOL    HW133074   0.802   4.396   4.752
10725SOL    HW233075   0.685   4.295   4.698
10726SOL     OW33076   4.859   0.189   5.267
10726SOL    HW133077   4.901   0.279   5.270
10726SOL    HW233078   4.914   0.124   5.321
10727SOL     OW33079   0.278   4.693   4.163
10727SOL    HW133080   0.181   4.670   4.175
10727SOL    HW233081   0.290   4.792   4.168
10728SOL     OW33082   6.506   6.188   0.307
10728SOL    HW133083   6.463   6.145   0.386
10728SOL    HW233084   6.467   6.279   0.293
10729SOL     OW33085   5.935   1.097   2.671
10729SOL    HW133086   5.961   1.002   2.688
10729SOL    HW233087   5.862   1.123   2.735
10730SOL     OW33088   2.330   0.001   2.071
10730SOL    HW133089   2.257   0.020   2.137
10730SOL    HW233090   2.360   6.931   2.081
10731SOL     OW33091   2.884   5.942   0.763
10731SOL    HW133092   2.936   5.875   0.816
10731SOL    HW233093   2.796   5.902   0.736
10732SOL     OW33094   4.834   5.120   2.552
10732SOL    HW133095   4.743   5.088   2.528
10732SOL    HW233096   4.893   5.115   2.471
10733SOL     OW33097   5.288   1.993   6.760
10733SOL    HW133098   5.257   1.900   6.779
10733SOL    HW233099   5.288   2.046   6.846
10734SOL     OW33100   1.473   6.921   0.293
10734SOL    HW133101   1.563   6.880   0.299
10734SOL    HW233102   1.456   6.976   0.375
10735SOL     OW33103   1.662   4.481   2.886
10735SOL    HW133104   1.676   4.441   2.976
10735SOL    HW233105   1.733   4.549   2.868
10736SOL     OW33106   0.218   0.402   3.389
10736SOL    HW133107   0.220   0.305   3.365
10736SOL    HW233108   0.220   0.457   3.305
10737SOL     OW33109   1.420   1.888   0.160
10737SOL    HW133110   1.483   1.908   0.234
10737SOL    HW233111   1.451   1.806   0.111
10738SOL     OW33112   2.646   0.908   3.237
10738SOL    HW133113   2.649   0.809   3.246
10738SOL    HW233114   2.678   0.934   3.145
10739SOL     OW33115   0.503   0.885   1.198
10739SOL    HW133116   0.477   0.851   1.107
10739SOL    HW233117   0.421   0.915   1.247
10740SOL     OW33118   0.695   4.770   5.793
10740SOL    HW133119   0.639   4.781   5.710
10740SOL    HW233120   0.717   4.860   5.831
10741SOL     OW33121   0.492   0.604   2.774
10741SOL    HW133122   0.399   0.586   2.807
10741SOL    HW233123   0.516   0.699   2.791
10742SOL     OW33124   5.800   0.328   1.859
10742SOL    HW133125   5.879   0.331   1.920
10742SOL    HW233126   5.732   0.396   1.887
10743SOL     OW33127   2.167   1.983   5.330
10743SOL    HW133128   2.084   2.026   5.367
10743SOL    HW233129   2.186   2.021   5.240
10744SOL     OW33130   2.701   1.772   2.294
10744SOL    HW133131   2.655   1.815   2.371
10744SOL    HW233132   2.800   1.772   2.308
10745SOL     OW33133   1.132   4.745   0.671
10745SOL    HW133134   1.183   4.672   0.716
10745SOL    HW233135   1.082   4.798   0.739
10746SOL     OW33136   1.759   3.720   1.462
10746SOL    HW133137   1.678   3.737   1.408
10746SOL    HW233138   1.733   3.704   1.558
10747SOL     OW33139   4.202   0.674   3.107
10747SOL    HW133140   4.216   0.767   3.075
10747SOL    HW233141   4.290   0.630   3.123
10748SOL     OW33142   3.561   0.680   1.456
10748SOL    HW133143   3.496   0.734   1.403
10748SOL    HW233144   3.650   0.726   1.455
10749SOL     OW33145   6.752   5.194   3.536
10749SOL    HW133146   6.657   5.178   3.561
10749SOL    HW233147   6.797   5.247   3.607
10750SOL     OW33148   4.046   6.257   4.085
10750SOL    HW133149   4.055   6.355   4.105
10750SOL    HW233150   3.990   6.245   4.003
10751SOL     OW33151   1.572   4.567   4.729
10751SOL    HW133152   1.652   4.512   4.755
10751SOL    HW233153   1.577   4.591   4.633
10752SOL     OW33154   6.006   3.542   6.399
10752SOL    HW133155   6.070   3.618   6.389
10752SOL    HW233156   6.000   3.491   6.313
10753SOL     OW33157   3.969   6.772   4.696
10753SOL    HW133158   3.918   6.768   4.610
10753SOL    HW233159   3.942   6.695   4.755
10754SOL     OW33160   1.165   1.895   3.532
10754SOL    HW133161   1.110   1.954   3.592
10754SOL    HW233162   1.133   1.905   3.438
10755SOL     OW33163   0.462   1.908   6.597
10755SOL    HW133164   0.407   1.855   6.662
10755SOL    HW233165   0.557   1.878   6.602
10756SOL     OW33166   6.847   4.147   0.230
10756SOL    HW133167   6.787   4.199   0.169
10756SOL    HW233168   6.940   4.182   0.223
10757SOL     OW33169   1.299   2.993   6.897
10757SOL    HW133170   1.234   2.992   6.973
10757SOL    HW233171   1.306   2.902   6.858
10758SOL     OW33172   0.836   6.622   5.485
10758SOL    HW133173   0.780   6.694   5.445
10758SOL    HW233174   0.856   6.644   5.581
10759SOL     OW33175   1.872   2.872   6.760
10759SOL    HW133176   1.835   2.823   6.839
10759SOL    HW233177   1.801   2.933   6.723
10760SOL     OW33178   6.199   1.248   0.890
10760SOL    HW133179   6.185   1.346   0.874
10760SOL    HW233180   6.294   1.232   0.916
10761SOL     OW33181   1.252   1.684   6.226
10761SOL    HW133182   1.153   1.692   6.232
10761SOL    HW233183   1.294   1.769   6.259
10762SOL     OW33184   3.719   1.811   5.029
10762SOL    HW133185   3.723   1.911   5.026
10762SOL    HW233186   3.626   1.782   5.053
10763SOL     OW33187   4.373   6.506   1.133
10763SOL    HW133188   4.320   6.550   1.206
10763SOL    HW233189   4.325   6.425   1.101
10764SOL     OW33190   5.662   2.044   6.164
10764SOL    HW133191   5.625   2.070   6.253
10764SOL    HW233192   5.625   1.955   6.137
10765SOL     OW33193   5.781   2.704   1.115
10765SOL    HW133194   5.829   2.617   1.110
10765SOL    HW233195   5.697   2.699   1.062
10766SOL     OW33196   3.923   2.604   1.426
10766SOL    HW133197   3.984   2.612   1.347
10766SOL    HW233198   3.896   2.509   1.438
10767SOL     OW33199   1.392   0.630   0.012
10767SOL    HW133200   1.379   0.541   6.994
10767SOL    HW233201   1.479   0.630   0.063
10768SOL     OW33202   4.431   5.174   0.653
10768SOL    HW133203   4.405   5.167   0.749
10768SOL    HW233204   4.419   5.085   0.608
10769SOL     OW33205   2.283   5.076   4.547
10769SOL    HW133206   2.309   5.042   4.638
10769SOL    HW233207   2.274   5.176   4.551
10770SOL     OW33208   5.136   0.338   5.006
10770SOL    HW133209   5.086   0.252   5.016
10770SOL    HW233210   5.099   0.389   4.928
10771SOL     OW33211   5.027   0.962   4.058
10771SOL    HW133212   5.109   0.989   4.008
10771SOL    HW233213   5.020   1.015   4.142
10772SOL     OW33214   0.089   6.502   4.532
10772SOL    HW133215   0.140   6.587   4.542
10772SOL    HW233216   0.098   6.469   4.438
10773SOL     OW33217   0.373   5.441   7.019
10773SOL    HW133218   0.335   5.422   6.928
10773SOL    HW233219   0.380   5.355   0.045
10774SOL     OW33220   1.826   1.681   6.472
10774SOL    HW133221   1.917   1.675   6.513
10774SOL    HW233222   1.812   1.774   6.436
10775SOL     OW33223   0.268   2.751   0.439
10775SOL    HW133224   0.312   2.665   0.411
10775SOL    HW233225   0.267   2.815   0.363
10776SOL     OW33226   1.267   6.504   0.151
10776SOL    HW133227   1.305   6.438   0.086
10776SOL    HW233228   1.180   6.539   0.116
10777SOL     OW33229   3.673   5.906   3.942
10777SOL    HW133230   3.695   5.963   4.021
10777SOL    HW233231   3.683   5.810   3.966
10778SOL     OW33232   5.494   6.440   5.403
10778SOL    HW133233   5.496   6.340   5.404
10778SOL    HW233234   5.425   6.472   5.338
10779SOL     OW33235   6.484   4.742   3.208
10779SOL    HW133236   6.461   4.720   3.303
10779SOL    HW233237   6.548   4.819   3.206
10780SOL     OW33238   1.454   0.291   3.930
10780SOL    HW133239   1.551   0.291   3.955
10780SOL    HW233240   1.424   0.196   3.916
10781SOL     OW33241   3.702   1.027   3.194
10781SOL    HW133242   3.686   1.030   3.293
10781SOL    HW233243   3.697   0.932   3.163
10782SOL     OW33244   6.940   2.172   3.308
10782SOL    HW133245   6.977   2.173   3.401
10782SOL    HW233246   6.943   2.078   3.272
10783SOL     OW33247   0.959   3.560   3.504
10783SOL    HW133248   1.010   3.515   3.577
10783SOL    HW233249   0.985   3.521   3.416
10784SOL     OW33250   3.402   1.249   3.900
10784SOL    HW133251   3.352   1.304   3.833
10784SOL    HW233252   3.404   1.154   3.869
10785SOL     OW33253   6.967   5.273   1.236
10785SOL    HW133254   6.882   5.259   1.287
10785SOL    HW233255   0.020   5.252   1.294
10786SOL     OW33256   4.698   4.874   2.229
10786SOL    HW133257   4.604   4.847   2.251
10786SOL    HW233258   4.720   4.844   2.136
10787SOL     OW33259   2.750   1.596   4.495
10787SOL    HW133260   2.813   1.561   4.426
10787SOL    HW233261   2.689   1.664   4.453
10788SOL     OW33262   2.458   5.114   6.417
10788SOL    HW133263   2.440   5.017   6.431
10788SOL    HW233264   2.554   5.126   6.390
10789SOL     OW33265   6.229   2.882   6.899
10789SOL    HW133266   6.255   2.899   6.994
10789SOL    HW233267   6.129   2.882   6.891
10790SOL     OW33268   0.914   0.979   2.549
10790SOL    HW133269   0.929   0.883   2.527
10790SOL    HW233270   0.941   1.036   2.472
10791SOL     OW33271   0.331   0.105   0.177
10791SOL    HW133272   0.301   0.059   0.094
10791SOL    HW233273   0.326   0.042   0.254
10792SOL     OW33274   3.495   3.650   3.189
10792SOL    HW133275   3.589   3.634   3.221
10792SOL    HW233276   3.445   3.700   3.260
10793SOL     OW33277   5.287   2.618   3.855
10793SOL    HW133278   5.239   2.540   3.815
10793SOL    HW233279   5.233   2.701   3.840
10794SOL     OW33280   2.926   3.743   3.890
10794SOL    HW133281   2.928   3.686   3.972
10794SOL    HW233282   2.966   3.693   3.813
10795SOL     OW33283   0.060   4.150   3.051
10795SOL    HW133284   0.036   4.111   3.139
10795SOL    HW233285   0.045   4.082   2.979
10796SOL     OW33286   5.826   6.708   0.813
10796SOL    HW133287   5.847   6.698   0.715
10796SOL    HW233288   5.911   6.706   0.866
10797SOL     OW33289   4.004   1.917   1.924
10797SOL    HW133290   3.923   1.944   1.872
10797SOL    HW233291   4.004   1.818   1.936
10798SOL     OW33292   2.585   6.445   0.830
10798SOL    HW133293   2.544   6.531   0.860
10798SOL    HW233294   2.612   6.453   0.734
10799SOL     OW33295   3.466   0.602   2.280
10799SOL    HW133296   3.556   0.629   2.245
10799SOL    HW233297   3.477   0.544   2.360
10800SOL     OW33298   0.286   6.948   7.005
10800SOL    HW133299   0.204   6.904   6.969
10800SOL    HW233300   0.366   6.893   6.980
10801SOL     OW33301   0.506   6.426   6.231
10801SOL    HW133302   0.563   6.504   6.207
10801SOL    HW233303   0.424   6.425   6.174
10802SOL     OW33304   0.942   2.658   3.301
10802SOL    HW133305   0.958   2.559   3.299
10802SOL    HW233306   0.888   2.681   3.382
10803SOL     OW33307   3.092   3.614   6.131
10803SOL    HW133308   2.998   3.647   6.128
10803SOL    HW233309   3.150   3.674   6.076
10804SOL     OW33310   6.001   3.895   1.763
10804SOL    HW133311   5.927   3.829   1.778
10804SOL    HW233312   6.032   3.890   1.668
10805SOL     OW33313   3.844   0.032   0.224
10805SOL    HW133314   3.888   6.975   0.188
10805SOL    HW233315   3.854   0.106   0.158
10806SOL     OW33316   4.942   3.923   6.159
10806SOL    HW133317   5.029   3.963   6.187
10806SOL    HW233318   4.959   3.836   6.112
10807SOL     OW33319   1.286   0.178   2.188
10807SOL    HW133320   1.323   0.103   2.244
10807SOL    HW233321   1.361   0.233   2.153
10808SOL     OW33322   6.197   2.792   6.655
10808SOL    HW133323   6.100   2.810   6.639
10808SOL    HW233324   6.217   2.802   6.752
10809SOL     OW33325   3.287   6.046   3.609
10809SOL    HW133326   3.243   6.101   3.680
10809SOL    HW233327   3.386   6.049   3.622
10810SOL     OW33328   2.164   0.744   4.879
10810SOL    HW133329   2.252   0.783   4.905
10810SOL    HW233330   2.179   0.661   4.825
10811SOL     OW33331   4.113   4.644   5.568
10811SOL    HW133332   4.119   4.601   5.478
10811SOL    HW233333   4.093   4.574   5.637
10812SOL     OW33334   0.967   3.197   1.362
10812SOL    HW133335   0.985   3.212   1.265
10812SOL    HW233336   1.048   3.159   1.405
10813SOL     OW33337   2.397   4.844   6.504
10813SOL    HW133338   2.335   4.766   6.514
10813SOL    HW233339   2.455   4.851   6.586
10814SOL     OW33340   1.626   6.692   6.643
10814SOL    HW133341   1.560   6.689   6.568
10814SOL    HW233342   1.636   6.601   6.683
10815SOL     OW33343   4.691   4.567   3.935
10815SOL    HW133344   4.666   4.483   3.983
10815SOL    HW233345   4.730   4.544   3.845
10816SOL     OW33346   2.444   2.541   1.417
10816SOL    HW133347   2.543   2.538   1.398
10816SOL    HW233348   2.430   2.567   1.513
10817SOL     OW33349   5.167   6.704   2.982
10817SOL    HW133350   5.088   6.664   2.935
10817SOL    HW233351   5.136   6.752   3.064
10818SOL     OW33352   4.500   4.837   5.256
10818SOL    HW133353   4.589   4.879   5.270
10818SOL    HW233354   4.453   4.828   5.344
10819SOL     OW33355   7.009   4.486   6.631
10819SOL    HW133356   0.045   4.565   6.620
10819SOL    HW233357   7.014   4.453   6.726
10820SOL     OW33358   5.857   5.751   4.331
10820SOL    HW133359   5.824   5.673   4.277
10820SOL    HW233360   5.781   5.816   4.345
10821SOL     OW33361   5.498   6.869   2.003
10821SOL    HW133362   5.428   6.891   2.071
10821SOL    HW233363   5.523   6.952   1.954
10822SOL     OW33364   0.112   3.169   3.004
10822SOL    HW133365   0.137   3.091   3.061
10822SOL    HW233366   0.074   3.241   3.062
10823SOL     OW33367   1.802   5.724   1.903
10823SOL    HW133368   1.847   5.765   1.983
10823SOL    HW233369   1.754   5.641   1.931
10824SOL     OW33370   6.548   1.058   3.488
10824SOL    HW133371   6.467   1.054   3.548
10824SOL    HW233372   6.630   1.045   3.543
10825SOL     OW33373   2.816   0.632   6.190
10825SOL    HW133374   2.893   0.691   6.213
10825SOL    HW233375   2.814   0.554   6.254
10826SOL     OW33376   0.817   3.059   3.538
10826SOL    HW133377   0.813   3.119   3.618
10826SOL    HW233378   0.737   2.999   3.536
10827SOL     OW33379   5.789   4.159   4.539
10827SOL    HW133380   5.787   4.067   4.578
10827SOL    HW233381   5.697   4.183   4.507
10828SOL     OW33382   1.183   5.753   2.252
10828SOL    HW133383   1.155   5.828   2.312
10828SOL    HW233384   1.216   5.790   2.166
10829SOL     OW33385   3.884   2.130   1.239
10829SOL    HW133386   3.816   2.065   1.206
10829SOL    HW233387   3.962   2.131   1.177
10830SOL     OW33388   5.053   1.611   3.438
10830SOL    HW133389   5.117   1.686   3.449
10830SOL    HW233390   4.960   1.643   3.455
10831SOL     OW33391   3.730   5.776   2.649
10831SOL    HW133392   3.637   5.741   2.655
10831SOL    HW233393   3.738   5.837   2.571
10832SOL     OW33394   1.491   2.648   0.198
10832SOL    HW133395   1.431   2.727   0.195
10832SOL    HW233396   1.455   2.580   0.262
10833SOL     OW33397   1.819   1.064   2.053
10833SOL    HW133398   1.912   1.039   2.027
10833SOL    HW233399   1.756   0.991   2.028
10834SOL     OW33400   1.006   1.925   6.294
10834SOL    HW133401   1.028   1.873   6.377
10834SOL    HW233402   1.084   1.983   6.270
10835SOL     OW33403   6.504   1.834   0.150
10835SOL    HW133404   6.444   1.799   0.079
10835SOL    HW233405   6.593   1.789   0.145
10836SOL     OW33406   6.946   2.128   4.773
10836SOL    HW133407   6.958   2.068   4.694
10836SOL    HW233408   6.945   2.073   4.857
10837SOL     OW33409   6.889   4.875   0.722
10837SOL    HW133410   6.814   4.809   0.727
10837SOL    HW233411   6.907   4.899   0.626
10838SOL     OW33412   5.808   6.295   4.778
10838SOL    HW133413   5.736   6.237   4.816
10838SOL    HW233414   5.767   6.371   4.727
10839SOL     OW33415   4.052   2.961   1.484
10839SOL    HW133416   4.073   2.963   1.386
10839SOL    HW233417   3.955   2.983   1.497
10840SOL     OW33418   3.234   5.558   2.143
10840SOL    HW133419   3.319   5.512   2.118
10840SOL    HW233420   3.156   5.508   2.103
10841SOL     OW33421   5.120   5.283   6.994
10841SOL    HW133422   5.216   5.296   7.017
10841SOL    HW233423   5.083   5.207   0.022
10842SOL     OW33424   5.230   2.506   1.363
10842SOL    HW133425   5.289   2.521   1.442
10842SOL    HW233426   5.286   2.484   1.283
10843SOL     OW33427   1.390   2.775   1.235
10843SOL    HW133428   1.290   2.775   1.229
10843SOL    HW233429   1.422   2.867   1.256
10844SOL     OW33430   0.146   6.987   3.676
10844SOL    HW133431   0.159   6.890   3.655
10844SOL    HW233432   0.146   0.015   3.591
10845SOL     OW33433   3.135   0.404   5.397
10845SOL    HW133434   3.186   0.322   5.369
10845SOL    HW233435   3.198   0.470   5.437
10846SOL     OW33436   4.805   2.087   0.447
10846SOL    HW133437   4.767   1.994   0.451
10846SOL    HW233438   4.778   2.137   0.529
10847SOL     OW33439   4.050   3.237   6.318
10847SOL    HW133440   4.070   3.186   6.402
10847SOL    HW233441   3.961   3.281   6.326
10848SOL     OW33442   2.952   3.707   6.934
10848SOL    HW133443   2.938   3.691   6.836
10848SOL    HW233444   2.979   3.802   6.950
10849SOL     OW33445   2.698   6.307   2.886
10849SOL    HW133446   2.611   6.285   2.842
10849SOL    HW233447   2.688   6.298   2.985
10850SOL     OW33448   3.548   5.171   6.945
10850SOL    HW133449   3.495   5.242   6.991
10850SOL    HW233450   3.546   5.087   7.000
10851SOL     OW33451   2.638   2.662   6.315
10851SOL    HW133452   2.694   2.673   6.397
10851SOL    HW233453   2.678   2.716   6.241
10852SOL     OW33454   1.267   0.216   6.850
10852SOL    HW133455   1.288   0.164   6.767
10852SOL    HW233456   1.168   0.221   6.863
10853SOL     OW33457   3.095   2.123   5.722
10853SOL    HW133458   3.113   2.025   5.738
10853SOL    HW233459   2.998   2.141   5.735
10854SOL     OW33460   4.465   6.171   5.195
10854SOL    HW133461   4.424   6.126   5.275
10854SOL    HW233462   4.556   6.205   5.219
10855SOL     OW33463   2.639   6.786   1.239
10855SOL    HW133464   2.700   6.848   1.189
10855SOL    HW233465   2.663   6.787   1.336
10856SOL     OW33466   6.182   1.375   1.572
10856SOL    HW133467   6.282   1.368   1.574
10856SOL    HW233468   6.144   1.329   1.652
10857SOL     OW33469   6.147   2.333   3.080
10857SOL    HW133470   6.113   2.418   3.120
10857SOL    HW233471   6.245   2.324   3.097
10858SOL     OW33472   0.766   2.069   6.276
10858SOL    HW133473   0.714   2.003   6.223
10858SOL    HW233474   0.845   2.024   6.317
10859SOL     OW33475   2.234   2.992   3.876
10859SOL    HW133476   2.214   2.992   3.778
10859SOL    HW233477   2.201   3.078   3.916
10860SOL     OW33478   6.587   1.854   5.956
10860SOL    HW133479   6.525   1.880   5.883
10860SOL    HW233480   6.542   1.787   6.016
10861SOL     OW33481   3.562   3.132   3.539
10861SOL    HW133482   3.614   3.063   3.590
10861SOL    HW233483   3.607   3.151   3.453
10862SOL     OW33484   2.457   1.740   6.328
10862SOL    HW133485   2.474   1.728   6.425
10862SOL    HW233486   2.481   1.833   6.300
10863SOL     OW33487   4.025   0.579   3.305
10863SOL    HW133488   3.933   0.619   3.301
10863SOL    HW233489   4.087   0.631   3.246
10864SOL     OW33490   3.184   5.324   0.599
10864SOL    HW133491   3.251   5.325   0.673
10864SOL    HW233492   3.110   5.387   0.619
10865SOL     OW33493   6.340   1.571   2.956
10865SOL    HW133494   6.340   1.490   3.014
10865SOL    HW233495   6.280   1.556   2.877
10866SOL     OW33496   4.873   4.896   0.320
10866SOL    HW133497   4.842   4.862   0.231
10866SOL    HW233498   4.802   4.954   0.360
10867SOL     OW33499   3.312   4.195   0.262
10867SOL    HW133500   3.373   4.177   0.339
10867SOL    HW233501   3.239   4.257   0.290
10868SOL     OW33502   2.939   2.208   3.569
10868SOL    HW133503   2.997   2.253   3.502
10868SOL    HW233504   2.992   2.139   3.618
10869NA      NA33505   0.633   2.234   5.786
10870NA      NA33506   4.401   4.731   5.051
10871NA      NA33507   1.892   4.137   2.570
10872NA      NA33508   4.945   4.156   3.705
10873NA      NA33509   4.258   2.414   5.338
10874NA      NA33510   3.208   4.841   1.805
10875NA      NA33511   7.022   4.448   0.359
10876NA      NA33512   3.370   3.470   3.057
10877NA      NA33513   5.075   5.142   1.130
10878NA      NA33514   3.960   6.464   5.213
10879NA      NA33515   6.021   5.305   1.281
10880NA      NA33516   1.839   0.999   4.819
10881NA      NA33517   3.949   5.000   1.619
10882NA      NA33518   3.965   3.264   1.815
   7.02554   7.02554   7.02554
