Generated by trjconv : CNT in water t= 435.00000
33518
    1C        C    1   2.842   2.769   4.747
    1C        C    2   2.894   2.719   4.868
    1C        C    3   2.845   2.774   4.987
    1C        C    4   2.851   2.781   4.262
    1C        C    5   2.904   2.733   4.384
    1C        C    6   2.851   2.782   4.505
    1C        C    7   3.016   2.646   4.628
    1C        C    8   2.899   2.726   4.625
    1C        C    9   3.082   2.615   4.749
    1C        C   10   3.009   2.637   4.867
    1C        C   11   3.179   2.492   4.976
    1C        C   12   3.055   2.557   4.973
    1C        C   13   2.853   2.776   3.772
    1C        C   14   2.904   2.730   3.895
    1C        C   15   2.853   2.781   4.017
    1C        C   16   3.023   2.656   4.138
    1C        C   17   2.905   2.734   4.140
    1C        C   18   3.081   2.621   4.262
    1C        C   19   3.018   2.649   4.385
    1C        C   20   3.208   2.554   4.506
    1C        C   21   3.078   2.609   4.506
    1C        C   22   3.279   2.532   4.626
    1C        C   23   3.212   2.556   4.748
    1C        C   24   3.412   2.485   4.865
    1C        C   25   3.271   2.505   4.867
    1C        C   26   3.490   2.476   4.981
    1C        C   27   2.849   2.771   3.279
    1C        C   28   2.909   2.736   3.403
    1C        C   29   2.860   2.783   3.527
    1C        C   30   3.023   2.650   3.649
    1C        C   31   2.909   2.732   3.649
    1C        C   32   3.079   2.610   3.773
    1C        C   33   3.016   2.644   3.895
    1C        C   34   3.207   2.549   4.019
    1C        C   35   3.080   2.611   4.017
    1C        C   36   3.276   2.531   4.141
    1C        C   37   3.209   2.561   4.262
    1C        C   38   3.415   2.509   4.381
    1C        C   39   3.276   2.534   4.383
    1C        C   40   3.488   2.501   4.502
    1C        C   41   3.417   2.504   4.624
    1C        C   42   3.631   2.486   4.745
    1C        C   43   3.489   2.486   4.745
    1C        C   44   3.706   2.486   4.865
    1C        C   45   3.629   2.480   4.982
    1C        C   46   2.837   2.756   2.793
    1C        C   47   2.894   2.713   2.915
    1C        C   48   2.844   2.764   3.037
    1C        C   49   3.020   2.643   3.162
    1C        C   50   2.904   2.723   3.158
    1C        C   51   3.081   2.609   3.285
    1C        C   52   3.020   2.648   3.405
    1C        C   53   3.208   2.548   3.528
    1C        C   54   3.082   2.612   3.527
    1C        C   55   3.276   2.530   3.651
    1C        C   56   3.210   2.556   3.773
    1C        C   57   3.413   2.504   3.893
    1C        C   58   3.275   2.532   3.896
    1C        C   59   3.483   2.494   4.015
    1C        C   60   3.415   2.506   4.138
    1C        C   61   3.627   2.502   4.259
    1C        C   62   3.486   2.500   4.260
    1C        C   63   3.700   2.509   4.380
    1C        C   64   3.629   2.502   4.502
    1C        C   65   3.835   2.549   4.622
    1C        C   66   3.701   2.504   4.623
    1C        C   67   3.905   2.565   4.744
    1C        C   68   3.841   2.526   4.863
    1C        C   69   4.052   2.585   4.977
    1C        C   70   3.923   2.530   4.977
    1C        C   71   2.826   2.737   2.308
    1C        C   72   2.884   2.692   2.428
    1C        C   73   2.834   2.744   2.550
    1C        C   74   3.008   2.628   2.673
    1C        C   75   2.888   2.702   2.673
    1C        C   76   3.073   2.596   2.794
    1C        C   77   3.011   2.633   2.916
    1C        C   78   3.205   2.548   3.037
    1C        C   79   3.075   2.602   3.038
    1C        C   80   3.273   2.527   3.159
    1C        C   81   3.210   2.550   3.283
    1C        C   82   3.413   2.495   3.406
    1C        C   83   3.274   2.522   3.406
    1C        C   84   3.485   2.490   3.527
    1C        C   85   3.414   2.501   3.649
    1C        C   86   3.626   2.497   3.772
    1C        C   87   3.485   2.493   3.771
    1C        C   88   3.695   2.509   3.895
    1C        C   89   3.625   2.499   4.017
    1C        C   90   3.832   2.554   4.137
    1C        C   91   3.698   2.510   4.137
    1C        C   92   3.903   2.578   4.256
    1C        C   93   3.836   2.549   4.377
    1C        C   94   4.026   2.638   4.498
    1C        C   95   3.901   2.572   4.500
    1C        C   96   4.089   2.674   4.619
    1C        C   97   4.033   2.627   4.740
    1C        C   98   4.190   2.767   4.860
    1C        C   99   4.097   2.658   4.863
    1C        C  100   4.223   2.837   4.977
    1C        C  101   2.825   2.736   2.070
    1C        C  102   2.993   2.594   2.190
    1C        C  103   2.879   2.682   2.188
    1C        C  104   3.062   2.571   2.312
    1C        C  105   3.000   2.612   2.432
    1C        C  106   3.203   2.541   2.552
    1C        C  107   3.071   2.591   2.552
    1C        C  108   3.272   2.518   2.673
    1C        C  109   3.204   2.542   2.794
    1C        C  110   3.410   2.490   2.917
    1C        C  111   3.272   2.521   2.916
    1C        C  112   3.483   2.488   3.038
    1C        C  113   3.412   2.500   3.160
    1C        C  114   3.622   2.498   3.281
    1C        C  115   3.481   2.490   3.283
    1C        C  116   3.691   2.508   3.404
    1C        C  117   3.626   2.499   3.529
    1C        C  118   3.833   2.548   3.646
    1C        C  119   3.697   2.507   3.650
    1C        C  120   3.894   2.577   3.770
    1C        C  121   3.830   2.550   3.893
    1C        C  122   4.025   2.640   4.014
    1C        C  123   3.899   2.575   4.014
    1C        C  124   4.088   2.679   4.134
    1C        C  125   4.031   2.639   4.257
    1C        C  126   4.200   2.766   4.377
    1C        C  127   4.093   2.674   4.379
    1C        C  128   4.242   2.824   4.498
    1C        C  129   4.192   2.771   4.619
    1C        C  130   4.325   2.938   4.737
    1C        C  131   4.243   2.822   4.740
    1C        C  132   4.351   3.007   4.858
    1C        C  133   4.285   2.961   4.973
    1C        C  134   3.175   2.469   2.079
    1C        C  135   3.043   2.514   2.082
    1C        C  136   3.260   2.479   2.190
    1C        C  137   3.194   2.517   2.309
    1C        C  138   3.404   2.478   2.430
    1C        C  139   3.265   2.504   2.430
    1C        C  140   3.479   2.479   2.550
    1C        C  141   3.411   2.491   2.674
    1C        C  142   3.622   2.490   2.793
    1C        C  143   3.481   2.478   2.796
    1C        C  144   3.693   2.502   2.914
    1C        C  145   3.624   2.497   3.037
    1C        C  146   3.832   2.539   3.159
    1C        C  147   3.694   2.506   3.159
    1C        C  148   3.898   2.563   3.281
    1C        C  149   3.828   2.541   3.403
    1C        C  150   4.024   2.633   3.523
    1C        C  151   3.896   2.573   3.522
    1C        C  152   4.083   2.671   3.646
    1C        C  153   4.020   2.640   3.768
    1C        C  154   4.189   2.769   3.887
    1C        C  155   4.082   2.677   3.890
    1C        C  156   4.241   2.818   4.008
    1C        C  157   4.198   2.768   4.133
    1C        C  158   4.340   2.924   4.249
    1C        C  159   4.253   2.813   4.255
    1C        C  160   4.378   2.986   4.370
    1C        C  161   4.333   2.933   4.493
    1C        C  162   4.443   3.114   4.617
    1C        C  163   4.372   2.992   4.615
    1C        C  164   4.471   3.184   4.737
    1C        C  165   4.431   3.123   4.858
    1C        C  166   4.517   3.320   4.973
    1C        C  167   4.472   3.188   4.976
    1C        C  168   3.476   2.433   2.077
    1C        C  169   3.399   2.456   2.192
    1C        C  170   3.617   2.474   2.308
    1C        C  171   3.476   2.458   2.310
    1C        C  172   3.691   2.493   2.426
    1C        C  173   3.620   2.486   2.548
    1C        C  174   3.826   2.539   2.667
    1C        C  175   3.691   2.498   2.670
    1C        C  176   3.894   2.560   2.789
    1C        C  177   3.830   2.536   2.913
    1C        C  178   4.023   2.625   3.032
    1C        C  179   3.896   2.563   3.035
    1C        C  180   4.083   2.662   3.155
    1C        C  181   4.023   2.628   3.278
    1C        C  182   4.191   2.759   3.397
    1C        C  183   4.083   2.668   3.400
    1C        C  184   4.240   2.810   3.519
    1C        C  185   4.193   2.760   3.643
    1C        C  186   4.332   2.922   3.764
    1C        C  187   4.244   2.812   3.764
    1C        C  188   4.376   2.982   3.884
    1C        C  189   4.334   2.925   4.007
    1C        C  190   4.447   3.108   4.128
    1C        C  191   4.375   2.986   4.127
    1C        C  192   4.475   3.174   4.250
    1C        C  193   4.443   3.111   4.372
    1C        C  194   4.506   3.315   4.492
    1C        C  195   4.467   3.179   4.494
    1C        C  196   4.523   3.387   4.612
    1C        C  197   4.511   3.320   4.736
    1C        C  198   4.561   3.534   4.853
    1C        C  199   4.539   3.393   4.855
    1C        C  200   4.584   3.621   4.964
    1C        C  201   3.614   2.411   2.078
    1C        C  202   3.825   2.512   2.185
    1C        C  203   3.691   2.461   2.187
    1C        C  204   3.898   2.543   2.303
    1C        C  205   3.829   2.521   2.424
    1C        C  206   4.019   2.621   2.545
    1C        C  207   3.895   2.555   2.545
    1C        C  208   4.082   2.657   2.666
    1C        C  209   4.020   2.624   2.789
    1C        C  210   4.194   2.749   2.907
    1C        C  211   4.082   2.662   2.909
    1C        C  212   4.245   2.800   3.029
    1C        C  213   4.191   2.753   3.151
    1C        C  214   4.332   2.912   3.271
    1C        C  215   4.243   2.802   3.273
    1C        C  216   4.368   2.973   3.393
    1C        C  217   4.334   2.915   3.518
    1C        C  218   4.436   3.102   3.638
    1C        C  219   4.373   2.975   3.640
    1C        C  220   4.467   3.171   3.757
    1C        C  221   4.441   3.107   3.881
    1C        C  222   4.509   3.307   4.004
    1C        C  223   4.472   3.170   4.003
    1C        C  224   4.523   3.378   4.125
    1C        C  225   4.513   3.310   4.248
    1C        C  226   4.522   3.524   4.367
    1C        C  227   4.519   3.383   4.369
    1C        C  228   4.522   3.596   4.489
    1C        C  229   4.535   3.527   4.612
    1C        C  230   4.502   3.741   4.729
    1C        C  231   4.535   3.603   4.731
    1C        C  232   4.499   3.821   4.845
    1C        C  233   4.555   3.758   4.958
    1C        C  234   4.021   2.603   2.063
    1C        C  235   3.900   2.536   2.069
    1C        C  236   4.086   2.646   2.179
    1C        C  237   4.025   2.607   2.300
    1C        C  238   4.198   2.733   2.420
    1C        C  239   4.081   2.653   2.422
    1C        C  240   4.250   2.785   2.541
    1C        C  241   4.194   2.743   2.664
    1C        C  242   4.335   2.904   2.785
    1C        C  243   4.246   2.795   2.785
    1C        C  244   4.380   2.963   2.905
    1C        C  245   4.337   2.906   3.027
    1C        C  246   4.433   3.097   3.150
    1C        C  247   4.376   2.967   3.148
    1C        C  248   4.459   3.164   3.271
    1C        C  249   4.433   3.098   3.394
    1C        C  250   4.505   3.300   3.514
    1C        C  251   4.462   3.166   3.514
    1C        C  252   4.517   3.373   3.634
    1C        C  253   4.508   3.306   3.758
    1C        C  254   4.531   3.516   3.878
    1C        C  255   4.522   3.375   3.881
    1C        C  256   4.526   3.587   4.000
    1C        C  257   4.525   3.519   4.123
    1C        C  258   4.495   3.732   4.241
    1C        C  259   4.521   3.593   4.244
    1C        C  260   4.476   3.800   4.362
    1C        C  261   4.493   3.734   4.486
    1C        C  262   4.430   3.939   4.603
    1C        C  263   4.484   3.808   4.606
    1C        C  264   4.402   4.011   4.721
    1C        C  265   4.436   3.947   4.842
    1C        C  266   4.320   4.131   4.956
    1C        C  267   4.397   4.015   4.958
    1C        C  268   4.262   2.774   2.064
    1C        C  269   4.199   2.731   2.181
    1C        C  270   4.343   2.894   2.298
    1C        C  271   4.256   2.782   2.300
    1C        C  272   4.382   2.955   2.420
    1C        C  273   4.340   2.894   2.540
    1C        C  274   4.440   3.084   2.661
    1C        C  275   4.376   2.958   2.661
    1C        C  276   4.474   3.150   2.781
    1C        C  277   4.450   3.086   2.904
    1C        C  278   4.511   3.290   3.026
    1C        C  279   4.469   3.155   3.026
    1C        C  280   4.516   3.366   3.145
    1C        C  281   4.499   3.299   3.269
    1C        C  282   4.522   3.510   3.390
    1C        C  283   4.516   3.369   3.391
    1C        C  284   4.520   3.582   3.511
    1C        C  285   4.518   3.514   3.635
    1C        C  286   4.493   3.726   3.752
    1C        C  287   4.521   3.587   3.756
    1C        C  288   4.474   3.792   3.876
    1C        C  289   4.496   3.726   3.998
    1C        C  290   4.424   3.929   4.117
    1C        C  291   4.480   3.800   4.118
    1C        C  292   4.391   3.993   4.238
    1C        C  293   4.426   3.933   4.361
    1C        C  294   4.322   4.121   4.478
    1C        C  295   4.395   4.001   4.481
    1C        C  296   4.283   4.186   4.598
    1C        C  297   4.329   4.133   4.720
    1C        C  298   4.203   4.316   4.837
    1C        C  299   4.282   4.197   4.838
    1C        C  300   4.169   4.402   4.946
    1C        C  301   4.353   2.880   2.063
    1C        C  302   4.467   3.072   2.174
    1C        C  303   4.395   2.948   2.177
    1C        C  304   4.478   3.145   2.295
    1C        C  305   4.445   3.081   2.417
    1C        C  306   4.515   3.282   2.536
    1C        C  307   4.472   3.147   2.539
    1C        C  308   4.517   3.355   2.657
    1C        C  309   4.504   3.288   2.780
    1C        C  310   4.527   3.498   2.899
    1C        C  311   4.521   3.357   2.902
    1C        C  312   4.519   3.573   3.018
    1C        C  313   4.522   3.507   3.143
    1C        C  314   4.487   3.715   3.265
    1C        C  315   4.517   3.577   3.265
    1C        C  316   4.475   3.788   3.386
    1C        C  317   4.499   3.721   3.508
    1C        C  318   4.428   3.925   3.626
    1C        C  319   4.478   3.793   3.629
    1C        C  320   4.395   3.987   3.749
    1C        C  321   4.430   3.926   3.872
    1C        C  322   4.316   4.108   3.990
    1C        C  323   4.396   3.991   3.993
    1C        C  324   4.273   4.164   4.112
    1C        C  325   4.319   4.115   4.237
    1C        C  326   4.181   4.279   4.354
    1C        C  327   4.284   4.181   4.356
    1C        C  328   4.127   4.331   4.474
    1C        C  329   4.185   4.288   4.595
    1C        C  330   4.023   4.430   4.714
    1C        C  331   4.140   4.350   4.714
    1C        C  332   3.970   4.491   4.829
    1C        C  333   4.054   4.481   4.941
    1C        C  334   4.551   3.266   2.059
    1C        C  335   4.539   3.127   2.064
    1C        C  336   4.536   3.349   2.171
    1C        C  337   4.516   3.282   2.294
    1C        C  338   4.525   3.494   2.410
    1C        C  339   4.529   3.353   2.415
    1C        C  340   4.524   3.567   2.532
    1C        C  341   4.524   3.496   2.654
    1C        C  342   4.493   3.707   2.774
    1C        C  343   4.520   3.568   2.776
    1C        C  344   4.472   3.778   2.894
    1C        C  345   4.489   3.711   3.017
    1C        C  346   4.422   3.912   3.138
    1C        C  347   4.469   3.778   3.140
    1C        C  348   4.394   3.980   3.259
    1C        C  349   4.427   3.920   3.382
    1C        C  350   4.319   4.104   3.503
    1C        C  351   4.399   3.988   3.503
    1C        C  352   4.273   4.161   3.624
    1C        C  353   4.316   4.104   3.746
    1C        C  354   4.172   4.261   3.867
    1C        C  355   4.272   4.162   3.867
    1C        C  356   4.122   4.313   3.989
    1C        C  357   4.178   4.268   4.111
    1C        C  358   4.010   4.403   4.232
    1C        C  359   4.125   4.320   4.231
    1C        C  360   3.953   4.449   4.352
    1C        C  361   4.015   4.416   4.475
    1C        C  362   3.826   4.522   4.595
    1C        C  363   3.953   4.460   4.594
    1C        C  364   3.762   4.555   4.717
    1C        C  365   3.839   4.544   4.835
    1C        C  366   3.630   4.591   4.950
    1C        C  367   3.768   4.572   4.952
    1C        C  368   4.504   3.564   2.052
    1C        C  369   4.527   3.489   2.169
    1C        C  370   4.498   3.704   2.289
    1C        C  371   4.518   3.564   2.288
    1C        C  372   4.486   3.777   2.409
    1C        C  373   4.502   3.706   2.530
    1C        C  374   4.420   3.904   2.647
    1C        C  375   4.477   3.775   2.651
    1C        C  376   4.386   3.967   2.769
    1C        C  377   4.421   3.909   2.893
    1C        C  378   4.319   4.095   3.013
    1C        C  379   4.395   3.975   3.015
    1C        C  380   4.274   4.152   3.134
    1C        C  381   4.319   4.100   3.257
    1C        C  382   4.178   4.258   3.378
    1C        C  383   4.275   4.155   3.379
    1C        C  384   4.120   4.303   3.498
    1C        C  385   4.173   4.260   3.622
    1C        C  386   4.003   4.388   3.743
    1C        C  387   4.119   4.308   3.744
    1C        C  388   3.945   4.429   3.865
    1C        C  389   4.006   4.393   3.987
    1C        C  390   3.819   4.492   4.109
    1C        C  391   3.946   4.431   4.110
    1C        C  392   3.752   4.517   4.231
    1C        C  393   3.822   4.503   4.352
    1C        C  394   3.618   4.566   4.475
    1C        C  395   3.756   4.536   4.473
    1C        C  396   3.548   4.573   4.597
    1C        C  397   3.623   4.578   4.717
    1C        C  398   3.409   4.558   4.839
    1C        C  399   3.548   4.584   4.837
    1C        C  400   3.341   4.513   4.953
    1C        C  401   4.494   3.703   2.051
    1C        C  402   4.447   3.914   2.168
    1C        C  403   4.487   3.778   2.169
    1C        C  404   4.407   3.978   2.287
    1C        C  405   4.436   3.910   2.407
    1C        C  406   4.327   4.097   2.525
    1C        C  407   4.398   3.975   2.527
    1C        C  408   4.284   4.151   2.648
    1C        C  409   4.320   4.092   2.771
    1C        C  410   4.173   4.250   2.890
    1C        C  411   4.274   4.151   2.891
    1C        C  412   4.121   4.297   3.012
    1C        C  413   4.174   4.252   3.135
    1C        C  414   4.002   4.378   3.255
    1C        C  415   4.121   4.302   3.256
    1C        C  416   3.943   4.416   3.377
    1C        C  417   4.004   4.384   3.500
    1C        C  418   3.811   4.478   3.619
    1C        C  419   3.941   4.423   3.621
    1C        C  420   3.749   4.508   3.743
    1C        C  421   3.817   4.489   3.865
    1C        C  422   3.613   4.544   3.988
    1C        C  423   3.751   4.513   3.987
    1C        C  424   3.543   4.553   4.110
    1C        C  425   3.614   4.545   4.232
    1C        C  426   3.404   4.551   4.357
    1C        C  427   3.545   4.561   4.354
    1C        C  428   3.335   4.544   4.480
    1C        C  429   3.408   4.557   4.600
    1C        C  430   3.194   4.523   4.723
    1C        C  431   3.333   4.552   4.720
    1C        C  432   3.125   4.492   4.844
    1C        C  433   3.203   4.491   4.960
    1C        C  434   4.384   4.125   2.050
    1C        C  435   4.442   3.998   2.057
    1C        C  436   4.299   4.162   2.160
    1C        C  437   4.335   4.101   2.283
    1C        C  438   4.182   4.251   2.403
    1C        C  439   4.289   4.158   2.404
    1C        C  440   4.125   4.294   2.525
    1C        C  441   4.182   4.248   2.646
    1C        C  442   4.004   4.372   2.766
    1C        C  443   4.123   4.295   2.766
    1C        C  444   3.946   4.413   2.888
    1C        C  445   4.004   4.376   3.011
    1C        C  446   3.813   4.472   3.128
    1C        C  447   3.940   4.410   3.132
    1C        C  448   3.749   4.495   3.252
    1C        C  449   3.814   4.475   3.376
    1C        C  450   3.607   4.529   3.497
    1C        C  451   3.744   4.497   3.496
    1C        C  452   3.540   4.542   3.621
    1C        C  453   3.610   4.536   3.743
    1C        C  454   3.400   4.552   3.867
    1C        C  455   3.541   4.549   3.866
    1C        C  456   3.331   4.543   3.990
    1C        C  457   3.401   4.551   4.112
    1C        C  458   3.196   4.507   4.236
    1C        C  459   3.332   4.545   4.235
    1C        C  460   3.128   4.488   4.358
    1C        C  461   3.197   4.515   4.479
    1C        C  462   3.001   4.435   4.604
    1C        C  463   3.130   4.493   4.601
    1C        C  464   2.932   4.401   4.723
    1C        C  465   2.989   4.447   4.845
    1C        C  466   2.805   4.334   4.960
    1C        C  467   2.909   4.428   4.961
    1C        C  468   4.129   4.295   2.042
    1C        C  469   4.186   4.249   2.162
    1C        C  470   4.007   4.374   2.280
    1C        C  471   4.125   4.295   2.282
    1C        C  472   3.942   4.405   2.402
    1C        C  473   4.009   4.374   2.523
    1C        C  474   3.814   4.463   2.645
    1C        C  475   3.943   4.407   2.643
    1C        C  476   3.745   4.489   2.766
    1C        C  477   3.816   4.469   2.886
    1C        C  478   3.606   4.518   3.009
    1C        C  479   3.746   4.497   3.006
    1C        C  480   3.538   4.525   3.133
    1C        C  481   3.610   4.517   3.255
    1C        C  482   3.395   4.540   3.378
    1C        C  483   3.536   4.528   3.375
    1C        C  484   3.327   4.535   3.502
    1C        C  485   3.399   4.545   3.624
    1C        C  486   3.193   4.502   3.745
    1C        C  487   3.328   4.542   3.746
    1C        C  488   3.131   4.475   3.869
    1C        C  489   3.195   4.502   3.992
    1C        C  490   3.004   4.414   4.117
    1C        C  491   3.129   4.479   4.114
    1C        C  492   2.944   4.382   4.241
    1C        C  493   3.001   4.426   4.362
    1C        C  494   2.833   4.300   4.482
    1C        C  495   2.941   4.391   4.484
    1C        C  496   2.779   4.253   4.603
    1C        C  497   2.819   4.315   4.724
    1C        C  498   2.669   4.165   4.845
    1C        C  499   2.753   4.278   4.843
    1C        C  500   2.597   4.119   4.957
    1C        C  501   4.006   4.359   2.043
    1C        C  502   3.817   4.471   2.155
    1C        C  503   3.942   4.405   2.159
    1C        C  504   3.746   4.481   2.277
    1C        C  505   3.811   4.457   2.400
    1C        C  506   3.606   4.510   2.522
    1C        C  507   3.744   4.481   2.523
    1C        C  508   3.536   4.517   2.644
    1C        C  509   3.606   4.514   2.766
    1C        C  510   3.393   4.527   2.887
    1C        C  511   3.534   4.525   2.888
    1C        C  512   3.325   4.526   3.011
    1C        C  513   3.397   4.533   3.133
    1C        C  514   3.191   4.493   3.257
    1C        C  515   3.327   4.532   3.255
    1C        C  516   3.123   4.468   3.378
    1C        C  517   3.192   4.495   3.499
    1C        C  518   3.002   4.408   3.625
    1C        C  519   3.127   4.473   3.623
    1C        C  520   2.943   4.372   3.748
    1C        C  521   3.005   4.411   3.869
    1C        C  522   2.842   4.282   3.996
    1C        C  523   2.951   4.372   3.993
    1C        C  524   2.792   4.234   4.119
    1C        C  525   2.838   4.289   4.241
    1C        C  526   2.702   4.128   4.363
    1C        C  527   2.780   4.246   4.363
    1C        C  528   2.662   4.072   4.486
    1C        C  529   2.697   4.137   4.607
    1C        C  530   2.585   3.960   4.730
    1C        C  531   2.647   4.088   4.729
    1C        C  532   2.539   3.904   4.852
    1C        C  533   2.530   3.997   4.960
    1C        C  534   3.617   4.556   2.040
    1C        C  535   3.751   4.517   2.040
    1C        C  536   3.538   4.536   2.157
    1C        C  537   3.608   4.514   2.279
    1C        C  538   3.394   4.522   2.397
    1C        C  539   3.535   4.521   2.400
    1C        C  540   3.324   4.514   2.520
    1C        C  541   3.395   4.517   2.642
    1C        C  542   3.186   4.490   2.766
    1C        C  543   3.325   4.516   2.764
    1C        C  544   3.121   4.468   2.889
    1C        C  545   3.188   4.494   3.011
    1C        C  546   3.001   4.400   3.136
    1C        C  547   3.124   4.469   3.135
    1C        C  548   2.943   4.360   3.258
    1C        C  549   2.999   4.401   3.381
    1C        C  550   2.829   4.280   3.505
    1C        C  551   2.938   4.371   3.505
    1C        C  552   2.786   4.228   3.629
    1C        C  553   2.840   4.276   3.751
    1C        C  554   2.707   4.115   3.873
    1C        C  555   2.793   4.227   3.875
    1C        C  556   2.673   4.057   3.997
    1C        C  557   2.706   4.123   4.118
    1C        C  558   2.598   3.943   4.244
    1C        C  559   2.669   4.065   4.241
    1C        C  560   2.567   3.879   4.366
    1C        C  561   2.593   3.949   4.486
    1C        C  562   2.530   3.751   4.616
    1C        C  563   2.566   3.887   4.610
    1C        C  564   2.514   3.681   4.738
    1C        C  565   2.519   3.762   4.855
    1C        C  566   2.524   3.551   4.977
    1C        C  567   2.522   3.690   4.975
    1C        C  568   3.328   4.482   2.042
    1C        C  569   3.397   4.519   2.158
    1C        C  570   3.183   4.477   2.281
    1C        C  571   3.320   4.514   2.277
    1C        C  572   3.114   4.460   2.403
    1C        C  573   3.186   4.481   2.523
    1C        C  574   2.990   4.403   2.650
    1C        C  575   3.117   4.465   2.645
    1C        C  576   2.934   4.359   2.772
    1C        C  577   2.998   4.399   2.891
    1C        C  578   2.832   4.270   3.016
    1C        C  579   2.942   4.359   3.014
    1C        C  580   2.786   4.215   3.138
    1C        C  581   2.836   4.267   3.260
    1C        C  582   2.699   4.111   3.384
    1C        C  583   2.783   4.225   3.384
    1C        C  584   2.663   4.053   3.507
    1C        C  585   2.702   4.115   3.628
    1C        C  586   2.601   3.930   3.755
    1C        C  587   2.666   4.055   3.751
    1C        C  588   2.569   3.870   3.879
    1C        C  589   2.603   3.934   4.000
    1C        C  590   2.535   3.737   4.125
    1C        C  591   2.575   3.872   4.124
    1C        C  592   2.516   3.673   4.250
    1C        C  593   2.531   3.742   4.372
    1C        C  594   2.506   3.535   4.497
    1C        C  595   2.518   3.676   4.497
    1C        C  596   2.512   3.465   4.619
    1C        C  597   2.511   3.539   4.740
    1C        C  598   2.529   3.330   4.863
    1C        C  599   2.517   3.470   4.863
    1C        C  600   2.531   3.249   4.977
    1C        C  601   3.196   4.440   2.043
    1C        C  602   2.985   4.390   2.164
    1C        C  603   3.119   4.441   2.160
    1C        C  604   2.923   4.360   2.288
    1C        C  605   2.987   4.399   2.408
    1C        C  606   2.818   4.273   2.527
    1C        C  607   2.926   4.364   2.530
    1C        C  608   2.775   4.217   2.650
    1C        C  609   2.826   4.268   2.772
    1C        C  610   2.690   4.108   2.897
    1C        C  611   2.779   4.218   2.896
    1C        C  612   2.652   4.049   3.020
    1C        C  613   2.693   4.110   3.141
    1C        C  614   2.586   3.928   3.263
    1C        C  615   2.654   4.052   3.264
    1C        C  616   2.567   3.865   3.388
    1C        C  617   2.601   3.926   3.511
    1C        C  618   2.531   3.728   3.636
    1C        C  619   2.571   3.864   3.634
    1C        C  620   2.517   3.662   3.760
    1C        C  621   2.531   3.734   3.881
    1C        C  622   2.503   3.526   4.008
    1C        C  623   2.514   3.667   4.004
    1C        C  624   2.507   3.458   4.132
    1C        C  625   2.506   3.532   4.252
    1C        C  626   2.534   3.324   4.381
    1C        C  627   2.509   3.463   4.375
    1C        C  628   2.553   3.254   4.502
    1C        C  629   2.534   3.326   4.622
    1C        C  630   2.599   3.123   4.743
    1C        C  631   2.556   3.258   4.744
    1C        C  632   2.617   3.052   4.865
    1C        C  633   2.558   3.111   4.982
    1C        C  634   2.789   4.299   2.054
    1C        C  635   2.899   4.385   2.049
    1C        C  636   2.748   4.227   2.167
    1C        C  637   2.808   4.276   2.285
    1C        C  638   2.677   4.110   2.409
    1C        C  639   2.761   4.224   2.408
    1C        C  640   2.643   4.048   2.531
    1C        C  641   2.687   4.107   2.652
    1C        C  642   2.587   3.923   2.777
    1C        C  643   2.648   4.051   2.775
    1C        C  644   2.556   3.860   2.899
    1C        C  645   2.583   3.926   3.021
    1C        C  646   2.521   3.723   3.149
    1C        C  647   2.556   3.860   3.143
    1C        C  648   2.511   3.655   3.272
    1C        C  649   2.530   3.728   3.391
    1C        C  650   2.500   3.519   3.516
    1C        C  651   2.516   3.660   3.514
    1C        C  652   2.503   3.451   3.640
    1C        C  653   2.505   3.521   3.762
    1C        C  654   2.526   3.314   3.887
    1C        C  655   2.503   3.453   3.886
    1C        C  656   2.544   3.253   4.013
    1C        C  657   2.530   3.319   4.137
    1C        C  658   2.600   3.121   4.257
    1C        C  659   2.551   3.254   4.260
    1C        C  660   2.628   3.058   4.380
    1C        C  661   2.599   3.120   4.503
    1C        C  662   2.708   2.936   4.624
    1C        C  663   2.630   3.054   4.624
    1C        C  664   2.747   2.875   4.745
    1C        C  665   2.698   2.934   4.865
    1C        C  666   2.748   2.873   4.981
    1C        C  667   2.685   4.022   2.052
    1C        C  668   2.682   4.103   2.167
    1C        C  669   2.585   3.914   2.291
    1C        C  670   2.641   4.045   2.289
    1C        C  671   2.550   3.851   2.413
    1C        C  672   2.581   3.921   2.532
    1C        C  673   2.517   3.722   2.659
    1C        C  674   2.560   3.856   2.655
    1C        C  675   2.506   3.652   2.781
    1C        C  676   2.519   3.724   2.902
    1C        C  677   2.498   3.515   3.031
    1C        C  678   2.509   3.655   3.025
    1C        C  679   2.498   3.442   3.152
    1C        C  680   2.499   3.514   3.273
    1C        C  681   2.528   3.307   3.400
    1C        C  682   2.499   3.445   3.396
    1C        C  683   2.547   3.240   3.524
    1C        C  684   2.525   3.311   3.644
    1C        C  685   2.596   3.111   3.769
    1C        C  686   2.543   3.242   3.766
    1C        C  687   2.634   3.056   3.894
    1C        C  688   2.599   3.123   4.013
    1C        C  689   2.714   2.942   4.137
    1C        C  690   2.631   3.057   4.134
    1C        C  691   2.759   2.887   4.259
    1C        C  692   2.707   2.941   4.379
    1C        C  693   2.754   2.884   4.500
    1C        C  694   2.632   3.893   2.058
    1C        C  695   2.528   3.704   2.175
    1C        C  696   2.579   3.835   2.174
    1C        C  697   2.511   3.637   2.299
    1C        C  698   2.516   3.715   2.416
    1C        C  699   2.493   3.507   2.542
    1C        C  700   2.497   3.648   2.540
    1C        C  701   2.502   3.439   2.666
    1C        C  702   2.498   3.511   2.787
    1C        C  703   2.527   3.303   2.911
    1C        C  704   2.499   3.441   2.910
    1C        C  705   2.541   3.233   3.034
    1C        C  706   2.521   3.303   3.155
    1C        C  707   2.587   3.103   3.280
    1C        C  708   2.543   3.237   3.278
    1C        C  709   2.623   3.042   3.402
    1C        C  710   2.596   3.108   3.524
    1C        C  711   2.710   2.932   3.650
    1C        C  712   2.625   3.045   3.648
    1C        C  713   2.760   2.882   3.772
    1C        C  714   2.715   2.940   3.893
    1C        C  715   2.758   2.885   4.015
    1C        C  716   2.449   3.501   2.061
    1C        C  717   2.490   3.636   2.059
    1C        C  718   2.463   3.423   2.180
    1C        C  719   2.480   3.498   2.300
    1C        C  720   2.519   3.292   2.425
    1C        C  721   2.490   3.431   2.423
    1C        C  722   2.539   3.227   2.548
    1C        C  723   2.525   3.299   2.669
    1C        C  724   2.593   3.098   2.790
    1C        C  725   2.542   3.230   2.791
    1C        C  726   2.624   3.038   2.914
    1C        C  727   2.590   3.101   3.036
    1C        C  728   2.706   2.925   3.159
    1C        C  729   2.620   3.037   3.159
    1C        C  730   2.751   2.872   3.282
    1C        C  731   2.710   2.931   3.404
    1C        C  732   2.757   2.881   3.527
    1C        C  733   2.486   3.197   2.072
    1C        C  734   2.482   3.281   2.184
    1C        C  735   2.582   3.089   2.307
    1C        C  736   2.523   3.218   2.305
    1C        C  737   2.610   3.025   2.430
    1C        C  738   2.585   3.094   2.550
    1C        C  739   2.697   2.909   2.668
    1C        C  740   2.623   3.029   2.670
    1C        C  741   2.742   2.860   2.793
    1C        C  742   2.704   2.922   2.914
    1C        C  743   2.748   2.868   3.037
    1C        C  744   2.548   3.072   2.073
    1C        C  745   2.693   2.906   2.189
    1C        C  746   2.610   3.020   2.187
    1C        C  747   2.736   2.847   2.309
    1C        C  748   2.688   2.907   2.428
    1C        C  749   2.741   2.851   2.547
    1C        C  750   2.740   2.846   2.071
    1C        C  751   3.671   2.309   1.986
    1C        O  752   3.702   2.192   2.020
    1C        O  753   3.659   2.333   1.848
    1C        C  754   4.651   3.047   2.008
    1C        O  755   4.643   3.009   1.888
    1C        O  756   4.773   3.040   2.077
    1C        C  757   4.455   4.225   1.966
    1C        O  758   4.515   4.321   2.021
    1C        O  759   4.474   4.204   1.829
    1C        C  760   3.595   4.686   1.971
    1C        O  761   3.668   4.784   2.003
    1C        O  762   3.582   4.685   1.832
    1C        C  763   2.877   4.497   1.954
    1C        O  764   2.900   4.508   1.831
    1C        O  765   2.823   4.618   1.998
    1C        C  766   2.357   3.472   1.950
    1C        O  767   2.404   3.451   1.835
    1C        O  768   2.218   3.457   1.965
    1C        C  769   4.704   3.594   5.047
    1C        O  770   4.688   3.570   5.169
    1C        O  771   4.830   3.578   4.988
    1C        C  772   4.274   4.462   5.032
    1C        O  773   4.290   4.422   5.151
    1C        O  774   4.372   4.552   4.990
    1C        C  775   4.143   2.498   5.056
    1C        O  776   4.175   2.381   5.023
    1C        O  777   4.151   2.522   5.194
    1C        C  778   2.870   4.538   5.052
    1C        O  779   2.837   4.654   5.017
    1C        O  780   2.881   4.518   5.191
    1C        C  781   2.471   3.026   5.066
    1C        O  782   2.346   3.037   5.054
    1C        O  783   2.516   3.016   5.197
    1C        C  784   2.409   3.997   5.045
    1C        O  785   2.296   4.002   4.989
    1C        O  786   2.415   3.994   5.185
    1C        C  787   2.949   2.460   1.981
    1C        O  788   2.953   2.491   1.859
    1C        O  789   2.897   2.332   1.992
    1C        C  790   3.178   2.375   5.067
    1C        O  791   3.117   2.265   5.061
    1C        O  792   3.229   2.399   5.196
    1C        H  793   4.273   3.025   5.057
    1C        H  794   4.161   2.817   5.062
    1C        H  795   4.505   3.126   5.056
    1C        H  796   4.519   3.373   5.066
    1C        H  797   4.602   3.829   5.023
    1C        H  798   4.430   3.983   5.055
    1C        H  799   4.285   4.163   5.052
    1C        H  800   4.010   4.486   5.039
    1C        H  801   3.816   4.621   5.034
    1C        H  802   3.587   4.637   5.037
    1C        H  803   3.403   4.466   5.026
    1C        H  804   3.161   4.545   5.042
    1C        H  805   3.882   2.517   5.074
    1C        H  806   3.678   2.470   5.077
    1C        H  807   3.004   2.564   5.067
    1C        H  808   3.448   2.494   5.078
    1C        H  809   2.914   2.778   5.069
    1C        H  810   2.688   2.883   5.069
    1C        H  811   2.527   3.294   5.074
    1C        H  812   2.526   3.501   5.072
    1C        H  813   2.482   3.736   5.063
    1C        H  814   2.585   4.184   5.042
    1C        H  815   2.791   4.278   5.051
    1C        H  816   2.672   2.845   1.989
    1C        H  817   2.876   2.713   1.979
    1C        H  818   3.206   2.407   1.997
    1C        H  819   3.433   2.443   1.979
    1C        H  820   3.834   2.550   1.985
    1C        H  821   4.078   2.590   1.973
    1C        H  822   4.277   2.705   1.984
    1C        H  823   4.394   2.902   1.966
    1C        H  824   4.615   3.310   1.985
    1C        H  825   4.543   3.525   1.960
    1C        H  826   4.512   3.753   1.958
    1C        H  827   3.813   4.550   1.959
    1C        H  828   3.947   4.340   1.956
    1C        H  829   4.193   4.312   1.958
    1C        H  830   4.510   3.974   1.977
    1C        H  831   2.689   3.822   2.001
    1C        H  832   2.730   4.053   1.960
    1C        H  833   2.712   4.309   1.980
    1C        H  834   3.382   4.479   1.949
    1C        H  835   3.156   4.403   1.951
    1C        H  836   2.500   3.001   2.008
    1C        H  837   2.395   3.201   2.016
    1C        H  838   2.494   3.684   1.963
    2V3OU   H29  839   2.801   3.554   5.065
    2V3OU   C27  840   2.782   3.506   5.164
    2V3OU   H27  841   2.724   3.566   5.239
    2V3OU   H28  842   2.729   3.408   5.152
    2V3OU   O11  843   2.908   3.484   5.229
    2V3OU   C15  844   2.919   3.400   5.338
    2V3OU   C13  845   3.051   3.378   5.385
    2V3OU   C14  846   3.079   3.264   5.462
    2V3OU   C16  847   2.974   3.186   5.510
    2V3OU    H6  848   2.994   3.097   5.571
    2V3OU   C12  849   3.216   3.229   5.506
    2V3OU    O2  850   3.242   3.125   5.570
    2V3OU   C10  851   3.326   3.311   5.455
    2V3OU    C8  852   3.456   3.270   5.482
    2V3OU   O10  853   3.487   3.149   5.537
    2V3OU   H26  854   3.399   3.119   5.566
    2V3OU    C6  855   3.567   3.349   5.440
    2V3OU    C5  856   3.537   3.466   5.371
    2V3OU    C4  857   3.704   3.292   5.438
    2V3OU    H4  858   3.725   3.234   5.533
    2V3OU    H5  859   3.708   3.221   5.349
    2V3OU    C2  860   3.815   3.397   5.431
    2V3OU    O6  861   3.809   3.476   5.550
    2V3OU   H21  862   3.761   3.553   5.516
    2V3OU    C3  863   3.783   3.492   5.315
    2V3OU    H2  864   3.865   3.567   5.310
    2V3OU    H3  865   3.779   3.435   5.218
    2V3OU   C25  866   3.950   3.327   5.413
    2V3OU    O7  867   4.004   3.300   5.306
    2V3OU   C26  868   4.030   3.287   5.537
    2V3OU   H22  869   4.067   3.379   5.588
    2V3OU   H23  870   4.115   3.221   5.506
    2V3OU    O8  871   3.965   3.206   5.631
    2V3OU   H24  872   3.923   3.264   5.697
    2V3OU    C1  873   3.648   3.560   5.332
    2V3OU    H1  874   3.624   3.615   5.236
    2V3OU    O3  875   3.657   3.653   5.439
    2V3OU   C19  876   3.619   3.791   5.425
    2V3OU    H9  877   3.525   3.803   5.364
    2V3OU    O4  878   3.712   3.852   5.338
    2V3OU   C20  879   3.842   3.873   5.393
    2V3OU   H10  880   3.902   3.778   5.402
    2V3OU   C24  881   3.608   3.856   5.562
    2V3OU   H16  882   3.547   3.792   5.631
    2V3OU   H17  883   3.561   3.956   5.543
    2V3OU   C23  884   3.746   3.877   5.623
    2V3OU   H15  885   3.791   3.774   5.643
    2V3OU    N1  886   3.732   3.955   5.745
    2V3OU   H19  887   3.810   3.924   5.800
    2V3OU   H20  888   3.647   3.938   5.794
    2V3OU   C21  889   3.846   3.948   5.526
    2V3OU   H11  890   3.951   3.931   5.567
    2V3OU    O5  891   3.823   4.088   5.527
    2V3OU   H18  892   3.778   4.103   5.612
    2V3OU   C22  893   3.916   3.951   5.285
    2V3OU   H12  894   3.865   4.050   5.267
    2V3OU   H13  895   3.911   3.894   5.189
    2V3OU   H14  896   4.024   3.969   5.311
    2V3OU   C11  897   3.159   3.473   5.360
    2V3OU    O1  898   3.134   3.590   5.321
    2V3OU    C9  899   3.299   3.429   5.381
    2V3OU    C7  900   3.404   3.513   5.345
    2V3OU    O9  901   3.385   3.625   5.268
    2V3OU   H25  902   3.292   3.633   5.243
    2V3OU   C17  903   2.816   3.314   5.380
    2V3OU    H7  904   2.718   3.337   5.338
    2V3OU   C18  905   2.843   3.215   5.473
    2V3OU    H8  906   2.761   3.155   5.517
    3SOL     OW  907   3.856   4.048   4.065
    3SOL    HW1  908   3.863   4.075   4.161
    3SOL    HW2  909   3.791   4.108   4.018
    4SOL     OW  910   6.634   0.280   0.537
    4SOL    HW1  911   6.633   0.199   0.597
    4SOL    HW2  912   6.545   0.326   0.544
    5SOL     OW  913   4.525   1.785   1.442
    5SOL    HW1  914   4.616   1.745   1.433
    5SOL    HW2  915   4.522   1.872   1.393
    6SOL     OW  916   5.428   0.616   2.834
    6SOL    HW1  917   5.335   0.607   2.871
    6SOL    HW2  918   5.493   0.624   2.909
    7SOL     OW  919   2.177   4.389   3.726
    7SOL    HW1  920   2.080   4.384   3.751
    7SOL    HW2  921   2.218   4.469   3.770
    8SOL     OW  922   1.925   3.495   5.562
    8SOL    HW1  923   1.885   3.404   5.549
    8SOL    HW2  924   2.025   3.488   5.553
    9SOL     OW  925   6.462   0.844   6.813
    9SOL    HW1  926   6.561   0.839   6.820
    9SOL    HW2  927   6.420   0.800   6.892
   10SOL     OW  928   4.598   4.797   2.875
   10SOL    HW1  929   4.679   4.777   2.819
   10SOL    HW2  930   4.539   4.716   2.878
   11SOL     OW  931   2.381   0.711   1.049
   11SOL    HW1  932   2.406   0.724   0.953
   11SOL    HW2  933   2.465   0.707   1.104
   12SOL     OW  934   3.280   5.108   3.325
   12SOL    HW1  935   3.374   5.140   3.313
   12SOL    HW2  936   3.245   5.073   3.238
   13SOL     OW  937   5.140   6.070   1.478
   13SOL    HW1  938   5.149   6.002   1.406
   13SOL    HW2  939   5.195   6.043   1.557
   14SOL     OW  940   4.277   5.321   5.330
   14SOL    HW1  941   4.220   5.243   5.305
   14SOL    HW2  942   4.333   5.348   5.251
   15SOL     OW  943   6.726   5.770   6.286
   15SOL    HW1  944   6.785   5.822   6.225
   15SOL    HW2  945   6.729   5.673   6.260
   16SOL     OW  946   1.346   3.970   4.890
   16SOL    HW1  947   1.418   3.901   4.893
   16SOL    HW2  948   1.329   4.005   4.982
   17SOL     OW  949   6.007   1.481   5.451
   17SOL    HW1  950   6.017   1.496   5.353
   17SOL    HW2  951   6.082   1.525   5.500
   18SOL     OW  952   3.084   0.805   5.604
   18SOL    HW1  953   3.058   0.739   5.675
   18SOL    HW2  954   3.172   0.845   5.626
   19SOL     OW  955   1.731   1.028   3.068
   19SOL    HW1  956   1.734   0.928   3.071
   19SOL    HW2  957   1.809   1.062   3.016
   20SOL     OW  958   6.321   1.845   5.627
   20SOL    HW1  959   6.254   1.875   5.559
   20SOL    HW2  960   6.365   1.925   5.667
   21SOL     OW  961   3.022   4.925   2.912
   21SOL    HW1  962   3.024   4.878   2.824
   21SOL    HW2  963   2.965   4.873   2.976
   22SOL     OW  964   1.814   6.263   6.081
   22SOL    HW1  965   1.753   6.218   6.146
   22SOL    HW2  966   1.819   6.361   6.101
   23SOL     OW  967   5.490   4.464   1.749
   23SOL    HW1  968   5.510   4.449   1.846
   23SOL    HW2  969   5.433   4.545   1.739
   24SOL     OW  970   4.432   0.575   1.429
   24SOL    HW1  971   4.365   0.645   1.452
   24SOL    HW2  972   4.514   0.618   1.391
   25SOL     OW  973   2.193   0.999   4.287
   25SOL    HW1  974   2.228   0.912   4.254
   25SOL    HW2  975   2.143   1.045   4.214
   26SOL     OW  976   0.973   2.903   6.622
   26SOL    HW1  977   1.067   2.937   6.630
   26SOL    HW2  978   0.974   2.804   6.616
   27SOL     OW  979   6.619   0.846   1.022
   27SOL    HW1  980   6.548   0.804   1.078
   27SOL    HW2  981   6.631   0.793   0.938
   28SOL     OW  982   2.704   0.899   4.933
   28SOL    HW1  983   2.664   0.869   5.019
   28SOL    HW2  984   2.762   0.825   4.897
   29SOL     OW  985   0.318   0.459   1.257
   29SOL    HW1  986   0.406   0.474   1.212
   29SOL    HW2  987   0.332   0.407   1.341
   30SOL     OW  988   4.029   0.475   4.914
   30SOL    HW1  989   4.124   0.464   4.944
   30SOL    HW2  990   4.022   0.558   4.859
   31SOL     OW  991   1.038   3.494   5.301
   31SOL    HW1  992   0.994   3.563   5.358
   31SOL    HW2  993   1.056   3.412   5.356
   32SOL     OW  994   2.588   0.702   1.241
   32SOL    HW1  995   2.513   0.652   1.283
   32SOL    HW2  996   2.588   0.796   1.276
   33SOL     OW  997   0.650   5.277   5.735
   33SOL    HW1  998   0.665   5.258   5.638
   33SOL    HW2  999   0.719   5.343   5.766
   34SOL     OW 1000   2.376   5.598   5.158
   34SOL    HW1 1001   2.324   5.678   5.187
   34SOL    HW2 1002   2.380   5.596   5.058
   35SOL     OW 1003   2.858   3.413   0.330
   35SOL    HW1 1004   2.930   3.354   0.366
   35SOL    HW2 1005   2.800   3.362   0.268
   36SOL     OW 1006   4.205   0.707   4.726
   36SOL    HW1 1007   4.243   0.614   4.723
   36SOL    HW2 1008   4.277   0.771   4.754
   37SOL     OW 1009   2.801   0.697   3.955
   37SOL    HW1 1010   2.877   0.633   3.965
   37SOL    HW2 1011   2.756   0.681   3.867
   38SOL     OW 1012   6.901   4.593   2.824
   38SOL    HW1 1013   6.834   4.632   2.887
   38SOL    HW2 1014   6.924   4.660   2.754
   39SOL     OW 1015   6.728   5.513   6.241
   39SOL    HW1 1016   6.809   5.469   6.279
   39SOL    HW2 1017   6.647   5.457   6.262
   40SOL     OW 1018   4.005   0.619   6.159
   40SOL    HW1 1019   4.040   0.594   6.250
   40SOL    HW2 1020   3.986   0.717   6.157
   41SOL     OW 1021   6.141   4.556   1.484
   41SOL    HW1 1022   6.169   4.467   1.447
   41SOL    HW2 1023   6.075   4.599   1.422
   42SOL     OW 1024   2.362   5.535   6.189
   42SOL    HW1 1025   2.456   5.568   6.187
   42SOL    HW2 1026   2.349   5.465   6.118
   43SOL     OW 1027   4.556   6.749   4.464
   43SOL    HW1 1028   4.497   6.689   4.410
   43SOL    HW2 1029   4.521   6.842   4.460
   44SOL     OW 1030   6.769   1.533   6.142
   44SOL    HW1 1031   6.828   1.576   6.211
   44SOL    HW2 1032   6.740   1.603   6.077
   45SOL     OW 1033   3.393   5.098   0.162
   45SOL    HW1 1034   3.452   5.154   0.104
   45SOL    HW2 1035   3.439   5.011   0.183
   46SOL     OW 1036   0.199   2.552   4.155
   46SOL    HW1 1037   0.170   2.647   4.148
   46SOL    HW2 1038   0.299   2.548   4.163
   47SOL     OW 1039   5.835   2.613   1.439
   47SOL    HW1 1040   5.917   2.659   1.474
   47SOL    HW2 1041   5.791   2.671   1.370
   48SOL     OW 1042   6.451   3.572   0.663
   48SOL    HW1 1043   6.352   3.564   0.677
   48SOL    HW2 1044   6.496   3.488   0.692
   49SOL     OW 1045   4.085   3.232   0.293
   49SOL    HW1 1046   4.029   3.290   0.234
   49SOL    HW2 1047   4.175   3.275   0.306
   50SOL     OW 1048   6.381   3.116   6.765
   50SOL    HW1 1049   6.297   3.156   6.728
   50SOL    HW2 1050   6.408   3.166   6.848
   51SOL     OW 1051   2.806   6.056   2.734
   51SOL    HW1 1052   2.751   6.032   2.815
   51SOL    HW2 1053   2.797   5.983   2.666
   52SOL     OW 1054   5.572   2.519   1.426
   52SOL    HW1 1055   5.536   2.438   1.471
   52SOL    HW2 1056   5.672   2.518   1.429
   53SOL     OW 1057   3.790   0.545   2.387
   53SOL    HW1 1058   3.740   0.508   2.465
   53SOL    HW2 1059   3.776   0.485   2.308
   54SOL     OW 1060   5.641   6.655   0.003
   54SOL    HW1 1061   5.701   6.626   0.078
   54SOL    HW2 1062   5.591   6.738   0.031
   55SOL     OW 1063   0.907   3.380   6.198
   55SOL    HW1 1064   0.886   3.478   6.193
   55SOL    HW2 1065   1.006   3.367   6.185
   56SOL     OW 1066   0.678   2.610   6.681
   56SOL    HW1 1067   0.693   2.512   6.682
   56SOL    HW2 1068   0.602   2.634   6.742
   57SOL     OW 1069   4.523   0.318   6.974
   57SOL    HW1 1070   4.426   0.341   6.969
   57SOL    HW2 1071   4.541   0.239   6.916
   58SOL     OW 1072   0.874   0.505   6.085
   58SOL    HW1 1073   0.833   0.539   6.169
   58SOL    HW2 1074   0.803   0.474   6.022
   59SOL     OW 1075   4.984   3.467   5.690
   59SOL    HW1 1076   4.887   3.445   5.696
   59SOL    HW2 1077   5.009   3.481   5.594
   60SOL     OW 1078   5.563   0.853   2.745
   60SOL    HW1 1079   5.498   0.778   2.755
   60SOL    HW2 1080   5.590   0.860   2.649
   61SOL     OW 1081   6.781   6.415   4.942
   61SOL    HW1 1082   6.776   6.477   5.021
   61SOL    HW2 1083   6.825   6.330   4.970
   62SOL     OW 1084   6.609   1.897   2.224
   62SOL    HW1 1085   6.640   1.988   2.251
   62SOL    HW2 1086   6.555   1.904   2.140
   63SOL     OW 1087   4.707   5.969   4.935
   63SOL    HW1 1088   4.729   6.031   5.010
   63SOL    HW2 1089   4.689   5.878   4.971
   64SOL     OW 1090   0.199   4.514   0.098
   64SOL    HW1 1091   0.231   4.432   0.147
   64SOL    HW2 1092   0.273   4.582   0.096
   65SOL     OW 1093   0.890   0.249   5.320
   65SOL    HW1 1094   0.892   0.265   5.419
   65SOL    HW2 1095   0.952   0.173   5.298
   66SOL     OW 1096   4.435   0.710   2.211
   66SOL    HW1 1097   4.476   0.688   2.299
   66SOL    HW2 1098   4.463   0.801   2.183
   67SOL     OW 1099   1.221   2.471   1.146
   67SOL    HW1 1100   1.308   2.429   1.173
   67SOL    HW2 1101   1.235   2.526   1.064
   68SOL     OW 1102   0.320   1.554   5.403
   68SOL    HW1 1103   0.268   1.528   5.321
   68SOL    HW2 1104   0.279   1.635   5.445
   69SOL     OW 1105   1.001   5.736   6.186
   69SOL    HW1 1106   1.091   5.745   6.229
   69SOL    HW2 1107   1.011   5.740   6.087
   70SOL     OW 1108   4.880   3.532   3.906
   70SOL    HW1 1109   4.951   3.514   3.973
   70SOL    HW2 1110   4.851   3.628   3.912
   71SOL     OW 1111   4.565   1.609   4.271
   71SOL    HW1 1112   4.558   1.641   4.177
   71SOL    HW2 1113   4.475   1.577   4.302
   72SOL     OW 1114   0.441   0.796   3.757
   72SOL    HW1 1115   0.465   0.861   3.684
   72SOL    HW2 1116   0.444   0.843   3.845
   73SOL     OW 1117   2.816   0.652   1.129
   73SOL    HW1 1118   2.906   0.666   1.172
   73SOL    HW2 1119   2.744   0.676   1.194
   74SOL     OW 1120   2.021   2.584   0.844
   74SOL    HW1 1121   2.016   2.486   0.865
   74SOL    HW2 1122   2.075   2.630   0.914
   75SOL     OW 1123   4.087   2.952   0.323
   75SOL    HW1 1124   3.996   2.919   0.346
   75SOL    HW2 1125   4.086   3.051   0.315
   76SOL     OW 1126   3.314   4.732   5.312
   76SOL    HW1 1127   3.251   4.660   5.340
   76SOL    HW2 1128   3.269   4.792   5.246
   77SOL     OW 1129   1.346   4.424   4.650
   77SOL    HW1 1130   1.410   4.500   4.661
   77SOL    HW2 1131   1.369   4.372   4.567
   78SOL     OW 1132   5.124   1.925   0.861
   78SOL    HW1 1133   5.029   1.893   0.870
   78SOL    HW2 1134   5.133   2.015   0.903
   79SOL     OW 1135   1.792   5.014   2.806
   79SOL    HW1 1136   1.827   5.104   2.777
   79SOL    HW2 1137   1.719   5.028   2.873
   80SOL     OW 1138   4.675   1.853   4.556
   80SOL    HW1 1139   4.579   1.839   4.535
   80SOL    HW2 1140   4.684   1.920   4.630
   81SOL     OW 1141   3.748   5.411   1.385
   81SOL    HW1 1142   3.828   5.358   1.355
   81SOL    HW2 1143   3.666   5.357   1.370
   82SOL     OW 1144   2.172   5.864   1.430
   82SOL    HW1 1145   2.243   5.795   1.433
   82SOL    HW2 1146   2.207   5.946   1.384
   83SOL     OW 1147   5.057   1.217   4.750
   83SOL    HW1 1148   5.020   1.188   4.662
   83SOL    HW2 1149   5.151   1.249   4.738
   84SOL     OW 1150   5.669   2.344   2.466
   84SOL    HW1 1151   5.735   2.273   2.490
   84SOL    HW2 1152   5.578   2.319   2.499
   85SOL     OW 1153   2.097   0.732   3.815
   85SOL    HW1 1154   2.047   0.755   3.899
   85SOL    HW2 1155   2.186   0.694   3.840
   86SOL     OW 1156   5.079   0.493   6.598
   86SOL    HW1 1157   5.178   0.507   6.603
   86SOL    HW2 1158   5.041   0.551   6.526
   87SOL     OW 1159   2.855   4.474   0.078
   87SOL    HW1 1160   2.914   4.552   0.059
   87SOL    HW2 1161   2.866   4.446   0.173
   88SOL     OW 1162   3.246   3.912   0.054
   88SOL    HW1 1163   3.173   3.912   0.123
   88SOL    HW2 1164   3.281   4.005   0.042
   89SOL     OW 1165   3.133   3.931   3.208
   89SOL    HW1 1166   3.104   3.847   3.253
   89SOL    HW2 1167   3.078   3.947   3.126
   90SOL     OW 1168   4.728   4.258   3.461
   90SOL    HW1 1169   4.824   4.284   3.471
   90SOL    HW2 1170   4.721   4.164   3.428
   91SOL     OW 1171   4.518   4.937   5.808
   91SOL    HW1 1172   4.502   4.897   5.718
   91SOL    HW2 1173   4.590   5.005   5.803
   92SOL     OW 1174   5.755   3.776   6.569
   92SOL    HW1 1175   5.844   3.805   6.606
   92SOL    HW2 1176   5.695   3.856   6.563
   93SOL     OW 1177   2.921   3.695   1.968
   93SOL    HW1 1178   2.854   3.625   1.942
   93SOL    HW2 1179   2.946   3.683   2.064
   94SOL     OW 1180   3.350   1.894   5.372
   94SOL    HW1 1181   3.254   1.873   5.392
   94SOL    HW2 1182   3.355   1.951   5.290
   95SOL     OW 1183   0.633   0.294   4.479
   95SOL    HW1 1184   0.726   0.330   4.481
   95SOL    HW2 1185   0.575   0.353   4.423
   96SOL     OW 1186   5.485   5.402   0.388
   96SOL    HW1 1187   5.440   5.370   0.305
   96SOL    HW2 1188   5.419   5.405   0.463
   97SOL     OW 1189   2.755   5.050   5.847
   97SOL    HW1 1190   2.746   4.968   5.791
   97SOL    HW2 1191   2.692   5.120   5.813
   98SOL     OW 1192   1.428   2.210   3.510
   98SOL    HW1 1193   1.502   2.200   3.577
   98SOL    HW2 1194   1.457   2.171   3.423
   99SOL     OW 1195   3.989   3.325   5.048
   99SOL    HW1 1196   4.037   3.404   5.011
   99SOL    HW2 1197   3.983   3.334   5.148
  100SOL     OW 1198   0.085   1.009   4.240
  100SOL    HW1 1199   0.156   0.976   4.177
  100SOL    HW2 1200   0.044   1.092   4.203
  101SOL     OW 1201   6.853   4.200   2.497
  101SOL    HW1 1202   6.825   4.176   2.590
  101SOL    HW2 1203   6.859   4.118   2.441
  102SOL     OW 1204   3.034   0.547   0.209
  102SOL    HW1 1205   2.993   0.636   0.188
  102SOL    HW2 1206   3.127   0.543   0.174
  103SOL     OW 1207   2.241   1.031   2.091
  103SOL    HW1 1208   2.233   1.126   2.122
  103SOL    HW2 1209   2.338   1.007   2.083
  104SOL     OW 1210   0.859   4.391   1.480
  104SOL    HW1 1211   0.836   4.376   1.576
  104SOL    HW2 1212   0.814   4.322   1.423
  105SOL     OW 1213   5.812   1.008   5.634
  105SOL    HW1 1214   5.898   1.048   5.603
  105SOL    HW2 1215   5.752   0.994   5.555
  106SOL     OW 1216   5.592   4.549   1.989
  106SOL    HW1 1217   5.543   4.535   2.075
  106SOL    HW2 1218   5.687   4.521   2.000
  107SOL     OW 1219   5.638   0.369   1.151
  107SOL    HW1 1220   5.579   0.289   1.155
  107SOL    HW2 1221   5.611   0.426   1.073
  108SOL     OW 1222   1.974   1.024   5.474
  108SOL    HW1 1223   1.990   0.969   5.556
  108SOL    HW2 1224   1.889   0.994   5.430
  109SOL     OW 1225   1.775   0.957   3.868
  109SOL    HW1 1226   1.696   1.011   3.840
  109SOL    HW2 1227   1.752   0.860   3.866
  110SOL     OW 1228   3.107   4.275   5.493
  110SOL    HW1 1229   3.206   4.266   5.495
  110SOL    HW2 1230   3.075   4.310   5.581
  111SOL     OW 1231   6.608   1.633   1.811
  111SOL    HW1 1232   6.691   1.666   1.856
  111SOL    HW2 1233   6.624   1.624   1.713
  112SOL     OW 1234   4.758   6.925   6.715
  112SOL    HW1 1235   4.854   6.936   6.742
  112SOL    HW2 1236   4.737   6.828   6.706
  113SOL     OW 1237   0.266   5.953   1.884
  113SOL    HW1 1238   0.168   5.937   1.888
  113SOL    HW2 1239   0.288   6.037   1.935
  114SOL     OW 1240   0.335   3.447   3.628
  114SOL    HW1 1241   0.328   3.349   3.647
  114SOL    HW2 1242   0.325   3.464   3.530
  115SOL     OW 1243   5.455   0.762   4.163
  115SOL    HW1 1244   5.401   0.838   4.197
  115SOL    HW2 1245   5.505   0.790   4.081
  116SOL     OW 1246   0.704   4.315   0.024
  116SOL    HW1 1247   0.732   4.376   6.974
  116SOL    HW2 1248   0.707   4.365   0.111
  117SOL     OW 1249   2.493   1.917   0.154
  117SOL    HW1 1250   2.582   1.873   0.160
  117SOL    HW2 1251   2.429   1.858   0.105
  118SOL     OW 1252   1.240   1.825   4.297
  118SOL    HW1 1253   1.147   1.857   4.314
  118SOL    HW2 1254   1.291   1.821   4.384
  119SOL     OW 1255   6.642   6.269   6.597
  119SOL    HW1 1256   6.609   6.185   6.553
  119SOL    HW2 1257   6.585   6.346   6.568
  120SOL     OW 1258   4.746   2.170   4.806
  120SOL    HW1 1259   4.655   2.139   4.777
  120SOL    HW2 1260   4.737   2.218   4.894
  121SOL     OW 1261   1.607   4.517   6.527
  121SOL    HW1 1262   1.600   4.455   6.605
  121SOL    HW2 1263   1.613   4.464   6.442
  122SOL     OW 1264   0.629   3.823   6.720
  122SOL    HW1 1265   0.641   3.837   6.818
  122SOL    HW2 1266   0.653   3.729   6.696
  123SOL     OW 1267   1.055   1.347   1.680
  123SOL    HW1 1268   1.038   1.249   1.685
  123SOL    HW2 1269   1.152   1.364   1.665
  124SOL     OW 1270   2.353   2.777   0.620
  124SOL    HW1 1271   2.365   2.784   0.521
  124SOL    HW2 1272   2.355   2.680   0.647
  125SOL     OW 1273   3.753   3.700   0.318
  125SOL    HW1 1274   3.668   3.651   0.336
  125SOL    HW2 1275   3.797   3.662   0.236
  126SOL     OW 1276   4.161   3.533   4.480
  126SOL    HW1 1277   4.116   3.462   4.426
  126SOL    HW2 1278   4.167   3.503   4.576
  127SOL     OW 1279   0.609   6.024   6.081
  127SOL    HW1 1280   0.572   6.099   6.135
  127SOL    HW2 1281   0.551   6.009   6.001
  128SOL     OW 1282   4.552   3.472   0.704
  128SOL    HW1 1283   4.574   3.488   0.800
  128SOL    HW2 1284   4.606   3.395   0.670
  129SOL     OW 1285   1.165   5.437   1.249
  129SOL    HW1 1286   1.161   5.415   1.346
  129SOL    HW2 1287   1.191   5.534   1.238
  130SOL     OW 1288   5.357   2.588   5.126
  130SOL    HW1 1289   5.408   2.666   5.162
  130SOL    HW2 1290   5.414   2.537   5.062
  131SOL     OW 1291   6.929   1.996   3.821
  131SOL    HW1 1292   6.902   1.920   3.762
  131SOL    HW2 1293   0.004   1.993   3.836
  132SOL     OW 1294   4.162   3.408   2.247
  132SOL    HW1 1295   4.187   3.346   2.173
  132SOL    HW2 1296   4.234   3.477   2.259
  133SOL     OW 1297   5.566   6.506   5.867
  133SOL    HW1 1298   5.494   6.517   5.799
  133SOL    HW2 1299   5.582   6.409   5.886
  134SOL     OW 1300   4.714   0.909   1.879
  134SOL    HW1 1301   4.734   0.873   1.788
  134SOL    HW2 1302   4.800   0.932   1.926
  135SOL     OW 1303   4.898   3.472   3.246
  135SOL    HW1 1304   4.877   3.375   3.233
  135SOL    HW2 1305   4.922   3.489   3.341
  136SOL     OW 1306   3.339   0.062   5.995
  136SOL    HW1 1307   3.392   7.010   6.032
  136SOL    HW2 1308   3.402   0.134   5.964
  137SOL     OW 1309   2.993   2.542   5.833
  137SOL    HW1 1310   2.992   2.601   5.752
  137SOL    HW2 1311   2.954   2.453   5.810
  138SOL     OW 1312   1.013   5.795   5.924
  138SOL    HW1 1313   0.962   5.881   5.925
  138SOL    HW2 1314   1.045   5.776   5.831
  139SOL     OW 1315   2.056   6.084   0.090
  139SOL    HW1 1316   2.108   6.021   0.032
  139SOL    HW2 1317   2.116   6.118   0.163
  140SOL     OW 1318   2.667   0.229   1.931
  140SOL    HW1 1319   2.747   0.206   1.876
  140SOL    HW2 1320   2.608   0.290   1.878
  141SOL     OW 1321   6.346   3.489   0.352
  141SOL    HW1 1322   6.408   3.442   0.414
  141SOL    HW2 1323   6.320   3.577   0.391
  142SOL     OW 1324   1.647   4.245   2.562
  142SOL    HW1 1325   1.727   4.305   2.562
  142SOL    HW2 1326   1.564   4.299   2.546
  143SOL     OW 1327   4.762   6.590   2.135
  143SOL    HW1 1328   4.756   6.584   2.235
  143SOL    HW2 1329   4.821   6.668   2.111
  144SOL     OW 1330   3.617   4.905   3.738
  144SOL    HW1 1331   3.693   4.844   3.764
  144SOL    HW2 1332   3.651   4.974   3.674
  145SOL     OW 1333   6.756   4.934   3.096
  145SOL    HW1 1334   6.774   4.898   3.187
  145SOL    HW2 1335   6.842   4.939   3.045
  146SOL     OW 1336   5.764   1.545   6.551
  146SOL    HW1 1337   5.830   1.508   6.486
  146SOL    HW2 1338   5.796   1.527   6.644
  147SOL     OW 1339   5.071   1.107   5.495
  147SOL    HW1 1340   5.151   1.143   5.448
  147SOL    HW2 1341   5.018   1.051   5.431
  148SOL     OW 1342   0.909   5.139   0.726
  148SOL    HW1 1343   0.958   5.133   0.639
  148SOL    HW2 1344   0.962   5.193   0.790
  149SOL     OW 1345   1.982   2.904   5.537
  149SOL    HW1 1346   1.957   2.958   5.618
  149SOL    HW2 1347   2.057   2.950   5.488
  150SOL     OW 1348   4.034   1.859   4.911
  150SOL    HW1 1349   4.070   1.950   4.889
  150SOL    HW2 1350   4.044   1.842   5.009
  151SOL     OW 1351   3.952   2.576   0.689
  151SOL    HW1 1352   3.869   2.531   0.723
  151SOL    HW2 1353   3.937   2.609   0.596
  152SOL     OW 1354   1.206   2.302   0.246
  152SOL    HW1 1355   1.259   2.328   0.327
  152SOL    HW2 1356   1.248   2.222   0.203
  153SOL     OW 1357   3.136   1.050   3.514
  153SOL    HW1 1358   3.152   1.138   3.469
  153SOL    HW2 1359   3.211   0.988   3.493
  154SOL     OW 1360   5.894   1.495   1.520
  154SOL    HW1 1361   5.893   1.464   1.425
  154SOL    HW2 1362   5.988   1.498   1.553
  155SOL     OW 1363   1.707   6.854   2.405
  155SOL    HW1 1364   1.633   6.882   2.345
  155SOL    HW2 1365   1.792   6.897   2.375
  156SOL     OW 1366   5.138   1.922   0.455
  156SOL    HW1 1367   5.066   1.860   0.486
  156SOL    HW2 1368   5.109   1.966   0.370
  157SOL     OW 1369   4.672   5.120   6.955
  157SOL    HW1 1370   4.744   5.127   0.000
  157SOL    HW2 1371   4.671   5.028   6.916
  158SOL     OW 1372   0.144   2.845   2.896
  158SOL    HW1 1373   0.118   2.937   2.926
  158SOL    HW2 1374   0.207   2.852   2.819
  159SOL     OW 1375   5.936   5.641   0.460
  159SOL    HW1 1376   5.841   5.612   0.472
  159SOL    HW2 1377   5.969   5.612   0.370
  160SOL     OW 1378   6.459   6.938   1.316
  160SOL    HW1 1379   6.516   6.916   1.395
  160SOL    HW2 1380   6.518   6.957   1.237
  161SOL     OW 1381   0.166   6.669   0.263
  161SOL    HW1 1382   0.094   6.684   0.195
  161SOL    HW2 1383   0.255   6.677   0.219
  162SOL     OW 1384   4.222   0.160   0.144
  162SOL    HW1 1385   4.298   0.180   0.205
  162SOL    HW2 1386   4.169   0.084   0.180
  163SOL     OW 1387   6.797   4.029   2.921
  163SOL    HW1 1388   6.889   3.991   2.910
  163SOL    HW2 1389   6.734   3.980   2.861
  164SOL     OW 1390   2.081   2.194   3.433
  164SOL    HW1 1391   2.128   2.209   3.520
  164SOL    HW2 1392   2.079   2.096   3.412
  165SOL     OW 1393   0.838   6.042   3.557
  165SOL    HW1 1394   0.813   5.952   3.593
  165SOL    HW2 1395   0.796   6.113   3.613
  166SOL     OW 1396   0.153   3.557   3.211
  166SOL    HW1 1397   0.056   3.579   3.208
  166SOL    HW2 1398   0.202   3.611   3.142
  167SOL     OW 1399   4.638   2.027   0.166
  167SOL    HW1 1400   4.607   2.067   0.079
  167SOL    HW2 1401   4.575   2.054   0.239
  168SOL     OW 1402   4.989   4.381   1.962
  168SOL    HW1 1403   5.033   4.291   1.968
  168SOL    HW2 1404   4.893   4.369   1.936
  169SOL     OW 1405   5.867   2.320   1.543
  169SOL    HW1 1406   5.926   2.297   1.620
  169SOL    HW2 1407   5.923   2.339   1.462
  170SOL     OW 1408   0.816   5.276   3.099
  170SOL    HW1 1409   0.857   5.279   3.190
  170SOL    HW2 1410   0.744   5.345   3.093
  171SOL     OW 1411   3.130   4.425   0.566
  171SOL    HW1 1412   3.145   4.509   0.515
  171SOL    HW2 1413   3.046   4.433   0.620
  172SOL     OW 1414   6.840   2.022   0.251
  172SOL    HW1 1415   6.936   1.997   0.265
  172SOL    HW2 1416   6.826   2.045   0.155
  173SOL     OW 1417   6.919   1.885   4.952
  173SOL    HW1 1418   6.961   1.936   5.027
  173SOL    HW2 1419   6.959   1.793   4.948
  174SOL     OW 1420   5.984   5.477   5.681
  174SOL    HW1 1421   6.046   5.451   5.754
  174SOL    HW2 1422   6.036   5.495   5.597
  175SOL     OW 1423   0.630   0.224   1.141
  175SOL    HW1 1424   0.683   0.294   1.190
  175SOL    HW2 1425   0.683   0.192   1.062
  176SOL     OW 1426   5.449   4.436   2.215
  176SOL    HW1 1427   5.464   4.338   2.205
  176SOL    HW2 1428   5.359   4.461   2.177
  177SOL     OW 1429   5.741   2.447   4.346
  177SOL    HW1 1430   5.695   2.503   4.276
  177SOL    HW2 1431   5.679   2.375   4.378
  178SOL     OW 1432   1.874   6.352   5.189
  178SOL    HW1 1433   1.903   6.427   5.248
  178SOL    HW2 1434   1.895   6.374   5.094
  179SOL     OW 1435   3.727   4.700   1.368
  179SOL    HW1 1436   3.689   4.756   1.295
  179SOL    HW2 1437   3.778   4.623   1.329
  180SOL     OW 1438   4.023   1.643   0.471
  180SOL    HW1 1439   3.970   1.699   0.407
  180SOL    HW2 1440   3.984   1.551   0.475
  181SOL     OW 1441   3.041   2.367   5.392
  181SOL    HW1 1442   3.121   2.399   5.343
  181SOL    HW2 1443   2.988   2.306   5.333
  182SOL     OW 1444   4.724   2.489   6.911
  182SOL    HW1 1445   4.777   2.572   6.893
  182SOL    HW2 1446   4.654   2.479   6.841
  183SOL     OW 1447   3.441   1.407   3.660
  183SOL    HW1 1448   3.431   1.496   3.614
  183SOL    HW2 1449   3.376   1.401   3.736
  184SOL     OW 1450   5.720   6.131   3.813
  184SOL    HW1 1451   5.804   6.122   3.866
  184SOL    HW2 1452   5.686   6.041   3.788
  185SOL     OW 1453   6.499   1.331   4.158
  185SOL    HW1 1454   6.493   1.231   4.155
  185SOL    HW2 1455   6.419   1.370   4.113
  186SOL     OW 1456   4.465   6.010   3.984
  186SOL    HW1 1457   4.456   6.105   4.015
  186SOL    HW2 1458   4.560   5.993   3.956
  187SOL     OW 1459   4.857   6.358   1.733
  187SOL    HW1 1460   4.766   6.391   1.758
  187SOL    HW2 1461   4.917   6.436   1.718
  188SOL     OW 1462   1.810   3.476   3.376
  188SOL    HW1 1463   1.752   3.396   3.359
  188SOL    HW2 1464   1.892   3.470   3.320
  189SOL     OW 1465   6.029   5.337   6.240
  189SOL    HW1 1466   5.965   5.413   6.252
  189SOL    HW2 1467   6.018   5.298   6.149
  190SOL     OW 1468   6.174   0.315   0.130
  190SOL    HW1 1469   6.157   0.413   0.138
  190SOL    HW2 1470   6.212   0.281   0.216
  191SOL     OW 1471   7.022   1.212   5.735
  191SOL    HW1 1472   6.951   1.252   5.793
  191SOL    HW2 1473   0.086   1.218   5.781
  192SOL     OW 1474   0.608   5.566   0.682
  192SOL    HW1 1475   0.618   5.561   0.781
  192SOL    HW2 1476   0.511   5.558   0.658
  193SOL     OW 1477   2.378   6.278   6.343
  193SOL    HW1 1478   2.318   6.209   6.385
  193SOL    HW2 1479   2.347   6.297   6.250
  194SOL     OW 1480   4.018   6.619   2.231
  194SOL    HW1 1481   4.009   6.646   2.135
  194SOL    HW2 1482   3.999   6.698   2.289
  195SOL     OW 1483   3.724   0.760   1.750
  195SOL    HW1 1484   3.689   0.839   1.698
  195SOL    HW2 1485   3.742   0.684   1.688
  196SOL     OW 1486   2.034   1.476   0.931
  196SOL    HW1 1487   2.016   1.492   0.834
  196SOL    HW2 1488   2.011   1.382   0.954
  197SOL     OW 1489   2.095   6.146   0.630
  197SOL    HW1 1490   2.130   6.087   0.557
  197SOL    HW2 1491   2.041   6.220   0.590
  198SOL     OW 1492   4.194   0.131   6.560
  198SOL    HW1 1493   4.251   0.134   6.478
  198SOL    HW2 1494   4.252   0.142   6.641
  199SOL     OW 1495   6.484   6.573   3.290
  199SOL    HW1 1496   6.398   6.532   3.319
  199SOL    HW2 1497   6.531   6.612   3.369
  200SOL     OW 1498   0.336   3.562   3.870
  200SOL    HW1 1499   0.253   3.507   3.876
  200SOL    HW2 1500   0.372   3.559   3.777
  201SOL     OW 1501   3.604   1.051   6.441
  201SOL    HW1 1502   3.632   1.036   6.536
  201SOL    HW2 1503   3.630   0.972   6.385
  202SOL     OW 1504   3.276   0.377   2.856
  202SOL    HW1 1505   3.314   0.291   2.822
  202SOL    HW2 1506   3.225   0.422   2.782
  203SOL     OW 1507   5.515   3.355   6.540
  203SOL    HW1 1508   5.449   3.323   6.472
  203SOL    HW2 1509   5.563   3.436   6.505
  204SOL     OW 1510   2.144   6.517   0.902
  204SOL    HW1 1511   2.140   6.611   0.938
  204SOL    HW2 1512   2.061   6.468   0.929
  205SOL     OW 1513   6.157   1.633   0.481
  205SOL    HW1 1514   6.124   1.726   0.465
  205SOL    HW2 1515   6.095   1.585   0.544
  206SOL     OW 1516   1.047   4.615   2.001
  206SOL    HW1 1517   1.119   4.682   1.989
  206SOL    HW2 1518   1.066   4.535   1.944
  207SOL     OW 1519   4.648   0.492   5.808
  207SOL    HW1 1520   4.601   0.519   5.724
  207SOL    HW2 1521   4.746   0.510   5.798
  208SOL     OW 1522   4.246   5.471   6.128
  208SOL    HW1 1523   4.223   5.413   6.206
  208SOL    HW2 1524   4.241   5.418   6.044
  209SOL     OW 1525   6.653   5.506   5.698
  209SOL    HW1 1526   6.703   5.422   5.677
  209SOL    HW2 1527   6.715   5.570   5.745
  210SOL     OW 1528   4.046   3.138   0.970
  210SOL    HW1 1529   4.091   3.050   0.960
  210SOL    HW2 1530   4.038   3.182   0.880
  211SOL     OW 1531   1.743   1.373   0.917
  211SOL    HW1 1532   1.774   1.380   1.012
  211SOL    HW2 1533   1.806   1.315   0.865
  212SOL     OW 1534   0.203   4.825   4.010
  212SOL    HW1 1535   0.177   4.826   4.107
  212SOL    HW2 1536   0.252   4.740   3.990
  213SOL     OW 1537   5.089   2.132   6.955
  213SOL    HW1 1538   5.108   2.091   0.020
  213SOL    HW2 1539   5.025   2.208   6.966
  214SOL     OW 1540   1.058   0.441   2.755
  214SOL    HW1 1541   0.969   0.450   2.710
  214SOL    HW2 1542   1.076   0.344   2.773
  215SOL     OW 1543   3.554   3.499   2.977
  215SOL    HW1 1544   3.577   3.402   2.971
  215SOL    HW2 1545   3.461   3.510   3.012
  216SOL     OW 1546   1.145   6.683   5.877
  216SOL    HW1 1547   1.186   6.764   5.836
  216SOL    HW2 1548   1.201   6.602   5.855
  217SOL     OW 1549   0.667   2.658   2.843
  217SOL    HW1 1550   0.729   2.599   2.895
  217SOL    HW2 1551   0.637   2.734   2.901
  218SOL     OW 1552   1.215   3.950   5.386
  218SOL    HW1 1553   1.274   4.029   5.400
  218SOL    HW2 1554   1.266   3.878   5.339
  219SOL     OW 1555   4.757   5.540   6.972
  219SOL    HW1 1556   4.768   5.508   0.042
  219SOL    HW2 1557   4.741   5.638   6.971
  220SOL     OW 1558   2.718   5.334   0.282
  220SOL    HW1 1559   2.666   5.262   0.236
  220SOL    HW2 1560   2.677   5.423   0.263
  221SOL     OW 1561   5.681   1.868   4.578
  221SOL    HW1 1562   5.584   1.894   4.575
  221SOL    HW2 1563   5.722   1.886   4.489
  222SOL     OW 1564   0.691   6.039   5.417
  222SOL    HW1 1565   0.745   5.994   5.489
  222SOL    HW2 1566   0.602   6.066   5.454
  223SOL     OW 1567   6.988   3.821   2.066
  223SOL    HW1 1568   6.916   3.823   2.135
  223SOL    HW2 1569   6.994   3.911   2.021
  224SOL     OW 1570   2.891   2.281   1.715
  224SOL    HW1 1571   2.904   2.362   1.772
  224SOL    HW2 1572   2.909   2.199   1.769
  225SOL     OW 1573   6.143   0.824   6.842
  225SOL    HW1 1574   6.236   0.800   6.869
  225SOL    HW2 1575   6.124   0.919   6.868
  226SOL     OW 1576   6.852   5.916   0.871
  226SOL    HW1 1577   6.766   5.953   0.838
  226SOL    HW2 1578   6.837   5.823   0.906
  227SOL     OW 1579   1.453   3.521   3.861
  227SOL    HW1 1580   1.356   3.503   3.843
  227SOL    HW2 1581   1.483   3.601   3.810
  228SOL     OW 1582   4.481   6.762   3.834
  228SOL    HW1 1583   4.399   6.732   3.786
  228SOL    HW2 1584   4.509   6.852   3.799
  229SOL     OW 1585   5.975   5.918   2.363
  229SOL    HW1 1586   5.980   5.923   2.463
  229SOL    HW2 1587   5.920   5.839   2.337
  230SOL     OW 1588   2.239   4.400   4.893
  230SOL    HW1 1589   2.189   4.331   4.945
  230SOL    HW2 1590   2.297   4.454   4.955
  231SOL     OW 1591   0.978   2.757   6.060
  231SOL    HW1 1592   0.924   2.747   5.976
  231SOL    HW2 1593   0.939   2.699   6.131
  232SOL     OW 1594   2.062   4.819   6.453
  232SOL    HW1 1595   2.122   4.742   6.471
  232SOL    HW2 1596   1.991   4.823   6.523
  233SOL     OW 1597   2.279   0.940   5.916
  233SOL    HW1 1598   2.291   1.038   5.903
  233SOL    HW2 1599   2.348   0.891   5.863
  234SOL     OW 1600   2.944   5.592   6.729
  234SOL    HW1 1601   2.887   5.657   6.679
  234SOL    HW2 1602   2.969   5.632   6.818
  235SOL     OW 1603   2.903   3.292   4.610
  235SOL    HW1 1604   2.903   3.392   4.612
  235SOL    HW2 1605   2.844   3.260   4.536
  236SOL     OW 1606   6.704   2.069   5.278
  236SOL    HW1 1607   6.634   2.009   5.318
  236SOL    HW2 1608   6.793   2.047   5.318
  237SOL     OW 1609   0.625   0.138   1.461
  237SOL    HW1 1610   0.563   0.106   1.389
  237SOL    HW2 1611   0.631   0.238   1.458
  238SOL     OW 1612   5.951   2.622   2.994
  238SOL    HW1 1613   5.909   2.659   2.911
  238SOL    HW2 1614   5.882   2.577   3.050
  239SOL     OW 1615   6.913   5.806   0.124
  239SOL    HW1 1616   6.996   5.860   0.138
  239SOL    HW2 1617   6.834   5.856   0.160
  240SOL     OW 1618   0.254   4.064   5.745
  240SOL    HW1 1619   0.341   4.051   5.794
  240SOL    HW2 1620   0.267   4.040   5.649
  241SOL     OW 1621   0.384   0.954   3.001
  241SOL    HW1 1622   0.481   0.935   3.018
  241SOL    HW2 1623   0.336   0.868   2.981
  242SOL     OW 1624   1.791   3.753   4.296
  242SOL    HW1 1625   1.830   3.828   4.350
  242SOL    HW2 1626   1.698   3.777   4.269
  243SOL     OW 1627   5.690   6.867   5.434
  243SOL    HW1 1628   5.734   6.955   5.452
  243SOL    HW2 1629   5.646   6.834   5.518
  244SOL     OW 1630   6.162   2.197   5.988
  244SOL    HW1 1631   6.125   2.125   6.047
  244SOL    HW2 1632   6.120   2.192   5.897
  245SOL     OW 1633   5.561   2.139   4.192
  245SOL    HW1 1634   5.646   2.099   4.159
  245SOL    HW2 1635   5.574   2.173   4.285
  246SOL     OW 1636   5.103   3.317   3.003
  246SOL    HW1 1637   5.131   3.237   3.056
  246SOL    HW2 1638   5.003   3.317   2.993
  247SOL     OW 1639   2.616   1.429   3.478
  247SOL    HW1 1640   2.581   1.384   3.395
  247SOL    HW2 1641   2.580   1.383   3.559
  248SOL     OW 1642   5.986   1.273   3.334
  248SOL    HW1 1643   5.926   1.352   3.321
  248SOL    HW2 1644   6.063   1.299   3.393
  249SOL     OW 1645   3.191   6.895   3.932
  249SOL    HW1 1646   3.220   6.808   3.894
  249SOL    HW2 1647   3.192   6.965   3.861
  250SOL     OW 1648   5.151   2.978   6.136
  250SOL    HW1 1649   5.116   2.947   6.225
  250SOL    HW2 1650   5.084   3.037   6.092
  251SOL     OW 1651   4.342   2.496   0.220
  251SOL    HW1 1652   4.441   2.509   0.223
  251SOL    HW2 1653   4.314   2.436   0.296
  252SOL     OW 1654   0.130   0.663   5.684
  252SOL    HW1 1655   0.136   0.742   5.624
  252SOL    HW2 1656   0.036   0.654   5.717
  253SOL     OW 1657   3.029   3.627   6.844
  253SOL    HW1 1658   3.060   3.551   6.786
  253SOL    HW2 1659   3.043   3.603   6.940
  254SOL     OW 1660   5.759   2.953   5.070
  254SOL    HW1 1661   5.725   2.926   5.160
  254SOL    HW2 1662   5.682   2.974   5.010
  255SOL     OW 1663   2.819   1.817   3.560
  255SOL    HW1 1664   2.738   1.780   3.606
  255SOL    HW2 1665   2.893   1.828   3.627
  256SOL     OW 1666   5.712   5.141   0.029
  256SOL    HW1 1667   5.733   5.161   0.125
  256SOL    HW2 1668   5.628   5.188   0.002
  257SOL     OW 1669   3.029   6.524   6.032
  257SOL    HW1 1670   3.072   6.534   6.122
  257SOL    HW2 1671   2.945   6.579   6.029
  258SOL     OW 1672   5.284   4.303   4.663
  258SOL    HW1 1673   5.238   4.233   4.609
  258SOL    HW2 1674   5.381   4.279   4.674
  259SOL     OW 1675   1.570   2.257   2.285
  259SOL    HW1 1676   1.490   2.235   2.340
  259SOL    HW2 1677   1.637   2.183   2.293
  260SOL     OW 1678   5.447   0.347   5.908
  260SOL    HW1 1679   5.530   0.403   5.898
  260SOL    HW2 1680   5.462   0.278   5.979
  261SOL     OW 1681   0.904   3.850   2.278
  261SOL    HW1 1682   0.917   3.760   2.237
  261SOL    HW2 1683   0.988   3.878   2.324
  262SOL     OW 1684   0.901   4.873   2.054
  262SOL    HW1 1685   0.961   4.810   2.006
  262SOL    HW2 1686   0.946   4.906   2.137
  263SOL     OW 1687   1.004   1.943   4.201
  263SOL    HW1 1688   0.998   2.037   4.166
  263SOL    HW2 1689   0.913   1.912   4.229
  264SOL     OW 1690   2.412   4.558   6.268
  264SOL    HW1 1691   2.326   4.609   6.262
  264SOL    HW2 1692   2.393   4.463   6.292
  265SOL     OW 1693   5.405   3.538   4.789
  265SOL    HW1 1694   5.398   3.493   4.700
  265SOL    HW2 1695   5.313   3.560   4.822
  266SOL     OW 1696   4.308   1.570   0.311
  266SOL    HW1 1697   4.369   1.533   0.380
  266SOL    HW2 1698   4.240   1.629   0.356
  267SOL     OW 1699   1.019   2.280   5.883
  267SOL    HW1 1700   1.042   2.187   5.910
  267SOL    HW2 1701   1.100   2.325   5.846
  268SOL     OW 1702   4.158   4.857   4.648
  268SOL    HW1 1703   4.240   4.807   4.675
  268SOL    HW2 1704   4.119   4.904   4.727
  269SOL     OW 1705   0.586   1.709   5.870
  269SOL    HW1 1706   0.637   1.694   5.955
  269SOL    HW2 1707   0.636   1.774   5.812
  270SOL     OW 1708   5.149   1.337   3.494
  270SOL    HW1 1709   5.175   1.240   3.491
  270SOL    HW2 1710   5.230   1.392   3.519
  271SOL     OW 1711   1.557   0.969   0.194
  271SOL    HW1 1712   1.539   0.973   0.292
  271SOL    HW2 1713   1.557   0.873   0.165
  272SOL     OW 1714   3.415   5.652   3.394
  272SOL    HW1 1715   3.431   5.721   3.465
  272SOL    HW2 1716   3.498   5.639   3.341
  273SOL     OW 1717   2.591   6.286   5.459
  273SOL    HW1 1718   2.626   6.376   5.432
  273SOL    HW2 1719   2.496   6.296   5.489
  274SOL     OW 1720   6.441   2.082   1.408
  274SOL    HW1 1721   6.367   2.025   1.443
  274SOL    HW2 1722   6.509   2.025   1.361
  275SOL     OW 1723   6.463   6.097   5.192
  275SOL    HW1 1724   6.532   6.083   5.121
  275SOL    HW2 1725   6.392   6.158   5.158
  276SOL     OW 1726   6.461   6.260   3.581
  276SOL    HW1 1727   6.527   6.268   3.656
  276SOL    HW2 1728   6.392   6.191   3.604
  277SOL     OW 1729   4.783   1.333   5.635
  277SOL    HW1 1730   4.766   1.397   5.560
  277SOL    HW2 1731   4.853   1.371   5.695
  278SOL     OW 1732   5.996   3.226   2.493
  278SOL    HW1 1733   5.902   3.213   2.459
  278SOL    HW2 1734   6.046   3.140   2.486
  279SOL     OW 1735   6.762   2.715   4.380
  279SOL    HW1 1736   6.765   2.717   4.280
  279SOL    HW2 1737   6.778   2.621   4.412
  280SOL     OW 1738   3.154   1.010   3.776
  280SOL    HW1 1739   3.152   1.019   3.677
  280SOL    HW2 1740   3.122   0.919   3.803
  281SOL     OW 1741   4.954   6.055   3.832
  281SOL    HW1 1742   5.008   6.132   3.867
  281SOL    HW2 1743   4.877   6.038   3.894
  282SOL     OW 1744   3.853   1.796   0.317
  282SOL    HW1 1745   3.778   1.856   0.286
  282SOL    HW2 1746   3.821   1.702   0.320
  283SOL     OW 1747   6.343   1.740   5.275
  283SOL    HW1 1748   6.387   1.652   5.298
  283SOL    HW2 1749   6.290   1.729   5.191
  284SOL     OW 1750   5.629   5.873   3.796
  284SOL    HW1 1751   5.578   5.860   3.881
  284SOL    HW2 1752   5.671   5.786   3.769
  285SOL     OW 1753   4.463   0.427   6.027
  285SOL    HW1 1754   4.535   0.458   5.966
  285SOL    HW2 1755   4.379   0.477   6.008
  286SOL     OW 1756   2.765   5.082   5.148
  286SOL    HW1 1757   2.726   5.169   5.177
  286SOL    HW2 1758   2.821   5.044   5.221
  287SOL     OW 1759   2.814   6.882   5.761
  287SOL    HW1 1760   2.725   6.862   5.803
  287SOL    HW2 1761   2.829   6.981   5.762
  288SOL     OW 1762   3.600   1.113   0.842
  288SOL    HW1 1763   3.579   1.061   0.924
  288SOL    HW2 1764   3.679   1.073   0.795
  289SOL     OW 1765   5.975   6.528   4.302
  289SOL    HW1 1766   5.951   6.546   4.207
  289SOL    HW2 1767   6.074   6.533   4.314
  290SOL     OW 1768   3.483   0.939   5.065
  290SOL    HW1 1769   3.582   0.950   5.053
  290SOL    HW2 1770   3.443   0.910   4.978
  291SOL     OW 1771   3.976   6.889   5.033
  291SOL    HW1 1772   3.970   6.873   4.934
  291SOL    HW2 1773   3.976   6.987   5.051
  292SOL     OW 1774   4.569   6.972   3.632
  292SOL    HW1 1775   4.520   6.955   3.548
  292SOL    HW2 1776   4.590   0.046   3.640
  293SOL     OW 1777   5.711   6.846   2.565
  293SOL    HW1 1778   5.687   6.853   2.662
  293SOL    HW2 1779   5.768   6.924   2.539
  294SOL     OW 1780   6.438   0.422   5.534
  294SOL    HW1 1781   6.391   0.446   5.449
  294SOL    HW2 1782   6.385   0.457   5.612
  295SOL     OW 1783   1.426   1.682   5.185
  295SOL    HW1 1784   1.432   1.583   5.174
  295SOL    HW2 1785   1.506   1.715   5.235
  296SOL     OW 1786   0.042   2.564   1.129
  296SOL    HW1 1787   0.090   2.604   1.207
  296SOL    HW2 1788   6.997   2.500   1.162
  297SOL     OW 1789   5.607   3.618   3.900
  297SOL    HW1 1790   5.687   3.596   3.956
  297SOL    HW2 1791   5.624   3.591   3.805
  298SOL     OW 1792   3.652   1.020   6.772
  298SOL    HW1 1793   3.728   1.073   6.809
  298SOL    HW2 1794   3.570   1.077   6.767
  299SOL     OW 1795   2.025   0.949   6.032
  299SOL    HW1 1796   1.967   0.972   5.955
  299SOL    HW2 1797   2.117   0.927   5.999
  300SOL     OW 1798   4.359   0.075   2.957
  300SOL    HW1 1799   4.381   0.170   2.977
  300SOL    HW2 1800   4.430   0.015   2.995
  301SOL     OW 1801   6.491   5.591   0.859
  301SOL    HW1 1802   6.484   5.513   0.921
  301SOL    HW2 1803   6.400   5.629   0.842
  302SOL     OW 1804   6.101   5.976   1.370
  302SOL    HW1 1805   6.151   5.890   1.357
  302SOL    HW2 1806   6.159   6.042   1.418
  303SOL     OW 1807   5.698   5.556   2.070
  303SOL    HW1 1808   5.740   5.584   1.984
  303SOL    HW2 1809   5.747   5.598   2.146
  304SOL     OW 1810   2.729   6.496   5.313
  304SOL    HW1 1811   2.778   6.568   5.362
  304SOL    HW2 1812   2.792   6.422   5.290
  305SOL     OW 1813   1.033   2.824   2.345
  305SOL    HW1 1814   0.981   2.890   2.400
  305SOL    HW2 1815   0.997   2.822   2.252
  306SOL     OW 1816   6.489   0.051   2.615
  306SOL    HW1 1817   6.542   0.062   2.530
  306SOL    HW2 1818   6.479   0.140   2.659
  307SOL     OW 1819   3.324   3.020   3.028
  307SOL    HW1 1820   3.361   3.010   3.121
  307SOL    HW2 1821   3.360   2.947   2.970
  308SOL     OW 1822   5.771   1.940   3.780
  308SOL    HW1 1823   5.727   1.852   3.762
  308SOL    HW2 1824   5.793   1.985   3.693
  309SOL     OW 1825   0.962   6.265   5.977
  309SOL    HW1 1826   0.907   6.348   5.969
  309SOL    HW2 1827   1.051   6.280   5.933
  310SOL     OW 1828   5.205   6.250   4.895
  310SOL    HW1 1829   5.240   6.344   4.888
  310SOL    HW2 1830   5.246   6.194   4.823
  311SOL     OW 1831   2.495   5.415   2.885
  311SOL    HW1 1832   2.457   5.464   2.964
  311SOL    HW2 1833   2.495   5.475   2.806
  312SOL     OW 1834   4.716   2.115   2.989
  312SOL    HW1 1835   4.769   2.049   3.041
  312SOL    HW2 1836   4.623   2.081   2.975
  313SOL     OW 1837   4.051   3.185   3.008
  313SOL    HW1 1838   4.064   3.272   3.057
  313SOL    HW2 1839   4.046   3.110   3.074
  314SOL     OW 1840   2.320   6.358   6.096
  314SOL    HW1 1841   2.221   6.344   6.107
  314SOL    HW2 1842   2.336   6.446   6.052
  315SOL     OW 1843   6.250   1.515   3.292
  315SOL    HW1 1844   6.233   1.497   3.389
  315SOL    HW2 1845   6.301   1.601   3.283
  316SOL     OW 1846   3.651   1.342   5.432
  316SOL    HW1 1847   3.570   1.400   5.424
  316SOL    HW2 1848   3.727   1.396   5.468
  317SOL     OW 1849   1.346   1.357   1.650
  317SOL    HW1 1850   1.360   1.260   1.629
  317SOL    HW2 1851   1.417   1.411   1.606
  318SOL     OW 1852   0.346   0.522   5.318
  318SOL    HW1 1853   0.444   0.518   5.298
  318SOL    HW2 1854   0.330   0.585   5.394
  319SOL     OW 1855   1.570   2.335   2.682
  319SOL    HW1 1856   1.525   2.315   2.769
  319SOL    HW2 1857   1.552   2.430   2.656
  320SOL     OW 1858   6.093   2.455   6.444
  320SOL    HW1 1859   6.067   2.551   6.456
  320SOL    HW2 1860   6.013   2.402   6.416
  321SOL     OW 1861   4.468   3.202   1.088
  321SOL    HW1 1862   4.443   3.106   1.072
  321SOL    HW2 1863   4.545   3.205   1.152
  322SOL     OW 1864   3.513   3.451   6.052
  322SOL    HW1 1865   3.449   3.491   6.117
  322SOL    HW2 1866   3.515   3.352   6.063
  323SOL     OW 1867   0.121   3.055   3.249
  323SOL    HW1 1868   0.146   3.149   3.226
  323SOL    HW2 1869   0.033   3.054   3.296
  324SOL     OW 1870   0.506   6.869   3.950
  324SOL    HW1 1871   0.604   6.864   3.933
  324SOL    HW2 1872   0.489   6.915   4.037
  325SOL     OW 1873   0.629   3.761   2.394
  325SOL    HW1 1874   0.718   3.747   2.349
  325SOL    HW2 1875   0.641   3.755   2.493
  326SOL     OW 1876   0.517   6.386   6.303
  326SOL    HW1 1877   0.562   6.306   6.343
  326SOL    HW2 1878   0.582   6.462   6.300
  327SOL     OW 1879   4.141   4.970   3.399
  327SOL    HW1 1880   4.207   4.905   3.437
  327SOL    HW2 1881   4.093   4.928   3.322
  328SOL     OW 1882   2.241   4.037   2.456
  328SOL    HW1 1883   2.242   4.068   2.361
  328SOL    HW2 1884   2.297   4.098   2.512
  329SOL     OW 1885   3.363   4.159   2.291
  329SOL    HW1 1886   3.397   4.249   2.265
  329SOL    HW2 1887   3.306   4.168   2.373
  330SOL     OW 1888   3.452   5.074   0.625
  330SOL    HW1 1889   3.535   5.025   0.647
  330SOL    HW2 1890   3.393   5.017   0.567
  331SOL     OW 1891   5.341   5.447   6.529
  331SOL    HW1 1892   5.276   5.506   6.578
  331SOL    HW2 1893   5.400   5.400   6.595
  332SOL     OW 1894   5.315   2.605   3.007
  332SOL    HW1 1895   5.227   2.560   2.992
  332SOL    HW2 1896   5.381   2.572   2.940
  333SOL     OW 1897   3.344   1.388   6.197
  333SOL    HW1 1898   3.337   1.347   6.288
  333SOL    HW2 1899   3.306   1.480   6.198
  334SOL     OW 1900   3.874   3.330   3.365
  334SOL    HW1 1901   3.779   3.302   3.376
  334SOL    HW2 1902   3.886   3.371   3.275
  335SOL     OW 1903   3.297   0.434   5.794
  335SOL    HW1 1904   3.221   0.407   5.852
  335SOL    HW2 1905   3.284   0.399   5.702
  336SOL     OW 1906   2.973   1.841   3.117
  336SOL    HW1 1907   2.884   1.885   3.112
  336SOL    HW2 1908   2.987   1.783   3.036
  337SOL     OW 1909   2.162   6.987   5.835
  337SOL    HW1 1910   2.099   6.973   5.758
  337SOL    HW2 1911   2.210   0.049   5.823
  338SOL     OW 1912   4.796   2.112   1.657
  338SOL    HW1 1913   4.783   2.170   1.737
  338SOL    HW2 1914   4.770   2.164   1.575
  339SOL     OW 1915   3.754   4.935   5.098
  339SOL    HW1 1916   3.780   5.031   5.111
  339SOL    HW2 1917   3.676   4.931   5.035
  340SOL     OW 1918   4.494   1.992   3.590
  340SOL    HW1 1919   4.412   2.041   3.563
  340SOL    HW2 1920   4.574   2.051   3.579
  341SOL     OW 1921   5.425   0.299   3.967
  341SOL    HW1 1922   5.471   0.224   4.014
  341SOL    HW2 1923   5.479   0.383   3.977
  342SOL     OW 1924   5.005   2.468   1.508
  342SOL    HW1 1925   5.096   2.476   1.549
  342SOL    HW2 1926   5.012   2.484   1.409
  343SOL     OW 1927   0.799   5.896   3.064
  343SOL    HW1 1928   0.897   5.878   3.059
  343SOL    HW2 1929   0.779   5.953   3.144
  344SOL     OW 1930   1.874   1.542   1.830
  344SOL    HW1 1931   1.824   1.574   1.911
  344SOL    HW2 1932   1.919   1.455   1.852
  345SOL     OW 1933   6.201   3.234   4.126
  345SOL    HW1 1934   6.274   3.302   4.116
  345SOL    HW2 1935   6.240   3.142   4.128
  346SOL     OW 1936   1.612   0.031   3.147
  346SOL    HW1 1937   1.676   0.007   3.220
  346SOL    HW2 1938   1.655   0.015   3.058
  347SOL     OW 1939   2.788   5.352   0.540
  347SOL    HW1 1940   2.773   5.376   0.444
  347SOL    HW2 1941   2.715   5.391   0.595
  348SOL     OW 1942   4.884   5.781   2.327
  348SOL    HW1 1943   4.814   5.850   2.312
  348SOL    HW2 1944   4.909   5.740   2.239
  349SOL     OW 1945   6.460   4.347   1.199
  349SOL    HW1 1946   6.387   4.391   1.250
  349SOL    HW2 1947   6.501   4.275   1.255
  350SOL     OW 1948   3.006   3.185   0.209
  350SOL    HW1 1949   3.064   3.267   0.212
  350SOL    HW2 1950   3.064   3.104   0.216
  351SOL     OW 1951   3.038   4.595   1.588
  351SOL    HW1 1952   3.012   4.586   1.684
  351SOL    HW2 1953   3.069   4.689   1.570
  352SOL     OW 1954   3.813   6.801   2.819
  352SOL    HW1 1955   3.787   6.880   2.874
  352SOL    HW2 1956   3.731   6.752   2.790
  353SOL     OW 1957   2.230   6.219   6.740
  353SOL    HW1 1958   2.216   6.302   6.795
  353SOL    HW2 1959   2.292   6.158   6.789
  354SOL     OW 1960   6.760   2.301   0.420
  354SOL    HW1 1961   6.674   2.343   0.392
  354SOL    HW2 1962   6.759   2.204   0.399
  355SOL     OW 1963   2.134   2.284   2.658
  355SOL    HW1 1964   2.049   2.276   2.709
  355SOL    HW2 1965   2.118   2.333   2.572
  356SOL     OW 1966   1.005   0.050   6.040
  356SOL    HW1 1967   0.975   6.983   6.071
  356SOL    HW2 1968   1.040   0.101   6.119
  357SOL     OW 1969   5.515   6.395   4.428
  357SOL    HW1 1970   5.477   6.306   4.453
  357SOL    HW2 1971   5.569   6.430   4.505
  358SOL     OW 1972   5.082   5.865   0.596
  358SOL    HW1 1973   5.137   5.906   0.523
  358SOL    HW2 1974   5.017   5.801   0.556
  359SOL     OW 1975   3.031   2.126   2.110
  359SOL    HW1 1976   3.125   2.153   2.132
  359SOL    HW2 1977   2.986   2.201   2.060
  360SOL     OW 1978   1.593   4.825   4.342
  360SOL    HW1 1979   1.605   4.745   4.284
  360SOL    HW2 1980   1.612   4.908   4.290
  361SOL     OW 1981   6.693   6.309   3.428
  361SOL    HW1 1982   6.736   6.268   3.348
  361SOL    HW2 1983   6.610   6.257   3.451
  362SOL     OW 1984   3.785   4.265   1.106
  362SOL    HW1 1985   3.876   4.258   1.146
  362SOL    HW2 1986   3.755   4.360   1.108
  363SOL     OW 1987   6.006   5.361   2.701
  363SOL    HW1 1988   6.058   5.416   2.767
  363SOL    HW2 1989   5.910   5.361   2.726
  364SOL     OW 1990   0.200   5.172   6.686
  364SOL    HW1 1991   0.192   5.166   6.587
  364SOL    HW2 1992   0.294   5.152   6.713
  365SOL     OW 1993   3.603   1.848   2.702
  365SOL    HW1 1994   3.559   1.857   2.791
  365SOL    HW2 1995   3.655   1.931   2.681
  366SOL     OW 1996   5.915   2.578   0.554
  366SOL    HW1 1997   5.865   2.494   0.531
  366SOL    HW2 1998   5.861   2.658   0.529
  367SOL     OW 1999   4.593   1.848   5.690
  367SOL    HW1 2000   4.585   1.948   5.681
  367SOL    HW2 2001   4.521   1.814   5.750
  368SOL     OW 2002   6.446   2.073   5.980
  368SOL    HW1 2003   6.429   1.981   6.015
  368SOL    HW2 2004   6.363   2.129   5.991
  369SOL     OW 2005   5.497   3.617   2.503
  369SOL    HW1 2006   5.567   3.684   2.527
  369SOL    HW2 2007   5.540   3.531   2.476
  370SOL     OW 2008   2.128   3.004   4.182
  370SOL    HW1 2009   2.063   2.943   4.227
  370SOL    HW2 2010   2.175   3.060   4.251
  371SOL     OW 2011   1.702   4.036   6.670
  371SOL    HW1 2012   1.716   4.044   6.571
  371SOL    HW2 2013   1.749   4.111   6.716
  372SOL     OW 2014   2.972   6.639   5.756
  372SOL    HW1 2015   3.013   6.602   5.839
  372SOL    HW2 2016   2.910   6.714   5.780
  373SOL     OW 2017   6.274   6.622   4.761
  373SOL    HW1 2018   6.176   6.631   4.772
  373SOL    HW2 2019   6.303   6.529   4.784
  374SOL     OW 2020   2.677   1.625   2.688
  374SOL    HW1 2021   2.693   1.527   2.698
  374SOL    HW2 2022   2.638   1.643   2.598
  375SOL     OW 2023   1.213   4.681   5.209
  375SOL    HW1 2024   1.176   4.601   5.162
  375SOL    HW2 2025   1.220   4.663   5.307
  376SOL     OW 2026   2.614   0.783   4.107
  376SOL    HW1 2027   2.589   0.691   4.139
  376SOL    HW2 2028   2.676   0.776   4.029
  377SOL     OW 2029   1.456   2.500   6.788
  377SOL    HW1 2030   1.424   2.533   6.700
  377SOL    HW2 2031   1.434   2.403   6.798
  378SOL     OW 2032   3.157   2.031   1.540
  378SOL    HW1 2033   3.237   2.000   1.488
  378SOL    HW2 2034   3.138   1.967   1.614
  379SOL     OW 2035   6.255   2.562   6.223
  379SOL    HW1 2036   6.195   2.510   6.284
  379SOL    HW2 2037   6.253   2.658   6.249
  380SOL     OW 2038   3.821   1.654   1.327
  380SOL    HW1 2039   3.781   1.742   1.298
  380SOL    HW2 2040   3.749   1.584   1.330
  381SOL     OW 2041   1.518   4.709   3.331
  381SOL    HW1 2042   1.591   4.656   3.288
  381SOL    HW2 2043   1.482   4.775   3.265
  382SOL     OW 2044   5.998   0.447   0.470
  382SOL    HW1 2045   5.971   0.358   0.507
  382SOL    HW2 2046   5.970   0.519   0.533
  383SOL     OW 2047   3.986   2.615   1.463
  383SOL    HW1 2048   3.900   2.568   1.444
  383SOL    HW2 2049   3.971   2.713   1.465
  384SOL     OW 2050   6.501   4.197   4.625
  384SOL    HW1 2051   6.438   4.145   4.683
  384SOL    HW2 2052   6.472   4.292   4.621
  385SOL     OW 2053   4.663   4.854   6.818
  385SOL    HW1 2054   4.703   4.790   6.883
  385SOL    HW2 2055   4.706   4.843   6.729
  386SOL     OW 2056   4.039   0.470   4.244
  386SOL    HW1 2057   4.011   0.379   4.275
  386SOL    HW2 2058   4.008   0.539   4.310
  387SOL     OW 2059   2.218   5.335   3.554
  387SOL    HW1 2060   2.221   5.434   3.568
  387SOL    HW2 2061   2.166   5.315   3.471
  388SOL     OW 2062   2.058   2.425   6.532
  388SOL    HW1 2063   2.142   2.476   6.547
  388SOL    HW2 2064   1.985   2.487   6.505
  389SOL     OW 2065   2.899   3.256   3.365
  389SOL    HW1 2066   2.928   3.340   3.320
  389SOL    HW2 2067   2.839   3.204   3.303
  390SOL     OW 2068   2.347   1.939   4.236
  390SOL    HW1 2069   2.376   1.912   4.143
  390SOL    HW2 2070   2.416   1.909   4.302
  391SOL     OW 2071   0.952   2.610   6.622
  391SOL    HW1 2072   0.980   2.570   6.534
  391SOL    HW2 2073   0.852   2.609   6.628
  392SOL     OW 2074   2.752   5.307   1.792
  392SOL    HW1 2075   2.727   5.277   1.699
  392SOL    HW2 2076   2.834   5.363   1.787
  393SOL     OW 2077   6.218   4.681   5.269
  393SOL    HW1 2078   6.141   4.662   5.329
  393SOL    HW2 2079   6.186   4.737   5.192
  394SOL     OW 2080   7.017   6.717   0.062
  394SOL    HW1 2081   0.057   6.766   0.002
  394SOL    HW2 2082   6.999   6.626   0.025
  395SOL     OW 2083   5.312   3.978   2.422
  395SOL    HW1 2084   5.240   3.925   2.467
  395SOL    HW2 2085   5.391   3.919   2.405
  396SOL     OW 2086   3.165   3.842   3.591
  396SOL    HW1 2087   3.210   3.930   3.572
  396SOL    HW2 2088   3.235   3.772   3.605
  397SOL     OW 2089   4.451   2.149   5.614
  397SOL    HW1 2090   4.521   2.205   5.570
  397SOL    HW2 2091   4.382   2.123   5.547
  398SOL     OW 2092   1.203   5.305   2.570
  398SOL    HW1 2093   1.232   5.395   2.535
  398SOL    HW2 2094   1.238   5.234   2.509
  399SOL     OW 2095   4.655   5.542   1.183
  399SOL    HW1 2096   4.686   5.630   1.219
  399SOL    HW2 2097   4.604   5.493   1.253
  400SOL     OW 2098   0.447   6.583   5.483
  400SOL    HW1 2099   0.416   6.503   5.430
  400SOL    HW2 2100   0.463   6.659   5.420
  401SOL     OW 2101   4.596   1.360   6.289
  401SOL    HW1 2102   4.538   1.318   6.359
  401SOL    HW2 2103   4.549   1.440   6.251
  402SOL     OW 2104   6.291   5.996   2.774
  402SOL    HW1 2105   6.364   6.008   2.706
  402SOL    HW2 2106   6.309   6.056   2.852
  403SOL     OW 2107   4.692   2.338   5.859
  403SOL    HW1 2108   4.606   2.377   5.825
  403SOL    HW2 2109   4.680   2.240   5.875
  404SOL     OW 2110   1.241   6.727   4.063
  404SOL    HW1 2111   1.190   6.776   3.993
  404SOL    HW2 2112   1.295   6.791   4.117
  405SOL     OW 2113   1.744   2.665   0.863
  405SOL    HW1 2114   1.691   2.581   0.871
  405SOL    HW2 2115   1.841   2.642   0.855
  406SOL     OW 2116   1.264   2.385   4.427
  406SOL    HW1 2117   1.327   2.322   4.472
  406SOL    HW2 2118   1.179   2.338   4.406
  407SOL     OW 2119   2.927   0.207   4.651
  407SOL    HW1 2120   2.993   0.190   4.724
  407SOL    HW2 2121   2.860   0.133   4.649
  408SOL     OW 2122   1.448   0.155   3.608
  408SOL    HW1 2123   1.441   0.139   3.510
  408SOL    HW2 2124   1.504   0.237   3.625
  409SOL     OW 2125   6.080   3.060   2.901
  409SOL    HW1 2126   6.086   2.983   2.964
  409SOL    HW2 2127   6.113   3.032   2.811
  410SOL     OW 2128   2.035   0.321   6.789
  410SOL    HW1 2129   2.097   0.369   6.728
  410SOL    HW2 2130   1.991   0.386   6.851
  411SOL     OW 2131   5.566   4.836   6.346
  411SOL    HW1 2132   5.634   4.880   6.405
  411SOL    HW2 2133   5.613   4.779   6.279
  412SOL     OW 2134   3.463   6.374   2.914
  412SOL    HW1 2135   3.484   6.281   2.943
  412SOL    HW2 2136   3.378   6.374   2.861
  413SOL     OW 2137   3.389   5.294   0.391
  413SOL    HW1 2138   3.410   5.213   0.337
  413SOL    HW2 2139   3.314   5.274   0.454
  414SOL     OW 2140   4.492   5.012   1.380
  414SOL    HW1 2141   4.538   4.932   1.416
  414SOL    HW2 2142   4.542   5.046   1.300
  415SOL     OW 2143   1.576   5.985   1.070
  415SOL    HW1 2144   1.566   5.991   1.170
  415SOL    HW2 2145   1.665   6.022   1.044
  416SOL     OW 2146   4.015   5.723   4.916
  416SOL    HW1 2147   3.978   5.688   4.830
  416SOL    HW2 2148   3.942   5.767   4.968
  417SOL     OW 2149   3.230   6.284   1.924
  417SOL    HW1 2150   3.289   6.354   1.963
  417SOL    HW2 2151   3.142   6.282   1.972
  418SOL     OW 2152   4.928   6.305   0.510
  418SOL    HW1 2153   4.843   6.358   0.506
  418SOL    HW2 2154   4.917   6.230   0.575
  419SOL     OW 2155   0.149   0.730   0.878
  419SOL    HW1 2156   0.190   0.642   0.853
  419SOL    HW2 2157   0.162   0.794   0.803
  420SOL     OW 2158   5.840   3.916   1.128
  420SOL    HW1 2159   5.811   3.999   1.177
  420SOL    HW2 2160   5.785   3.839   1.158
  421SOL     OW 2161   1.400   5.048   6.188
  421SOL    HW1 2162   1.492   5.087   6.183
  421SOL    HW2 2163   1.405   4.949   6.194
  422SOL     OW 2164   5.778   4.703   0.340
  422SOL    HW1 2165   5.750   4.680   0.247
  422SOL    HW2 2166   5.717   4.658   0.405
  423SOL     OW 2167   6.007   2.849   0.015
  423SOL    HW1 2168   5.920   2.820   0.055
  423SOL    HW2 2169   6.049   2.920   0.072
  424SOL     OW 2170   2.672   4.015   6.904
  424SOL    HW1 2171   2.632   4.076   6.972
  424SOL    HW2 2172   2.771   4.026   6.904
  425SOL     OW 2173   5.026   1.703   1.182
  425SOL    HW1 2174   5.072   1.791   1.194
  425SOL    HW2 2175   4.933   1.717   1.149
  426SOL     OW 2176   4.813   2.738   5.551
  426SOL    HW1 2177   4.749   2.759   5.625
  426SOL    HW2 2178   4.777   2.663   5.495
  427SOL     OW 2179   5.553   4.279   1.971
  427SOL    HW1 2180   5.633   4.338   1.959
  427SOL    HW2 2181   5.574   4.207   2.036
  428SOL     OW 2182   3.699   0.599   5.330
  428SOL    HW1 2183   3.779   0.557   5.286
  428SOL    HW2 2184   3.719   0.694   5.353
  429SOL     OW 2185   1.939   5.140   0.561
  429SOL    HW1 2186   1.900   5.139   0.653
  429SOL    HW2 2187   2.012   5.208   0.556
  430SOL     OW 2188   1.410   6.911   4.426
  430SOL    HW1 2189   1.373   6.886   4.515
  430SOL    HW2 2190   1.381   7.004   4.403
  431SOL     OW 2191   3.444   0.977   0.025
  431SOL    HW1 2192   3.487   0.983   6.958
  431SOL    HW2 2193   3.378   1.052   0.035
  432SOL     OW 2194   0.162   2.128   0.075
  432SOL    HW1 2195   0.080   2.137   0.018
  432SOL    HW2 2196   0.194   2.219   0.102
  433SOL     OW 2197   3.031   0.043   4.326
  433SOL    HW1 2198   3.082   0.022   4.242
  433SOL    HW2 2199   2.994   0.135   4.320
  434SOL     OW 2200   5.623   4.542   1.217
  434SOL    HW1 2201   5.650   4.639   1.224
  434SOL    HW2 2202   5.562   4.519   1.292
  435SOL     OW 2203   3.370   3.363   5.826
  435SOL    HW1 2204   3.317   3.282   5.853
  435SOL    HW2 2205   3.431   3.390   5.901
  436SOL     OW 2206   1.493   0.078   0.905
  436SOL    HW1 2207   1.568   0.110   0.847
  436SOL    HW2 2208   1.529   0.053   0.995
  437SOL     OW 2209   6.722   6.957   6.514
  437SOL    HW1 2210   6.696   0.004   6.448
  437SOL    HW2 2211   6.682   6.870   6.487
  438SOL     OW 2212   1.762   2.928   2.205
  438SOL    HW1 2213   1.672   2.897   2.176
  438SOL    HW2 2214   1.783   2.890   2.295
  439SOL     OW 2215   6.361   4.697   2.933
  439SOL    HW1 2216   6.371   4.597   2.926
  439SOL    HW2 2217   6.344   4.722   3.028
  440SOL     OW 2218   0.839   2.033   4.909
  440SOL    HW1 2219   0.887   1.957   4.951
  440SOL    HW2 2220   0.863   2.118   4.957
  441SOL     OW 2221   1.523   1.546   3.419
  441SOL    HW1 2222   1.622   1.542   3.426
  441SOL    HW2 2223   1.492   1.641   3.425
  442SOL     OW 2224   0.377   4.165   6.997
  442SOL    HW1 2225   0.319   4.102   6.946
  442SOL    HW2 2226   0.443   4.207   6.934
  443SOL     OW 2227   1.115   4.501   4.810
  443SOL    HW1 2228   1.198   4.462   4.770
  443SOL    HW2 2229   1.120   4.601   4.807
  444SOL     OW 2230   4.322   2.786   5.858
  444SOL    HW1 2231   4.268   2.733   5.793
  444SOL    HW2 2232   4.307   2.750   5.950
  445SOL     OW 2233   1.780   5.646   2.897
  445SOL    HW1 2234   1.789   5.733   2.946
  445SOL    HW2 2235   1.796   5.662   2.799
  446SOL     OW 2236   3.921   4.901   3.723
  446SOL    HW1 2237   3.886   4.986   3.762
  446SOL    HW2 2238   3.938   4.836   3.797
  447SOL     OW 2239   0.223   4.032   6.798
  447SOL    HW1 2240   0.155   3.976   6.751
  447SOL    HW2 2241   0.307   4.035   6.744
  448SOL     OW 2242   3.875   0.984   4.978
  448SOL    HW1 2243   3.833   0.904   4.935
  448SOL    HW2 2244   3.854   1.066   4.923
  449SOL     OW 2245   5.308   1.179   4.988
  449SOL    HW1 2246   5.235   1.230   5.033
  449SOL    HW2 2247   5.274   1.089   4.960
  450SOL     OW 2248   0.124   5.738   3.602
  450SOL    HW1 2249   0.036   5.744   3.555
  450SOL    HW2 2250   0.198   5.744   3.535
  451SOL     OW 2251   0.554   2.447   2.365
  451SOL    HW1 2252   0.499   2.383   2.311
  451SOL    HW2 2253   0.550   2.421   2.462
  452SOL     OW 2254   6.772   5.493   6.993
  452SOL    HW1 2255   6.680   5.470   7.024
  452SOL    HW2 2256   6.778   5.591   6.975
  453SOL     OW 2257   2.946   0.774   6.419
  453SOL    HW1 2258   3.008   0.755   6.343
  453SOL    HW2 2259   2.869   0.830   6.387
  454SOL     OW 2260   0.073   6.068   5.767
  454SOL    HW1 2261   0.076   6.001   5.841
  454SOL    HW2 2262   0.150   6.131   5.775
  455SOL     OW 2263   6.161   0.269   4.517
  455SOL    HW1 2264   6.137   0.366   4.522
  455SOL    HW2 2265   6.258   0.259   4.494
  456SOL     OW 2266   4.137   5.707   5.656
  456SOL    HW1 2267   4.187   5.788   5.625
  456SOL    HW2 2268   4.040   5.729   5.666
  457SOL     OW 2269   1.957   4.299   3.374
  457SOL    HW1 2270   1.917   4.294   3.283
  457SOL    HW2 2271   1.890   4.270   3.442
  458SOL     OW 2272   5.515   5.415   5.264
  458SOL    HW1 2273   5.502   5.361   5.181
  458SOL    HW2 2274   5.575   5.493   5.244
  459SOL     OW 2275   1.050   0.060   3.472
  459SOL    HW1 2276   1.048   0.159   3.457
  459SOL    HW2 2277   1.130   0.021   3.426
  460SOL     OW 2278   0.332   1.386   1.945
  460SOL    HW1 2279   0.241   1.428   1.943
  460SOL    HW2 2280   0.402   1.457   1.945
  461SOL     OW 2281   4.566   6.730   4.968
  461SOL    HW1 2282   4.567   6.692   4.875
  461SOL    HW2 2283   4.617   6.670   5.029
  462SOL     OW 2284   4.419   2.505   5.908
  462SOL    HW1 2285   4.425   2.487   6.006
  462SOL    HW2 2286   4.324   2.494   5.878
  463SOL     OW 2287   6.276   5.260   2.967
  463SOL    HW1 2288   6.271   5.180   3.028
  463SOL    HW2 2289   6.335   5.239   2.890
  464SOL     OW 2290   2.807   1.675   6.666
  464SOL    HW1 2291   2.717   1.676   6.710
  464SOL    HW2 2292   2.796   1.685   6.567
  465SOL     OW 2293   0.782   1.844   4.553
  465SOL    HW1 2294   0.815   1.937   4.571
  465SOL    HW2 2295   0.775   1.830   4.454
  466SOL     OW 2296   0.012   6.116   3.494
  466SOL    HW1 2297   7.002   6.209   3.477
  466SOL    HW2 2298   6.976   6.071   3.561
  467SOL     OW 2299   1.153   0.132   6.237
  467SOL    HW1 2300   1.169   0.065   6.310
  467SOL    HW2 2301   1.229   0.196   6.234
  468SOL     OW 2302   3.438   5.771   0.350
  468SOL    HW1 2303   3.483   5.812   0.430
  468SOL    HW2 2304   3.406   5.679   0.374
  469SOL     OW 2305   2.847   4.804   0.236
  469SOL    HW1 2306   2.933   4.798   0.185
  469SOL    HW2 2307   2.839   4.726   0.297
  470SOL     OW 2308   3.424   0.585   2.288
  470SOL    HW1 2309   3.454   0.677   2.263
  470SOL    HW2 2310   3.385   0.540   2.208
  471SOL     OW 2311   1.417   2.572   4.296
  471SOL    HW1 2312   1.382   2.663   4.318
  471SOL    HW2 2313   1.366   2.503   4.346
  472SOL     OW 2314   4.607   3.591   6.496
  472SOL    HW1 2315   4.584   3.628   6.586
  472SOL    HW2 2316   4.581   3.656   6.425
  473SOL     OW 2317   0.548   2.786   1.242
  473SOL    HW1 2318   0.512   2.799   1.149
  473SOL    HW2 2319   0.638   2.829   1.249
  474SOL     OW 2320   4.397   4.926   3.557
  474SOL    HW1 2321   4.357   4.896   3.644
  474SOL    HW2 2322   4.386   5.025   3.549
  475SOL     OW 2323   6.701   0.559   7.001
  475SOL    HW1 2324   6.627   0.512   6.954
  475SOL    HW2 2325   6.710   0.651   6.964
  476SOL     OW 2326   0.194   4.342   2.332
  476SOL    HW1 2327   0.218   4.356   2.236
  476SOL    HW2 2328   0.268   4.295   2.378
  477SOL     OW 2329   2.416   4.773   4.859
  477SOL    HW1 2330   2.429   4.805   4.953
  477SOL    HW2 2331   2.454   4.840   4.795
  478SOL     OW 2332   2.983   6.333   2.112
  478SOL    HW1 2333   3.020   6.386   2.189
  478SOL    HW2 2334   2.887   6.313   2.129
  479SOL     OW 2335   4.123   1.917   0.337
  479SOL    HW1 2336   4.194   1.873   0.392
  479SOL    HW2 2337   4.036   1.870   0.350
  480SOL     OW 2338   1.191   6.558   0.602
  480SOL    HW1 2339   1.160   6.534   0.510
  480SOL    HW2 2340   1.117   6.601   0.652
  481SOL     OW 2341   2.260   0.396   0.842
  481SOL    HW1 2342   2.350   0.376   0.882
  481SOL    HW2 2343   2.213   0.462   0.900
  482SOL     OW 2344   4.983   4.735   2.354
  482SOL    HW1 2345   4.936   4.815   2.393
  482SOL    HW2 2346   4.920   4.685   2.294
  483SOL     OW 2347   5.430   2.267   1.540
  483SOL    HW1 2348   5.508   2.206   1.555
  483SOL    HW2 2349   5.347   2.212   1.528
  484SOL     OW 2350   1.030   2.632   4.767
  484SOL    HW1 2351   1.076   2.579   4.837
  484SOL    HW2 2352   1.091   2.643   4.688
  485SOL     OW 2353   4.185   5.523   2.093
  485SOL    HW1 2354   4.110   5.458   2.083
  485SOL    HW2 2355   4.256   5.484   2.152
  486SOL     OW 2356   1.031   1.788   0.920
  486SOL    HW1 2357   0.957   1.730   0.953
  486SOL    HW2 2358   1.114   1.768   0.971
  487SOL     OW 2359   1.182   1.707   6.952
  487SOL    HW1 2360   1.216   1.614   6.968
  487SOL    HW2 2361   1.252   1.760   6.904
  488SOL     OW 2362   1.270   0.462   1.412
  488SOL    HW1 2363   1.234   0.405   1.338
  488SOL    HW2 2364   1.304   0.548   1.375
  489SOL     OW 2365   3.725   5.844   6.939
  489SOL    HW1 2366   3.803   5.788   6.967
  489SOL    HW2 2367   3.758   5.925   6.890
  490SOL     OW 2368   6.343   5.901   4.410
  490SOL    HW1 2369   6.442   5.890   4.411
  490SOL    HW2 2370   6.320   5.998   4.418
  491SOL     OW 2371   6.881   2.652   3.622
  491SOL    HW1 2372   6.872   2.555   3.644
  491SOL    HW2 2373   6.892   2.663   3.523
  492SOL     OW 2374   3.062   0.272   4.906
  492SOL    HW1 2375   3.160   0.268   4.889
  492SOL    HW2 2376   3.045   0.324   4.990
  493SOL     OW 2377   5.410   5.208   6.234
  493SOL    HW1 2378   5.378   5.287   6.182
  493SOL    HW2 2379   5.362   5.203   6.321
  494SOL     OW 2380   0.554   6.449   6.978
  494SOL    HW1 2381   0.532   6.394   0.035
  494SOL    HW2 2382   0.651   6.473   6.978
  495SOL     OW 2383   5.169   5.694   2.956
  495SOL    HW1 2384   5.190   5.708   2.859
  495SOL    HW2 2385   5.224   5.618   2.991
  496SOL     OW 2386   5.499   2.797   2.754
  496SOL    HW1 2387   5.462   2.881   2.792
  496SOL    HW2 2388   5.484   2.795   2.655
  497SOL     OW 2389   3.452   1.622   5.250
  497SOL    HW1 2390   3.419   1.708   5.289
  497SOL    HW2 2391   3.407   1.545   5.295
  498SOL     OW 2392   1.251   4.108   1.724
  498SOL    HW1 2393   1.282   4.110   1.629
  498SOL    HW2 2394   1.155   4.135   1.729
  499SOL     OW 2395   3.183   0.727   3.856
  499SOL    HW1 2396   3.260   0.756   3.913
  499SOL    HW2 2397   3.130   0.657   3.905
  500SOL     OW 2398   1.189   4.072   3.541
  500SOL    HW1 2399   1.091   4.064   3.526
  500SOL    HW2 2400   1.234   4.095   3.455
  501SOL     OW 2401   3.004   0.792   0.826
  501SOL    HW1 2402   3.013   0.890   0.843
  501SOL    HW2 2403   3.049   0.768   0.741
  502SOL     OW 2404   5.934   4.100   6.289
  502SOL    HW1 2405   5.946   4.180   6.347
  502SOL    HW2 2406   5.838   4.089   6.266
  503SOL     OW 2407   5.904   4.747   5.983
  503SOL    HW1 2408   5.955   4.729   6.066
  503SOL    HW2 2409   5.967   4.755   5.905
  504SOL     OW 2410   2.813   6.394   3.662
  504SOL    HW1 2411   2.895   6.359   3.707
  504SOL    HW2 2412   2.796   6.488   3.692
  505SOL     OW 2413   3.873   0.380   5.691
  505SOL    HW1 2414   3.835   0.358   5.601
  505SOL    HW2 2415   3.806   0.358   5.762
  506SOL     OW 2416   1.906   5.505   4.684
  506SOL    HW1 2417   1.897   5.517   4.585
  506SOL    HW2 2418   1.883   5.591   4.730
  507SOL     OW 2419   3.263   0.535   4.165
  507SOL    HW1 2420   3.201   0.606   4.201
  507SOL    HW2 2421   3.317   0.573   4.090
  508SOL     OW 2422   6.325   3.750   2.539
  508SOL    HW1 2423   6.293   3.705   2.622
  508SOL    HW2 2424   6.331   3.682   2.465
  509SOL     OW 2425   3.502   1.443   1.585
  509SOL    HW1 2426   3.410   1.436   1.625
  509SOL    HW2 2427   3.551   1.519   1.628
  510SOL     OW 2428   6.839   4.584   5.918
  510SOL    HW1 2429   6.903   4.532   5.861
  510SOL    HW2 2430   6.779   4.521   5.967
  511SOL     OW 2431   0.165   6.351   6.687
  511SOL    HW1 2432   0.142   6.416   6.615
  511SOL    HW2 2433   0.261   6.364   6.714
  512SOL     OW 2434   0.077   3.292   0.332
  512SOL    HW1 2435   7.008   3.328   0.325
  512SOL    HW2 2436   0.128   3.344   0.401
  513SOL     OW 2437   5.644   6.301   3.188
  513SOL    HW1 2438   5.738   6.281   3.162
  513SOL    HW2 2439   5.583   6.230   3.152
  514SOL     OW 2440   6.487   2.194   4.303
  514SOL    HW1 2441   6.579   2.185   4.265
  514SOL    HW2 2442   6.492   2.234   4.395
  515SOL     OW 2443   2.135   6.629   6.251
  515SOL    HW1 2444   2.180   6.718   6.244
  515SOL    HW2 2445   2.072   6.617   6.174
  516SOL     OW 2446   2.729   4.518   1.619
  516SOL    HW1 2447   2.800   4.505   1.688
  516SOL    HW2 2448   2.762   4.584   1.550
  517SOL     OW 2449   5.046   6.163   2.474
  517SOL    HW1 2450   5.124   6.150   2.412
  517SOL    HW2 2451   5.046   6.257   2.507
  518SOL     OW 2452   3.125   1.970   1.887
  518SOL    HW1 2453   3.196   2.034   1.856
  518SOL    HW2 2454   3.055   2.020   1.938
  519SOL     OW 2455   6.827   0.472   4.906
  519SOL    HW1 2456   6.909   0.527   4.892
  519SOL    HW2 2457   6.785   0.451   4.817
  520SOL     OW 2458   5.506   4.678   6.605
  520SOL    HW1 2459   5.497   4.684   6.506
  520SOL    HW2 2460   5.548   4.761   6.640
  521SOL     OW 2461   6.452   2.118   6.745
  521SOL    HW1 2462   6.399   2.192   6.702
  521SOL    HW2 2463   6.398   2.034   6.744
  522SOL     OW 2464   3.857   2.922   5.438
  522SOL    HW1 2465   3.955   2.938   5.432
  522SOL    HW2 2466   3.830   2.914   5.534
  523SOL     OW 2467   6.944   5.395   3.650
  523SOL    HW1 2468   6.920   5.457   3.576
  523SOL    HW2 2469   6.863   5.376   3.705
  524SOL     OW 2470   2.504   1.222   6.679
  524SOL    HW1 2471   2.515   1.311   6.635
  524SOL    HW2 2472   2.593   1.177   6.687
  525SOL     OW 2473   2.554   3.547   6.207
  525SOL    HW1 2474   2.556   3.454   6.168
  525SOL    HW2 2475   2.461   3.584   6.197
  526SOL     OW 2476   2.693   6.531   5.059
  526SOL    HW1 2477   2.625   6.467   5.024
  526SOL    HW2 2478   2.684   6.537   5.159
  527SOL     OW 2479   6.096   2.914   6.061
  527SOL    HW1 2480   6.165   2.982   6.085
  527SOL    HW2 2481   6.050   2.941   5.976
  528SOL     OW 2482   1.509   1.129   4.181
  528SOL    HW1 2483   1.550   1.106   4.269
  528SOL    HW2 2484   1.535   1.222   4.156
  529SOL     OW 2485   0.765   5.208   4.763
  529SOL    HW1 2486   0.772   5.170   4.671
  529SOL    HW2 2487   0.833   5.281   4.774
  530SOL     OW 2488   2.676   2.937   5.388
  530SOL    HW1 2489   2.642   2.845   5.409
  530SOL    HW2 2490   2.628   2.973   5.309
  531SOL     OW 2491   0.470   1.046   1.693
  531SOL    HW1 2492   0.407   1.123   1.677
  531SOL    HW2 2493   0.417   0.962   1.707
  532SOL     OW 2494   1.111   2.615   5.819
  532SOL    HW1 2495   1.177   2.542   5.800
  532SOL    HW2 2496   1.097   2.621   5.918
  533SOL     OW 2497   5.035   5.930   4.313
  533SOL    HW1 2498   4.960   5.995   4.312
  533SOL    HW2 2499   5.060   5.908   4.408
  534SOL     OW 2500   5.062   5.278   3.405
  534SOL    HW1 2501   5.132   5.223   3.452
  534SOL    HW2 2502   4.991   5.217   3.368
  535SOL     OW 2503   0.918   4.480   4.405
  535SOL    HW1 2504   0.943   4.386   4.425
  535SOL    HW2 2505   0.996   4.540   4.424
  536SOL     OW 2506   0.174   5.214   1.814
  536SOL    HW1 2507   0.201   5.210   1.910
  536SOL    HW2 2508   0.251   5.247   1.759
  537SOL     OW 2509   2.308   6.436   3.702
  537SOL    HW1 2510   2.400   6.397   3.704
  537SOL    HW2 2511   2.299   6.498   3.624
  538SOL     OW 2512   1.568   5.722   3.544
  538SOL    HW1 2513   1.545   5.797   3.607
  538SOL    HW2 2514   1.644   5.750   3.486
  539SOL     OW 2515   0.131   5.696   0.466
  539SOL    HW1 2516   0.118   5.673   0.369
  539SOL    HW2 2517   0.082   5.630   0.522
  540SOL     OW 2518   0.334   2.004   2.355
  540SOL    HW1 2519   0.250   1.979   2.404
  540SOL    HW2 2520   0.409   2.013   2.420
  541SOL     OW 2521   3.222   6.688   4.546
  541SOL    HW1 2522   3.253   6.704   4.452
  541SOL    HW2 2523   3.265   6.605   4.582
  542SOL     OW 2524   6.691   6.808   6.874
  542SOL    HW1 2525   6.678   6.754   6.957
  542SOL    HW2 2526   6.674   6.905   6.894
  543SOL     OW 2527   0.456   5.136   5.886
  543SOL    HW1 2528   0.510   5.164   5.806
  543SOL    HW2 2529   0.399   5.058   5.862
  544SOL     OW 2530   1.073   4.370   1.102
  544SOL    HW1 2531   1.141   4.443   1.100
  544SOL    HW2 2532   0.986   4.404   1.067
  545SOL     OW 2533   3.470   1.673   3.509
  545SOL    HW1 2534   3.390   1.687   3.452
  545SOL    HW2 2535   3.538   1.744   3.490
  546SOL     OW 2536   1.768   3.352   1.867
  546SOL    HW1 2537   1.749   3.263   1.824
  546SOL    HW2 2538   1.786   3.339   1.964
  547SOL     OW 2539   2.458   1.456   6.976
  547SOL    HW1 2540   2.544   1.441   0.002
  547SOL    HW2 2541   2.401   1.375   6.983
  548SOL     OW 2542   3.481   2.860   2.607
  548SOL    HW1 2543   3.471   2.789   2.537
  548SOL    HW2 2544   3.476   2.950   2.564
  549SOL     OW 2545   4.223   3.394   1.693
  549SOL    HW1 2546   4.302   3.455   1.701
  549SOL    HW2 2547   4.173   3.416   1.609
  550SOL     OW 2548   6.880   3.355   2.796
  550SOL    HW1 2549   6.822   3.274   2.787
  550SOL    HW2 2550   6.949   3.354   2.724
  551SOL     OW 2551   6.871   2.015   1.055
  551SOL    HW1 2552   6.850   2.032   0.959
  551SOL    HW2 2553   6.855   1.918   1.076
  552SOL     OW 2554   3.879   5.792   0.222
  552SOL    HW1 2555   3.842   5.714   0.172
  552SOL    HW2 2556   3.948   5.761   0.288
  553SOL     OW 2557   1.712   7.017   2.861
  553SOL    HW1 2558   1.758   6.996   2.775
  553SOL    HW2 2559   1.616   6.988   2.857
  554SOL     OW 2560   5.150   6.842   6.457
  554SOL    HW1 2561   5.222   6.809   6.395
  554SOL    HW2 2562   5.115   6.766   6.511
  555SOL     OW 2563   2.310   5.328   3.965
  555SOL    HW1 2564   2.386   5.265   3.983
  555SOL    HW2 2565   2.230   5.276   3.938
  556SOL     OW 2566   5.972   2.138   4.253
  556SOL    HW1 2567   6.046   2.107   4.313
  556SOL    HW2 2568   5.970   2.238   4.253
  557SOL     OW 2569   0.031   6.099   6.679
  557SOL    HW1 2570   0.040   6.025   6.746
  557SOL    HW2 2571   0.109   6.161   6.688
  558SOL     OW 2572   4.106   3.683   5.167
  558SOL    HW1 2573   4.095   3.609   5.101
  558SOL    HW2 2574   4.078   3.769   5.125
  559SOL     OW 2575   6.854   6.369   6.741
  559SOL    HW1 2576   6.765   6.350   6.699
  559SOL    HW2 2577   6.920   6.299   6.713
  560SOL     OW 2578   3.772   6.607   0.742
  560SOL    HW1 2579   3.749   6.693   0.788
  560SOL    HW2 2580   3.689   6.554   0.726
  561SOL     OW 2581   5.829   6.926   6.989
  561SOL    HW1 2582   5.765   6.969   6.926
  561SOL    HW2 2583   5.877   6.851   6.943
  562SOL     OW 2584   4.610   0.985   6.264
  562SOL    HW1 2585   4.604   1.060   6.198
  562SOL    HW2 2586   4.583   0.900   6.219
  563SOL     OW 2587   2.689   6.572   3.459
  563SOL    HW1 2588   2.661   6.532   3.372
  563SOL    HW2 2589   2.744   6.506   3.510
  564SOL     OW 2590   2.397   2.400   5.916
  564SOL    HW1 2591   2.408   2.449   6.003
  564SOL    HW2 2592   2.303   2.366   5.909
  565SOL     OW 2593   4.466   3.056   5.831
  565SOL    HW1 2594   4.399   2.982   5.828
  565SOL    HW2 2595   4.514   3.054   5.919
  566SOL     OW 2596   4.501   4.616   3.300
  566SOL    HW1 2597   4.545   4.705   3.315
  566SOL    HW2 2598   4.407   4.619   3.334
  567SOL     OW 2599   3.454   3.368   3.880
  567SOL    HW1 2600   3.390   3.442   3.901
  567SOL    HW2 2601   3.530   3.405   3.826
  568SOL     OW 2602   3.668   2.288   0.418
  568SOL    HW1 2603   3.755   2.290   0.369
  568SOL    HW2 2604   3.667   2.211   0.482
  569SOL     OW 2605   1.201   3.035   0.404
  569SOL    HW1 2606   1.265   3.044   0.481
  569SOL    HW2 2607   1.250   3.050   0.318
  570SOL     OW 2608   1.170   6.449   0.336
  570SOL    HW1 2609   1.245   6.499   0.293
  570SOL    HW2 2610   1.176   6.352   0.310
  571SOL     OW 2611   3.346   5.758   2.480
  571SOL    HW1 2612   3.336   5.695   2.556
  571SOL    HW2 2613   3.265   5.752   2.421
  572SOL     OW 2614   2.072   4.572   5.928
  572SOL    HW1 2615   2.153   4.514   5.935
  572SOL    HW2 2616   2.046   4.604   6.018
  573SOL     OW 2617   3.617   1.494   5.849
  573SOL    HW1 2618   3.714   1.519   5.845
  573SOL    HW2 2619   3.562   1.575   5.870
  574SOL     OW 2620   2.193   2.141   4.313
  574SOL    HW1 2621   2.177   2.118   4.409
  574SOL    HW2 2622   2.234   2.062   4.267
  575SOL     OW 2623   6.132   3.484   0.612
  575SOL    HW1 2624   6.046   3.494   0.562
  575SOL    HW2 2625   6.174   3.397   0.590
  576SOL     OW 2626   1.325   2.291   1.833
  576SOL    HW1 2627   1.265   2.298   1.753
  576SOL    HW2 2628   1.340   2.382   1.872
  577SOL     OW 2629   2.371   1.873   3.992
  577SOL    HW1 2630   2.272   1.877   3.977
  577SOL    HW2 2631   2.411   1.805   3.931
  578SOL     OW 2632   0.328   3.127   3.511
  578SOL    HW1 2633   0.348   3.032   3.489
  578SOL    HW2 2634   0.407   3.184   3.488
  579SOL     OW 2635   4.216   2.350   1.297
  579SOL    HW1 2636   4.267   2.286   1.355
  579SOL    HW2 2637   4.238   2.444   1.325
  580SOL     OW 2638   0.931   4.822   6.233
  580SOL    HW1 2639   0.942   4.902   6.292
  580SOL    HW2 2640   0.935   4.739   6.289
  581SOL     OW 2641   3.601   3.167   3.367
  581SOL    HW1 2642   3.569   3.134   3.456
  581SOL    HW2 2643   3.523   3.182   3.306
  582SOL     OW 2644   5.744   4.062   2.298
  582SOL    HW1 2645   5.726   4.057   2.396
  582SOL    HW2 2646   5.813   4.133   2.280
  583SOL     OW 2647   2.695   4.625   6.878
  583SOL    HW1 2648   2.707   4.529   6.905
  583SOL    HW2 2649   2.784   4.671   6.875
  584SOL     OW 2650   0.179   4.574   5.398
  584SOL    HW1 2651   0.181   4.639   5.474
  584SOL    HW2 2652   0.257   4.591   5.337
  585SOL     OW 2653   0.558   2.498   6.139
  585SOL    HW1 2654   0.586   2.403   6.126
  585SOL    HW2 2655   0.523   2.535   6.053
  586SOL     OW 2656   2.527   6.959   0.437
  586SOL    HW1 2657   2.610   6.985   0.387
  586SOL    HW2 2658   2.508   0.004   0.507
  587SOL     OW 2659   1.379   2.501   5.362
  587SOL    HW1 2660   1.427   2.452   5.290
  587SOL    HW2 2661   1.388   2.451   5.448
  588SOL     OW 2662   3.763   0.077   1.724
  588SOL    HW1 2663   3.681   0.120   1.687
  588SOL    HW2 2664   3.759   0.078   1.824
  589SOL     OW 2665   3.801   5.078   1.852
  589SOL    HW1 2666   3.766   5.146   1.787
  589SOL    HW2 2667   3.790   5.112   1.945
  590SOL     OW 2668   6.950   2.820   2.293
  590SOL    HW1 2669   6.959   2.915   2.263
  590SOL    HW2 2670   6.995   2.808   2.381
  591SOL     OW 2671   4.225   7.009   3.923
  591SOL    HW1 2672   4.307   0.040   3.910
  591SOL    HW2 2673   4.233   6.956   4.008
  592SOL     OW 2674   4.973   0.998   0.471
  592SOL    HW1 2675   5.046   1.000   0.539
  592SOL    HW2 2676   4.929   1.088   0.466
  593SOL     OW 2677   4.376   2.470   4.242
  593SOL    HW1 2678   4.291   2.506   4.203
  593SOL    HW2 2679   4.451   2.486   4.179
  594SOL     OW 2680   4.041   3.679   6.928
  594SOL    HW1 2681   3.975   3.648   6.996
  594SOL    HW2 2682   4.049   3.779   6.932
  595SOL     OW 2683   4.017   6.953   4.437
  595SOL    HW1 2684   3.947   6.967   4.507
  595SOL    HW2 2685   3.986   6.883   4.372
  596SOL     OW 2686   0.787   4.190   2.511
  596SOL    HW1 2687   0.773   4.135   2.429
  596SOL    HW2 2688   0.702   4.195   2.563
  597SOL     OW 2689   3.638   0.140   0.139
  597SOL    HW1 2690   3.720   0.106   0.094
  597SOL    HW2 2691   3.663   0.208   0.209
  598SOL     OW 2692   4.141   4.603   0.170
  598SOL    HW1 2693   4.110   4.660   0.246
  598SOL    HW2 2694   4.095   4.514   0.175
  599SOL     OW 2695   6.996   0.241   2.967
  599SOL    HW1 2696   6.943   0.326   2.966
  599SOL    HW2 2697   6.947   0.172   3.020
  600SOL     OW 2698   1.055   6.626   0.804
  600SOL    HW1 2699   1.064   6.537   0.848
  600SOL    HW2 2700   0.959   6.642   0.780
  601SOL     OW 2701   2.750   5.865   3.252
  601SOL    HW1 2702   2.804   5.783   3.233
  601SOL    HW2 2703   2.786   5.910   3.334
  602SOL     OW 2704   1.342   6.902   0.786
  602SOL    HW1 2705   1.304   6.823   0.834
  602SOL    HW2 2706   1.383   6.965   0.852
  603SOL     OW 2707   3.984   1.855   3.614
  603SOL    HW1 2708   3.894   1.855   3.657
  603SOL    HW2 2709   4.022   1.763   3.618
  604SOL     OW 2710   1.301   3.403   6.871
  604SOL    HW1 2711   1.202   3.405   6.855
  604SOL    HW2 2712   1.344   3.342   6.805
  605SOL     OW 2713   6.921   5.790   3.471
  605SOL    HW1 2714   6.853   5.862   3.483
  605SOL    HW2 2715   6.981   5.813   3.394
  606SOL     OW 2716   4.285   0.387   4.958
  606SOL    HW1 2717   4.334   0.307   4.923
  606SOL    HW2 2718   4.293   0.390   5.058
  607SOL     OW 2719   5.051   1.310   4.148
  607SOL    HW1 2720   5.036   1.407   4.133
  607SOL    HW2 2721   5.089   1.295   4.239
  608SOL     OW 2722   2.996   0.535   0.470
  608SOL    HW1 2723   2.993   0.532   0.370
  608SOL    HW2 2724   3.018   0.445   0.506
  609SOL     OW 2725   3.618   2.954   4.146
  609SOL    HW1 2726   3.599   3.050   4.168
  609SOL    HW2 2727   3.680   2.916   4.214
  610SOL     OW 2728   5.004   2.319   3.861
  610SOL    HW1 2729   5.098   2.344   3.887
  610SOL    HW2 2730   4.995   2.220   3.859
  611SOL     OW 2731   0.440   0.587   0.053
  611SOL    HW1 2732   0.498   0.668   0.058
  611SOL    HW2 2733   0.371   0.599   7.006
  612SOL     OW 2734   3.715   5.220   6.041
  612SOL    HW1 2735   3.631   5.174   6.012
  612SOL    HW2 2736   3.735   5.296   5.979
  613SOL     OW 2737   4.317   1.279   5.687
  613SOL    HW1 2738   4.415   1.267   5.705
  613SOL    HW2 2739   4.289   1.371   5.713
  614SOL     OW 2740   6.307   4.822   0.769
  614SOL    HW1 2741   6.217   4.857   0.797
  614SOL    HW2 2742   6.352   4.779   0.847
  615SOL     OW 2743   0.357   6.948   0.294
  615SOL    HW1 2744   0.319   0.007   0.252
  615SOL    HW2 2745   0.303   6.925   0.375
  616SOL     OW 2746   5.739   1.795   4.864
  616SOL    HW1 2747   5.716   1.790   4.766
  616SOL    HW2 2748   5.687   1.869   4.906
  617SOL     OW 2749   0.558   4.755   5.826
  617SOL    HW1 2750   0.519   4.816   5.895
  617SOL    HW2 2751   0.564   4.802   5.738
  618SOL     OW 2752   6.077   3.280   1.211
  618SOL    HW1 2753   6.099   3.375   1.187
  618SOL    HW2 2754   6.075   3.270   1.310
  619SOL     OW 2755   3.285   0.418   0.433
  619SOL    HW1 2756   3.373   0.449   0.397
  619SOL    HW2 2757   3.223   0.495   0.441
  620SOL     OW 2758   5.392   3.517   2.019
  620SOL    HW1 2759   5.318   3.480   1.963
  620SOL    HW2 2760   5.463   3.554   1.960
  621SOL     OW 2761   2.540   0.119   6.093
  621SOL    HW1 2762   2.505   0.211   6.075
  621SOL    HW2 2763   2.557   0.108   6.191
  622SOL     OW 2764   1.052   2.137   5.345
  622SOL    HW1 2765   1.034   2.155   5.442
  622SOL    HW2 2766   1.151   2.123   5.333
  623SOL     OW 2767   6.248   6.875   4.337
  623SOL    HW1 2768   6.233   6.868   4.436
  623SOL    HW2 2769   6.275   6.968   4.315
  624SOL     OW 2770   6.299   1.460   6.511
  624SOL    HW1 2771   6.274   1.384   6.451
  624SOL    HW2 2772   6.240   1.460   6.592
  625SOL     OW 2773   2.421   1.361   0.324
  625SOL    HW1 2774   2.429   1.261   0.327
  625SOL    HW2 2775   2.415   1.397   0.417
  626SOL     OW 2776   1.497   5.702   3.925
  626SOL    HW1 2777   1.516   5.784   3.871
  626SOL    HW2 2778   1.401   5.676   3.915
  627SOL     OW 2779   6.313   0.042   6.849
  627SOL    HW1 2780   6.395   0.040   6.792
  627SOL    HW2 2781   6.253   0.116   6.819
  628SOL     OW 2782   5.287   4.526   5.568
  628SOL    HW1 2783   5.334   4.600   5.616
  628SOL    HW2 2784   5.354   4.461   5.533
  629SOL     OW 2785   0.102   0.794   0.120
  629SOL    HW1 2786   0.130   0.702   0.149
  629SOL    HW2 2787   0.172   0.833   0.060
  630SOL     OW 2788   0.084   1.307   1.404
  630SOL    HW1 2789   0.182   1.326   1.407
  630SOL    HW2 2790   0.067   1.228   1.345
  631SOL     OW 2791   2.467   2.596   4.749
  631SOL    HW1 2792   2.499   2.639   4.665
  631SOL    HW2 2793   2.541   2.541   4.788
  632SOL     OW 2794   4.660   3.230   0.626
  632SOL    HW1 2795   4.597   3.154   0.641
  632SOL    HW2 2796   4.716   3.212   0.545
  633SOL     OW 2797   1.619   5.332   1.383
  633SOL    HW1 2798   1.575   5.377   1.461
  633SOL    HW2 2799   1.561   5.342   1.302
  634SOL     OW 2800   3.025   3.245   3.895
  634SOL    HW1 2801   2.985   3.273   3.808
  634SOL    HW2 2802   3.074   3.159   3.884
  635SOL     OW 2803   5.359   1.059   6.531
  635SOL    HW1 2804   5.298   1.028   6.458
  635SOL    HW2 2805   5.348   1.158   6.543
  636SOL     OW 2806   2.857   0.211   6.350
  636SOL    HW1 2807   2.952   0.236   6.329
  636SOL    HW2 2808   2.797   0.289   6.332
  637SOL     OW 2809   6.535   1.206   1.633
  637SOL    HW1 2810   6.489   1.121   1.662
  637SOL    HW2 2811   6.529   1.215   1.534
  638SOL     OW 2812   6.075   3.354   3.889
  638SOL    HW1 2813   5.996   3.308   3.850
  638SOL    HW2 2814   6.120   3.294   3.955
  639SOL     OW 2815   5.386   4.825   3.216
  639SOL    HW1 2816   5.473   4.822   3.265
  639SOL    HW2 2817   5.317   4.774   3.267
  640SOL     OW 2818   0.026   2.796   2.559
  640SOL    HW1 2819   7.010   2.740   2.632
  640SOL    HW2 2820   0.125   2.787   2.560
  641SOL     OW 2821   1.911   4.754   5.280
  641SOL    HW1 2822   1.874   4.831   5.228
  641SOL    HW2 2823   1.923   4.675   5.220
  642SOL     OW 2824   1.076   3.754   4.493
  642SOL    HW1 2825   0.976   3.756   4.493
  642SOL    HW2 2826   1.108   3.711   4.578
  643SOL     OW 2827   4.693   5.990   6.410
  643SOL    HW1 2828   4.712   5.929   6.487
  643SOL    HW2 2829   4.626   5.947   6.350
  644SOL     OW 2830   0.157   0.001   4.903
  644SOL    HW1 2831   0.248   6.987   4.920
  644SOL    HW2 2832   0.096   7.000   4.978
  645SOL     OW 2833   3.721   4.948   3.038
  645SOL    HW1 2834   3.742   4.895   2.955
  645SOL    HW2 2835   3.623   4.962   3.044
  646SOL     OW 2836   3.713   1.091   5.268
  646SOL    HW1 2837   3.724   1.154   5.345
  646SOL    HW2 2838   3.796   1.094   5.211
  647SOL     OW 2839   4.955   2.218   4.647
  647SOL    HW1 2840   5.036   2.204   4.704
  647SOL    HW2 2841   4.873   2.206   4.703
  648SOL     OW 2842   6.065   1.610   2.594
  648SOL    HW1 2843   6.051   1.664   2.677
  648SOL    HW2 2844   6.116   1.664   2.527
  649SOL     OW 2845   2.303   5.138   0.436
  649SOL    HW1 2846   2.313   5.197   0.356
  649SOL    HW2 2847   2.393   5.116   0.473
  650SOL     OW 2848   6.677   5.605   0.577
  650SOL    HW1 2849   6.636   5.571   0.492
  650SOL    HW2 2850   6.628   5.568   0.655
  651SOL     OW 2851   1.335   0.237   5.498
  651SOL    HW1 2852   1.347   0.303   5.424
  651SOL    HW2 2853   1.288   0.281   5.575
  652SOL     OW 2854   4.191   0.608   2.190
  652SOL    HW1 2855   4.131   0.674   2.234
  652SOL    HW2 2856   4.287   0.631   2.211
  653SOL     OW 2857   0.039   6.732   0.858
  653SOL    HW1 2858   7.015   6.671   0.794
  653SOL    HW2 2859   7.000   6.802   0.891
  654SOL     OW 2860   6.609   6.540   6.063
  654SOL    HW1 2861   6.571   6.603   5.994
  654SOL    HW2 2862   6.677   6.481   6.020
  655SOL     OW 2863   0.279   5.148   2.120
  655SOL    HW1 2864   0.212   5.079   2.145
  655SOL    HW2 2865   0.371   5.110   2.128
  656SOL     OW 2866   3.294   6.686   0.503
  656SOL    HW1 2867   3.329   6.633   0.427
  656SOL    HW2 2868   3.232   6.630   0.558
  657SOL     OW 2869   3.263   3.053   1.732
  657SOL    HW1 2870   3.279   2.996   1.652
  657SOL    HW2 2871   3.277   3.149   1.708
  658SOL     OW 2872   2.417   4.395   4.182
  658SOL    HW1 2873   2.366   4.313   4.156
  658SOL    HW2 2874   2.427   4.398   4.282
  659SOL     OW 2875   3.691   6.384   6.093
  659SOL    HW1 2876   3.678   6.344   6.184
  659SOL    HW2 2877   3.788   6.404   6.080
  660SOL     OW 2878   4.974   4.520   2.587
  660SOL    HW1 2879   5.043   4.524   2.659
  660SOL    HW2 2880   5.015   4.484   2.503
  661SOL     OW 2881   5.003   4.523   4.355
  661SOL    HW1 2882   5.096   4.559   4.364
  661SOL    HW2 2883   4.947   4.589   4.305
  662SOL     OW 2884   5.129   2.880   0.222
  662SOL    HW1 2885   5.127   2.931   0.136
  662SOL    HW2 2886   5.088   2.935   0.295
  663SOL     OW 2887   6.918   4.217   0.133
  663SOL    HW1 2888   6.973   4.146   0.089
  663SOL    HW2 2889   6.931   4.304   0.085
  664SOL     OW 2890   1.554   6.255   6.197
  664SOL    HW1 2891   1.488   6.267   6.123
  664SOL    HW2 2892   1.527   6.312   6.275
  665SOL     OW 2893   4.018   5.231   1.314
  665SOL    HW1 2894   4.027   5.250   1.216
  665SOL    HW2 2895   3.932   5.183   1.331
  666SOL     OW 2896   3.995   1.441   0.077
  666SOL    HW1 2897   3.963   1.358   0.124
  666SOL    HW2 2898   4.095   1.446   0.085
  667SOL     OW 2899   0.533   2.842   3.730
  667SOL    HW1 2900   0.581   2.884   3.807
  667SOL    HW2 2901   0.444   2.886   3.719
  668SOL     OW 2902   4.643   6.867   0.178
  668SOL    HW1 2903   4.663   6.777   0.215
  668SOL    HW2 2904   4.727   6.911   0.146
  669SOL     OW 2905   0.585   6.453   3.597
  669SOL    HW1 2906   0.558   6.481   3.689
  669SOL    HW2 2907   0.521   6.492   3.530
  670SOL     OW 2908   3.296   3.594   3.092
  670SOL    HW1 2909   3.324   3.655   3.166
  670SOL    HW2 2910   3.207   3.622   3.057
  671SOL     OW 2911   1.805   6.531   6.166
  671SOL    HW1 2912   1.778   6.600   6.099
  671SOL    HW2 2913   1.825   6.575   6.254
  672SOL     OW 2914   1.411   3.244   4.511
  672SOL    HW1 2915   1.461   3.247   4.425
  672SOL    HW2 2916   1.340   3.175   4.506
  673SOL     OW 2917   5.048   0.310   6.970
  673SOL    HW1 2918   5.014   0.320   6.876
  673SOL    HW2 2919   4.972   0.320   0.010
  674SOL     OW 2920   0.705   2.461   3.448
  674SOL    HW1 2921   0.781   2.437   3.508
  674SOL    HW2 2922   0.632   2.393   3.458
  675SOL     OW 2923   0.737   2.708   4.935
  675SOL    HW1 2924   0.799   2.652   4.880
  675SOL    HW2 2925   0.723   2.665   5.024
  676SOL     OW 2926   2.562   4.877   4.630
  676SOL    HW1 2927   2.631   4.858   4.699
  676SOL    HW2 2928   2.578   4.817   4.551
  677SOL     OW 2929   6.501   0.511   0.834
  677SOL    HW1 2930   6.542   0.441   0.892
  677SOL    HW2 2931   6.539   0.600   0.857
  678SOL     OW 2932   2.655   0.732   5.702
  678SOL    HW1 2933   2.666   0.787   5.784
  678SOL    HW2 2934   2.697   0.642   5.716
  679SOL     OW 2935   3.667   0.976   3.162
  679SOL    HW1 2936   3.704   0.883   3.169
  679SOL    HW2 2937   3.664   1.018   3.252
  680SOL     OW 2938   5.118   4.099   5.764
  680SOL    HW1 2939   5.028   4.124   5.799
  680SOL    HW2 2940   5.108   4.050   5.678
  681SOL     OW 2941   0.188   6.566   1.036
  681SOL    HW1 2942   0.179   6.477   0.992
  681SOL    HW2 2943   0.127   6.632   0.991
  682SOL     OW 2944   1.761   6.545   0.076
  682SOL    HW1 2945   1.833   6.481   0.103
  682SOL    HW2 2946   1.800   6.636   0.062
  683SOL     OW 2947   3.672   1.329   6.280
  683SOL    HW1 2948   3.614   1.311   6.201
  683SOL    HW2 2949   3.618   1.325   6.364
  684SOL     OW 2950   0.452   6.657   5.986
  684SOL    HW1 2951   0.506   6.736   6.015
  684SOL    HW2 2952   0.512   6.588   5.947
  685SOL     OW 2953   4.899   0.196   6.429
  685SOL    HW1 2954   4.957   0.143   6.367
  685SOL    HW2 2955   4.809   0.153   6.435
  686SOL     OW 2956   5.280   2.917   3.508
  686SOL    HW1 2957   5.292   2.906   3.410
  686SOL    HW2 2958   5.288   2.828   3.553
  687SOL     OW 2959   6.633   3.050   6.338
  687SOL    HW1 2960   6.628   3.126   6.274
  687SOL    HW2 2961   6.541   3.032   6.375
  688SOL     OW 2962   1.768   3.739   6.727
  688SOL    HW1 2963   1.729   3.828   6.707
  688SOL    HW2 2964   1.704   3.667   6.702
  689SOL     OW 2965   0.155   3.911   6.534
  689SOL    HW1 2966   0.241   3.865   6.557
  689SOL    HW2 2967   0.110   3.862   6.460
  690SOL     OW 2968   1.579   1.954   3.658
  690SOL    HW1 2969   1.628   2.038   3.682
  690SOL    HW2 2970   1.560   1.902   3.741
  691SOL     OW 2971   1.071   2.450   6.308
  691SOL    HW1 2972   1.119   2.409   6.386
  691SOL    HW2 2973   1.135   2.460   6.232
  692SOL     OW 2974   2.437   6.918   2.899
  692SOL    HW1 2975   2.337   6.911   2.905
  692SOL    HW2 2976   2.471   6.851   2.833
  693SOL     OW 2977   6.588   2.479   2.431
  693SOL    HW1 2978   6.682   2.509   2.413
  693SOL    HW2 2979   6.533   2.557   2.458
  694SOL     OW 2980   3.041   5.465   1.156
  694SOL    HW1 2981   3.068   5.476   1.251
  694SOL    HW2 2982   2.971   5.533   1.133
  695SOL     OW 2983   5.134   5.602   5.052
  695SOL    HW1 2984   5.171   5.670   5.117
  695SOL    HW2 2985   5.171   5.512   5.075
  696SOL     OW 2986   3.598   5.087   2.385
  696SOL    HW1 2987   3.653   5.113   2.306
  696SOL    HW2 2988   3.522   5.029   2.356
  697SOL     OW 2989   0.729   3.094   4.760
  697SOL    HW1 2990   0.697   3.060   4.848
  697SOL    HW2 2991   0.691   3.186   4.744
  698SOL     OW 2992   4.308   0.810   3.404
  698SOL    HW1 2993   4.350   0.771   3.322
  698SOL    HW2 2994   4.226   0.862   3.378
  699SOL     OW 2995   1.572   4.363   0.959
  699SOL    HW1 2996   1.656   4.346   0.907
  699SOL    HW2 2997   1.493   4.348   0.900
  700SOL     OW 2998   2.489   2.549   4.410
  700SOL    HW1 2999   2.422   2.621   4.429
  700SOL    HW2 3000   2.483   2.523   4.314
  701SOL     OW 3001   0.399   4.623   6.922
  701SOL    HW1 3002   0.389   4.539   6.867
  701SOL    HW2 3003   0.483   4.617   6.976
  702SOL     OW 3004   5.013   6.736   5.095
  702SOL    HW1 3005   5.109   6.721   5.074
  702SOL    HW2 3006   4.981   6.665   5.158
  703SOL     OW 3007   4.040   3.404   6.333
  703SOL    HW1 3008   3.972   3.453   6.387
  703SOL    HW2 3009   4.011   3.403   6.237
  704SOL     OW 3010   1.613   0.674   6.664
  704SOL    HW1 3011   1.625   0.719   6.752
  704SOL    HW2 3012   1.699   0.632   6.635
  705SOL     OW 3013   5.281   1.067   3.495
  705SOL    HW1 3014   5.368   1.108   3.523
  705SOL    HW2 3015   5.275   1.067   3.395
  706SOL     OW 3016   3.647   2.064   3.944
  706SOL    HW1 3017   3.665   2.001   3.869
  706SOL    HW2 3018   3.727   2.121   3.961
  707SOL     OW 3019   4.921   0.936   1.140
  707SOL    HW1 3020   4.954   0.852   1.184
  707SOL    HW2 3021   4.821   0.932   1.132
  708SOL     OW 3022   4.539   0.288   1.139
  708SOL    HW1 3023   4.471   0.244   1.197
  708SOL    HW2 3024   4.615   0.320   1.195
  709SOL     OW 3025   0.846   4.830   0.713
  709SOL    HW1 3026   0.843   4.886   0.630
  709SOL    HW2 3027   0.899   4.878   0.783
  710SOL     OW 3028   3.242   4.115   2.603
  710SOL    HW1 3029   3.181   4.039   2.581
  710SOL    HW2 3030   3.268   4.110   2.700
  711SOL     OW 3031   6.707   2.028   5.004
  711SOL    HW1 3032   6.786   1.975   4.975
  711SOL    HW2 3033   6.712   2.045   5.103
  712SOL     OW 3034   1.270   3.774   1.391
  712SOL    HW1 3035   1.321   3.825   1.321
  712SOL    HW2 3036   1.175   3.765   1.362
  713SOL     OW 3037   3.569   3.526   2.266
  713SOL    HW1 3038   3.597   3.507   2.172
  713SOL    HW2 3039   3.552   3.440   2.313
  714SOL     OW 3040   5.855   4.533   5.093
  714SOL    HW1 3041   5.800   4.516   5.011
  714SOL    HW2 3042   5.918   4.456   5.107
  715SOL     OW 3043   4.031   5.734   6.276
  715SOL    HW1 3044   4.038   5.696   6.184
  715SOL    HW2 3045   4.122   5.740   6.317
  716SOL     OW 3046   0.399   5.461   1.450
  716SOL    HW1 3047   0.454   5.431   1.372
  716SOL    HW2 3048   0.337   5.533   1.421
  717SOL     OW 3049   6.142   4.014   6.857
  717SOL    HW1 3050   6.197   4.080   6.806
  717SOL    HW2 3051   6.145   4.036   6.955
  718SOL     OW 3052   3.663   2.993   5.664
  718SOL    HW1 3053   3.605   3.035   5.595
  718SOL    HW2 3054   3.666   3.050   5.746
  719SOL     OW 3055   6.798   2.692   1.371
  719SOL    HW1 3056   6.716   2.727   1.416
  719SOL    HW2 3057   6.874   2.756   1.385
  720SOL     OW 3058   2.600   2.322   5.528
  720SOL    HW1 3059   2.604   2.244   5.590
  720SOL    HW2 3060   2.504   2.339   5.503
  721SOL     OW 3061   1.759   0.352   5.367
  721SOL    HW1 3062   1.660   0.362   5.355
  721SOL    HW2 3063   1.805   0.383   5.284
  722SOL     OW 3064   4.172   6.601   5.073
  722SOL    HW1 3065   4.169   6.692   5.116
  722SOL    HW2 3066   4.227   6.606   4.990
  723SOL     OW 3067   2.030   2.793   2.381
  723SOL    HW1 3068   2.095   2.766   2.452
  723SOL    HW2 3069   1.953   2.729   2.381
  724SOL     OW 3070   0.845   1.597   5.196
  724SOL    HW1 3071   0.887   1.645   5.119
  724SOL    HW2 3072   0.823   1.663   5.268
  725SOL     OW 3073   2.893   5.279   2.196
  725SOL    HW1 3074   2.982   5.314   2.165
  725SOL    HW2 3075   2.863   5.207   2.134
  726SOL     OW 3076   3.212   5.460   6.653
  726SOL    HW1 3077   3.241   5.444   6.558
  726SOL    HW2 3078   3.132   5.520   6.653
  727SOL     OW 3079   3.568   5.623   4.382
  727SOL    HW1 3080   3.511   5.685   4.436
  727SOL    HW2 3081   3.582   5.662   4.291
  728SOL     OW 3082   0.211   3.915   5.479
  728SOL    HW1 3083   0.197   3.824   5.519
  728SOL    HW2 3084   0.129   3.942   5.428
  729SOL     OW 3085   2.045   1.198   0.410
  729SOL    HW1 3086   2.088   1.114   0.445
  729SOL    HW2 3087   2.090   1.226   0.325
  730SOL     OW 3088   6.123   0.193   3.926
  730SOL    HW1 3089   6.084   0.140   4.001
  730SOL    HW2 3090   6.177   0.133   3.868
  731SOL     OW 3091   5.123   3.082   4.834
  731SOL    HW1 3092   5.108   2.990   4.797
  731SOL    HW2 3093   5.175   3.074   4.920
  732SOL     OW 3094   0.955   2.395   1.077
  732SOL    HW1 3095   1.048   2.431   1.083
  732SOL    HW2 3096   0.890   2.471   1.081
  733SOL     OW 3097   5.202   4.523   3.676
  733SOL    HW1 3098   5.225   4.440   3.625
  733SOL    HW2 3099   5.114   4.510   3.722
  734SOL     OW 3100   0.124   4.173   1.679
  734SOL    HW1 3101   0.085   4.265   1.689
  734SOL    HW2 3102   0.183   4.171   1.598
  735SOL     OW 3103   1.414   3.357   0.320
  735SOL    HW1 3104   1.473   3.280   0.345
  735SOL    HW2 3105   1.434   3.385   0.226
  736SOL     OW 3106   6.119   0.122   2.978
  736SOL    HW1 3107   6.146   0.026   2.971
  736SOL    HW2 3108   6.032   0.136   2.931
  737SOL     OW 3109   4.701   3.499   1.642
  737SOL    HW1 3110   4.725   3.579   1.588
  737SOL    HW2 3111   4.780   3.438   1.649
  738SOL     OW 3112   0.299   4.517   4.247
  738SOL    HW1 3113   0.284   4.437   4.305
  738SOL    HW2 3114   0.321   4.596   4.304
  739SOL     OW 3115   4.720   6.849   5.895
  739SOL    HW1 3116   4.713   6.750   5.912
  739SOL    HW2 3117   4.727   6.865   5.797
  740SOL     OW 3118   5.485   0.421   0.879
  740SOL    HW1 3119   5.390   0.429   0.908
  740SOL    HW2 3120   5.508   0.496   0.817
  741SOL     OW 3121   0.981   6.292   3.534
  741SOL    HW1 3122   1.050   6.223   3.556
  741SOL    HW2 3123   0.897   6.272   3.585
  742SOL     OW 3124   1.855   6.378   3.451
  742SOL    HW1 3125   1.780   6.325   3.411
  742SOL    HW2 3126   1.941   6.348   3.412
  743SOL     OW 3127   1.098   4.535   4.050
  743SOL    HW1 3128   1.142   4.595   4.117
  743SOL    HW2 3129   1.167   4.475   4.009
  744SOL     OW 3130   6.831   6.087   7.008
  744SOL    HW1 3131   6.918   6.047   6.978
  744SOL    HW2 3132   6.756   6.028   6.978
  745SOL     OW 3133   1.094   5.165   3.831
  745SOL    HW1 3134   1.183   5.153   3.876
  745SOL    HW2 3135   1.095   5.248   3.776
  746SOL     OW 3136   0.457   6.752   5.144
  746SOL    HW1 3137   0.412   6.835   5.110
  746SOL    HW2 3138   0.553   6.771   5.161
  747SOL     OW 3139   4.462   4.695   3.753
  747SOL    HW1 3140   4.561   4.696   3.738
  747SOL    HW2 3141   4.415   4.705   3.664
  748SOL     OW 3142   4.740   4.543   0.967
  748SOL    HW1 3143   4.729   4.456   0.919
  748SOL    HW2 3144   4.763   4.526   1.063
  749SOL     OW 3145   6.989   2.861   5.135
  749SOL    HW1 3146   6.956   2.778   5.089
  749SOL    HW2 3147   6.946   2.869   5.224
  750SOL     OW 3148   3.077   2.848   0.687
  750SOL    HW1 3149   3.037   2.914   0.750
  750SOL    HW2 3150   3.174   2.834   0.710
  751SOL     OW 3151   4.276   1.424   0.791
  751SOL    HW1 3152   4.202   1.361   0.766
  751SOL    HW2 3153   4.290   1.421   0.889
  752SOL     OW 3154   4.386   2.492   1.920
  752SOL    HW1 3155   4.483   2.497   1.894
  752SOL    HW2 3156   4.332   2.459   1.843
  753SOL     OW 3157   1.810   3.350   4.663
  753SOL    HW1 3158   1.716   3.368   4.690
  753SOL    HW2 3159   1.860   3.307   4.738
  754SOL     OW 3160   4.986   4.070   0.023
  754SOL    HW1 3161   4.987   4.016   6.963
  754SOL    HW2 3162   5.035   4.156   0.009
  755SOL     OW 3163   0.461   5.856   6.524
  755SOL    HW1 3164   0.455   5.776   6.585
  755SOL    HW2 3165   0.524   5.923   6.565
  756SOL     OW 3166   5.150   0.932   2.404
  756SOL    HW1 3167   5.051   0.946   2.400
  756SOL    HW2 3168   5.169   0.835   2.415
  757SOL     OW 3169   0.528   6.561   4.094
  757SOL    HW1 3170   0.459   6.523   4.157
  757SOL    HW2 3171   0.498   6.650   4.061
  758SOL     OW 3172   3.373   2.135   1.104
  758SOL    HW1 3173   3.273   2.144   1.106
  758SOL    HW2 3174   3.414   2.226   1.116
  759SOL     OW 3175   0.930   1.482   0.115
  759SOL    HW1 3176   0.992   1.523   0.181
  759SOL    HW2 3177   0.876   1.553   0.071
  760SOL     OW 3178   4.900   1.541   6.620
  760SOL    HW1 3179   4.815   1.519   6.572
  760SOL    HW2 3180   4.881   1.558   6.717
  761SOL     OW 3181   5.849   3.492   0.239
  761SOL    HW1 3182   5.765   3.438   0.227
  761SOL    HW2 3183   5.924   3.449   0.188
  762SOL     OW 3184   2.120   6.236   3.772
  762SOL    HW1 3185   2.170   6.312   3.729
  762SOL    HW2 3186   2.183   6.161   3.791
  763SOL     OW 3187   4.234   5.772   0.034
  763SOL    HW1 3188   4.140   5.793   0.010
  763SOL    HW2 3189   4.262   5.687   7.015
  764SOL     OW 3190   3.225   1.197   2.901
  764SOL    HW1 3191   3.131   1.173   2.881
  764SOL    HW2 3192   3.229   1.243   2.990
  765SOL     OW 3193   0.752   6.152   1.597
  765SOL    HW1 3194   0.791   6.152   1.689
  765SOL    HW2 3195   0.726   6.059   1.572
  766SOL     OW 3196   0.001   0.717   6.533
  766SOL    HW1 3197   6.993   0.671   6.450
  766SOL    HW2 3198   0.037   0.649   6.597
  767SOL     OW 3199   0.457   6.704   2.069
  767SOL    HW1 3200   0.529   6.761   2.030
  767SOL    HW2 3201   0.368   6.738   2.040
  768SOL     OW 3202   2.277   0.354   2.627
  768SOL    HW1 3203   2.347   0.307   2.574
  768SOL    HW2 3204   2.232   0.289   2.688
  769SOL     OW 3205   3.580   0.651   4.621
  769SOL    HW1 3206   3.494   0.609   4.651
  769SOL    HW2 3207   3.582   0.654   4.521
  770SOL     OW 3208   2.976   5.511   3.424
  770SOL    HW1 3209   2.984   5.444   3.350
  770SOL    HW2 3210   2.892   5.495   3.476
  771SOL     OW 3211   1.919   5.450   2.447
  771SOL    HW1 3212   1.902   5.352   2.436
  771SOL    HW2 3213   1.964   5.465   2.535
  772SOL     OW 3214   0.135   4.093   0.279
  772SOL    HW1 3215   0.104   4.109   0.185
  772SOL    HW2 3216   0.228   4.129   0.291
  773SOL     OW 3217   6.680   2.839   3.246
  773SOL    HW1 3218   6.682   2.739   3.242
  773SOL    HW2 3219   6.753   2.876   3.188
  774SOL     OW 3220   1.738   2.076   2.003
  774SOL    HW1 3221   1.682   2.018   1.944
  774SOL    HW2 3222   1.694   2.086   2.092
  775SOL     OW 3223   1.101   1.806   3.967
  775SOL    HW1 3224   1.086   1.860   4.050
  775SOL    HW2 3225   1.033   1.831   3.898
  776SOL     OW 3226   1.622   6.701   6.004
  776SOL    HW1 3227   1.528   6.677   6.029
  776SOL    HW2 3228   1.625   6.729   5.908
  777SOL     OW 3229   3.882   1.321   1.287
  777SOL    HW1 3230   3.975   1.334   1.253
  777SOL    HW2 3231   3.820   1.308   1.210
  778SOL     OW 3232   4.067   0.890   3.323
  778SOL    HW1 3233   4.047   0.800   3.285
  778SOL    HW2 3234   4.014   0.959   3.273
  779SOL     OW 3235   0.274   1.879   2.136
  779SOL    HW1 3236   0.286   1.928   2.222
  779SOL    HW2 3237   0.362   1.842   2.106
  780SOL     OW 3238   5.915   2.617   4.450
  780SOL    HW1 3239   5.974   2.570   4.515
  780SOL    HW2 3240   5.854   2.551   4.406
  781SOL     OW 3241   6.072   1.284   6.098
  781SOL    HW1 3242   5.985   1.327   6.075
  781SOL    HW2 3243   6.147   1.339   6.063
  782SOL     OW 3244   0.710   3.800   1.115
  782SOL    HW1 3245   0.652   3.849   1.049
  782SOL    HW2 3246   0.780   3.749   1.066
  783SOL     OW 3247   2.997   5.646   7.000
  783SOL    HW1 3248   3.029   5.741   6.996
  783SOL    HW2 3249   3.074   5.585   7.017
  784SOL     OW 3250   4.117   0.442   5.433
  784SOL    HW1 3251   4.185   0.515   5.448
  784SOL    HW2 3252   4.029   0.483   5.409
  785SOL     OW 3253   6.198   1.757   2.422
  785SOL    HW1 3254   6.268   1.812   2.468
  785SOL    HW2 3255   6.233   1.724   2.335
  786SOL     OW 3256   0.221   0.551   0.232
  786SOL    HW1 3257   0.301   0.554   0.172
  786SOL    HW2 3258   0.249   0.576   0.325
  787SOL     OW 3259   2.773   1.144   5.659
  787SOL    HW1 3260   2.678   1.115   5.661
  787SOL    HW2 3261   2.777   1.243   5.642
  788SOL     OW 3262   2.092   3.449   4.397
  788SOL    HW1 3263   1.998   3.436   4.365
  788SOL    HW2 3264   2.135   3.522   4.344
  789SOL     OW 3265   6.151   4.139   2.033
  789SOL    HW1 3266   6.224   4.121   2.100
  789SOL    HW2 3267   6.190   4.172   1.948
  790SOL     OW 3268   2.354   1.497   3.949
  790SOL    HW1 3269   2.401   1.582   3.924
  790SOL    HW2 3270   2.264   1.518   3.987
  791SOL     OW 3271   4.133   0.599   3.800
  791SOL    HW1 3272   4.158   0.533   3.730
  791SOL    HW2 3273   4.150   0.559   3.891
  792SOL     OW 3274   6.229   0.078   2.157
  792SOL    HW1 3275   6.161   0.006   2.167
  792SOL    HW2 3276   6.319   0.043   2.183
  793SOL     OW 3277   5.119   6.344   1.596
  793SOL    HW1 3278   5.027   6.321   1.627
  793SOL    HW2 3279   5.169   6.261   1.572
  794SOL     OW 3280   2.787   4.827   5.677
  794SOL    HW1 3281   2.886   4.823   5.691
  794SOL    HW2 3282   2.763   4.776   5.595
  795SOL     OW 3283   3.579   4.892   5.813
  795SOL    HW1 3284   3.560   4.988   5.797
  795SOL    HW2 3285   3.595   4.846   5.725
  796SOL     OW 3286   0.387   1.892   5.325
  796SOL    HW1 3287   0.465   1.835   5.351
  796SOL    HW2 3288   0.364   1.954   5.400
  797SOL     OW 3289   5.107   2.312   2.765
  797SOL    HW1 3290   5.143   2.370   2.838
  797SOL    HW2 3291   5.096   2.365   2.681
  798SOL     OW 3292   4.915   0.600   0.451
  798SOL    HW1 3293   4.832   0.550   0.475
  798SOL    HW2 3294   4.943   0.658   0.527
  799SOL     OW 3295   6.288   2.228   3.308
  799SOL    HW1 3296   6.247   2.137   3.309
  799SOL    HW2 3297   6.215   2.297   3.301
  800SOL     OW 3298   5.701   0.672   1.938
  800SOL    HW1 3299   5.610   0.651   1.902
  800SOL    HW2 3300   5.766   0.604   1.904
  801SOL     OW 3301   1.308   2.550   3.269
  801SOL    HW1 3302   1.250   2.469   3.264
  801SOL    HW2 3303   1.250   2.631   3.281
  802SOL     OW 3304   4.887   1.268   0.280
  802SOL    HW1 3305   4.801   1.217   0.277
  802SOL    HW2 3306   4.869   1.365   0.263
  803SOL     OW 3307   5.738   5.910   4.776
  803SOL    HW1 3308   5.789   5.846   4.719
  803SOL    HW2 3309   5.801   5.975   4.818
  804SOL     OW 3310   6.864   6.831   0.268
  804SOL    HW1 3311   6.780   6.779   0.285
  804SOL    HW2 3312   6.920   6.782   0.202
  805SOL     OW 3313   4.274   2.970   5.616
  805SOL    HW1 3314   4.245   2.876   5.598
  805SOL    HW2 3315   4.294   3.016   5.530
  806SOL     OW 3316   4.389   1.135   6.088
  806SOL    HW1 3317   4.310   1.157   6.145
  806SOL    HW2 3318   4.433   1.219   6.056
  807SOL     OW 3319   1.078   0.836   3.695
  807SOL    HW1 3320   1.008   0.777   3.654
  807SOL    HW2 3321   1.112   0.899   3.626
  808SOL     OW 3322   5.216   3.406   5.807
  808SOL    HW1 3323   5.125   3.437   5.777
  808SOL    HW2 3324   5.206   3.327   5.868
  809SOL     OW 3325   1.173   4.955   0.919
  809SOL    HW1 3326   1.169   4.890   0.995
  809SOL    HW2 3327   1.217   4.910   0.840
  810SOL     OW 3328   4.402   3.395   1.391
  810SOL    HW1 3329   4.316   3.390   1.442
  810SOL    HW2 3330   4.465   3.324   1.425
  811SOL     OW 3331   4.852   5.725   3.437
  811SOL    HW1 3332   4.886   5.701   3.346
  811SOL    HW2 3333   4.902   5.673   3.506
  812SOL     OW 3334   6.974   0.256   1.469
  812SOL    HW1 3335   0.037   0.237   1.424
  812SOL    HW2 3336   6.938   0.344   1.437
  813SOL     OW 3337   4.467   6.118   3.467
  813SOL    HW1 3338   4.507   6.148   3.380
  813SOL    HW2 3339   4.373   6.090   3.452
  814SOL     OW 3340   5.277   6.698   2.756
  814SOL    HW1 3341   5.273   6.785   2.806
  814SOL    HW2 3342   5.203   6.638   2.787
  815SOL     OW 3343   6.090   2.330   1.742
  815SOL    HW1 3344   6.013   2.383   1.778
  815SOL    HW2 3345   6.175   2.380   1.759
  816SOL     OW 3346   6.830   6.207   0.257
  816SOL    HW1 3347   6.842   6.156   0.172
  816SOL    HW2 3348   6.919   6.219   0.301
  817SOL     OW 3349   1.933   4.083   2.719
  817SOL    HW1 3350   1.960   4.175   2.693
  817SOL    HW2 3351   2.013   4.032   2.750
  818SOL     OW 3352   6.190   2.297   0.451
  818SOL    HW1 3353   6.274   2.243   0.454
  818SOL    HW2 3354   6.114   2.239   0.422
  819SOL     OW 3355   6.223   2.451   4.335
  819SOL    HW1 3356   6.301   2.479   4.279
  819SOL    HW2 3357   6.140   2.452   4.279
  820SOL     OW 3358   1.413   3.082   4.913
  820SOL    HW1 3359   1.402   3.175   4.876
  820SOL    HW2 3360   1.324   3.047   4.941
  821SOL     OW 3361   1.767   4.596   0.676
  821SOL    HW1 3362   1.831   4.577   0.751
  821SOL    HW2 3363   1.815   4.586   0.588
  822SOL     OW 3364   0.510   4.384   4.872
  822SOL    HW1 3365   0.543   4.467   4.828
  822SOL    HW2 3366   0.576   4.310   4.859
  823SOL     OW 3367   5.026   4.413   6.224
  823SOL    HW1 3368   5.020   4.341   6.155
  823SOL    HW2 3369   5.118   4.414   6.263
  824SOL     OW 3370   4.892   1.704   5.121
  824SOL    HW1 3371   4.904   1.792   5.075
  824SOL    HW2 3372   4.835   1.715   5.202
  825SOL     OW 3373   1.981   3.166   2.303
  825SOL    HW1 3374   1.995   3.247   2.361
  825SOL    HW2 3375   2.022   3.182   2.213
  826SOL     OW 3376   5.869   3.477   0.521
  826SOL    HW1 3377   5.864   3.491   0.422
  826SOL    HW2 3378   5.776   3.472   0.558
  827SOL     OW 3379   3.268   5.368   6.406
  827SOL    HW1 3380   3.215   5.283   6.398
  827SOL    HW2 3381   3.352   5.359   6.353
  828SOL     OW 3382   6.344   0.526   5.282
  828SOL    HW1 3383   6.316   0.534   5.186
  828SOL    HW2 3384   6.266   0.545   5.341
  829SOL     OW 3385   3.156   3.022   3.845
  829SOL    HW1 3386   3.166   2.979   3.934
  829SOL    HW2 3387   3.246   3.035   3.804
  830SOL     OW 3388   4.945   4.775   5.809
  830SOL    HW1 3389   4.956   4.736   5.900
  830SOL    HW2 3390   4.923   4.703   5.744
  831SOL     OW 3391   6.675   6.972   4.488
  831SOL    HW1 3392   6.736   6.894   4.486
  831SOL    HW2 3393   6.686   0.001   4.403
  832SOL     OW 3394   2.702   1.424   0.086
  832SOL    HW1 3395   2.677   1.513   0.124
  832SOL    HW2 3396   2.691   1.354   0.157
  833SOL     OW 3397   6.214   6.643   6.501
  833SOL    HW1 3398   6.145   6.633   6.572
  833SOL    HW2 3399   6.248   6.552   6.475
  834SOL     OW 3400   3.331   3.579   3.632
  834SOL    HW1 3401   3.411   3.634   3.607
  834SOL    HW2 3402   3.316   3.585   3.731
  835SOL     OW 3403   4.008   6.942   3.781
  835SOL    HW1 3404   4.085   6.977   3.835
  835SOL    HW2 3405   3.925   6.946   3.836
  836SOL     OW 3406   3.525   6.425   6.876
  836SOL    HW1 3407   3.559   6.348   6.930
  836SOL    HW2 3408   3.490   6.496   6.937
  837SOL     OW 3409   5.493   0.305   0.055
  837SOL    HW1 3410   5.411   0.357   0.030
  837SOL    HW2 3411   5.469   0.235   0.122
  838SOL     OW 3412   1.419   6.639   5.102
  838SOL    HW1 3413   1.394   6.649   5.006
  838SOL    HW2 3414   1.498   6.577   5.110
  839SOL     OW 3415   2.992   1.254   3.617
  839SOL    HW1 3416   3.036   1.165   3.617
  839SOL    HW2 3417   2.912   1.252   3.557
  840SOL     OW 3418   1.189   1.376   0.011
  840SOL    HW1 3419   1.146   1.420   0.089
  840SOL    HW2 3420   1.167   1.278   0.012
  841SOL     OW 3421   6.259   3.660   6.938
  841SOL    HW1 3422   6.171   3.625   6.904
  841SOL    HW2 3423   6.333   3.628   6.879
  842SOL     OW 3424   4.122   5.312   3.059
  842SOL    HW1 3425   4.147   5.231   3.112
  842SOL    HW2 3426   4.182   5.388   3.085
  843SOL     OW 3427   5.819   1.994   1.340
  843SOL    HW1 3428   5.756   2.063   1.304
  843SOL    HW2 3429   5.789   1.965   1.431
  844SOL     OW 3430   5.164   6.423   0.637
  844SOL    HW1 3431   5.070   6.409   0.607
  844SOL    HW2 3432   5.168   6.504   0.696
  845SOL     OW 3433   6.007   3.342   4.997
  845SOL    HW1 3434   6.034   3.298   5.082
  845SOL    HW2 3435   5.958   3.277   4.939
  846SOL     OW 3436   5.864   1.380   0.300
  846SOL    HW1 3437   5.792   1.383   0.369
  846SOL    HW2 3438   5.896   1.473   0.281
  847SOL     OW 3439   6.031   3.329   0.838
  847SOL    HW1 3440   5.942   3.320   0.794
  847SOL    HW2 3441   6.088   3.392   0.786
  848SOL     OW 3442   6.614   0.274   6.132
  848SOL    HW1 3443   6.692   0.237   6.081
  848SOL    HW2 3444   6.579   0.355   6.086
  849SOL     OW 3445   0.368   6.017   4.977
  849SOL    HW1 3446   0.345   6.092   4.915
  849SOL    HW2 3447   0.338   6.039   5.070
  850SOL     OW 3448   4.892   0.893   3.419
  850SOL    HW1 3449   4.857   0.923   3.330
  850SOL    HW2 3450   4.881   0.966   3.486
  851SOL     OW 3451   0.526   1.196   7.024
  851SOL    HW1 3452   0.483   1.157   0.081
  851SOL    HW2 3453   0.456   1.210   6.953
  852SOL     OW 3454   2.290   2.567   6.564
  852SOL    HW1 3455   2.368   2.509   6.538
  852SOL    HW2 3456   2.289   2.577   6.664
  853SOL     OW 3457   1.083   2.762   2.018
  853SOL    HW1 3458   0.987   2.737   2.036
  853SOL    HW2 3459   1.143   2.706   2.075
  854SOL     OW 3460   5.470   6.518   2.702
  854SOL    HW1 3461   5.425   6.429   2.712
  854SOL    HW2 3462   5.401   6.590   2.694
  855SOL     OW 3463   5.467   0.290   1.780
  855SOL    HW1 3464   5.526   0.280   1.700
  855SOL    HW2 3465   5.502   0.233   1.854
  856SOL     OW 3466   1.830   7.006   5.795
  856SOL    HW1 3467   1.745   0.024   5.827
  856SOL    HW2 3468   1.818   6.907   5.791
  857SOL     OW 3469   6.135   3.744   0.934
  857SOL    HW1 3470   6.122   3.686   1.015
  857SOL    HW2 3471   6.114   3.839   0.957
  858SOL     OW 3472   2.956   4.888   1.359
  858SOL    HW1 3473   3.007   4.930   1.283
  858SOL    HW2 3474   3.019   4.869   1.434
  859SOL     OW 3475   6.193   4.715   6.589
  859SOL    HW1 3476   6.148   4.782   6.648
  859SOL    HW2 3477   6.230   4.641   6.645
  860SOL     OW 3478   3.476   4.819   0.251
  860SOL    HW1 3479   3.420   4.748   0.208
  860SOL    HW2 3480   3.572   4.805   0.227
  861SOL     OW 3481   3.245   6.588   4.886
  861SOL    HW1 3482   3.327   6.613   4.938
  861SOL    HW2 3483   3.270   6.564   4.793
  862SOL     OW 3484   5.965   4.294   4.731
  862SOL    HW1 3485   6.046   4.316   4.785
  862SOL    HW2 3486   5.904   4.373   4.729
  863SOL     OW 3487   0.606   1.028   0.660
  863SOL    HW1 3488   0.519   1.065   0.627
  863SOL    HW2 3489   0.641   1.086   0.733
  864SOL     OW 3490   5.007   4.252   3.161
  864SOL    HW1 3491   5.057   4.281   3.080
  864SOL    HW2 3492   4.913   4.229   3.136
  865SOL     OW 3493   1.212   0.049   3.726
  865SOL    HW1 3494   1.122   0.066   3.687
  865SOL    HW2 3495   1.283   0.079   3.662
  866SOL     OW 3496   2.695   1.740   2.014
  866SOL    HW1 3497   2.653   1.827   1.991
  866SOL    HW2 3498   2.794   1.752   2.026
  867SOL     OW 3499   2.942   2.992   6.773
  867SOL    HW1 3500   2.861   3.050   6.766
  867SOL    HW2 3501   3.024   3.050   6.779
  868SOL     OW 3502   5.834   0.183   3.099
  868SOL    HW1 3503   5.780   0.265   3.118
  868SOL    HW2 3504   5.838   0.169   3.000
  869SOL     OW 3505   6.363   5.763   2.375
  869SOL    HW1 3506   6.329   5.847   2.332
  869SOL    HW2 3507   6.433   5.785   2.443
  870SOL     OW 3508   0.249   2.566   1.315
  870SOL    HW1 3509   0.279   2.504   1.387
  870SOL    HW2 3510   0.189   2.637   1.354
  871SOL     OW 3511   6.538   2.643   2.031
  871SOL    HW1 3512   6.581   2.600   1.951
  871SOL    HW2 3513   6.609   2.682   2.090
  872SOL     OW 3514   6.312   2.841   4.777
  872SOL    HW1 3515   6.292   2.936   4.801
  872SOL    HW2 3516   6.329   2.834   4.678
  873SOL     OW 3517   4.096   6.642   3.203
  873SOL    HW1 3518   4.105   6.719   3.140
  873SOL    HW2 3519   4.076   6.676   3.294
  874SOL     OW 3520   1.525   4.661   4.851
  874SOL    HW1 3521   1.502   4.567   4.878
  874SOL    HW2 3522   1.576   4.659   4.765
  875SOL     OW 3523   5.412   4.454   0.711
  875SOL    HW1 3524   5.408   4.400   0.627
  875SOL    HW2 3525   5.436   4.395   0.788
  876SOL     OW 3526   6.622   3.805   2.615
  876SOL    HW1 3527   6.584   3.713   2.626
  876SOL    HW2 3528   6.589   3.844   2.529
  877SOL     OW 3529   4.949   5.128   6.990
  877SOL    HW1 3530   4.909   5.184   6.918
  877SOL    HW2 3531   4.982   5.187   0.040
  878SOL     OW 3532   3.129   5.184   0.503
  878SOL    HW1 3533   3.184   5.105   0.475
  878SOL    HW2 3534   3.042   5.184   0.454
  879SOL     OW 3535   4.743   2.057   2.359
  879SOL    HW1 3536   4.691   2.050   2.444
  879SOL    HW2 3537   4.680   2.074   2.283
  880SOL     OW 3538   3.775   4.804   0.205
  880SOL    HW1 3539   3.860   4.832   0.249
  880SOL    HW2 3540   3.745   4.875   0.141
  881SOL     OW 3541   4.422   4.942   4.382
  881SOL    HW1 3542   4.395   5.013   4.317
  881SOL    HW2 3543   4.379   4.856   4.357
  882SOL     OW 3544   0.958   0.586   4.426
  882SOL    HW1 3545   1.018   0.658   4.460
  882SOL    HW2 3546   0.885   0.627   4.371
  883SOL     OW 3547   3.478   5.052   6.776
  883SOL    HW1 3548   3.529   5.074   6.693
  883SOL    HW2 3549   3.421   5.130   6.802
  884SOL     OW 3550   6.096   3.568   1.916
  884SOL    HW1 3551   6.014   3.550   1.862
  884SOL    HW2 3552   6.070   3.590   2.010
  885SOL     OW 3553   6.137   6.319   0.164
  885SOL    HW1 3554   6.117   6.275   0.251
  885SOL    HW2 3555   6.127   6.418   0.174
  886SOL     OW 3556   3.944   0.940   0.322
  886SOL    HW1 3557   4.003   0.861   0.305
  886SOL    HW2 3558   3.942   0.959   0.420
  887SOL     OW 3559   3.912   0.182   6.040
  887SOL    HW1 3560   3.985   0.200   5.974
  887SOL    HW2 3561   3.860   0.266   6.056
  888SOL     OW 3562   6.942   6.430   3.498
  888SOL    HW1 3563   6.992   6.459   3.417
  888SOL    HW2 3564   6.863   6.374   3.470
  889SOL     OW 3565   0.003   6.363   5.235
  889SOL    HW1 3566   6.932   6.369   5.265
  889SOL    HW2 3567   0.026   6.444   5.181
  890SOL     OW 3568   2.776   4.696   2.239
  890SOL    HW1 3569   2.690   4.655   2.267
  890SOL    HW2 3570   2.812   4.647   2.159
  891SOL     OW 3571   5.609   2.662   1.007
  891SOL    HW1 3572   5.607   2.588   1.075
  891SOL    HW2 3573   5.558   2.741   1.043
  892SOL     OW 3574   2.745   3.928   0.909
  892SOL    HW1 3575   2.791   3.857   0.857
  892SOL    HW2 3576   2.795   3.945   0.994
  893SOL     OW 3577   1.386   0.683   0.569
  893SOL    HW1 3578   1.466   0.683   0.630
  893SOL    HW2 3579   1.375   0.592   0.529
  894SOL     OW 3580   1.321   5.798   4.568
  894SOL    HW1 3581   1.235   5.751   4.548
  894SOL    HW2 3582   1.317   5.836   4.661
  895SOL     OW 3583   2.389   0.003   4.331
  895SOL    HW1 3584   2.402   6.928   4.341
  895SOL    HW2 3585   2.346   0.022   4.243
  896SOL     OW 3586   5.653   6.270   3.581
  896SOL    HW1 3587   5.687   6.361   3.605
  896SOL    HW2 3588   5.681   6.204   3.651
  897SOL     OW 3589   4.518   2.588   6.474
  897SOL    HW1 3590   4.512   2.683   6.505
  897SOL    HW2 3591   4.601   2.577   6.419
  898SOL     OW 3592   5.424   6.678   3.710
  898SOL    HW1 3593   5.367   6.596   3.706
  898SOL    HW2 3594   5.455   6.701   3.617
  899SOL     OW 3595   0.350   4.369   6.525
  899SOL    HW1 3596   0.365   4.457   6.481
  899SOL    HW2 3597   0.379   4.295   6.464
  900SOL     OW 3598   0.273   6.114   3.436
  900SOL    HW1 3599   0.180   6.082   3.453
  900SOL    HW2 3600   0.277   6.160   3.347
  901SOL     OW 3601   6.410   1.154   3.958
  901SOL    HW1 3602   6.345   1.079   3.972
  901SOL    HW2 3603   6.487   1.121   3.904
  902SOL     OW 3604   0.009   0.304   6.745
  902SOL    HW1 3605   6.971   0.227   6.757
  902SOL    HW2 3606   0.033   0.314   6.649
  903SOL     OW 3607   0.588   4.809   0.775
  903SOL    HW1 3608   0.521   4.826   0.702
  903SOL    HW2 3609   0.680   4.813   0.736
  904SOL     OW 3610   1.784   1.655   3.367
  904SOL    HW1 3611   1.806   1.628   3.273
  904SOL    HW2 3612   1.842   1.604   3.430
  905SOL     OW 3613   5.166   2.126   5.550
  905SOL    HW1 3614   5.137   2.149   5.643
  905SOL    HW2 3615   5.217   2.040   5.552
  906SOL     OW 3616   0.177   4.149   6.231
  906SOL    HW1 3617   0.095   4.093   6.236
  906SOL    HW2 3618   0.228   4.126   6.148
  907SOL     OW 3619   5.915   2.400   2.744
  907SOL    HW1 3620   5.829   2.436   2.709
  907SOL    HW2 3621   5.983   2.397   2.670
  908SOL     OW 3622   2.111   0.236   4.180
  908SOL    HW1 3623   2.179   0.195   4.119
  908SOL    HW2 3624   2.025   0.185   4.173
  909SOL     OW 3625   3.666   1.149   1.395
  909SOL    HW1 3626   3.713   1.235   1.412
  909SOL    HW2 3627   3.727   1.086   1.347
  910SOL     OW 3628   1.947   1.678   0.595
  910SOL    HW1 3629   1.860   1.641   0.625
  910SOL    HW2 3630   1.961   1.656   0.498
  911SOL     OW 3631   0.169   4.633   1.056
  911SOL    HW1 3632   0.180   4.541   1.017
  911SOL    HW2 3633   0.243   4.650   1.121
  912SOL     OW 3634   6.999   0.414   5.944
  912SOL    HW1 3635   0.032   0.357   5.885
  912SOL    HW2 3636   0.033   0.479   5.993
  913SOL     OW 3637   2.512   0.994   2.401
  913SOL    HW1 3638   2.600   0.989   2.353
  913SOL    HW2 3639   2.471   1.084   2.384
  914SOL     OW 3640   2.847   5.844   3.538
  914SOL    HW1 3641   2.900   5.853   3.621
  914SOL    HW2 3642   2.854   5.750   3.504
  915SOL     OW 3643   0.615   2.715   0.229
  915SOL    HW1 3644   0.515   2.714   0.227
  915SOL    HW2 3645   0.648   2.662   0.308
  916SOL     OW 3646   2.600   2.350   3.128
  916SOL    HW1 3647   2.568   2.381   3.038
  916SOL    HW2 3648   2.550   2.399   3.199
  917SOL     OW 3649   4.089   1.662   1.287
  917SOL    HW1 3650   4.124   1.581   1.333
  917SOL    HW2 3651   3.992   1.673   1.309
  918SOL     OW 3652   2.228   6.076   6.473
  918SOL    HW1 3653   2.246   5.981   6.501
  918SOL    HW2 3654   2.207   6.131   6.554
  919SOL     OW 3655   1.711   5.805   1.497
  919SOL    HW1 3656   1.717   5.830   1.400
  919SOL    HW2 3657   1.798   5.821   1.542
  920SOL     OW 3658   2.874   0.628   3.450
  920SOL    HW1 3659   2.953   0.609   3.392
  920SOL    HW2 3660   2.872   0.725   3.474
  921SOL     OW 3661   5.644   5.227   4.216
  921SOL    HW1 3662   5.606   5.159   4.278
  921SOL    HW2 3663   5.683   5.303   4.270
  922SOL     OW 3664   3.344   3.780   6.862
  922SOL    HW1 3665   3.309   3.815   6.774
  922SOL    HW2 3666   3.288   3.816   6.936
  923SOL     OW 3667   3.057   6.429   6.793
  923SOL    HW1 3668   3.090   6.513   6.836
  923SOL    HW2 3669   3.125   6.396   6.728
  924SOL     OW 3670   6.024   3.899   2.605
  924SOL    HW1 3671   6.116   3.920   2.638
  924SOL    HW2 3672   5.992   3.813   2.646
  925SOL     OW 3673   0.136   1.805   4.763
  925SOL    HW1 3674   0.059   1.757   4.723
  925SOL    HW2 3675   0.133   1.796   4.863
  926SOL     OW 3676   5.303   5.999   0.467
  926SOL    HW1 3677   5.361   6.025   0.390
  926SOL    HW2 3678   5.303   6.074   0.534
  927SOL     OW 3679   4.728   4.407   4.306
  927SOL    HW1 3680   4.788   4.350   4.360
  927SOL    HW2 3681   4.739   4.386   4.209
  928SOL     OW 3682   1.943   1.063   1.609
  928SOL    HW1 3683   1.848   1.066   1.641
  928SOL    HW2 3684   2.005   1.068   1.687
  929SOL     OW 3685   6.931   2.694   2.801
  929SOL    HW1 3686   6.841   2.725   2.769
  929SOL    HW2 3687   6.959   2.750   2.879
  930SOL     OW 3688   5.225   4.893   4.178
  930SOL    HW1 3689   5.185   4.824   4.118
  930SOL    HW2 3690   5.324   4.879   4.183
  931SOL     OW 3691   1.141   2.309   2.544
  931SOL    HW1 3692   1.135   2.396   2.495
  931SOL    HW2 3693   1.156   2.235   2.479
  932SOL     OW 3694   4.667   6.140   0.944
  932SOL    HW1 3695   4.615   6.111   1.025
  932SOL    HW2 3696   4.654   6.072   0.871
  933SOL     OW 3697   1.833   5.258   2.703
  933SOL    HW1 3698   1.909   5.317   2.729
  933SOL    HW2 3699   1.754   5.314   2.678
  934SOL     OW 3700   3.107   1.592   4.929
  934SOL    HW1 3701   3.168   1.585   4.850
  934SOL    HW2 3702   3.015   1.616   4.900
  935SOL     OW 3703   3.840   3.145   6.060
  935SOL    HW1 3704   3.859   3.092   6.143
  935SOL    HW2 3705   3.893   3.230   6.062
  936SOL     OW 3706   0.469   0.786   0.732
  936SOL    HW1 3707   0.465   0.704   0.675
  936SOL    HW2 3708   0.493   0.865   0.674
  937SOL     OW 3709   4.345   1.578   4.624
  937SOL    HW1 3710   4.268   1.631   4.660
  937SOL    HW2 3711   4.333   1.482   4.648
  938SOL     OW 3712   0.581   3.029   6.061
  938SOL    HW1 3713   0.621   2.937   6.064
  938SOL    HW2 3714   0.580   3.068   6.153
  939SOL     OW 3715   5.559   1.502   6.149
  939SOL    HW1 3716   5.483   1.500   6.084
  939SOL    HW2 3717   5.560   1.591   6.196
  940SOL     OW 3718   6.820   0.910   3.930
  940SOL    HW1 3719   6.761   0.981   3.893
  940SOL    HW2 3720   6.796   0.893   4.026
  941SOL     OW 3721   5.328   1.767   3.826
  941SOL    HW1 3722   5.259   1.717   3.775
  941SOL    HW2 3723   5.319   1.746   3.924
  942SOL     OW 3724   4.859   6.553   5.259
  942SOL    HW1 3725   4.927   6.486   5.289
  942SOL    HW2 3726   4.823   6.526   5.170
  943SOL     OW 3727   5.907   2.492   1.840
  943SOL    HW1 3728   5.861   2.552   1.775
  943SOL    HW2 3729   5.841   2.463   1.910
  944SOL     OW 3730   5.566   3.799   4.542
  944SOL    HW1 3731   5.575   3.860   4.621
  944SOL    HW2 3732   5.613   3.713   4.559
  945SOL     OW 3733   5.374   4.309   4.129
  945SOL    HW1 3734   5.388   4.277   4.036
  945SOL    HW2 3735   5.278   4.333   4.143
  946SOL     OW 3736   5.790   2.826   5.573
  946SOL    HW1 3737   5.711   2.843   5.632
  946SOL    HW2 3738   5.787   2.732   5.539
  947SOL     OW 3739   3.127   2.623   6.537
  947SOL    HW1 3740   3.123   2.546   6.600
  947SOL    HW2 3741   3.161   2.592   6.449
  948SOL     OW 3742   3.922   1.865   0.969
  948SOL    HW1 3743   3.974   1.781   0.984
  948SOL    HW2 3744   3.984   1.944   0.970
  949SOL     OW 3745   6.285   5.172   6.463
  949SOL    HW1 3746   6.281   5.074   6.481
  949SOL    HW2 3747   6.204   5.199   6.410
  950SOL     OW 3748   4.048   5.574   0.740
  950SOL    HW1 3749   4.093   5.544   0.824
  950SOL    HW2 3750   4.083   5.520   0.663
  951SOL     OW 3751   1.114   0.872   1.730
  951SOL    HW1 3752   1.162   0.939   1.786
  951SOL    HW2 3753   1.162   0.784   1.733
  952SOL     OW 3754   5.723   0.858   3.369
  952SOL    HW1 3755   5.731   0.760   3.389
  952SOL    HW2 3756   5.655   0.872   3.298
  953SOL     OW 3757   4.108   5.929   5.995
  953SOL    HW1 3758   4.070   5.993   6.062
  953SOL    HW2 3759   4.167   5.978   5.931
  954SOL     OW 3760   6.012   0.410   1.407
  954SOL    HW1 3761   5.994   0.325   1.358
  954SOL    HW2 3762   5.925   0.454   1.431
  955SOL     OW 3763   1.055   5.726   3.260
  955SOL    HW1 3764   1.070   5.825   3.259
  955SOL    HW2 3765   1.099   5.686   3.179
  956SOL     OW 3766   1.888   1.924   1.287
  956SOL    HW1 3767   1.982   1.942   1.315
  956SOL    HW2 3768   1.888   1.889   1.193
  957SOL     OW 3769   1.852   4.922   4.804
  957SOL    HW1 3770   1.909   4.852   4.846
  957SOL    HW2 3771   1.853   4.912   4.704
  958SOL     OW 3772   5.278   1.889   1.342
  958SOL    HW1 3773   5.279   1.841   1.430
  958SOL    HW2 3774   5.233   1.978   1.353
  959SOL     OW 3775   3.275   4.855   3.101
  959SOL    HW1 3776   3.200   4.863   3.036
  959SOL    HW2 3777   3.349   4.916   3.074
  960SOL     OW 3778   2.017   5.840   4.561
  960SOL    HW1 3779   1.976   5.751   4.543
  960SOL    HW2 3780   2.116   5.831   4.571
  961SOL     OW 3781   4.327   6.630   1.549
  961SOL    HW1 3782   4.345   6.532   1.556
  961SOL    HW2 3783   4.246   6.653   1.603
  962SOL     OW 3784   1.651   0.925   3.407
  962SOL    HW1 3785   1.714   0.854   3.374
  962SOL    HW2 3786   1.563   0.914   3.362
  963SOL     OW 3787   6.576   0.885   1.486
  963SOL    HW1 3788   6.584   0.954   1.414
  963SOL    HW2 3789   6.504   0.820   1.462
  964SOL     OW 3790   5.202   3.722   1.796
  964SOL    HW1 3791   5.154   3.781   1.861
  964SOL    HW2 3792   5.294   3.757   1.781
  965SOL     OW 3793   0.390   1.642   0.530
  965SOL    HW1 3794   0.433   1.572   0.588
  965SOL    HW2 3795   0.302   1.669   0.569
  966SOL     OW 3796   6.420   1.515   2.702
  966SOL    HW1 3797   6.372   1.469   2.627
  966SOL    HW2 3798   6.436   1.451   2.776
  967SOL     OW 3799   0.809   5.399   0.603
  967SOL    HW1 3800   0.861   5.358   0.678
  967SOL    HW2 3801   0.739   5.460   0.641
  968SOL     OW 3802   4.743   2.553   2.038
  968SOL    HW1 3803   4.824   2.544   2.097
  968SOL    HW2 3804   4.680   2.477   2.056
  969SOL     OW 3805   4.526   6.222   5.861
  969SOL    HW1 3806   4.577   6.211   5.776
  969SOL    HW2 3807   4.578   6.181   5.937
  970SOL     OW 3808   4.279   2.072   5.411
  970SOL    HW1 3809   4.338   2.034   5.340
  970SOL    HW2 3810   4.189   2.028   5.408
  971SOL     OW 3811   0.073   1.451   1.910
  971SOL    HW1 3812   0.006   1.525   1.911
  971SOL    HW2 3813   0.051   1.388   1.835
  972SOL     OW 3814   6.273   5.501   0.579
  972SOL    HW1 3815   6.246   5.431   0.645
  972SOL    HW2 3816   6.335   5.460   0.511
  973SOL     OW 3817   6.315   4.366   6.117
  973SOL    HW1 3818   6.220   4.393   6.133
  973SOL    HW2 3819   6.370   4.391   6.197
  974SOL     OW 3820   3.117   0.612   3.354
  974SOL    HW1 3821   3.168   0.618   3.440
  974SOL    HW2 3822   3.181   0.600   3.278
  975SOL     OW 3823   2.640   5.907   5.573
  975SOL    HW1 3824   2.580   5.844   5.621
  975SOL    HW2 3825   2.736   5.880   5.588
  976SOL     OW 3826   6.495   3.130   3.133
  976SOL    HW1 3827   6.484   3.088   3.223
  976SOL    HW2 3828   6.517   3.060   3.065
  977SOL     OW 3829   1.519   1.015   3.671
  977SOL    HW1 3830   1.583   0.999   3.596
  977SOL    HW2 3831   1.502   0.929   3.719
  978SOL     OW 3832   5.443   4.068   4.286
  978SOL    HW1 3833   5.426   4.129   4.209
  978SOL    HW2 3834   5.420   3.974   4.260
  979SOL     OW 3835   6.369   0.610   3.330
  979SOL    HW1 3836   6.356   0.577   3.237
  979SOL    HW2 3837   6.331   0.702   3.339
  980SOL     OW 3838   5.146   2.231   4.247
  980SOL    HW1 3839   5.189   2.222   4.157
  980SOL    HW2 3840   5.048   2.244   4.236
  981SOL     OW 3841   1.447   1.391   4.373
  981SOL    HW1 3842   1.449   1.456   4.297
  981SOL    HW2 3843   1.375   1.324   4.357
  982SOL     OW 3844   1.233   2.317   1.533
  982SOL    HW1 3845   1.195   2.267   1.455
  982SOL    HW2 3846   1.198   2.411   1.532
  983SOL     OW 3847   6.114   2.000   3.250
  983SOL    HW1 3848   6.037   2.063   3.262
  983SOL    HW2 3849   6.081   1.906   3.257
  984SOL     OW 3850   4.635   1.399   5.411
  984SOL    HW1 3851   4.601   1.493   5.415
  984SOL    HW2 3852   4.559   1.335   5.420
  985SOL     OW 3853   3.023   5.749   0.718
  985SOL    HW1 3854   2.933   5.780   0.689
  985SOL    HW2 3855   3.024   5.649   0.723
  986SOL     OW 3856   4.665   5.589   6.251
  986SOL    HW1 3857   4.694   5.587   6.156
  986SOL    HW2 3858   4.584   5.532   6.263
  987SOL     OW 3859   2.990   6.422   1.777
  987SOL    HW1 3860   2.952   6.330   1.783
  987SOL    HW2 3861   2.979   6.469   1.865
  988SOL     OW 3862   4.080   2.867   0.966
  988SOL    HW1 3863   4.052   2.844   0.872
  988SOL    HW2 3864   4.009   2.838   1.030
  989SOL     OW 3865   0.723   0.134   6.036
  989SOL    HW1 3866   0.699   0.229   6.018
  989SOL    HW2 3867   0.822   0.125   6.047
  990SOL     OW 3868   4.588   0.358   4.176
  990SOL    HW1 3869   4.628   0.427   4.116
  990SOL    HW2 3870   4.518   0.307   4.126
  991SOL     OW 3871   1.153   2.241   4.696
  991SOL    HW1 3872   1.196   2.328   4.719
  991SOL    HW2 3873   1.139   2.187   4.779
  992SOL     OW 3874   0.257   3.131   6.841
  992SOL    HW1 3875   0.301   3.043   6.820
  992SOL    HW2 3876   0.287   3.162   6.932
  993SOL     OW 3877   3.316   4.924   2.530
  993SOL    HW1 3878   3.358   4.833   2.532
  993SOL    HW2 3879   3.262   4.934   2.447
  994SOL     OW 3880   3.570   3.532   2.002
  994SOL    HW1 3881   3.592   3.592   1.924
  994SOL    HW2 3882   3.597   3.438   1.980
  995SOL     OW 3883   1.755   2.535   6.030
  995SOL    HW1 3884   1.786   2.518   5.936
  995SOL    HW2 3885   1.754   2.449   6.081
  996SOL     OW 3886   2.125   3.413   2.672
  996SOL    HW1 3887   2.091   3.415   2.578
  996SOL    HW2 3888   2.225   3.410   2.671
  997SOL     OW 3889   0.758   0.786   1.412
  997SOL    HW1 3890   0.764   0.885   1.430
  997SOL    HW2 3891   0.838   0.741   1.451
  998SOL     OW 3892   4.124   6.806   1.995
  998SOL    HW1 3893   4.206   6.813   2.052
  998SOL    HW2 3894   4.061   6.880   2.018
  999SOL     OW 3895   6.233   5.685   0.860
  999SOL    HW1 3896   6.177   5.759   0.897
  999SOL    HW2 3897   6.185   5.642   0.784
 1000SOL     OW 3898   2.392   2.712   3.505
 1000SOL    HW1 3899   2.407   2.796   3.556
 1000SOL    HW2 3900   2.427   2.634   3.557
 1001SOL     OW 3901   4.621   6.664   6.434
 1001SOL    HW1 3902   4.532   6.685   6.476
 1001SOL    HW2 3903   4.680   6.620   6.501
 1002SOL     OW 3904   5.754   1.498   6.853
 1002SOL    HW1 3905   5.761   1.409   6.809
 1002SOL    HW2 3906   5.664   1.537   6.836
 1003SOL     OW 3907   3.228   6.243   2.746
 1003SOL    HW1 3908   3.148   6.252   2.806
 1003SOL    HW2 3909   3.238   6.148   2.717
 1004SOL     OW 3910   6.840   0.107   6.703
 1004SOL    HW1 3911   6.823   0.047   6.626
 1004SOL    HW2 3912   6.842   0.053   6.787
 1005SOL     OW 3913   0.423   0.453   2.640
 1005SOL    HW1 3914   0.488   0.378   2.629
 1005SOL    HW2 3915   0.330   0.418   2.633
 1006SOL     OW 3916   2.400   5.318   1.435
 1006SOL    HW1 3917   2.307   5.306   1.399
 1006SOL    HW2 3918   2.401   5.392   1.502
 1007SOL     OW 3919   6.711   1.405   3.358
 1007SOL    HW1 3920   6.732   1.420   3.261
 1007SOL    HW2 3921   6.667   1.486   3.396
 1008SOL     OW 3922   0.869   2.593   3.737
 1008SOL    HW1 3923   0.842   2.666   3.674
 1008SOL    HW2 3924   0.813   2.596   3.819
 1009SOL     OW 3925   0.070   5.761   4.397
 1009SOL    HW1 3926   0.064   5.684   4.333
 1009SOL    HW2 3927   0.159   5.805   4.389
 1010SOL     OW 3928   4.316   1.847   0.528
 1010SOL    HW1 3929   4.259   1.823   0.606
 1010SOL    HW2 3930   4.411   1.856   0.558
 1011SOL     OW 3931   2.555   5.630   3.712
 1011SOL    HW1 3932   2.580   5.571   3.635
 1011SOL    HW2 3933   2.517   5.716   3.677
 1012SOL     OW 3934   6.149   5.290   0.166
 1012SOL    HW1 3935   6.226   5.353   0.152
 1012SOL    HW2 3936   6.168   5.231   0.245
 1013SOL     OW 3937   1.070   0.927   0.097
 1013SOL    HW1 3938   1.059   0.998   0.028
 1013SOL    HW2 3939   0.981   0.885   0.116
 1014SOL     OW 3940   4.061   5.654   6.035
 1014SOL    HW1 3941   4.146   5.601   6.046
 1014SOL    HW2 3942   4.084   5.746   6.004
 1015SOL     OW 3943   3.448   6.581   5.073
 1015SOL    HW1 3944   3.442   6.482   5.062
 1015SOL    HW2 3945   3.544   6.608   5.080
 1016SOL     OW 3946   3.550   2.741   1.376
 1016SOL    HW1 3947   3.481   2.669   1.374
 1016SOL    HW2 3948   3.560   2.780   1.285
 1017SOL     OW 3949   4.713   2.475   0.752
 1017SOL    HW1 3950   4.714   2.479   0.652
 1017SOL    HW2 3951   4.703   2.568   0.789
 1018SOL     OW 3952   1.413   2.948   3.499
 1018SOL    HW1 3953   1.448   2.868   3.451
 1018SOL    HW2 3954   1.338   2.921   3.560
 1019SOL     OW 3955   0.091   1.206   0.146
 1019SOL    HW1 3956   0.141   1.128   0.184
 1019SOL    HW2 3957   0.132   1.291   0.178
 1020SOL     OW 3958   2.630   0.531   0.512
 1020SOL    HW1 3959   2.623   0.622   0.552
 1020SOL    HW2 3960   2.655   0.538   0.415
 1021SOL     OW 3961   6.804   1.288   1.797
 1021SOL    HW1 3962   6.712   1.273   1.762
 1021SOL    HW2 3963   6.800   1.308   1.895
 1022SOL     OW 3964   4.520   3.533   6.215
 1022SOL    HW1 3965   4.519   3.493   6.307
 1022SOL    HW2 3966   4.517   3.460   6.147
 1023SOL     OW 3967   5.347   0.428   2.622
 1023SOL    HW1 3968   5.248   0.419   2.620
 1023SOL    HW2 3969   5.376   0.454   2.715
 1024SOL     OW 3970   6.345   1.668   4.371
 1024SOL    HW1 3971   6.385   1.751   4.333
 1024SOL    HW2 3972   6.265   1.692   4.427
 1025SOL     OW 3973   3.421   4.716   1.045
 1025SOL    HW1 3974   3.403   4.733   0.948
 1025SOL    HW2 3975   3.346   4.753   1.099
 1026SOL     OW 3976   1.954   1.899   0.275
 1026SOL    HW1 3977   1.981   1.804   0.293
 1026SOL    HW2 3978   2.002   1.931   0.193
 1027SOL     OW 3979   2.871   5.124   1.939
 1027SOL    HW1 3980   2.830   5.193   1.880
 1027SOL    HW2 3981   2.831   5.035   1.917
 1028SOL     OW 3982   1.773   5.998   0.355
 1028SOL    HW1 3983   1.870   5.974   0.350
 1028SOL    HW2 3984   1.739   5.981   0.447
 1029SOL     OW 3985   1.707   0.456   0.265
 1029SOL    HW1 3986   1.669   0.534   0.315
 1029SOL    HW2 3987   1.806   0.459   0.268
 1030SOL     OW 3988   3.821   3.662   4.801
 1030SOL    HW1 3989   3.737   3.662   4.856
 1030SOL    HW2 3990   3.817   3.586   4.736
 1031SOL     OW 3991   3.273   5.096   1.230
 1031SOL    HW1 3992   3.265   5.055   1.139
 1031SOL    HW2 3993   3.188   5.145   1.252
 1032SOL     OW 3994   1.994   1.860   5.035
 1032SOL    HW1 3995   2.026   1.771   5.066
 1032SOL    HW2 3996   2.071   1.912   4.996
 1033SOL     OW 3997   2.389   5.501   1.652
 1033SOL    HW1 3998   2.456   5.574   1.663
 1033SOL    HW2 3999   2.301   5.539   1.623
 1034SOL     OW 4000   2.421   5.987   4.032
 1034SOL    HW1 4001   2.425   6.084   4.013
 1034SOL    HW2 4002   2.433   5.972   4.131
 1035SOL     OW 4003   2.732   1.434   4.735
 1035SOL    HW1 4004   2.643   1.418   4.693
 1035SOL    HW2 4005   2.803   1.435   4.665
 1036SOL     OW 4006   4.500   2.009   1.236
 1036SOL    HW1 4007   4.584   2.060   1.218
 1036SOL    HW2 4008   4.425   2.073   1.255
 1037SOL     OW 4009   1.521   1.185   0.858
 1037SOL    HW1 4010   1.564   1.269   0.825
 1037SOL    HW2 4011   1.520   1.185   0.958
 1038SOL     OW 4012   1.382   1.165   5.284
 1038SOL    HW1 4013   1.475   1.142   5.255
 1038SOL    HW2 4014   1.383   1.195   5.379
 1039SOL     OW 4015   3.724   1.330   4.523
 1039SOL    HW1 4016   3.769   1.388   4.455
 1039SOL    HW2 4017   3.792   1.289   4.583
 1040SOL     OW 4018   6.265   3.558   2.744
 1040SOL    HW1 4019   6.207   3.488   2.703
 1040SOL    HW2 4020   6.357   3.522   2.758
 1041SOL     OW 4021   6.671   0.368   4.125
 1041SOL    HW1 4022   6.763   0.401   4.106
 1041SOL    HW2 4023   6.612   0.388   4.047
 1042SOL     OW 4024   5.128   5.082   0.986
 1042SOL    HW1 4025   5.151   5.051   1.078
 1042SOL    HW2 4026   5.104   5.003   0.930
 1043SOL     OW 4027   3.734   1.580   6.193
 1043SOL    HW1 4028   3.710   1.492   6.234
 1043SOL    HW2 4029   3.653   1.638   6.190
 1044SOL     OW 4030   3.731   2.507   1.433
 1044SOL    HW1 4031   3.675   2.576   1.388
 1044SOL    HW2 4032   3.742   2.530   1.530
 1045SOL     OW 4033   3.225   1.095   2.552
 1045SOL    HW1 4034   3.178   1.007   2.562
 1045SOL    HW2 4035   3.324   1.080   2.553
 1046SOL     OW 4036   3.004   0.040   0.273
 1046SOL    HW1 4037   3.074   7.006   0.315
 1046SOL    HW2 4038   3.046   0.098   0.203
 1047SOL     OW 4039   1.708   5.203   3.028
 1047SOL    HW1 4040   1.667   5.227   2.940
 1047SOL    HW2 4041   1.637   5.204   3.099
 1048SOL     OW 4042   5.129   5.127   4.762
 1048SOL    HW1 4043   5.145   5.223   4.786
 1048SOL    HW2 4044   5.165   5.109   4.671
 1049SOL     OW 4045   6.808   3.882   5.056
 1049SOL    HW1 4046   6.792   3.979   5.043
 1049SOL    HW2 4047   6.790   3.833   4.970
 1050SOL     OW 4048   3.803   0.179   6.822
 1050SOL    HW1 4049   3.801   0.264   6.874
 1050SOL    HW2 4050   3.896   0.142   6.822
 1051SOL     OW 4051   4.343   4.713   0.461
 1051SOL    HW1 4052   4.339   4.693   0.363
 1051SOL    HW2 4053   4.403   4.647   0.506
 1052SOL     OW 4054   4.021   0.182   4.879
 1052SOL    HW1 4055   4.027   0.192   4.978
 1052SOL    HW2 4056   4.113   0.171   4.841
 1053SOL     OW 4057   4.881   5.293   3.699
 1053SOL    HW1 4058   4.927   5.340   3.623
 1053SOL    HW2 4059   4.786   5.323   3.704
 1054SOL     OW 4060   3.215   5.140   5.393
 1054SOL    HW1 4061   3.314   5.146   5.403
 1054SOL    HW2 4062   3.192   5.105   5.302
 1055SOL     OW 4063   4.796   5.359   4.633
 1055SOL    HW1 4064   4.799   5.266   4.598
 1055SOL    HW2 4065   4.705   5.377   4.672
 1056SOL     OW 4066   1.843   6.133   4.902
 1056SOL    HW1 4067   1.782   6.091   4.970
 1056SOL    HW2 4068   1.930   6.157   4.945
 1057SOL     OW 4069   2.903   3.547   2.861
 1057SOL    HW1 4070   2.895   3.572   2.764
 1057SOL    HW2 4071   2.908   3.448   2.869
 1058SOL     OW 4072   3.733   1.443   2.219
 1058SOL    HW1 4073   3.755   1.368   2.282
 1058SOL    HW2 4074   3.770   1.528   2.256
 1059SOL     OW 4075   4.495   1.180   2.057
 1059SOL    HW1 4076   4.409   1.129   2.068
 1059SOL    HW2 4077   4.495   1.225   1.967
 1060SOL     OW 4078   0.722   3.786   5.348
 1060SOL    HW1 4079   0.634   3.805   5.391
 1060SOL    HW2 4080   0.777   3.729   5.408
 1061SOL     OW 4081   3.141   5.104   1.976
 1061SOL    HW1 4082   3.050   5.097   1.935
 1061SOL    HW2 4083   3.189   5.016   1.967
 1062SOL     OW 4084   6.742   5.251   5.622
 1062SOL    HW1 4085   6.708   5.237   5.529
 1062SOL    HW2 4086   6.831   5.207   5.632
 1063SOL     OW 4087   1.593   3.265   1.551
 1063SOL    HW1 4088   1.506   3.277   1.503
 1063SOL    HW2 4089   1.665   3.318   1.505
 1064SOL     OW 4090   1.075   3.284   2.183
 1064SOL    HW1 4091   1.114   3.372   2.210
 1064SOL    HW2 4092   1.029   3.243   2.262
 1065SOL     OW 4093   5.168   0.285   3.938
 1065SOL    HW1 4094   5.130   0.238   4.018
 1065SOL    HW2 4095   5.265   0.302   3.953
 1066SOL     OW 4096   4.711   0.550   4.030
 1066SOL    HW1 4097   4.681   0.621   3.966
 1066SOL    HW2 4098   4.792   0.504   3.994
 1067SOL     OW 4099   1.975   2.670   2.016
 1067SOL    HW1 4100   2.038   2.681   1.939
 1067SOL    HW2 4101   2.018   2.706   2.099
 1068SOL     OW 4102   0.473   3.547   2.306
 1068SOL    HW1 4103   0.381   3.578   2.331
 1068SOL    HW2 4104   0.538   3.620   2.324
 1069SOL     OW 4105   4.230   4.512   0.783
 1069SOL    HW1 4106   4.270   4.588   0.732
 1069SOL    HW2 4107   4.160   4.548   0.846
 1070SOL     OW 4108   2.011   1.204   6.920
 1070SOL    HW1 4109   2.067   1.254   6.986
 1070SOL    HW2 4110   2.068   1.138   6.871
 1071SOL     OW 4111   4.454   6.481   2.720
 1071SOL    HW1 4112   4.375   6.527   2.679
 1071SOL    HW2 4113   4.513   6.549   2.764
 1072SOL     OW 4114   3.244   6.638   2.698
 1072SOL    HW1 4115   3.316   6.634   2.768
 1072SOL    HW2 4116   3.156   6.621   2.741
 1073SOL     OW 4117   2.840   5.169   2.636
 1073SOL    HW1 4118   2.770   5.226   2.679
 1073SOL    HW2 4119   2.823   5.073   2.659
 1074SOL     OW 4120   1.169   5.135   1.500
 1074SOL    HW1 4121   1.168   5.235   1.506
 1074SOL    HW2 4122   1.258   5.104   1.467
 1075SOL     OW 4123   5.548   4.318   3.653
 1075SOL    HW1 4124   5.515   4.234   3.610
 1075SOL    HW2 4125   5.482   4.347   3.723
 1076SOL     OW 4126   0.511   4.370   4.501
 1076SOL    HW1 4127   0.552   4.280   4.518
 1076SOL    HW2 4128   0.565   4.440   4.547
 1077SOL     OW 4129   5.498   0.031   1.169
 1077SOL    HW1 4130   5.514   0.084   1.253
 1077SOL    HW2 4131   5.576   6.996   1.152
 1078SOL     OW 4132   1.560   1.843   1.551
 1078SOL    HW1 4133   1.488   1.880   1.491
 1078SOL    HW2 4134   1.613   1.775   1.501
 1079SOL     OW 4135   2.394   5.829   3.435
 1079SOL    HW1 4136   2.338   5.895   3.385
 1079SOL    HW2 4137   2.468   5.876   3.482
 1080SOL     OW 4138   2.449   5.563   3.317
 1080SOL    HW1 4139   2.450   5.639   3.382
 1080SOL    HW2 4140   2.427   5.478   3.365
 1081SOL     OW 4141   1.565   1.018   6.305
 1081SOL    HW1 4142   1.499   0.997   6.232
 1081SOL    HW2 4143   1.653   1.041   6.264
 1082SOL     OW 4144   1.510   0.580   5.716
 1082SOL    HW1 4145   1.481   0.558   5.623
 1082SOL    HW2 4146   1.474   0.669   5.743
 1083SOL     OW 4147   4.112   3.169   2.005
 1083SOL    HW1 4148   4.040   3.146   2.070
 1083SOL    HW2 4149   4.096   3.262   1.970
 1084SOL     OW 4150   6.026   4.728   1.096
 1084SOL    HW1 4151   6.076   4.646   1.067
 1084SOL    HW2 4152   6.018   4.729   1.196
 1085SOL     OW 4153   1.944   5.106   4.046
 1085SOL    HW1 4154   1.856   5.152   4.035
 1085SOL    HW2 4155   1.966   5.097   4.143
 1086SOL     OW 4156   5.026   6.154   3.012
 1086SOL    HW1 4157   4.982   6.068   3.037
 1086SOL    HW2 4158   5.046   6.206   3.095
 1087SOL     OW 4159   4.680   3.163   5.478
 1087SOL    HW1 4160   4.606   3.214   5.521
 1087SOL    HW2 4161   4.728   3.222   5.413
 1088SOL     OW 4162   5.265   4.889   3.853
 1088SOL    HW1 4163   5.273   4.969   3.912
 1088SOL    HW2 4164   5.174   4.885   3.813
 1089SOL     OW 4165   0.225   0.203   5.195
 1089SOL    HW1 4166   0.133   0.179   5.166
 1089SOL    HW2 4167   0.233   0.303   5.201
 1090SOL     OW 4168   1.620   1.630   5.868
 1090SOL    HW1 4169   1.528   1.591   5.863
 1090SOL    HW2 4170   1.652   1.654   5.776
 1091SOL     OW 4171   1.381   1.629   4.810
 1091SOL    HW1 4172   1.431   1.569   4.748
 1091SOL    HW2 4173   1.437   1.709   4.831
 1092SOL     OW 4174   2.274   4.306   1.428
 1092SOL    HW1 4175   2.272   4.209   1.404
 1092SOL    HW2 4176   2.366   4.342   1.416
 1093SOL     OW 4177   1.099   2.569   2.434
 1093SOL    HW1 4178   1.005   2.547   2.406
 1093SOL    HW2 4179   1.120   2.663   2.408
 1094SOL     OW 4180   0.510   6.597   1.497
 1094SOL    HW1 4181   0.435   6.641   1.546
 1094SOL    HW2 4182   0.562   6.666   1.447
 1095SOL     OW 4183   6.126   3.113   6.387
 1095SOL    HW1 4184   6.101   3.016   6.380
 1095SOL    HW2 4185   6.093   3.162   6.307
 1096SOL     OW 4186   3.105   4.885   1.594
 1096SOL    HW1 4187   3.038   4.851   1.660
 1096SOL    HW2 4188   3.195   4.887   1.637
 1097SOL     OW 4189   1.239   4.737   4.797
 1097SOL    HW1 4190   1.210   4.794   4.874
 1097SOL    HW2 4191   1.338   4.725   4.800
 1098SOL     OW 4192   4.833   2.368   2.366
 1098SOL    HW1 4193   4.863   2.286   2.316
 1098SOL    HW2 4194   4.735   2.382   2.352
 1099SOL     OW 4195   4.236   2.181   4.284
 1099SOL    HW1 4196   4.323   2.141   4.313
 1099SOL    HW2 4197   4.248   2.228   4.197
 1100SOL     OW 4198   1.504   0.931   6.552
 1100SOL    HW1 4199   1.537   0.982   6.473
 1100SOL    HW2 4200   1.582   0.885   6.596
 1101SOL     OW 4201   4.867   3.080   1.057
 1101SOL    HW1 4202   4.882   3.146   0.983
 1101SOL    HW2 4203   4.837   3.128   1.139
 1102SOL     OW 4204   0.273   4.265   4.426
 1102SOL    HW1 4205   0.285   4.169   4.453
 1102SOL    HW2 4206   0.355   4.317   4.448
 1103SOL     OW 4207   1.878   1.752   1.654
 1103SOL    HW1 4208   1.898   1.665   1.699
 1103SOL    HW2 4209   1.819   1.735   1.575
 1104SOL     OW 4210   3.124   4.740   6.273
 1104SOL    HW1 4211   3.147   4.790   6.357
 1104SOL    HW2 4212   3.029   4.710   6.277
 1105SOL     OW 4213   4.613   4.132   6.550
 1105SOL    HW1 4214   4.558   4.055   6.517
 1105SOL    HW2 4215   4.671   4.101   6.625
 1106SOL     OW 4216   0.043   2.586   5.411
 1106SOL    HW1 4217   0.002   2.507   5.365
 1106SOL    HW2 4218   0.108   2.630   5.349
 1107SOL     OW 4219   1.023   0.637   0.536
 1107SOL    HW1 4220   0.994   0.717   0.589
 1107SOL    HW2 4221   1.031   0.559   0.597
 1108SOL     OW 4222   1.869   0.633   6.313
 1108SOL    HW1 4223   1.866   0.563   6.241
 1108SOL    HW2 4224   1.782   0.682   6.316
 1109SOL     OW 4225   3.977   6.241   4.048
 1109SOL    HW1 4226   4.061   6.258   4.099
 1109SOL    HW2 4227   3.980   6.293   3.962
 1110SOL     OW 4228   2.906   2.992   1.747
 1110SOL    HW1 4229   2.890   2.948   1.659
 1110SOL    HW2 4230   2.968   2.935   1.801
 1111SOL     OW 4231   5.786   0.760   0.032
 1111SOL    HW1 4232   5.862   0.715   7.009
 1111SOL    HW2 4233   5.709   0.697   0.038
 1112SOL     OW 4234   6.388   0.406   2.280
 1112SOL    HW1 4235   6.354   0.364   2.195
 1112SOL    HW2 4236   6.342   0.494   2.295
 1113SOL     OW 4237   6.546   3.557   2.875
 1113SOL    HW1 4238   6.490   3.500   2.936
 1113SOL    HW2 4239   6.512   3.651   2.876
 1114SOL     OW 4240   4.833   0.660   6.039
 1114SOL    HW1 4241   4.813   0.565   6.063
 1114SOL    HW2 4242   4.894   0.700   6.107
 1115SOL     OW 4243   3.471   3.329   0.709
 1115SOL    HW1 4244   3.458   3.247   0.654
 1115SOL    HW2 4245   3.413   3.323   0.791
 1116SOL     OW 4246   4.590   5.756   4.146
 1116SOL    HW1 4247   4.603   5.796   4.055
 1116SOL    HW2 4248   4.679   5.726   4.182
 1117SOL     OW 4249   2.589   2.585   1.577
 1117SOL    HW1 4250   2.648   2.636   1.514
 1117SOL    HW2 4251   2.627   2.590   1.669
 1118SOL     OW 4252   2.436   4.835   3.089
 1118SOL    HW1 4253   2.400   4.887   3.011
 1118SOL    HW2 4254   2.486   4.755   3.055
 1119SOL     OW 4255   4.306   4.149   1.651
 1119SOL    HW1 4256   4.372   4.145   1.576
 1119SOL    HW2 4257   4.353   4.175   1.735
 1120SOL     OW 4258   5.287   0.029   6.204
 1120SOL    HW1 4259   5.309   7.005   6.119
 1120SOL    HW2 4260   5.193   0.007   6.231
 1121SOL     OW 4261   4.956   2.885   1.969
 1121SOL    HW1 4262   4.904   2.921   2.046
 1121SOL    HW2 4263   4.895   2.830   1.911
 1122SOL     OW 4264   5.875   3.042   6.774
 1122SOL    HW1 4265   5.950   2.990   6.734
 1122SOL    HW2 4266   5.855   3.121   6.716
 1123SOL     OW 4267   4.775   1.210   1.843
 1123SOL    HW1 4268   4.737   1.124   1.876
 1123SOL    HW2 4269   4.872   1.199   1.824
 1124SOL     OW 4270   6.574   3.445   5.247
 1124SOL    HW1 4271   6.642   3.453   5.174
 1124SOL    HW2 4272   6.532   3.535   5.263
 1125SOL     OW 4273   2.965   2.925   5.331
 1125SOL    HW1 4274   2.881   2.873   5.313
 1125SOL    HW2 4275   2.943   3.023   5.337
 1126SOL     OW 4276   4.776   0.188   0.778
 1126SOL    HW1 4277   4.848   0.217   0.841
 1126SOL    HW2 4278   4.813   0.182   0.685
 1127SOL     OW 4279   2.686   4.930   0.758
 1127SOL    HW1 4280   2.675   4.866   0.681
 1127SOL    HW2 4281   2.676   4.881   0.844
 1128SOL     OW 4282   3.351   1.813   3.808
 1128SOL    HW1 4283   3.369   1.787   3.714
 1128SOL    HW2 4284   3.422   1.776   3.868
 1129SOL     OW 4285   4.516   0.597   6.746
 1129SOL    HW1 4286   4.581   0.644   6.686
 1129SOL    HW2 4287   4.559   0.580   6.835
 1130SOL     OW 4288   1.434   3.719   0.611
 1130SOL    HW1 4289   1.501   3.674   0.671
 1130SOL    HW2 4290   1.344   3.678   0.626
 1131SOL     OW 4291   0.359   6.093   5.522
 1131SOL    HW1 4292   0.287   6.161   5.504
 1131SOL    HW2 4293   0.317   6.003   5.536
 1132SOL     OW 4294   5.085   0.024   5.304
 1132SOL    HW1 4295   5.138   0.109   5.305
 1132SOL    HW2 4296   5.058   0.003   5.210
 1133SOL     OW 4297   0.869   3.260   1.547
 1133SOL    HW1 4298   0.919   3.318   1.611
 1133SOL    HW2 4299   0.846   3.312   1.465
 1134SOL     OW 4300   5.508   2.374   6.818
 1134SOL    HW1 4301   5.437   2.341   6.881
 1134SOL    HW2 4302   5.559   2.449   6.862
 1135SOL     OW 4303   3.054   2.164   3.779
 1135SOL    HW1 4304   3.119   2.204   3.844
 1135SOL    HW2 4305   2.987   2.234   3.752
 1136SOL     OW 4306   2.736   5.439   3.524
 1136SOL    HW1 4307   2.765   5.344   3.536
 1136SOL    HW2 4308   2.638   5.442   3.507
 1137SOL     OW 4309   1.655   1.861   6.362
 1137SOL    HW1 4310   1.610   1.894   6.279
 1137SOL    HW2 4311   1.589   1.858   6.437
 1138SOL     OW 4312   2.062   3.318   6.170
 1138SOL    HW1 4313   2.144   3.304   6.225
 1138SOL    HW2 4314   2.003   3.386   6.215
 1139SOL     OW 4315   1.241   6.490   2.952
 1139SOL    HW1 4316   1.248   6.466   3.048
 1139SOL    HW2 4317   1.269   6.586   2.939
 1140SOL     OW 4318   3.303   1.519   3.259
 1140SOL    HW1 4319   3.268   1.610   3.281
 1140SOL    HW2 4320   3.399   1.527   3.232
 1141SOL     OW 4321   5.832   5.665   5.093
 1141SOL    HW1 4322   5.908   5.617   5.050
 1141SOL    HW2 4323   5.762   5.687   5.024
 1142SOL     OW 4324   5.207   0.026   4.424
 1142SOL    HW1 4325   5.205   0.083   4.342
 1142SOL    HW2 4326   5.291   0.044   4.475
 1143SOL     OW 4327   3.820   2.137   3.253
 1143SOL    HW1 4328   3.876   2.199   3.197
 1143SOL    HW2 4329   3.835   2.157   3.350
 1144SOL     OW 4330   0.608   4.359   4.136
 1144SOL    HW1 4331   0.509   4.367   4.148
 1144SOL    HW2 4332   0.641   4.435   4.081
 1145SOL     OW 4333   0.111   5.437   4.507
 1145SOL    HW1 4334   0.209   5.425   4.488
 1145SOL    HW2 4335   0.064   5.463   4.423
 1146SOL     OW 4336   5.767   2.035   0.883
 1146SOL    HW1 4337   5.827   2.035   0.963
 1146SOL    HW2 4338   5.672   2.042   0.913
 1147SOL     OW 4339   0.316   4.118   2.434
 1147SOL    HW1 4340   0.261   4.044   2.473
 1147SOL    HW2 4341   0.400   4.080   2.394
 1148SOL     OW 4342   3.585   6.648   6.472
 1148SOL    HW1 4343   3.533   6.570   6.507
 1148SOL    HW2 4344   3.654   6.675   6.539
 1149SOL     OW 4345   6.386   3.793   2.928
 1149SOL    HW1 4346   6.439   3.870   2.964
 1149SOL    HW2 4347   6.355   3.736   3.004
 1150SOL     OW 4348   1.978   4.868   0.687
 1150SOL    HW1 4349   1.947   4.945   0.631
 1150SOL    HW2 4350   2.018   4.902   0.772
 1151SOL     OW 4351   5.831   4.937   6.390
 1151SOL    HW1 4352   5.888   4.863   6.426
 1151SOL    HW2 4353   5.872   4.973   6.306
 1152SOL     OW 4354   1.150   0.343   4.762
 1152SOL    HW1 4355   1.059   0.315   4.729
 1152SOL    HW2 4356   1.163   0.309   4.855
 1153SOL     OW 4357   2.126   5.780   2.707
 1153SOL    HW1 4358   2.099   5.852   2.643
 1153SOL    HW2 4359   2.222   5.756   2.690
 1154SOL     OW 4360   0.451   3.898   2.228
 1154SOL    HW1 4361   0.392   3.825   2.193
 1154SOL    HW2 4362   0.512   3.860   2.298
 1155SOL     OW 4363   3.386   6.208   1.195
 1155SOL    HW1 4364   3.469   6.175   1.241
 1155SOL    HW2 4365   3.364   6.300   1.228
 1156SOL     OW 4366   2.309   0.679   4.216
 1156SOL    HW1 4367   2.390   0.622   4.204
 1156SOL    HW2 4368   2.305   0.712   4.310
 1157SOL     OW 4369   0.017   2.210   4.064
 1157SOL    HW1 4370   0.015   2.242   4.159
 1157SOL    HW2 4371   0.002   2.288   4.003
 1158SOL     OW 4372   5.640   4.698   6.112
 1158SOL    HW1 4373   5.738   4.704   6.092
 1158SOL    HW2 4374   5.588   4.703   6.027
 1159SOL     OW 4375   4.066   5.489   2.637
 1159SOL    HW1 4376   3.987   5.493   2.576
 1159SOL    HW2 4377   4.148   5.519   2.588
 1160SOL     OW 4378   4.009   3.312   2.523
 1160SOL    HW1 4379   3.968   3.221   2.524
 1160SOL    HW2 4380   4.048   3.332   2.613
 1161SOL     OW 4381   5.732   0.593   3.427
 1161SOL    HW1 4382   5.792   0.513   3.425
 1161SOL    HW2 4383   5.727   0.629   3.521
 1162SOL     OW 4384   3.409   3.799   1.926
 1162SOL    HW1 4385   3.389   3.876   1.986
 1162SOL    HW2 4386   3.366   3.716   1.962
 1163SOL     OW 4387   4.966   2.548   2.192
 1163SOL    HW1 4388   4.929   2.485   2.260
 1163SOL    HW2 4389   5.039   2.603   2.233
 1164SOL     OW 4390   5.616   2.611   3.438
 1164SOL    HW1 4391   5.524   2.590   3.405
 1164SOL    HW2 4392   5.631   2.709   3.434
 1165SOL     OW 4393   0.927   3.204   3.662
 1165SOL    HW1 4394   0.937   3.178   3.758
 1165SOL    HW2 4395   0.835   3.240   3.647
 1166SOL     OW 4396   3.991   2.271   6.477
 1166SOL    HW1 4397   4.077   2.267   6.528
 1166SOL    HW2 4398   3.981   2.187   6.423
 1167SOL     OW 4399   4.250   0.775   5.147
 1167SOL    HW1 4400   4.284   0.868   5.137
 1167SOL    HW2 4401   4.155   0.778   5.178
 1168SOL     OW 4402   0.173   6.417   3.635
 1168SOL    HW1 4403   0.238   6.343   3.620
 1168SOL    HW2 4404   0.082   6.389   3.604
 1169SOL     OW 4405   1.217   3.642   1.850
 1169SOL    HW1 4406   1.129   3.600   1.826
 1169SOL    HW2 4407   1.291   3.594   1.802
 1170SOL     OW 4408   3.256   1.644   2.387
 1170SOL    HW1 4409   3.210   1.570   2.435
 1170SOL    HW2 4410   3.266   1.723   2.447
 1171SOL     OW 4411   3.048   5.740   1.372
 1171SOL    HW1 4412   3.059   5.649   1.414
 1171SOL    HW2 4413   3.135   5.788   1.375
 1172SOL     OW 4414   3.271   3.718   4.238
 1172SOL    HW1 4415   3.181   3.741   4.201
 1172SOL    HW2 4416   3.341   3.762   4.182
 1173SOL     OW 4417   3.009   0.631   5.811
 1173SOL    HW1 4418   3.084   0.583   5.857
 1173SOL    HW2 4419   2.938   0.566   5.785
 1174SOL     OW 4420   2.752   5.805   0.684
 1174SOL    HW1 4421   2.731   5.807   0.781
 1174SOL    HW2 4422   2.688   5.865   0.634
 1175SOL     OW 4423   6.070   4.651   6.184
 1175SOL    HW1 4424   6.129   4.617   6.110
 1175SOL    HW2 4425   6.053   4.576   6.249
 1176SOL     OW 4426   5.811   4.803   0.925
 1176SOL    HW1 4427   5.759   4.738   0.871
 1176SOL    HW2 4428   5.888   4.756   0.969
 1177SOL     OW 4429   7.023   3.100   6.062
 1177SOL    HW1 4430   0.055   3.131   6.139
 1177SOL    HW2 4431   0.024   3.151   5.980
 1178SOL     OW 4432   5.341   3.757   2.144
 1178SOL    HW1 4433   5.425   3.788   2.188
 1178SOL    HW2 4434   5.359   3.674   2.091
 1179SOL     OW 4435   1.345   4.377   0.104
 1179SOL    HW1 4436   1.387   4.467   0.119
 1179SOL    HW2 4437   1.336   4.329   0.191
 1180SOL     OW 4438   2.111   1.855   3.936
 1180SOL    HW1 4439   2.050   1.934   3.941
 1180SOL    HW2 4440   2.061   1.772   3.957
 1181SOL     OW 4441   1.573   4.600   4.164
 1181SOL    HW1 4442   1.625   4.522   4.128
 1181SOL    HW2 4443   1.526   4.646   4.088
 1182SOL     OW 4444   2.470   4.473   3.920
 1182SOL    HW1 4445   2.456   4.572   3.915
 1182SOL    HW2 4446   2.470   4.444   4.015
 1183SOL     OW 4447   4.186   5.983   1.539
 1183SOL    HW1 4448   4.157   6.075   1.512
 1183SOL    HW2 4449   4.219   5.985   1.633
 1184SOL     OW 4450   3.178   2.839   5.147
 1184SOL    HW1 4451   3.230   2.771   5.199
 1184SOL    HW2 4452   3.107   2.879   5.206
 1185SOL     OW 4453   2.081   0.310   0.200
 1185SOL    HW1 4454   2.141   0.272   0.129
 1185SOL    HW2 4455   2.003   0.249   0.214
 1186SOL     OW 4456   5.661   0.526   4.873
 1186SOL    HW1 4457   5.693   0.443   4.829
 1186SOL    HW2 4458   5.739   0.576   4.911
 1187SOL     OW 4459   6.018   6.744   4.979
 1187SOL    HW1 4460   5.997   6.666   4.920
 1187SOL    HW2 4461   5.952   6.817   4.962
 1188SOL     OW 4462   2.027   6.671   5.989
 1188SOL    HW1 4463   1.979   6.612   5.924
 1188SOL    HW2 4464   2.086   6.735   5.940
 1189SOL     OW 4465   5.722   1.349   1.130
 1189SOL    HW1 4466   5.719   1.296   1.045
 1189SOL    HW2 4467   5.699   1.289   1.207
 1190SOL     OW 4468   4.448   5.331   3.094
 1190SOL    HW1 4469   4.519   5.270   3.059
 1190SOL    HW2 4470   4.399   5.285   3.169
 1191SOL     OW 4471   3.026   5.410   5.797
 1191SOL    HW1 4472   3.019   5.404   5.698
 1191SOL    HW2 4473   3.071   5.495   5.823
 1192SOL     OW 4474   6.099   4.862   2.973
 1192SOL    HW1 4475   6.180   4.817   2.935
 1192SOL    HW2 4476   6.025   4.858   2.906
 1193SOL     OW 4477   4.721   0.253   4.394
 1193SOL    HW1 4478   4.666   0.261   4.311
 1193SOL    HW2 4479   4.798   0.318   4.389
 1194SOL     OW 4480   6.539   1.096   0.962
 1194SOL    HW1 4481   6.513   1.092   0.866
 1194SOL    HW2 4482   6.582   1.010   0.988
 1195SOL     OW 4483   5.456   0.584   6.189
 1195SOL    HW1 4484   5.462   0.670   6.241
 1195SOL    HW2 4485   5.385   0.526   6.229
 1196SOL     OW 4486   6.994   5.402   2.600
 1196SOL    HW1 4487   0.037   5.469   2.569
 1196SOL    HW2 4488   0.018   5.326   2.646
 1197SOL     OW 4489   3.874   5.730   5.665
 1197SOL    HW1 4490   3.839   5.807   5.719
 1197SOL    HW2 4491   3.798   5.676   5.630
 1198SOL     OW 4492   3.412   2.143   3.117
 1198SOL    HW1 4493   3.421   2.177   3.024
 1198SOL    HW2 4494   3.316   2.127   3.138
 1199SOL     OW 4495   3.230   3.874   1.679
 1199SOL    HW1 4496   3.154   3.906   1.735
 1199SOL    HW2 4497   3.302   3.837   1.738
 1200SOL     OW 4498   4.026   4.280   6.522
 1200SOL    HW1 4499   4.116   4.247   6.496
 1200SOL    HW2 4500   3.974   4.304   6.439
 1201SOL     OW 4501   1.116   1.791   4.803
 1201SOL    HW1 4502   1.081   1.805   4.711
 1201SOL    HW2 4503   1.208   1.752   4.798
 1202SOL     OW 4504   5.136   0.184   4.688
 1202SOL    HW1 4505   5.146   0.204   4.785
 1202SOL    HW2 4506   5.227   0.167   4.648
 1203SOL     OW 4507   5.315   0.260   1.115
 1203SOL    HW1 4508   5.377   0.193   1.156
 1203SOL    HW2 4509   5.268   0.218   1.038
 1204SOL     OW 4510   3.719   0.689   0.599
 1204SOL    HW1 4511   3.642   0.737   0.556
 1204SOL    HW2 4512   3.685   0.627   0.669
 1205SOL     OW 4513   6.124   2.152   5.689
 1205SOL    HW1 4514   6.029   2.130   5.668
 1205SOL    HW2 4515   6.184   2.097   5.631
 1206SOL     OW 4516   1.872   1.678   4.743
 1206SOL    HW1 4517   1.933   1.633   4.808
 1206SOL    HW2 4518   1.837   1.763   4.784
 1207SOL     OW 4519   6.004   0.074   0.094
 1207SOL    HW1 4520   5.938   0.028   0.036
 1207SOL    HW2 4521   6.001   0.173   0.077
 1208SOL     OW 4522   3.849   3.833   2.704
 1208SOL    HW1 4523   3.761   3.812   2.660
 1208SOL    HW2 4524   3.832   3.878   2.791
 1209SOL     OW 4525   6.014   5.443   4.991
 1209SOL    HW1 4526   6.020   5.370   5.059
 1209SOL    HW2 4527   6.105   5.467   4.959
 1210SOL     OW 4528   4.492   0.390   2.778
 1210SOL    HW1 4529   4.448   0.467   2.732
 1210SOL    HW2 4530   4.453   0.304   2.745
 1211SOL     OW 4531   1.549   3.756   3.760
 1211SOL    HW1 4532   1.468   3.810   3.783
 1211SOL    HW2 4533   1.620   3.771   3.829
 1212SOL     OW 4534   1.064   4.249   4.465
 1212SOL    HW1 4535   1.099   4.157   4.484
 1212SOL    HW2 4536   1.030   4.290   4.550
 1213SOL     OW 4537   6.367   2.822   5.440
 1213SOL    HW1 4538   6.445   2.862   5.391
 1213SOL    HW2 4539   6.285   2.827   5.383
 1214SOL     OW 4540   1.460   3.468   4.134
 1214SOL    HW1 4541   1.460   3.481   4.035
 1214SOL    HW2 4542   1.455   3.557   4.180
 1215SOL     OW 4543   1.664   4.222   3.422
 1215SOL    HW1 4544   1.583   4.165   3.438
 1215SOL    HW2 4545   1.683   4.226   3.323
 1216SOL     OW 4546   1.123   6.916   1.505
 1216SOL    HW1 4547   1.185   6.923   1.427
 1216SOL    HW2 4548   1.077   7.004   1.519
 1217SOL     OW 4549   1.481   6.538   0.893
 1217SOL    HW1 4550   1.490   6.481   0.974
 1217SOL    HW2 4551   1.550   6.512   0.826
 1218SOL     OW 4552   0.322   3.472   4.524
 1218SOL    HW1 4553   0.295   3.418   4.603
 1218SOL    HW2 4554   0.311   3.570   4.545
 1219SOL     OW 4555   3.837   5.716   0.960
 1219SOL    HW1 4556   3.908   5.664   0.914
 1219SOL    HW2 4557   3.879   5.785   1.019
 1220SOL     OW 4558   5.736   2.518   3.138
 1220SOL    HW1 4559   5.698   2.438   3.186
 1220SOL    HW2 4560   5.783   2.577   3.203
 1221SOL     OW 4561   4.899   3.244   0.853
 1221SOL    HW1 4562   4.822   3.239   0.789
 1221SOL    HW2 4563   4.907   3.336   0.889
 1222SOL     OW 4564   0.304   6.806   0.756
 1222SOL    HW1 4565   0.208   6.787   0.777
 1222SOL    HW2 4566   0.363   6.749   0.813
 1223SOL     OW 4567   6.261   0.196   6.189
 1223SOL    HW1 4568   6.164   0.205   6.166
 1223SOL    HW2 4569   6.274   0.115   6.246
 1224SOL     OW 4570   4.282   5.869   0.684
 1224SOL    HW1 4571   4.237   5.954   0.713
 1224SOL    HW2 4572   4.358   5.849   0.745
 1225SOL     OW 4573   4.793   1.655   0.469
 1225SOL    HW1 4574   4.879   1.642   0.519
 1225SOL    HW2 4575   4.802   1.612   0.379
 1226SOL     OW 4576   6.083   6.278   1.320
 1226SOL    HW1 4577   6.130   6.227   1.392
 1226SOL    HW2 4578   6.030   6.352   1.361
 1227SOL     OW 4579   5.534   4.036   5.649
 1227SOL    HW1 4580   5.461   3.997   5.592
 1227SOL    HW2 4581   5.497   4.107   5.708
 1228SOL     OW 4582   3.575   3.317   2.455
 1228SOL    HW1 4583   3.591   3.397   2.513
 1228SOL    HW2 4584   3.499   3.264   2.493
 1229SOL     OW 4585   1.702   6.217   2.520
 1229SOL    HW1 4586   1.780   6.270   2.487
 1229SOL    HW2 4587   1.686   6.139   2.460
 1230SOL     OW 4588   4.849   4.986   1.519
 1230SOL    HW1 4589   4.868   5.068   1.465
 1230SOL    HW2 4590   4.818   4.913   1.458
 1231SOL     OW 4591   1.908   2.236   6.702
 1231SOL    HW1 4592   1.951   2.297   6.636
 1231SOL    HW2 4593   1.877   2.153   6.656
 1232SOL     OW 4594   3.263   0.509   5.260
 1232SOL    HW1 4595   3.198   0.437   5.238
 1232SOL    HW2 4596   3.216   0.582   5.310
 1233SOL     OW 4597   0.260   5.298   4.060
 1233SOL    HW1 4598   0.206   5.374   4.024
 1233SOL    HW2 4599   0.251   5.219   3.999
 1234SOL     OW 4600   6.861   3.200   6.874
 1234SOL    HW1 4601   6.837   3.107   6.844
 1234SOL    HW2 4602   6.952   3.224   6.840
 1235SOL     OW 4603   6.226   4.765   0.294
 1235SOL    HW1 4604   6.130   4.793   0.287
 1235SOL    HW2 4605   6.231   4.673   0.333
 1236SOL     OW 4606   2.256   1.254   1.258
 1236SOL    HW1 4607   2.215   1.180   1.311
 1236SOL    HW2 4608   2.275   1.331   1.319
 1237SOL     OW 4609   1.138   0.270   5.027
 1237SOL    HW1 4610   1.086   0.188   5.049
 1237SOL    HW2 4611   1.121   0.340   5.097
 1238SOL     OW 4612   0.061   0.090   3.994
 1238SOL    HW1 4613   0.139   0.090   3.931
 1238SOL    HW2 4614   7.011   0.037   3.954
 1239SOL     OW 4615   5.667   5.485   4.293
 1239SOL    HW1 4616   5.634   5.526   4.208
 1239SOL    HW2 4617   5.681   5.557   4.361
 1240SOL     OW 4618   5.472   4.998   2.691
 1240SOL    HW1 4619   5.503   4.974   2.783
 1240SOL    HW2 4620   5.372   4.991   2.687
 1241SOL     OW 4621   5.640   4.953   3.913
 1241SOL    HW1 4622   5.699   5.026   3.879
 1241SOL    HW2 4623   5.650   4.872   3.855
 1242SOL     OW 4624   1.482   4.312   6.722
 1242SOL    HW1 4625   1.535   4.297   6.806
 1242SOL    HW2 4626   1.394   4.353   6.745
 1243SOL     OW 4627   1.079   4.027   4.811
 1243SOL    HW1 4628   1.011   3.979   4.866
 1243SOL    HW2 4629   1.170   4.008   4.847
 1244SOL     OW 4630   5.434   6.438   4.746
 1244SOL    HW1 4631   5.531   6.432   4.723
 1244SOL    HW2 4632   5.421   6.500   4.824
 1245SOL     OW 4633   5.375   6.395   2.048
 1245SOL    HW1 4634   5.298   6.447   2.085
 1245SOL    HW2 4635   5.460   6.426   2.091
 1246SOL     OW 4636   5.017   1.659   0.639
 1246SOL    HW1 4637   5.041   1.729   0.707
 1246SOL    HW2 4638   5.027   1.569   0.680
 1247SOL     OW 4639   6.593   6.568   3.545
 1247SOL    HW1 4640   6.607   6.492   3.482
 1247SOL    HW2 4641   6.505   6.558   3.591
 1248SOL     OW 4642   0.405   7.002   5.041
 1248SOL    HW1 4643   0.392   0.034   5.123
 1248SOL    HW2 4644   0.479   0.016   4.986
 1249SOL     OW 4645   0.266   4.573   0.549
 1249SOL    HW1 4646   0.193   4.510   0.576
 1249SOL    HW2 4647   0.345   4.520   0.518
 1250SOL     OW 4648   5.732   3.118   5.450
 1250SOL    HW1 4649   5.695   3.041   5.501
 1250SOL    HW2 4650   5.817   3.091   5.405
 1251SOL     OW 4651   2.709   0.338   2.446
 1251SOL    HW1 4652   2.784   0.280   2.412
 1251SOL    HW2 4653   2.633   0.334   2.382
 1252SOL     OW 4654   2.183   5.432   0.207
 1252SOL    HW1 4655   2.091   5.393   0.221
 1252SOL    HW2 4656   2.225   5.390   0.127
 1253SOL     OW 4657   3.246   1.199   1.227
 1253SOL    HW1 4658   3.268   1.276   1.167
 1253SOL    HW2 4659   3.299   1.206   1.311
 1254SOL     OW 4660   6.323   1.212   2.335
 1254SOL    HW1 4661   6.404   1.245   2.382
 1254SOL    HW2 4662   6.311   1.261   2.249
 1255SOL     OW 4663   5.321   1.698   4.664
 1255SOL    HW1 4664   5.298   1.622   4.604
 1255SOL    HW2 4665   5.316   1.669   4.759
 1256SOL     OW 4666   0.261   6.143   4.561
 1256SOL    HW1 4667   0.217   6.233   4.561
 1256SOL    HW2 4668   0.360   6.154   4.565
 1257SOL     OW 4669   0.401   4.802   3.585
 1257SOL    HW1 4670   0.457   4.833   3.508
 1257SOL    HW2 4671   0.382   4.879   3.646
 1258SOL     OW 4672   3.343   6.485   4.662
 1258SOL    HW1 4673   3.351   6.385   4.658
 1258SOL    HW2 4674   3.433   6.524   4.682
 1259SOL     OW 4675   5.223   0.277   4.928
 1259SOL    HW1 4676   5.277   0.346   4.975
 1259SOL    HW2 4677   5.150   0.244   4.988
 1260SOL     OW 4678   1.850   0.138   2.051
 1260SOL    HW1 4679   1.843   0.185   1.963
 1260SOL    HW2 4680   1.945   0.138   2.081
 1261SOL     OW 4681   6.787   4.541   6.314
 1261SOL    HW1 4682   6.885   4.530   6.297
 1261SOL    HW2 4683   6.760   4.488   6.394
 1262SOL     OW 4684   5.253   5.656   0.747
 1262SOL    HW1 4685   5.327   5.591   0.764
 1262SOL    HW2 4686   5.257   5.687   0.652
 1263SOL     OW 4687   0.779   2.234   1.208
 1263SOL    HW1 4688   0.807   2.253   1.114
 1263SOL    HW2 4689   0.825   2.298   1.270
 1264SOL     OW 4690   0.970   3.376   3.442
 1264SOL    HW1 4691   1.002   3.464   3.477
 1264SOL    HW2 4692   0.955   3.314   3.519
 1265SOL     OW 4693   6.805   4.596   4.913
 1265SOL    HW1 4694   6.787   4.649   4.830
 1265SOL    HW2 4695   6.836   4.657   4.985
 1266SOL     OW 4696   3.112   1.863   5.118
 1266SOL    HW1 4697   3.097   1.764   5.123
 1266SOL    HW2 4698   3.034   1.907   5.074
 1267SOL     OW 4699   7.000   4.774   3.366
 1267SOL    HW1 4700   0.068   4.788   3.327
 1267SOL    HW2 4701   6.986   4.838   3.442
 1268SOL     OW 4702   5.183   2.785   6.472
 1268SOL    HW1 4703   5.159   2.691   6.494
 1268SOL    HW2 4704   5.283   2.795   6.468
 1269SOL     OW 4705   6.661   6.008   5.496
 1269SOL    HW1 4706   6.747   5.957   5.501
 1269SOL    HW2 4707   6.630   6.012   5.401
 1270SOL     OW 4708   2.103   3.823   4.613
 1270SOL    HW1 4709   2.103   3.871   4.525
 1270SOL    HW2 4710   2.065   3.731   4.600
 1271SOL     OW 4711   2.956   1.673   2.620
 1271SOL    HW1 4712   2.935   1.581   2.587
 1271SOL    HW2 4713   2.872   1.726   2.628
 1272SOL     OW 4714   6.522   5.319   1.239
 1272SOL    HW1 4715   6.588   5.342   1.310
 1272SOL    HW2 4716   6.570   5.293   1.155
 1273SOL     OW 4717   2.260   4.645   6.554
 1273SOL    HW1 4718   2.358   4.634   6.543
 1273SOL    HW2 4719   2.219   4.558   6.581
 1274SOL     OW 4720   6.777   2.839   1.947
 1274SOL    HW1 4721   6.710   2.858   2.019
 1274SOL    HW2 4722   6.831   2.921   1.929
 1275SOL     OW 4723   4.357   0.975   4.801
 1275SOL    HW1 4724   4.451   0.942   4.798
 1275SOL    HW2 4725   4.335   1.002   4.895
 1276SOL     OW 4726   0.121   0.532   1.985
 1276SOL    HW1 4727   0.216   0.504   2.000
 1276SOL    HW2 4728   0.107   0.622   2.028
 1277SOL     OW 4729   6.987   0.806   4.668
 1277SOL    HW1 4730   6.946   0.777   4.582
 1277SOL    HW2 4731   0.060   0.824   4.654
 1278SOL     OW 4732   2.155   1.884   5.476
 1278SOL    HW1 4733   2.207   1.798   5.475
 1278SOL    HW2 4734   2.176   1.936   5.394
 1279SOL     OW 4735   2.933   6.302   0.452
 1279SOL    HW1 4736   2.833   6.299   0.461
 1279SOL    HW2 4737   2.972   6.214   0.478
 1280SOL     OW 4738   2.136   0.238   3.211
 1280SOL    HW1 4739   2.088   0.154   3.188
 1280SOL    HW2 4740   2.127   0.303   3.136
 1281SOL     OW 4741   1.514   6.323   3.056
 1281SOL    HW1 4742   1.585   6.394   3.058
 1281SOL    HW2 4743   1.433   6.356   3.104
 1282SOL     OW 4744   0.705   1.540   1.358
 1282SOL    HW1 4745   0.804   1.551   1.363
 1282SOL    HW2 4746   0.660   1.612   1.410
 1283SOL     OW 4747   5.506   4.325   5.451
 1283SOL    HW1 4748   5.575   4.356   5.517
 1283SOL    HW2 4749   5.448   4.256   5.494
 1284SOL     OW 4750   2.882   2.665   1.666
 1284SOL    HW1 4751   2.965   2.649   1.613
 1284SOL    HW2 4752   2.885   2.612   1.751
 1285SOL     OW 4753   4.828   2.534   5.963
 1285SOL    HW1 4754   4.793   2.614   5.915
 1285SOL    HW2 4755   4.794   2.451   5.919
 1286SOL     OW 4756   5.478   4.155   2.223
 1286SOL    HW1 4757   5.405   4.099   2.263
 1286SOL    HW2 4758   5.567   4.115   2.246
 1287SOL     OW 4759   5.765   5.747   6.771
 1287SOL    HW1 4760   5.791   5.818   6.837
 1287SOL    HW2 4761   5.814   5.663   6.791
 1288SOL     OW 4762   0.281   2.587   0.057
 1288SOL    HW1 4763   0.359   2.595   7.020
 1288SOL    HW2 4764   0.246   2.678   0.079
 1289SOL     OW 4765   6.860   5.903   2.325
 1289SOL    HW1 4766   6.805   5.925   2.244
 1289SOL    HW2 4767   6.956   5.892   2.297
 1290SOL     OW 4768   0.743   0.355   6.712
 1290SOL    HW1 4769   0.707   0.420   6.645
 1290SOL    HW2 4770   0.834   0.326   6.684
 1291SOL     OW 4771   1.246   5.564   6.372
 1291SOL    HW1 4772   1.328   5.619   6.359
 1291SOL    HW2 4773   1.230   5.551   6.470
 1292SOL     OW 4774   6.985   4.930   1.317
 1292SOL    HW1 4775   0.014   5.014   1.311
 1292SOL    HW2 4776   6.917   4.928   1.244
 1293SOL     OW 4777   2.097   1.728   6.917
 1293SOL    HW1 4778   2.047   1.807   6.953
 1293SOL    HW2 4779   2.079   1.718   6.819
 1294SOL     OW 4780   0.553   3.290   2.449
 1294SOL    HW1 4781   0.518   3.371   2.402
 1294SOL    HW2 4782   0.621   3.318   2.516
 1295SOL     OW 4783   5.512   3.073   2.051
 1295SOL    HW1 4784   5.490   3.014   1.973
 1295SOL    HW2 4785   5.562   3.020   2.119
 1296SOL     OW 4786   3.624   2.252   6.327
 1296SOL    HW1 4787   3.649   2.331   6.271
 1296SOL    HW2 4788   3.545   2.274   6.383
 1297SOL     OW 4789   6.626   1.463   5.791
 1297SOL    HW1 4790   6.709   1.409   5.784
 1297SOL    HW2 4791   6.546   1.405   5.775
 1298SOL     OW 4792   5.342   3.319   2.661
 1298SOL    HW1 4793   5.279   3.282   2.593
 1298SOL    HW2 4794   5.306   3.405   2.697
 1299SOL     OW 4795   1.926   4.352   3.809
 1299SOL    HW1 4796   1.879   4.265   3.800
 1299SOL    HW2 4797   1.865   4.426   3.780
 1300SOL     OW 4798   2.760   3.505   1.852
 1300SOL    HW1 4799   2.747   3.410   1.881
 1300SOL    HW2 4800   2.692   3.529   1.783
 1301SOL     OW 4801   0.919   6.549   3.817
 1301SOL    HW1 4802   0.989   6.555   3.888
 1301SOL    HW2 4803   0.888   6.454   3.808
 1302SOL     OW 4804   2.621   6.678   5.795
 1302SOL    HW1 4805   2.642   6.737   5.717
 1302SOL    HW2 4806   2.522   6.665   5.803
 1303SOL     OW 4807   3.861   1.538   1.039
 1303SOL    HW1 4808   3.946   1.528   0.988
 1303SOL    HW2 4809   3.882   1.566   1.133
 1304SOL     OW 4810   2.067   0.401   6.059
 1304SOL    HW1 4811   1.981   0.451   6.065
 1304SOL    HW2 4812   2.059   0.313   6.106
 1305SOL     OW 4813   4.727   6.402   4.369
 1305SOL    HW1 4814   4.718   6.474   4.300
 1305SOL    HW2 4815   4.762   6.442   4.454
 1306SOL     OW 4816   1.167   4.019   4.541
 1306SOL    HW1 4817   1.141   3.947   4.477
 1306SOL    HW2 4818   1.145   3.991   4.634
 1307SOL     OW 4819   1.243   3.324   5.162
 1307SOL    HW1 4820   1.160   3.371   5.191
 1307SOL    HW2 4821   1.252   3.237   5.211
 1308SOL     OW 4822   4.215   5.844   4.231
 1308SOL    HW1 4823   4.242   5.806   4.320
 1308SOL    HW2 4824   4.293   5.839   4.168
 1309SOL     OW 4825   5.371   2.814   4.971
 1309SOL    HW1 4826   5.334   2.727   5.001
 1309SOL    HW2 4827   5.314   2.889   5.005
 1310SOL     OW 4828   5.837   4.068   4.370
 1310SOL    HW1 4829   5.757   4.125   4.392
 1310SOL    HW2 4830   5.865   4.087   4.276
 1311SOL     OW 4831   5.787   0.053   4.432
 1311SOL    HW1 4832   5.801   0.070   4.335
 1311SOL    HW2 4833   5.874   0.060   4.480
 1312SOL     OW 4834   0.981   0.070   6.999
 1312SOL    HW1 4835   1.046   0.097   0.045
 1312SOL    HW2 4836   1.023   0.001   6.939
 1313SOL     OW 4837   3.298   5.607   5.024
 1313SOL    HW1 4838   3.263   5.523   4.981
 1313SOL    HW2 4839   3.247   5.625   5.108
 1314SOL     OW 4840   1.496   1.376   5.516
 1314SOL    HW1 4841   1.418   1.315   5.528
 1314SOL    HW2 4842   1.560   1.364   5.592
 1315SOL     OW 4843   1.953   1.284   1.153
 1315SOL    HW1 4844   1.875   1.238   1.196
 1315SOL    HW2 4845   2.036   1.230   1.169
 1316SOL     OW 4846   2.207   0.389   3.447
 1316SOL    HW1 4847   2.139   0.429   3.508
 1316SOL    HW2 4848   2.161   0.328   3.382
 1317SOL     OW 4849   0.692   4.601   4.350
 1317SOL    HW1 4850   0.650   4.561   4.268
 1317SOL    HW2 4851   0.773   4.548   4.375
 1318SOL     OW 4852   0.167   0.869   0.637
 1318SOL    HW1 4853   0.072   0.889   0.612
 1318SOL    HW2 4854   0.203   0.797   0.577
 1319SOL     OW 4855   0.198   1.004   1.063
 1319SOL    HW1 4856   0.254   0.922   1.067
 1319SOL    HW2 4857   0.234   1.065   0.992
 1320SOL     OW 4858   5.675   4.355   6.404
 1320SOL    HW1 4859   5.641   4.369   6.498
 1320SOL    HW2 4860   5.774   4.347   6.406
 1321SOL     OW 4861   4.237   3.562   6.779
 1321SOL    HW1 4862   4.162   3.590   6.838
 1321SOL    HW2 4863   4.230   3.464   6.761
 1322SOL     OW 4864   6.104   1.209   3.840
 1322SOL    HW1 4865   6.142   1.117   3.847
 1322SOL    HW2 4866   6.165   1.266   3.785
 1323SOL     OW 4867   6.930   1.418   5.232
 1323SOL    HW1 4868   6.858   1.357   5.199
 1323SOL    HW2 4869   6.937   1.412   5.331
 1324SOL     OW 4870   1.564   2.654   1.672
 1324SOL    HW1 4871   1.661   2.633   1.658
 1324SOL    HW2 4872   1.520   2.671   1.584
 1325SOL     OW 4873   1.810   6.107   3.347
 1325SOL    HW1 4874   1.789   6.021   3.393
 1325SOL    HW2 4875   1.757   6.114   3.263
 1326SOL     OW 4876   5.219   2.523   4.796
 1326SOL    HW1 4877   5.222   2.563   4.704
 1326SOL    HW2 4878   5.153   2.572   4.852
 1327SOL     OW 4879   2.737   5.430   2.682
 1327SOL    HW1 4880   2.662   5.492   2.706
 1327SOL    HW2 4881   2.805   5.429   2.755
 1328SOL     OW 4882   2.004   1.970   6.063
 1328SOL    HW1 4883   1.963   1.888   6.103
 1328SOL    HW2 4884   2.053   2.021   6.134
 1329SOL     OW 4885   0.710   1.560   0.464
 1329SOL    HW1 4886   0.790   1.589   0.516
 1329SOL    HW2 4887   0.640   1.527   0.527
 1330SOL     OW 4888   6.545   0.440   1.234
 1330SOL    HW1 4889   6.609   0.446   1.311
 1330SOL    HW2 4890   6.586   0.385   1.161
 1331SOL     OW 4891   6.220   0.683   2.293
 1331SOL    HW1 4892   6.257   0.768   2.330
 1331SOL    HW2 4893   6.174   0.702   2.206
 1332SOL     OW 4894   4.312   2.122   1.455
 1332SOL    HW1 4895   4.227   2.090   1.415
 1332SOL    HW2 4896   4.324   2.082   1.546
 1333SOL     OW 4897   3.502   4.130   4.785
 1333SOL    HW1 4898   3.577   4.094   4.840
 1333SOL    HW2 4899   3.440   4.182   4.844
 1334SOL     OW 4900   1.594   4.074   4.734
 1334SOL    HW1 4901   1.682   4.080   4.780
 1334SOL    HW2 4902   1.530   4.023   4.790
 1335SOL     OW 4903   2.299   6.453   2.882
 1335SOL    HW1 4904   2.289   6.548   2.910
 1335SOL    HW2 4905   2.317   6.396   2.962
 1336SOL     OW 4906   1.450   1.922   6.519
 1336SOL    HW1 4907   1.375   1.989   6.521
 1336SOL    HW2 4908   1.437   1.855   6.592
 1337SOL     OW 4909   2.114   2.139   6.242
 1337SOL    HW1 4910   2.174   2.166   6.167
 1337SOL    HW2 4911   2.164   2.143   6.329
 1338SOL     OW 4912   4.232   4.728   6.558
 1338SOL    HW1 4913   4.301   4.679   6.505
 1338SOL    HW2 4914   4.211   4.815   6.513
 1339SOL     OW 4915   6.975   4.322   6.119
 1339SOL    HW1 4916   0.014   4.279   6.054
 1339SOL    HW2 4917   6.894   4.265   6.129
 1340SOL     OW 4918   1.215   2.584   0.188
 1340SOL    HW1 4919   1.304   2.608   0.148
 1340SOL    HW2 4920   1.193   2.489   0.166
 1341SOL     OW 4921   3.617   0.958   4.324
 1341SOL    HW1 4922   3.523   0.989   4.311
 1341SOL    HW2 4923   3.644   0.972   4.419
 1342SOL     OW 4924   0.476   6.272   6.063
 1342SOL    HW1 4925   0.545   6.321   6.009
 1342SOL    HW2 4926   0.442   6.332   6.136
 1343SOL     OW 4927   3.625   6.317   2.310
 1343SOL    HW1 4928   3.640   6.219   2.297
 1343SOL    HW2 4929   3.710   6.360   2.342
 1344SOL     OW 4930   6.443   1.761   2.805
 1344SOL    HW1 4931   6.433   1.687   2.739
 1344SOL    HW2 4932   6.379   1.748   2.880
 1345SOL     OW 4933   0.603   1.066   3.321
 1345SOL    HW1 4934   0.602   1.160   3.287
 1345SOL    HW2 4935   0.588   1.003   3.245
 1346SOL     OW 4936   0.152   6.908   3.606
 1346SOL    HW1 4937   0.205   6.828   3.634
 1346SOL    HW2 4938   0.201   6.957   3.534
 1347SOL     OW 4939   6.313   6.154   2.994
 1347SOL    HW1 4940   6.253   6.156   3.075
 1347SOL    HW2 4941   6.342   6.247   2.972
 1348SOL     OW 4942   5.689   4.682   4.257
 1348SOL    HW1 4943   5.763   4.628   4.217
 1348SOL    HW2 4944   5.611   4.622   4.275
 1349SOL     OW 4945   4.315   2.905   0.167
 1349SOL    HW1 4946   4.306   2.831   0.101
 1349SOL    HW2 4947   4.227   2.921   0.211
 1350SOL     OW 4948   3.255   5.793   6.729
 1350SOL    HW1 4949   3.220   5.806   6.822
 1350SOL    HW2 4950   3.259   5.695   6.709
 1351SOL     OW 4951   0.023   0.512   4.336
 1351SOL    HW1 4952   0.017   0.427   4.388
 1351SOL    HW2 4953   6.997   0.503   4.251
 1352SOL     OW 4954   6.686   0.765   3.246
 1352SOL    HW1 4955   6.684   0.840   3.180
 1352SOL    HW2 4956   6.633   0.790   3.327
 1353SOL     OW 4957   0.203   4.276   5.156
 1353SOL    HW1 4958   0.122   4.298   5.211
 1353SOL    HW2 4959   0.281   4.257   5.217
 1354SOL     OW 4960   0.532   0.670   1.430
 1354SOL    HW1 4961   0.608   0.730   1.404
 1354SOL    HW2 4962   0.454   0.686   1.370
 1355SOL     OW 4963   5.412   4.350   0.458
 1355SOL    HW1 4964   5.474   4.275   0.433
 1355SOL    HW2 4965   5.317   4.322   0.441
 1356SOL     OW 4966   3.370   3.914   2.828
 1356SOL    HW1 4967   3.377   3.843   2.758
 1356SOL    HW2 4968   3.460   3.927   2.871
 1357SOL     OW 4969   2.319   3.265   6.307
 1357SOL    HW1 4970   2.310   3.180   6.359
 1357SOL    HW2 4971   2.377   3.250   6.227
 1358SOL     OW 4972   1.907   2.678   6.493
 1358SOL    HW1 4973   1.990   2.730   6.510
 1358SOL    HW2 4974   1.863   2.656   6.580
 1359SOL     OW 4975   6.140   3.415   1.489
 1359SOL    HW1 4976   6.129   3.503   1.442
 1359SOL    HW2 4977   6.060   3.399   1.548
 1360SOL     OW 4978   3.718   3.697   3.390
 1360SOL    HW1 4979   3.707   3.767   3.320
 1360SOL    HW2 4980   3.814   3.693   3.419
 1361SOL     OW 4981   0.893   6.487   6.212
 1361SOL    HW1 4982   0.893   6.400   6.261
 1361SOL    HW2 4983   0.812   6.540   6.238
 1362SOL     OW 4984   3.029   3.242   5.886
 1362SOL    HW1 4985   2.982   3.157   5.863
 1362SOL    HW2 4986   2.971   3.320   5.859
 1363SOL     OW 4987   6.788   6.127   3.239
 1363SOL    HW1 4988   6.874   6.129   3.188
 1363SOL    HW2 4989   6.712   6.110   3.176
 1364SOL     OW 4990   6.872   3.155   0.829
 1364SOL    HW1 4991   6.814   3.092   0.881
 1364SOL    HW2 4992   6.885   3.120   0.737
 1365SOL     OW 4993   0.765   3.374   5.608
 1365SOL    HW1 4994   0.669   3.346   5.616
 1365SOL    HW2 4995   0.794   3.418   5.693
 1366SOL     OW 4996   6.906   2.419   0.710
 1366SOL    HW1 4997   6.889   2.388   0.617
 1366SOL    HW2 4998   6.835   2.383   0.771
 1367SOL     OW 4999   0.775   4.237   3.835
 1367SOL    HW1 5000   0.712   4.173   3.790
 1367SOL    HW2 5001   0.869   4.213   3.813
 1368SOL     OW 5002   6.688   0.279   4.470
 1368SOL    HW1 5003   6.788   0.281   4.472
 1368SOL    HW2 5004   6.658   0.210   4.404
 1369SOL     OW 5005   1.688   5.990   2.334
 1369SOL    HW1 5006   1.733   5.906   2.306
 1369SOL    HW2 5007   1.666   6.045   2.254
 1370SOL     OW 5008   6.730   2.177   4.174
 1370SOL    HW1 5009   6.738   2.204   4.078
 1370SOL    HW2 5010   6.797   2.105   4.194
 1371SOL     OW 5011   5.883   1.186   4.494
 1371SOL    HW1 5012   5.944   1.136   4.433
 1371SOL    HW2 5013   5.849   1.268   4.447
 1372SOL     OW 5014   6.486   3.059   0.160
 1372SOL    HW1 5015   6.469   2.960   0.152
 1372SOL    HW2 5016   6.508   3.081   0.254
 1373SOL     OW 5017   4.408   2.786   1.579
 1373SOL    HW1 5018   4.452   2.867   1.618
 1373SOL    HW2 5019   4.470   2.708   1.585
 1374SOL     OW 5020   4.902   3.494   0.922
 1374SOL    HW1 5021   4.963   3.510   1.000
 1374SOL    HW2 5022   4.807   3.491   0.953
 1375SOL     OW 5023   6.948   5.970   5.507
 1375SOL    HW1 5024   0.007   5.936   5.552
 1375SOL    HW2 5025   6.975   6.026   5.428
 1376SOL     OW 5026   2.844   5.136   6.233
 1376SOL    HW1 5027   2.786   5.214   6.211
 1376SOL    HW2 5028   2.905   5.117   6.156
 1377SOL     OW 5029   1.234   2.364   3.612
 1377SOL    HW1 5030   1.232   2.458   3.576
 1377SOL    HW2 5031   1.312   2.315   3.573
 1378SOL     OW 5032   3.706   2.086   4.731
 1378SOL    HW1 5033   3.617   2.093   4.775
 1378SOL    HW2 5034   3.697   2.106   4.633
 1379SOL     OW 5035   5.134   5.028   1.595
 1379SOL    HW1 5036   5.162   4.993   1.684
 1379SOL    HW2 5037   5.053   4.979   1.564
 1380SOL     OW 5038   6.603   6.177   1.840
 1380SOL    HW1 5039   6.688   6.226   1.822
 1380SOL    HW2 5040   6.620   6.078   1.837
 1381SOL     OW 5041   6.036   2.422   5.844
 1381SOL    HW1 5042   6.050   2.500   5.905
 1381SOL    HW2 5043   6.113   2.415   5.780
 1382SOL     OW 5044   4.739   2.784   1.365
 1382SOL    HW1 5045   4.646   2.751   1.349
 1382SOL    HW2 5046   4.753   2.798   1.463
 1383SOL     OW 5047   1.476   0.164   2.168
 1383SOL    HW1 5048   1.533   0.134   2.245
 1383SOL    HW2 5049   1.438   0.084   2.122
 1384SOL     OW 5050   4.963   0.368   0.265
 1384SOL    HW1 5051   4.872   0.328   0.263
 1384SOL    HW2 5052   4.964   0.444   0.330
 1385SOL     OW 5053   1.951   4.949   3.541
 1385SOL    HW1 5054   1.936   5.023   3.606
 1385SOL    HW2 5055   2.007   4.878   3.584
 1386SOL     OW 5056   3.007   6.429   4.152
 1386SOL    HW1 5057   3.092   6.472   4.120
 1386SOL    HW2 5058   2.929   6.481   4.117
 1387SOL     OW 5059   3.911   5.816   1.221
 1387SOL    HW1 5060   3.859   5.763   1.287
 1387SOL    HW2 5061   3.869   5.906   1.209
 1388SOL     OW 5062   5.887   0.482   1.832
 1388SOL    HW1 5063   5.867   0.388   1.857
 1388SOL    HW2 5064   5.979   0.506   1.863
 1389SOL     OW 5065   6.444   0.995   3.256
 1389SOL    HW1 5066   6.381   0.930   3.213
 1389SOL    HW2 5067   6.404   1.086   3.254
 1390SOL     OW 5068   1.099   3.338   6.598
 1390SOL    HW1 5069   1.029   3.326   6.668
 1390SOL    HW2 5070   1.101   3.257   6.539
 1391SOL     OW 5071   6.851   1.247   3.825
 1391SOL    HW1 5072   6.852   1.318   3.896
 1391SOL    HW2 5073   6.938   1.248   3.775
 1392SOL     OW 5074   5.590   5.021   6.134
 1392SOL    HW1 5075   5.603   4.945   6.197
 1392SOL    HW2 5076   5.530   5.090   6.176
 1393SOL     OW 5077   5.962   5.996   5.558
 1393SOL    HW1 5078   6.049   6.035   5.589
 1393SOL    HW2 5079   5.888   6.060   5.579
 1394SOL     OW 5080   3.291   6.106   5.642
 1394SOL    HW1 5081   3.262   6.117   5.547
 1394SOL    HW2 5082   3.389   6.121   5.649
 1395SOL     OW 5083   2.987   4.347   5.825
 1395SOL    HW1 5084   2.997   4.252   5.853
 1395SOL    HW2 5085   2.891   4.372   5.824
 1396SOL     OW 5086   0.907   0.009   3.837
 1396SOL    HW1 5087   0.866   0.075   3.774
 1396SOL    HW2 5088   0.911   0.048   3.928
 1397SOL     OW 5089   6.062   0.695   4.796
 1397SOL    HW1 5090   6.154   0.725   4.774
 1397SOL    HW2 5091   6.053   0.597   4.775
 1398SOL     OW 5092   1.666   1.023   4.898
 1398SOL    HW1 5093   1.762   1.051   4.895
 1398SOL    HW2 5094   1.610   1.088   4.846
 1399SOL     OW 5095   3.751   6.616   1.450
 1399SOL    HW1 5096   3.771   6.604   1.353
 1399SOL    HW2 5097   3.672   6.560   1.475
 1400SOL     OW 5098   0.193   1.872   3.009
 1400SOL    HW1 5099   0.233   1.821   3.085
 1400SOL    HW2 5100   0.165   1.808   2.937
 1401SOL     OW 5101   0.609   1.547   5.484
 1401SOL    HW1 5102   0.611   1.469   5.547
 1401SOL    HW2 5103   0.522   1.549   5.435
 1402SOL     OW 5104   0.081   3.578   6.776
 1402SOL    HW1 5105   0.016   3.612   6.844
 1402SOL    HW2 5106   0.168   3.627   6.785
 1403SOL     OW 5107   3.351   1.266   1.989
 1403SOL    HW1 5108   3.444   1.236   2.009
 1403SOL    HW2 5109   3.323   1.336   2.055
 1404SOL     OW 5110   5.628   0.130   0.373
 1404SOL    HW1 5111   5.638   0.212   0.315
 1404SOL    HW2 5112   5.699   0.131   0.443
 1405SOL     OW 5113   2.038   3.915   0.798
 1405SOL    HW1 5114   2.017   4.013   0.802
 1405SOL    HW2 5115   2.122   3.897   0.848
 1406SOL     OW 5116   1.734   5.144   1.768
 1406SOL    HW1 5117   1.768   5.167   1.859
 1406SOL    HW2 5118   1.652   5.086   1.776
 1407SOL     OW 5119   0.478   1.594   1.927
 1407SOL    HW1 5120   0.448   1.684   1.894
 1407SOL    HW2 5121   0.575   1.582   1.908
 1408SOL     OW 5122   5.380   0.764   5.920
 1408SOL    HW1 5123   5.471   0.724   5.931
 1408SOL    HW2 5124   5.318   0.724   5.987
 1409SOL     OW 5125   0.685   6.998   5.364
 1409SOL    HW1 5126   0.709   0.012   5.453
 1409SOL    HW2 5127   0.606   0.022   5.327
 1410SOL     OW 5128   1.884   3.373   6.514
 1410SOL    HW1 5129   1.981   3.353   6.522
 1410SOL    HW2 5130   1.871   3.457   6.461
 1411SOL     OW 5131   2.583   6.504   3.184
 1411SOL    HW1 5132   2.524   6.442   3.132
 1411SOL    HW2 5133   2.575   6.597   3.147
 1412SOL     OW 5134   0.330   2.058   6.847
 1412SOL    HW1 5135   0.375   2.008   6.774
 1412SOL    HW2 5136   0.286   1.994   6.910
 1413SOL     OW 5137   1.830   0.778   4.922
 1413SOL    HW1 5138   1.793   0.854   4.868
 1413SOL    HW2 5139   1.862   0.706   4.861
 1414SOL     OW 5140   2.846   0.973   1.735
 1414SOL    HW1 5141   2.853   0.901   1.666
 1414SOL    HW2 5142   2.936   1.016   1.748
 1415SOL     OW 5143   2.764   0.301   4.409
 1415SOL    HW1 5144   2.829   0.296   4.485
 1415SOL    HW2 5145   2.682   0.249   4.432
 1416SOL     OW 5146   4.713   4.525   3.430
 1416SOL    HW1 5147   4.712   4.426   3.425
 1416SOL    HW2 5148   4.647   4.563   3.366
 1417SOL     OW 5149   2.285   2.483   0.252
 1417SOL    HW1 5150   2.354   2.413   0.233
 1417SOL    HW2 5151   2.208   2.442   0.300
 1418SOL     OW 5152   3.133   3.003   3.301
 1418SOL    HW1 5153   3.111   2.910   3.274
 1418SOL    HW2 5154   3.058   3.041   3.355
 1419SOL     OW 5155   3.552   6.574   4.427
 1419SOL    HW1 5156   3.479   6.620   4.376
 1419SOL    HW2 5157   3.610   6.643   4.471
 1420SOL     OW 5158   1.821   6.448   1.914
 1420SOL    HW1 5159   1.732   6.479   1.949
 1420SOL    HW2 5160   1.843   6.497   1.830
 1421SOL     OW 5161   1.521   2.683   2.905
 1421SOL    HW1 5162   1.531   2.624   2.985
 1421SOL    HW2 5163   1.429   2.722   2.903
 1422SOL     OW 5164   2.566   4.564   1.891
 1422SOL    HW1 5165   2.585   4.574   1.793
 1422SOL    HW2 5166   2.652   4.554   1.941
 1423SOL     OW 5167   5.148   6.533   2.128
 1423SOL    HW1 5168   5.093   6.615   2.113
 1423SOL    HW2 5169   5.196   6.540   2.215
 1424SOL     OW 5170   6.212   4.313   4.869
 1424SOL    HW1 5171   6.232   4.275   4.960
 1424SOL    HW2 5172   6.266   4.396   4.855
 1425SOL     OW 5173   1.574   6.320   4.204
 1425SOL    HW1 5174   1.519   6.392   4.163
 1425SOL    HW2 5175   1.515   6.258   4.256
 1426SOL     OW 5176   0.914   2.869   5.557
 1426SOL    HW1 5177   0.910   2.949   5.616
 1426SOL    HW2 5178   0.993   2.813   5.580
 1427SOL     OW 5179   0.077   6.845   2.776
 1427SOL    HW1 5180   7.015   6.808   2.741
 1427SOL    HW2 5181   0.074   6.844   2.876
 1428SOL     OW 5182   5.798   2.542   0.856
 1428SOL    HW1 5183   5.813   2.585   0.767
 1428SOL    HW2 5184   5.714   2.577   0.896
 1429SOL     OW 5185   6.346   2.061   0.063
 1429SOL    HW1 5186   6.402   2.123   0.119
 1429SOL    HW2 5187   6.407   1.998   0.013
 1430SOL     OW 5188   1.824   4.630   3.642
 1430SOL    HW1 5189   1.774   4.706   3.685
 1430SOL    HW2 5190   1.760   4.558   3.616
 1431SOL     OW 5191   2.525   2.117   1.280
 1431SOL    HW1 5192   2.602   2.163   1.323
 1431SOL    HW2 5193   2.461   2.185   1.244
 1432SOL     OW 5194   2.832   1.518   3.353
 1432SOL    HW1 5195   2.920   1.537   3.397
 1432SOL    HW2 5196   2.765   1.494   3.423
 1433SOL     OW 5197   4.464   1.296   4.117
 1433SOL    HW1 5198   4.471   1.217   4.055
 1433SOL    HW2 5199   4.474   1.266   4.211
 1434SOL     OW 5200   6.655   0.875   5.441
 1434SOL    HW1 5201   6.721   0.934   5.488
 1434SOL    HW2 5202   6.700   0.791   5.410
 1435SOL     OW 5203   5.935   0.884   2.243
 1435SOL    HW1 5204   5.952   0.875   2.341
 1435SOL    HW2 5205   5.911   0.979   2.222
 1436SOL     OW 5206   5.167   4.183   0.426
 1436SOL    HW1 5207   5.217   4.152   0.508
 1436SOL    HW2 5208   5.126   4.103   0.381
 1437SOL     OW 5209   2.240   2.506   3.860
 1437SOL    HW1 5210   2.274   2.594   3.892
 1437SOL    HW2 5211   2.158   2.520   3.805
 1438SOL     OW 5212   3.294   6.449   1.281
 1438SOL    HW1 5213   3.308   6.447   1.380
 1438SOL    HW2 5214   3.201   6.480   1.261
 1439SOL     OW 5215   0.026   5.804   1.885
 1439SOL    HW1 5216   0.065   5.740   1.952
 1439SOL    HW2 5217   0.035   5.766   1.793
 1440SOL     OW 5218   3.222   3.841   1.132
 1440SOL    HW1 5219   3.267   3.789   1.204
 1440SOL    HW2 5220   3.149   3.786   1.091
 1441SOL     OW 5221   6.031   0.503   2.409
 1441SOL    HW1 5222   6.080   0.426   2.451
 1441SOL    HW2 5223   6.097   0.573   2.382
 1442SOL     OW 5224   6.417   5.973   0.179
 1442SOL    HW1 5225   6.334   5.942   0.225
 1442SOL    HW2 5226   6.494   5.969   0.243
 1443SOL     OW 5227   0.255   2.493   2.582
 1443SOL    HW1 5228   0.294   2.400   2.584
 1443SOL    HW2 5229   0.165   2.490   2.537
 1444SOL     OW 5230   5.386   0.241   0.593
 1444SOL    HW1 5231   5.437   0.172   0.644
 1444SOL    HW2 5232   5.450   0.304   0.549
 1445SOL     OW 5233   0.718   3.097   2.846
 1445SOL    HW1 5234   0.787   3.049   2.901
 1445SOL    HW2 5235   0.681   3.034   2.778
 1446SOL     OW 5236   6.975   0.493   6.926
 1446SOL    HW1 5237   6.977   0.424   6.854
 1446SOL    HW2 5238   6.880   0.515   6.948
 1447SOL     OW 5239   5.620   5.041   3.546
 1447SOL    HW1 5240   5.602   5.139   3.544
 1447SOL    HW2 5241   5.536   4.992   3.571
 1448SOL     OW 5242   6.949   2.600   5.073
 1448SOL    HW1 5243   6.906   2.558   5.152
 1448SOL    HW2 5244   6.923   2.550   4.990
 1449SOL     OW 5245   0.933   3.985   5.410
 1449SOL    HW1 5246   1.023   3.973   5.368
 1449SOL    HW2 5247   0.874   3.908   5.384
 1450SOL     OW 5248   1.075   2.996   5.996
 1450SOL    HW1 5249   1.047   2.900   6.005
 1450SOL    HW2 5250   0.997   3.055   6.015
 1451SOL     OW 5251   1.332   6.234   2.340
 1451SOL    HW1 5252   1.303   6.330   2.345
 1451SOL    HW2 5253   1.266   6.182   2.286
 1452SOL     OW 5254   4.501   2.679   5.315
 1452SOL    HW1 5255   4.570   2.610   5.293
 1452SOL    HW2 5256   4.414   2.634   5.334
 1453SOL     OW 5257   0.723   4.305   5.182
 1453SOL    HW1 5258   0.759   4.291   5.274
 1453SOL    HW2 5259   0.624   4.315   5.187
 1454SOL     OW 5260   2.351   1.977   3.034
 1454SOL    HW1 5261   2.421   1.991   3.104
 1454SOL    HW2 5262   2.333   2.063   2.986
 1455SOL     OW 5263   1.442   6.221   2.600
 1455SOL    HW1 5264   1.412   6.185   2.511
 1455SOL    HW2 5265   1.539   6.201   2.612
 1456SOL     OW 5266   6.332   6.210   6.020
 1456SOL    HW1 5267   6.429   6.186   6.021
 1456SOL    HW2 5268   6.282   6.148   6.081
 1457SOL     OW 5269   0.737   4.303   0.827
 1457SOL    HW1 5270   0.824   4.337   0.790
 1457SOL    HW2 5271   0.661   4.351   0.784
 1458SOL     OW 5272   5.122   4.877   5.081
 1458SOL    HW1 5273   5.093   4.959   5.129
 1458SOL    HW2 5274   5.222   4.870   5.084
 1459SOL     OW 5275   4.283   6.318   6.149
 1459SOL    HW1 5276   4.244   6.349   6.062
 1459SOL    HW2 5277   4.316   6.224   6.139
 1460SOL     OW 5278   1.611   7.024   4.658
 1460SOL    HW1 5279   1.669   0.005   4.577
 1460SOL    HW2 5280   1.556   0.083   4.666
 1461SOL     OW 5281   0.375   3.511   3.357
 1461SOL    HW1 5282   0.277   3.512   3.337
 1461SOL    HW2 5283   0.419   3.590   3.314
 1462SOL     OW 5284   1.081   1.007   6.687
 1462SOL    HW1 5285   1.129   0.927   6.652
 1462SOL    HW2 5286   0.987   1.007   6.653
 1463SOL     OW 5287   1.327   4.857   5.713
 1463SOL    HW1 5288   1.228   4.850   5.710
 1463SOL    HW2 5289   1.363   4.807   5.791
 1464SOL     OW 5290   6.840   4.192   3.152
 1464SOL    HW1 5291   6.929   4.159   3.183
 1464SOL    HW2 5292   6.805   4.132   3.079
 1465SOL     OW 5293   1.601   2.255   3.962
 1465SOL    HW1 5294   1.623   2.167   4.005
 1465SOL    HW2 5295   1.602   2.327   4.031
 1466SOL     OW 5296   4.088   2.222   2.362
 1466SOL    HW1 5297   4.078   2.318   2.337
 1466SOL    HW2 5298   4.002   2.188   2.400
 1467SOL     OW 5299   1.895   1.582   4.239
 1467SOL    HW1 5300   1.967   1.649   4.256
 1467SOL    HW2 5301   1.846   1.563   4.324
 1468SOL     OW 5302   2.270   5.266   1.704
 1468SOL    HW1 5303   2.316   5.351   1.679
 1468SOL    HW2 5304   2.171   5.282   1.711
 1469SOL     OW 5305   6.877   5.919   2.861
 1469SOL    HW1 5306   6.896   5.999   2.919
 1469SOL    HW2 5307   6.779   5.904   2.856
 1470SOL     OW 5308   0.273   2.435   0.928
 1470SOL    HW1 5309   0.225   2.395   0.850
 1470SOL    HW2 5310   0.207   2.468   0.995
 1471SOL     OW 5311   0.795   0.172   0.626
 1471SOL    HW1 5312   0.799   0.073   0.634
 1471SOL    HW2 5313   0.862   0.203   0.558
 1472SOL     OW 5314   2.482   6.378   6.566
 1472SOL    HW1 5315   2.466   6.354   6.470
 1472SOL    HW2 5316   2.519   6.299   6.614
 1473SOL     OW 5317   2.884   5.560   4.621
 1473SOL    HW1 5318   2.816   5.488   4.635
 1473SOL    HW2 5319   2.974   5.525   4.648
 1474SOL     OW 5320   4.158   4.820   1.640
 1474SOL    HW1 5321   4.238   4.848   1.694
 1474SOL    HW2 5322   4.145   4.885   1.564
 1475SOL     OW 5323   5.210   1.333   6.820
 1475SOL    HW1 5324   5.165   1.391   6.888
 1475SOL    HW2 5325   5.170   1.242   6.822
 1476SOL     OW 5326   3.081   1.146   1.531
 1476SOL    HW1 5327   3.110   1.127   1.437
 1476SOL    HW2 5328   3.150   1.111   1.594
 1477SOL     OW 5329   4.033   0.326   0.464
 1477SOL    HW1 5330   3.997   0.235   0.480
 1477SOL    HW2 5331   4.101   0.348   0.534
 1478SOL     OW 5332   5.342   6.550   5.724
 1478SOL    HW1 5333   5.296   6.638   5.728
 1478SOL    HW2 5334   5.342   6.516   5.629
 1479SOL     OW 5335   3.371   3.708   1.373
 1479SOL    HW1 5336   3.400   3.773   1.443
 1479SOL    HW2 5337   3.447   3.648   1.348
 1480SOL     OW 5338   2.243   6.910   6.189
 1480SOL    HW1 5339   2.293   6.924   6.274
 1480SOL    HW2 5340   2.304   6.924   6.111
 1481SOL     OW 5341   5.512   2.939   5.579
 1481SOL    HW1 5342   5.437   3.003   5.564
 1481SOL    HW2 5343   5.477   2.845   5.577
 1482SOL     OW 5344   4.359   0.752   0.674
 1482SOL    HW1 5345   4.387   0.697   0.753
 1482SOL    HW2 5346   4.313   0.693   0.607
 1483SOL     OW 5347   5.422   2.374   5.327
 1483SOL    HW1 5348   5.409   2.383   5.425
 1483SOL    HW2 5349   5.390   2.457   5.281
 1484SOL     OW 5350   3.807   5.124   3.858
 1484SOL    HW1 5351   3.710   5.147   3.850
 1484SOL    HW2 5352   3.857   5.203   3.895
 1485SOL     OW 5353   5.382   0.931   3.904
 1485SOL    HW1 5354   5.456   0.932   3.837
 1485SOL    HW2 5355   5.336   0.842   3.901
 1486SOL     OW 5356   4.795   6.777   3.588
 1486SOL    HW1 5357   4.890   6.806   3.581
 1486SOL    HW2 5358   4.740   6.850   3.630
 1487SOL     OW 5359   0.433   0.747   6.663
 1487SOL    HW1 5360   0.391   0.685   6.729
 1487SOL    HW2 5361   0.366   0.816   6.635
 1488SOL     OW 5362   6.146   0.333   3.215
 1488SOL    HW1 5363   6.218   0.310   3.280
 1488SOL    HW2 5364   6.099   0.249   3.187
 1489SOL     OW 5365   4.069   4.618   6.311
 1489SOL    HW1 5366   4.003   4.688   6.283
 1489SOL    HW2 5367   4.103   4.640   6.403
 1490SOL     OW 5368   0.390   3.184   1.127
 1490SOL    HW1 5369   0.462   3.130   1.083
 1490SOL    HW2 5370   0.318   3.203   1.060
 1491SOL     OW 5371   6.969   4.100   2.024
 1491SOL    HW1 5372   6.918   4.184   2.043
 1491SOL    HW2 5373   0.021   4.091   2.088
 1492SOL     OW 5374   6.757   0.243   2.127
 1492SOL    HW1 5375   6.724   0.285   2.212
 1492SOL    HW2 5376   6.679   0.217   2.070
 1493SOL     OW 5377   3.912   1.267   6.407
 1493SOL    HW1 5378   3.836   1.223   6.360
 1493SOL    HW2 5379   3.879   1.308   6.493
 1494SOL     OW 5380   5.416   2.539   6.587
 1494SOL    HW1 5381   5.460   2.495   6.666
 1494SOL    HW2 5382   5.323   2.567   6.613
 1495SOL     OW 5383   6.739   3.491   3.367
 1495SOL    HW1 5384   6.796   3.458   3.441
 1495SOL    HW2 5385   6.762   3.443   3.282
 1496SOL     OW 5386   6.939   0.502   0.191
 1496SOL    HW1 5387   6.879   0.531   0.116
 1496SOL    HW2 5388   7.023   0.464   0.153
 1497SOL     OW 5389   5.011   3.157   2.409
 1497SOL    HW1 5390   5.090   3.217   2.425
 1497SOL    HW2 5391   4.998   3.098   2.489
 1498SOL     OW 5392   2.734   4.755   1.028
 1498SOL    HW1 5393   2.813   4.725   1.082
 1498SOL    HW2 5394   2.666   4.795   1.089
 1499SOL     OW 5395   0.538   3.721   5.725
 1499SOL    HW1 5396   0.588   3.636   5.708
 1499SOL    HW2 5397   0.603   3.794   5.747
 1500SOL     OW 5398   1.414   6.122   6.744
 1500SOL    HW1 5399   1.506   6.083   6.737
 1500SOL    HW2 5400   1.381   6.113   6.838
 1501SOL     OW 5401   6.103   1.692   6.737
 1501SOL    HW1 5402   6.093   1.605   6.689
 1501SOL    HW2 5403   6.027   1.703   6.802
 1502SOL     OW 5404   5.908   1.437   6.353
 1502SOL    HW1 5405   5.878   1.398   6.266
 1502SOL    HW2 5406   6.001   1.472   6.344
 1503SOL     OW 5407   0.808   2.988   2.420
 1503SOL    HW1 5408   0.757   2.967   2.503
 1503SOL    HW2 5409   0.754   2.962   2.340
 1504SOL     OW 5410   0.757   0.165   3.655
 1504SOL    HW1 5411   0.659   0.185   3.657
 1504SOL    HW2 5412   0.780   0.117   3.570
 1505SOL     OW 5413   5.100   6.428   5.825
 1505SOL    HW1 5414   5.144   6.357   5.880
 1505SOL    HW2 5415   5.168   6.473   5.767
 1506SOL     OW 5416   1.201   0.502   0.838
 1506SOL    HW1 5417   1.259   0.561   0.894
 1506SOL    HW2 5418   1.108   0.539   0.836
 1507SOL     OW 5419   0.736   1.435   4.275
 1507SOL    HW1 5420   0.748   1.382   4.359
 1507SOL    HW2 5421   0.638   1.456   4.263
 1508SOL     OW 5422   0.717   1.729   0.839
 1508SOL    HW1 5423   0.762   1.640   0.845
 1508SOL    HW2 5424   0.661   1.743   0.920
 1509SOL     OW 5425   5.106   1.335   5.202
 1509SOL    HW1 5426   5.025   1.307   5.254
 1509SOL    HW2 5427   5.078   1.364   5.110
 1510SOL     OW 5428   4.315   0.008   4.199
 1510SOL    HW1 5429   4.387   6.997   4.259
 1510SOL    HW2 5430   4.231   0.020   4.252
 1511SOL     OW 5431   3.081   3.818   4.080
 1511SOL    HW1 5432   3.067   3.837   3.982
 1511SOL    HW2 5433   3.074   3.903   4.131
 1512SOL     OW 5434   5.899   5.507   1.463
 1512SOL    HW1 5435   5.866   5.584   1.518
 1512SOL    HW2 5436   5.836   5.491   1.387
 1513SOL     OW 5437   3.311   0.232   4.804
 1513SOL    HW1 5438   3.369   0.197   4.878
 1513SOL    HW2 5439   3.329   0.180   4.721
 1514SOL     OW 5440   3.483   2.522   5.574
 1514SOL    HW1 5441   3.474   2.445   5.512
 1514SOL    HW2 5442   3.393   2.551   5.605
 1515SOL     OW 5443   6.575   1.341   2.372
 1515SOL    HW1 5444   6.584   1.437   2.345
 1515SOL    HW2 5445   6.619   1.283   2.304
 1516SOL     OW 5446   6.090   5.811   5.327
 1516SOL    HW1 5447   6.088   5.843   5.232
 1516SOL    HW2 5448   6.053   5.882   5.387
 1517SOL     OW 5449   4.129   6.953   3.259
 1517SOL    HW1 5450   4.052   7.008   3.226
 1517SOL    HW2 5451   4.094   6.881   3.320
 1518SOL     OW 5452   6.162   2.944   0.653
 1518SOL    HW1 5453   6.140   2.880   0.727
 1518SOL    HW2 5454   6.261   2.946   0.640
 1519SOL     OW 5455   6.995   5.281   0.841
 1519SOL    HW1 5456   0.016   5.198   0.874
 1519SOL    HW2 5457   0.010   5.361   0.886
 1520SOL     OW 5458   0.877   4.594   1.733
 1520SOL    HW1 5459   0.808   4.572   1.802
 1520SOL    HW2 5460   0.850   4.677   1.684
 1521SOL     OW 5461   2.094   4.978   0.397
 1521SOL    HW1 5462   2.038   5.043   0.448
 1521SOL    HW2 5463   2.190   5.006   0.400
 1522SOL     OW 5464   5.266   5.163   4.490
 1522SOL    HW1 5465   5.342   5.099   4.496
 1522SOL    HW2 5466   5.194   5.123   4.433
 1523SOL     OW 5467   3.684   6.975   6.849
 1523SOL    HW1 5468   3.592   6.984   6.810
 1523SOL    HW2 5469   3.732   0.038   6.841
 1524SOL     OW 5470   2.876   2.143   2.344
 1524SOL    HW1 5471   2.929   2.145   2.259
 1524SOL    HW2 5472   2.799   2.206   2.337
 1525SOL     OW 5473   6.072   2.534   1.337
 1525SOL    HW1 5474   6.046   2.438   1.328
 1525SOL    HW2 5475   6.067   2.561   1.433
 1526SOL     OW 5476   0.309   1.255   6.853
 1526SOL    HW1 5477   0.347   1.329   6.796
 1526SOL    HW2 5478   0.209   1.262   6.854
 1527SOL     OW 5479   4.074   1.029   4.762
 1527SOL    HW1 5480   4.173   1.017   4.763
 1527SOL    HW2 5481   4.030   0.941   4.742
 1528SOL     OW 5482   4.327   4.803   1.082
 1528SOL    HW1 5483   4.345   4.843   1.172
 1528SOL    HW2 5484   4.321   4.875   1.014
 1529SOL     OW 5485   5.105   1.074   6.874
 1529SOL    HW1 5486   5.066   1.041   6.960
 1529SOL    HW2 5487   5.043   1.049   6.799
 1530SOL     OW 5488   3.336   0.538   1.671
 1530SOL    HW1 5489   3.372   0.553   1.579
 1530SOL    HW2 5490   3.391   0.469   1.718
 1531SOL     OW 5491   4.599   0.626   4.755
 1531SOL    HW1 5492   4.636   0.535   4.735
 1531SOL    HW2 5493   4.540   0.621   4.835
 1532SOL     OW 5494   3.370   4.510   5.635
 1532SOL    HW1 5495   3.389   4.564   5.717
 1532SOL    HW2 5496   3.453   4.503   5.580
 1533SOL     OW 5497   5.609   5.792   0.401
 1533SOL    HW1 5498   5.619   5.736   0.484
 1533SOL    HW2 5499   5.683   5.771   0.337
 1534SOL     OW 5500   3.858   5.539   6.746
 1534SOL    HW1 5501   3.849   5.632   6.709
 1534SOL    HW2 5502   3.906   5.482   6.680
 1535SOL     OW 5503   5.569   6.145   4.945
 1535SOL    HW1 5504   5.513   6.144   4.862
 1535SOL    HW2 5505   5.528   6.084   5.013
 1536SOL     OW 5506   3.936   5.040   0.282
 1536SOL    HW1 5507   3.960   5.108   0.213
 1536SOL    HW2 5508   3.865   5.077   0.342
 1537SOL     OW 5509   3.999   5.885   3.404
 1537SOL    HW1 5510   3.985   5.961   3.340
 1537SOL    HW2 5511   4.017   5.801   3.353
 1538SOL     OW 5512   3.254   0.853   0.195
 1538SOL    HW1 5513   3.335   0.901   0.161
 1538SOL    HW2 5514   3.248   0.763   0.153
 1539SOL     OW 5515   4.989   3.160   2.143
 1539SOL    HW1 5516   4.901   3.122   2.115
 1539SOL    HW2 5517   4.995   3.161   2.243
 1540SOL     OW 5518   1.047   0.059   5.259
 1540SOL    HW1 5519   1.006   6.996   5.289
 1540SOL    HW2 5520   1.145   0.047   5.246
 1541SOL     OW 5521   3.414   3.324   4.196
 1541SOL    HW1 5522   3.332   3.347   4.249
 1541SOL    HW2 5523   3.400   3.348   4.100
 1542SOL     OW 5524   6.290   6.842   1.819
 1542SOL    HW1 5525   6.238   6.811   1.899
 1542SOL    HW2 5526   6.381   6.870   1.848
 1543SOL     OW 5527   3.851   5.239   6.300
 1543SOL    HW1 5528   3.801   5.240   6.213
 1543SOL    HW2 5529   3.862   5.145   6.331
 1544SOL     OW 5530   2.894   3.601   3.697
 1544SOL    HW1 5531   2.974   3.584   3.755
 1544SOL    HW2 5532   2.816   3.625   3.755
 1545SOL     OW 5533   6.173   0.944   2.766
 1545SOL    HW1 5534   6.173   1.044   2.766
 1545SOL    HW2 5535   6.090   0.910   2.810
 1546SOL     OW 5536   5.336   5.883   5.803
 1546SOL    HW1 5537   5.244   5.844   5.796
 1546SOL    HW2 5538   5.403   5.810   5.798
 1547SOL     OW 5539   1.914   3.750   1.373
 1547SOL    HW1 5540   1.928   3.848   1.361
 1547SOL    HW2 5541   1.903   3.729   1.470
 1548SOL     OW 5542   5.741   3.548   7.009
 1548SOL    HW1 5543   5.771   3.614   0.054
 1548SOL    HW2 5544   5.695   3.472   0.030
 1549SOL     OW 5545   4.529   1.378   3.679
 1549SOL    HW1 5546   4.583   1.321   3.618
 1549SOL    HW2 5547   4.582   1.400   3.761
 1550SOL     OW 5548   3.002   3.137   1.476
 1550SOL    HW1 5549   2.992   3.225   1.522
 1550SOL    HW2 5550   2.959   3.066   1.532
 1551SOL     OW 5551   1.279   5.292   6.884
 1551SOL    HW1 5552   1.226   5.230   6.825
 1551SOL    HW2 5553   1.375   5.289   6.857
 1552SOL     OW 5554   1.827   5.188   0.818
 1552SOL    HW1 5555   1.907   5.191   0.879
 1552SOL    HW2 5556   1.774   5.272   0.828
 1553SOL     OW 5557   0.109   1.455   6.524
 1553SOL    HW1 5558   0.037   1.414   6.580
 1553SOL    HW2 5559   0.185   1.483   6.583
 1554SOL     OW 5560   2.872   2.338   3.708
 1554SOL    HW1 5561   2.802   2.370   3.771
 1554SOL    HW2 5562   2.849   2.366   3.615
 1555SOL     OW 5563   6.126   3.179   6.686
 1555SOL    HW1 5564   6.114   3.083   6.660
 1555SOL    HW2 5565   6.041   3.214   6.723
 1556SOL     OW 5566   1.928   1.105   5.810
 1556SOL    HW1 5567   1.850   1.134   5.754
 1556SOL    HW2 5568   1.983   1.185   5.835
 1557SOL     OW 5569   1.930   3.987   5.964
 1557SOL    HW1 5570   1.831   3.987   5.946
 1557SOL    HW2 5571   1.979   3.975   5.878
 1558SOL     OW 5572   6.324   0.452   4.242
 1558SOL    HW1 5573   6.322   0.462   4.143
 1558SOL    HW2 5574   6.237   0.483   4.280
 1559SOL     OW 5575   1.351   3.350   6.407
 1559SOL    HW1 5576   1.363   3.439   6.450
 1559SOL    HW2 5577   1.422   3.336   6.338
 1560SOL     OW 5578   0.369   0.481   6.691
 1560SOL    HW1 5579   0.395   0.385   6.697
 1560SOL    HW2 5580   0.393   0.517   6.601
 1561SOL     OW 5581   4.896   6.413   3.634
 1561SOL    HW1 5582   4.809   6.453   3.605
 1561SOL    HW2 5583   4.971   6.458   3.585
 1562SOL     OW 5584   4.421   6.106   2.180
 1562SOL    HW1 5585   4.430   6.201   2.210
 1562SOL    HW2 5586   4.508   6.075   2.142
 1563SOL     OW 5587   3.007   0.415   5.503
 1563SOL    HW1 5588   3.092   0.361   5.500
 1563SOL    HW2 5589   3.017   0.497   5.447
 1564SOL     OW 5590   1.340   0.586   3.147
 1564SOL    HW1 5591   1.327   0.518   3.219
 1564SOL    HW2 5592   1.272   0.573   3.076
 1565SOL     OW 5593   4.691   4.296   2.839
 1565SOL    HW1 5594   4.688   4.244   2.753
 1565SOL    HW2 5595   4.704   4.233   2.915
 1566SOL     OW 5596   5.909   3.266   3.099
 1566SOL    HW1 5597   5.829   3.210   3.120
 1566SOL    HW2 5598   5.989   3.207   3.085
 1567SOL     OW 5599   5.960   5.992   6.919
 1567SOL    HW1 5600   6.039   6.048   6.895
 1567SOL    HW2 5601   5.876   6.040   6.890
 1568SOL     OW 5602   1.487   0.361   0.507
 1568SOL    HW1 5603   1.404   0.312   0.536
 1568SOL    HW2 5604   1.514   0.330   0.416
 1569SOL     OW 5605   4.640   6.023   3.675
 1569SOL    HW1 5606   4.552   6.045   3.632
 1569SOL    HW2 5607   4.714   6.061   3.621
 1570SOL     OW 5608   2.825   1.089   1.124
 1570SOL    HW1 5609   2.807   1.049   1.213
 1570SOL    HW2 5610   2.908   1.048   1.085
 1571SOL     OW 5611   5.755   3.268   0.880
 1571SOL    HW1 5612   5.827   3.270   0.949
 1571SOL    HW2 5613   5.744   3.175   0.844
 1572SOL     OW 5614   0.230   0.712   2.974
 1572SOL    HW1 5615   0.133   0.705   3.000
 1572SOL    HW2 5616   0.270   0.620   2.975
 1573SOL     OW 5617   5.184   0.708   1.810
 1573SOL    HW1 5618   5.122   0.630   1.815
 1573SOL    HW2 5619   5.161   0.773   1.882
 1574SOL     OW 5620   0.502   2.274   1.245
 1574SOL    HW1 5621   0.599   2.249   1.245
 1574SOL    HW2 5622   0.490   2.360   1.196
 1575SOL     OW 5623   2.749   1.996   0.420
 1575SOL    HW1 5624   2.671   1.952   0.465
 1575SOL    HW2 5625   2.724   2.089   0.393
 1576SOL     OW 5626   5.957   6.035   4.330
 1576SOL    HW1 5627   5.977   6.132   4.344
 1576SOL    HW2 5628   6.018   5.998   4.259
 1577SOL     OW 5629   2.494   1.558   5.005
 1577SOL    HW1 5630   2.506   1.591   5.099
 1577SOL    HW2 5631   2.505   1.635   4.942
 1578SOL     OW 5632   5.730   3.367   5.604
 1578SOL    HW1 5633   5.636   3.369   5.636
 1578SOL    HW2 5634   5.747   3.281   5.557
 1579SOL     OW 5635   0.306   1.593   3.521
 1579SOL    HW1 5636   0.302   1.508   3.573
 1579SOL    HW2 5637   0.215   1.613   3.484
 1580SOL     OW 5638   2.617   3.849   5.311
 1580SOL    HW1 5639   2.687   3.821   5.245
 1580SOL    HW2 5640   2.544   3.898   5.263
 1581SOL     OW 5641   6.549   4.481   4.191
 1581SOL    HW1 5642   6.638   4.509   4.155
 1581SOL    HW2 5643   6.534   4.524   4.280
 1582SOL     OW 5644   0.950   5.122   4.461
 1582SOL    HW1 5645   0.872   5.109   4.400
 1582SOL    HW2 5646   1.034   5.127   4.407
 1583SOL     OW 5647   1.882   2.598   4.069
 1583SOL    HW1 5648   1.935   2.654   4.006
 1583SOL    HW2 5649   1.812   2.653   4.114
 1584SOL     OW 5650   2.142   6.610   5.167
 1584SOL    HW1 5651   2.110   6.666   5.091
 1584SOL    HW2 5652   2.105   6.646   5.253
 1585SOL     OW 5653   5.324   1.990   3.209
 1585SOL    HW1 5654   5.319   1.921   3.137
 1585SOL    HW2 5655   5.394   1.964   3.276
 1586SOL     OW 5656   4.096   3.728   1.962
 1586SOL    HW1 5657   4.194   3.740   1.944
 1586SOL    HW2 5658   4.045   3.742   1.877
 1587SOL     OW 5659   2.702   5.378   6.214
 1587SOL    HW1 5660   2.746   5.430   6.287
 1587SOL    HW2 5661   2.619   5.336   6.248
 1588SOL     OW 5662   4.769   1.825   3.116
 1588SOL    HW1 5663   4.803   1.870   3.198
 1588SOL    HW2 5664   4.697   1.760   3.141
 1589SOL     OW 5665   5.654   3.596   3.619
 1589SOL    HW1 5666   5.625   3.692   3.626
 1589SOL    HW2 5667   5.686   3.579   3.526
 1590SOL     OW 5668   1.550   6.371   6.703
 1590SOL    HW1 5669   1.542   6.440   6.774
 1590SOL    HW2 5670   1.545   6.280   6.744
 1591SOL     OW 5671   0.733   4.854   2.527
 1591SOL    HW1 5672   0.812   4.808   2.568
 1591SOL    HW2 5673   0.655   4.791   2.526
 1592SOL     OW 5674   3.015   3.666   1.086
 1592SOL    HW1 5675   3.011   3.621   1.176
 1592SOL    HW2 5676   2.949   3.623   1.024
 1593SOL     OW 5677   0.818   5.993   5.040
 1593SOL    HW1 5678   0.840   5.981   4.943
 1593SOL    HW2 5679   0.758   5.919   5.070
 1594SOL     OW 5680   0.319   5.533   3.153
 1594SOL    HW1 5681   0.269   5.518   3.068
 1594SOL    HW2 5682   0.258   5.518   3.231
 1595SOL     OW 5683   0.108   4.746   6.504
 1595SOL    HW1 5684   0.071   4.783   6.419
 1595SOL    HW2 5685   0.039   4.687   6.547
 1596SOL     OW 5686   1.549   4.203   5.088
 1596SOL    HW1 5687   1.555   4.103   5.091
 1596SOL    HW2 5688   1.609   4.242   5.157
 1597SOL     OW 5689   2.674   5.880   0.930
 1597SOL    HW1 5690   2.667   5.864   1.029
 1597SOL    HW2 5691   2.662   5.977   0.911
 1598SOL     OW 5692   0.685   3.867   0.642
 1598SOL    HW1 5693   0.677   3.770   0.665
 1598SOL    HW2 5694   0.662   3.880   0.545
 1599SOL     OW 5695   4.291   3.708   6.200
 1599SOL    HW1 5696   4.378   3.661   6.208
 1599SOL    HW2 5697   4.265   3.747   6.288
 1600SOL     OW 5698   5.258   1.615   4.919
 1600SOL    HW1 5699   5.265   1.677   4.997
 1600SOL    HW2 5700   5.182   1.552   4.934
 1601SOL     OW 5701   2.242   4.668   4.550
 1601SOL    HW1 5702   2.304   4.624   4.485
 1601SOL    HW2 5703   2.244   4.619   4.637
 1602SOL     OW 5704   1.806   5.803   3.418
 1602SOL    HW1 5705   1.852   5.738   3.479
 1602SOL    HW2 5706   1.841   5.793   3.325
 1603SOL     OW 5707   1.344   6.690   1.964
 1603SOL    HW1 5708   1.295   6.702   1.878
 1603SOL    HW2 5709   1.298   6.620   2.019
 1604SOL     OW 5710   5.724   5.213   6.448
 1604SOL    HW1 5711   5.647   5.207   6.511
 1604SOL    HW2 5712   5.763   5.122   6.434
 1605SOL     OW 5713   6.691   0.080   2.397
 1605SOL    HW1 5714   6.705   0.177   2.383
 1605SOL    HW2 5715   6.768   0.041   2.447
 1606SOL     OW 5716   4.553   0.559   5.550
 1606SOL    HW1 5717   4.465   0.536   5.509
 1606SOL    HW2 5718   4.627   0.515   5.498
 1607SOL     OW 5719   4.657   2.836   1.076
 1607SOL    HW1 5720   4.615   2.827   1.166
 1607SOL    HW2 5721   4.715   2.917   1.074
 1608SOL     OW 5722   1.836   0.170   6.393
 1608SOL    HW1 5723   1.930   0.139   6.406
 1608SOL    HW2 5724   1.778   0.092   6.373
 1609SOL     OW 5725   6.304   2.437   6.000
 1609SOL    HW1 5726   6.234   2.366   5.989
 1609SOL    HW2 5727   6.287   2.487   6.085
 1610SOL     OW 5728   5.710   4.456   4.743
 1610SOL    HW1 5729   5.686   4.359   4.737
 1610SOL    HW2 5730   5.638   4.504   4.793
 1611SOL     OW 5731   3.425   3.067   1.938
 1611SOL    HW1 5732   3.396   2.980   1.977
 1611SOL    HW2 5733   3.371   3.087   1.856
 1612SOL     OW 5734   2.300   1.689   5.359
 1612SOL    HW1 5735   2.365   1.737   5.299
 1612SOL    HW2 5736   2.242   1.629   5.303
 1613SOL     OW 5737   2.039   5.999   0.847
 1613SOL    HW1 5738   2.062   6.065   0.775
 1613SOL    HW2 5739   2.093   6.018   0.929
 1614SOL     OW 5740   6.780   3.493   0.000
 1614SOL    HW1 5741   6.747   3.429   6.955
 1614SOL    HW2 5742   6.720   3.573   0.002
 1615SOL     OW 5743   0.045   4.712   0.448
 1615SOL    HW1 5744   0.132   4.663   0.449
 1615SOL    HW2 5745   0.011   4.721   0.542
 1616SOL     OW 5746   4.182   2.210   6.671
 1616SOL    HW1 5747   4.245   2.262   6.730
 1616SOL    HW2 5748   4.123   2.153   6.728
 1617SOL     OW 5749   6.186   0.238   2.414
 1617SOL    HW1 5750   6.256   0.306   2.393
 1617SOL    HW2 5751   6.166   0.184   2.332
 1618SOL     OW 5752   0.015   3.655   1.832
 1618SOL    HW1 5753   7.003   3.720   1.899
 1618SOL    HW2 5754   0.114   3.663   1.827
 1619SOL     OW 5755   1.052   3.489   4.290
 1619SOL    HW1 5756   1.038   3.395   4.322
 1619SOL    HW2 5757   1.076   3.547   4.368
 1620SOL     OW 5758   1.834   5.862   0.728
 1620SOL    HW1 5759   1.880   5.939   0.772
 1620SOL    HW2 5760   1.897   5.818   0.665
 1621SOL     OW 5761   0.714   0.735   6.651
 1621SOL    HW1 5762   0.727   0.694   6.742
 1621SOL    HW2 5763   0.616   0.736   6.630
 1622SOL     OW 5764   1.416   1.865   4.530
 1622SOL    HW1 5765   1.418   1.929   4.606
 1622SOL    HW2 5766   1.483   1.893   4.461
 1623SOL     OW 5767   2.372   2.985   6.394
 1623SOL    HW1 5768   2.418   2.965   6.308
 1623SOL    HW2 5769   2.432   2.961   6.470
 1624SOL     OW 5770   2.565   0.902   6.530
 1624SOL    HW1 5771   2.520   0.895   6.619
 1624SOL    HW2 5772   2.502   0.873   6.459
 1625SOL     OW 5773   1.319   5.241   1.765
 1625SOL    HW1 5774   1.287   5.152   1.735
 1625SOL    HW2 5775   1.388   5.230   1.837
 1626SOL     OW 5776   2.123   2.536   6.918
 1626SOL    HW1 5777   2.218   2.507   6.928
 1626SOL    HW2 5778   2.087   2.564   7.006
 1627SOL     OW 5779   6.355   1.835   4.089
 1627SOL    HW1 5780   6.284   1.905   4.076
 1627SOL    HW2 5781   6.428   1.872   4.146
 1628SOL     OW 5782   3.282   4.942   0.449
 1628SOL    HW1 5783   3.352   4.908   0.386
 1628SOL    HW2 5784   3.198   4.888   0.437
 1629SOL     OW 5785   3.156   2.090   4.481
 1629SOL    HW1 5786   3.163   2.095   4.382
 1629SOL    HW2 5787   3.247   2.103   4.522
 1630SOL     OW 5788   0.616   5.803   5.257
 1630SOL    HW1 5789   0.625   5.889   5.306
 1630SOL    HW2 5790   0.673   5.733   5.300
 1631SOL     OW 5791   6.731   0.468   5.924
 1631SOL    HW1 5792   6.733   0.471   5.824
 1631SOL    HW2 5793   6.819   0.436   5.958
 1632SOL     OW 5794   0.581   0.999   6.778
 1632SOL    HW1 5795   0.646   1.040   6.713
 1632SOL    HW2 5796   0.488   1.009   6.743
 1633SOL     OW 5797   5.772   2.737   2.744
 1633SOL    HW1 5798   5.722   2.687   2.673
 1633SOL    HW2 5799   5.707   2.778   2.808
 1634SOL     OW 5800   3.932   5.415   6.492
 1634SOL    HW1 5801   3.912   5.341   6.428
 1634SOL    HW2 5802   3.905   5.502   6.452
 1635SOL     OW 5803   6.566   5.603   5.097
 1635SOL    HW1 5804   6.476   5.642   5.078
 1635SOL    HW2 5805   6.619   5.667   5.152
 1636SOL     OW 5806   2.631   5.111   1.567
 1636SOL    HW1 5807   2.543   5.144   1.601
 1636SOL    HW2 5808   2.663   5.035   1.623
 1637SOL     OW 5809   0.020   2.427   2.788
 1637SOL    HW1 5810   0.022   2.420   2.689
 1637SOL    HW2 5811   6.990   2.507   2.814
 1638SOL     OW 5812   6.710   2.938   3.978
 1638SOL    HW1 5813   6.677   3.031   3.997
 1638SOL    HW2 5814   6.764   2.938   3.893
 1639SOL     OW 5815   5.584   5.490   2.769
 1639SOL    HW1 5816   5.642   5.415   2.737
 1639SOL    HW2 5817   5.629   5.536   2.845
 1640SOL     OW 5818   6.123   1.946   0.383
 1640SOL    HW1 5819   6.060   2.022   0.397
 1640SOL    HW2 5820   6.135   1.930   0.285
 1641SOL     OW 5821   5.409   3.157   3.608
 1641SOL    HW1 5822   5.386   3.069   3.566
 1641SOL    HW2 5823   5.466   3.209   3.545
 1642SOL     OW 5824   6.796   3.329   0.258
 1642SOL    HW1 5825   6.801   3.233   0.232
 1642SOL    HW2 5826   6.788   3.385   0.176
 1643SOL     OW 5827   3.710   6.672   5.055
 1643SOL    HW1 5828   3.754   6.714   5.134
 1643SOL    HW2 5829   3.778   6.652   4.985
 1644SOL     OW 5830   3.211   2.281   1.619
 1644SOL    HW1 5831   3.207   2.182   1.609
 1644SOL    HW2 5832   3.120   2.320   1.607
 1645SOL     OW 5833   3.002   6.180   5.954
 1645SOL    HW1 5834   2.905   6.157   5.959
 1645SOL    HW2 5835   3.013   6.280   5.955
 1646SOL     OW 5836   3.007   5.182   1.236
 1646SOL    HW1 5837   2.993   5.193   1.137
 1646SOL    HW2 5838   2.959   5.256   1.284
 1647SOL     OW 5839   5.872   2.667   3.308
 1647SOL    HW1 5840   5.806   2.740   3.322
 1647SOL    HW2 5841   5.928   2.657   3.390
 1648SOL     OW 5842   5.460   6.846   2.141
 1648SOL    HW1 5843   5.521   6.792   2.199
 1648SOL    HW2 5844   5.416   6.786   2.074
 1649SOL     OW 5845   2.984   0.514   2.798
 1649SOL    HW1 5846   2.930   0.596   2.814
 1649SOL    HW2 5847   3.063   0.536   2.740
 1650SOL     OW 5848   2.902   6.989   4.007
 1650SOL    HW1 5849   2.993   6.958   3.980
 1650SOL    HW2 5850   2.869   6.932   4.082
 1651SOL     OW 5851   0.533   0.223   0.387
 1651SOL    HW1 5852   0.489   0.256   0.303
 1651SOL    HW2 5853   0.587   0.141   0.366
 1652SOL     OW 5854   2.887   1.911   0.915
 1652SOL    HW1 5855   2.986   1.922   0.929
 1652SOL    HW2 5856   2.841   1.999   0.932
 1653SOL     OW 5857   0.076   5.145   1.251
 1653SOL    HW1 5858   0.042   5.224   1.199
 1653SOL    HW2 5859   0.117   5.177   1.337
 1654SOL     OW 5860   6.615   3.160   2.501
 1654SOL    HW1 5861   6.569   3.248   2.512
 1654SOL    HW2 5862   6.547   3.087   2.498
 1655SOL     OW 5863   5.527   4.548   6.308
 1655SOL    HW1 5864   5.585   4.474   6.343
 1655SOL    HW2 5865   5.575   4.595   6.235
 1656SOL     OW 5866   1.623   4.451   3.576
 1656SOL    HW1 5867   1.653   4.371   3.524
 1656SOL    HW2 5868   1.571   4.512   3.517
 1657SOL     OW 5869   1.238   1.094   5.784
 1657SOL    HW1 5870   1.164   1.026   5.791
 1657SOL    HW2 5871   1.251   1.138   5.872
 1658SOL     OW 5872   5.985   6.344   3.148
 1658SOL    HW1 5873   5.944   6.291   3.074
 1658SOL    HW2 5874   6.075   6.307   3.169
 1659SOL     OW 5875   3.485   2.101   6.852
 1659SOL    HW1 5876   3.575   2.136   6.830
 1659SOL    HW2 5877   3.432   2.170   6.902
 1660SOL     OW 5878   0.443   5.222   3.542
 1660SOL    HW1 5879   0.478   5.213   3.448
 1660SOL    HW2 5880   0.436   5.318   3.565
 1661SOL     OW 5881   3.168   1.868   2.549
 1661SOL    HW1 5882   3.185   1.926   2.628
 1661SOL    HW2 5883   3.096   1.803   2.570
 1662SOL     OW 5884   6.388   2.008   3.139
 1662SOL    HW1 5885   6.446   2.085   3.165
 1662SOL    HW2 5886   6.292   2.037   3.138
 1663SOL     OW 5887   3.138   0.265   3.442
 1663SOL    HW1 5888   3.218   0.268   3.382
 1663SOL    HW2 5889   3.055   0.287   3.389
 1664SOL     OW 5890   2.125   0.487   4.264
 1664SOL    HW1 5891   2.196   0.536   4.214
 1664SOL    HW2 5892   2.115   0.395   4.225
 1665SOL     OW 5893   0.107   1.455   2.682
 1665SOL    HW1 5894   0.028   1.413   2.639
 1665SOL    HW2 5895   0.132   1.403   2.764
 1666SOL     OW 5896   6.094   2.866   6.660
 1666SOL    HW1 5897   6.139   2.820   6.736
 1666SOL    HW2 5898   6.129   2.831   6.573
 1667SOL     OW 5899   6.134   6.611   0.120
 1667SOL    HW1 5900   6.230   6.595   0.095
 1667SOL    HW2 5901   6.090   6.667   0.051
 1668SOL     OW 5902   4.610   0.052   5.043
 1668SOL    HW1 5903   4.527   0.009   5.079
 1668SOL    HW2 5904   4.690   0.008   5.083
 1669SOL     OW 5905   5.423   6.058   0.217
 1669SOL    HW1 5906   5.442   6.150   0.251
 1669SOL    HW2 5907   5.392   6.063   0.122
 1670SOL     OW 5908   6.202   5.444   5.882
 1670SOL    HW1 5909   6.131   5.509   5.908
 1670SOL    HW2 5910   6.216   5.378   5.956
 1671SOL     OW 5911   4.346   2.914   1.056
 1671SOL    HW1 5912   4.249   2.901   1.033
 1671SOL    HW2 5913   4.403   2.869   0.988
 1672SOL     OW 5914   2.153   4.399   2.597
 1672SOL    HW1 5915   2.144   4.456   2.678
 1672SOL    HW2 5916   2.229   4.335   2.610
 1673SOL     OW 5917   6.326   2.938   5.122
 1673SOL    HW1 5918   6.247   2.877   5.129
 1673SOL    HW2 5919   6.410   2.883   5.125
 1674SOL     OW 5920   1.288   4.169   0.904
 1674SOL    HW1 5921   1.348   4.146   0.981
 1674SOL    HW2 5922   1.214   4.101   0.898
 1675SOL     OW 5923   4.270   0.926   6.459
 1675SOL    HW1 5924   4.305   0.833   6.446
 1675SOL    HW2 5925   4.185   0.922   6.513
 1676SOL     OW 5926   2.384   1.490   2.276
 1676SOL    HW1 5927   2.380   1.510   2.178
 1676SOL    HW2 5928   2.312   1.425   2.299
 1677SOL     OW 5929   5.867   2.215   5.958
 1677SOL    HW1 5930   5.930   2.163   6.015
 1677SOL    HW2 5931   5.918   2.257   5.883
 1678SOL     OW 5932   5.333   5.477   2.964
 1678SOL    HW1 5933   5.352   5.419   3.043
 1678SOL    HW2 5934   5.402   5.460   2.893
 1679SOL     OW 5935   1.523   3.626   5.582
 1679SOL    HW1 5936   1.596   3.674   5.631
 1679SOL    HW2 5937   1.555   3.600   5.491
 1680SOL     OW 5938   0.877   1.602   4.092
 1680SOL    HW1 5939   0.819   1.529   4.129
 1680SOL    HW2 5940   0.844   1.628   4.002
 1681SOL     OW 5941   6.418   4.997   1.025
 1681SOL    HW1 5942   6.344   5.018   1.089
 1681SOL    HW2 5943   6.436   5.076   0.966
 1682SOL     OW 5944   0.189   3.158   4.837
 1682SOL    HW1 5945   0.131   3.078   4.856
 1682SOL    HW2 5946   0.271   3.128   4.789
 1683SOL     OW 5947   4.398   5.056   0.800
 1683SOL    HW1 5948   4.497   5.055   0.782
 1683SOL    HW2 5949   4.364   5.150   0.794
 1684SOL     OW 5950   0.805   6.503   4.737
 1684SOL    HW1 5951   0.756   6.486   4.823
 1684SOL    HW2 5952   0.805   6.420   4.682
 1685SOL     OW 5953   1.873   1.421   6.571
 1685SOL    HW1 5954   1.964   1.443   6.607
 1685SOL    HW2 5955   1.869   1.444   6.474
 1686SOL     OW 5956   1.399   5.569   5.573
 1686SOL    HW1 5957   1.366   5.662   5.587
 1686SOL    HW2 5958   1.449   5.564   5.487
 1687SOL     OW 5959   1.834   4.478   2.030
 1687SOL    HW1 5960   1.811   4.525   1.944
 1687SOL    HW2 5961   1.930   4.449   2.027
 1688SOL     OW 5962   1.304   1.547   2.967
 1688SOL    HW1 5963   1.362   1.518   2.891
 1688SOL    HW2 5964   1.357   1.547   3.051
 1689SOL     OW 5965   3.361   2.051   2.124
 1689SOL    HW1 5966   3.461   2.055   2.128
 1689SOL    HW2 5967   3.331   2.072   2.030
 1690SOL     OW 5968   1.744   1.768   2.487
 1690SOL    HW1 5969   1.718   1.802   2.577
 1690SOL    HW2 5970   1.797   1.684   2.497
 1691SOL     OW 5971   5.267   3.642   3.311
 1691SOL    HW1 5972   5.258   3.553   3.266
 1691SOL    HW2 5973   5.202   3.706   3.270
 1692SOL     OW 5974   0.011   7.001   1.231
 1692SOL    HW1 5975   0.060   0.058   1.264
 1692SOL    HW2 5976   0.048   6.919   1.276
 1693SOL     OW 5977   1.861   2.608   3.724
 1693SOL    HW1 5978   1.785   2.561   3.678
 1693SOL    HW2 5979   1.942   2.606   3.665
 1694SOL     OW 5980   4.436   5.827   4.802
 1694SOL    HW1 5981   4.358   5.835   4.864
 1694SOL    HW2 5982   4.500   5.902   4.818
 1695SOL     OW 5983   2.060   2.303   5.391
 1695SOL    HW1 5984   1.967   2.303   5.356
 1695SOL    HW2 5985   2.079   2.389   5.438
 1696SOL     OW 5986   4.865   5.506   0.197
 1696SOL    HW1 5987   4.859   5.561   0.280
 1696SOL    HW2 5988   4.944   5.535   0.143
 1697SOL     OW 5989   0.950   6.693   1.120
 1697SOL    HW1 5990   0.946   6.653   1.212
 1697SOL    HW2 5991   1.030   6.657   1.071
 1698SOL     OW 5992   4.788   1.789   1.104
 1698SOL    HW1 5993   4.691   1.769   1.095
 1698SOL    HW2 5994   4.821   1.829   1.018
 1699SOL     OW 5995   2.529   2.717   0.904
 1699SOL    HW1 5996   2.472   2.640   0.877
 1699SOL    HW2 5997   2.624   2.686   0.914
 1700SOL     OW 5998   6.448   2.400   3.449
 1700SOL    HW1 5999   6.375   2.342   3.412
 1700SOL    HW2 6000   6.509   2.345   3.506
 1701SOL     OW 6001   5.643   2.211   4.812
 1701SOL    HW1 6002   5.622   2.130   4.866
 1701SOL    HW2 6003   5.742   2.214   4.794
 1702SOL     OW 6004   6.432   3.605   1.694
 1702SOL    HW1 6005   6.408   3.626   1.788
 1702SOL    HW2 6006   6.530   3.584   1.688
 1703SOL     OW 6007   2.775   3.841   1.669
 1703SOL    HW1 6008   2.813   3.861   1.759
 1703SOL    HW2 6009   2.782   3.743   1.650
 1704SOL     OW 6010   0.767   1.402   0.814
 1704SOL    HW1 6011   0.845   1.421   0.754
 1704SOL    HW2 6012   0.784   1.441   0.904
 1705SOL     OW 6013   3.682   2.391   1.188
 1705SOL    HW1 6014   3.723   2.421   1.274
 1705SOL    HW2 6015   3.719   2.302   1.163
 1706SOL     OW 6016   4.128   0.498   0.947
 1706SOL    HW1 6017   4.069   0.575   0.971
 1706SOL    HW2 6018   4.117   0.425   1.016
 1707SOL     OW 6019   4.469   1.528   2.562
 1707SOL    HW1 6020   4.515   1.522   2.650
 1707SOL    HW2 6021   4.473   1.622   2.529
 1708SOL     OW 6022   6.575   6.053   3.037
 1708SOL    HW1 6023   6.615   5.991   2.969
 1708SOL    HW2 6024   6.553   6.140   2.993
 1709SOL     OW 6025   2.559   6.745   2.437
 1709SOL    HW1 6026   2.656   6.724   2.425
 1709SOL    HW2 6027   2.536   6.829   2.387
 1710SOL     OW 6028   0.158   4.041   3.609
 1710SOL    HW1 6029   0.180   3.944   3.621
 1710SOL    HW2 6030   0.128   4.057   3.515
 1711SOL     OW 6031   1.582   4.533   5.158
 1711SOL    HW1 6032   1.571   4.632   5.152
 1711SOL    HW2 6033   1.550   4.491   5.074
 1712SOL     OW 6034   0.611   4.151   0.226
 1712SOL    HW1 6035   0.643   4.140   0.132
 1712SOL    HW2 6036   0.675   4.208   0.277
 1713SOL     OW 6037   1.859   2.579   1.621
 1713SOL    HW1 6038   1.872   2.511   1.549
 1713SOL    HW2 6039   1.935   2.644   1.620
 1714SOL     OW 6040   3.791   1.915   6.926
 1714SOL    HW1 6041   3.850   1.841   6.959
 1714SOL    HW2 6042   3.697   1.883   6.921
 1715SOL     OW 6043   6.910   3.000   3.438
 1715SOL    HW1 6044   6.846   3.072   3.409
 1715SOL    HW2 6045   6.863   2.937   3.500
 1716SOL     OW 6046   6.262   0.157   1.172
 1716SOL    HW1 6047   6.291   0.140   1.266
 1716SOL    HW2 6048   6.174   0.204   1.172
 1717SOL     OW 6049   2.297   6.007   6.904
 1717SOL    HW1 6050   2.272   5.915   6.874
 1717SOL    HW2 6051   2.349   6.002   6.989
 1718SOL     OW 6052   2.146   3.538   0.048
 1718SOL    HW1 6053   2.116   3.468   0.112
 1718SOL    HW2 6054   2.072   3.557   7.007
 1719SOL     OW 6055   2.107   3.009   1.317
 1719SOL    HW1 6056   2.098   2.973   1.224
 1719SOL    HW2 6057   2.073   3.102   1.320
 1720SOL     OW 6058   6.721   1.571   0.933
 1720SOL    HW1 6059   6.638   1.586   0.879
 1720SOL    HW2 6060   6.801   1.589   0.877
 1721SOL     OW 6061   1.386   6.173   2.865
 1721SOL    HW1 6062   1.462   6.224   2.907
 1721SOL    HW2 6063   1.370   6.207   2.773
 1722SOL     OW 6064   5.648   0.205   2.688
 1722SOL    HW1 6065   5.588   0.132   2.657
 1722SOL    HW2 6066   5.633   0.287   2.633
 1723SOL     OW 6067   6.237   2.692   2.982
 1723SOL    HW1 6068   6.156   2.635   2.986
 1723SOL    HW2 6069   6.246   2.744   3.067
 1724SOL     OW 6070   5.988   0.832   0.225
 1724SOL    HW1 6071   5.999   0.931   0.216
 1724SOL    HW2 6072   5.904   0.804   0.178
 1725SOL     OW 6073   3.448   4.559   0.164
 1725SOL    HW1 6074   3.418   4.471   0.202
 1725SOL    HW2 6075   3.466   4.549   0.066
 1726SOL     OW 6076   6.754   4.791   4.590
 1726SOL    HW1 6077   6.770   4.758   4.497
 1726SOL    HW2 6078   6.696   4.873   4.587
 1727SOL     OW 6079   3.889   3.888   4.720
 1727SOL    HW1 6080   3.845   3.811   4.766
 1727SOL    HW2 6081   3.931   3.856   4.635
 1728SOL     OW 6082   4.891   4.455   4.581
 1728SOL    HW1 6083   4.953   4.455   4.660
 1728SOL    HW2 6084   4.942   4.480   4.499
 1729SOL     OW 6085   1.783   3.953   3.289
 1729SOL    HW1 6086   1.743   3.861   3.285
 1729SOL    HW2 6087   1.771   3.990   3.381
 1730SOL     OW 6088   6.757   1.397   4.880
 1730SOL    HW1 6089   6.716   1.375   4.791
 1730SOL    HW2 6090   6.855   1.414   4.868
 1731SOL     OW 6091   2.144   4.963   1.869
 1731SOL    HW1 6092   2.212   4.893   1.890
 1731SOL    HW2 6093   2.119   4.958   1.773
 1732SOL     OW 6094   2.213   4.752   0.073
 1732SOL    HW1 6095   2.247   4.736   7.005
 1732SOL    HW2 6096   2.214   4.666   0.125
 1733SOL     OW 6097   1.420   3.893   2.486
 1733SOL    HW1 6098   1.450   3.973   2.537
 1733SOL    HW2 6099   1.462   3.893   2.396
 1734SOL     OW 6100   4.482   2.853   1.281
 1734SOL    HW1 6101   4.410   2.875   1.216
 1734SOL    HW2 6102   4.478   2.916   1.358
 1735SOL     OW 6103   5.966   5.944   1.615
 1735SOL    HW1 6104   6.006   5.951   1.524
 1735SOL    HW2 6105   6.005   5.865   1.662
 1736SOL     OW 6106   4.875   2.724   6.860
 1736SOL    HW1 6107   4.873   2.808   6.916
 1736SOL    HW2 6108   4.969   2.703   6.835
 1737SOL     OW 6109   2.418   6.938   3.782
 1737SOL    HW1 6110   2.434   6.839   3.775
 1737SOL    HW2 6111   2.406   6.977   3.691
 1738SOL     OW 6112   2.055   2.764   2.989
 1738SOL    HW1 6113   2.008   2.686   2.947
 1738SOL    HW2 6114   2.042   2.845   2.933
 1739SOL     OW 6115   4.403   2.261   4.949
 1739SOL    HW1 6116   4.481   2.317   4.975
 1739SOL    HW2 6117   4.319   2.300   4.987
 1740SOL     OW 6118   6.824   1.161   6.421
 1740SOL    HW1 6119   6.735   1.205   6.417
 1740SOL    HW2 6120   6.880   1.205   6.491
 1741SOL     OW 6121   2.091   0.744   2.797
 1741SOL    HW1 6122   2.187   0.720   2.786
 1741SOL    HW2 6123   2.078   0.793   2.883
 1742SOL     OW 6124   4.998   6.880   5.867
 1742SOL    HW1 6125   5.021   6.973   5.839
 1742SOL    HW2 6126   4.899   6.869   5.864
 1743SOL     OW 6127   1.930   1.189   2.062
 1743SOL    HW1 6128   1.981   1.105   2.081
 1743SOL    HW2 6129   1.891   1.224   2.148
 1744SOL     OW 6130   2.179   0.534   1.555
 1744SOL    HW1 6131   2.117   0.570   1.624
 1744SOL    HW2 6132   2.134   0.534   1.466
 1745SOL     OW 6133   6.653   1.793   4.012
 1745SOL    HW1 6134   6.626   1.705   4.052
 1745SOL    HW2 6135   6.572   1.840   3.978
 1746SOL     OW 6136   2.951   5.909   6.225
 1746SOL    HW1 6137   3.049   5.913   6.209
 1746SOL    HW2 6138   2.933   5.864   6.312
 1747SOL     OW 6139   4.978   6.978   1.876
 1747SOL    HW1 6140   5.017   0.003   1.798
 1747SOL    HW2 6141   4.927   0.018   1.934
 1748SOL     OW 6142   6.062   1.636   3.834
 1748SOL    HW1 6143   6.050   1.582   3.751
 1748SOL    HW2 6144   6.025   1.728   3.819
 1749SOL     OW 6145   3.924   6.826   6.261
 1749SOL    HW1 6146   3.940   6.733   6.294
 1749SOL    HW2 6147   3.938   6.829   6.162
 1750SOL     OW 6148   5.447   1.372   2.830
 1750SOL    HW1 6149   5.538   1.343   2.801
 1750SOL    HW2 6150   5.426   1.329   2.918
 1751SOL     OW 6151   2.744   4.708   4.778
 1751SOL    HW1 6152   2.685   4.640   4.735
 1751SOL    HW2 6153   2.761   4.682   4.873
 1752SOL     OW 6154   6.533   2.115   0.836
 1752SOL    HW1 6155   6.620   2.067   0.837
 1752SOL    HW2 6156   6.479   2.086   0.756
 1753SOL     OW 6157   0.676   0.128   0.022
 1753SOL    HW1 6158   0.767   0.120   7.007
 1753SOL    HW2 6159   0.629   0.040   0.017
 1754SOL     OW 6160   3.485   3.815   0.535
 1754SOL    HW1 6161   3.493   3.856   0.445
 1754SOL    HW2 6162   3.525   3.876   0.603
 1755SOL     OW 6163   5.354   4.703   1.683
 1755SOL    HW1 6164   5.255   4.703   1.694
 1755SOL    HW2 6165   5.377   4.713   1.586
 1756SOL     OW 6166   6.149   5.006   4.755
 1756SOL    HW1 6167   6.104   5.048   4.676
 1756SOL    HW2 6168   6.122   4.910   4.762
 1757SOL     OW 6169   1.781   6.806   5.003
 1757SOL    HW1 6170   1.761   6.777   5.096
 1757SOL    HW2 6171   1.875   6.784   4.980
 1758SOL     OW 6172   3.020   1.270   3.242
 1758SOL    HW1 6173   3.087   1.254   3.315
 1758SOL    HW2 6174   3.054   1.340   3.180
 1759SOL     OW 6175   0.273   4.607   6.368
 1759SOL    HW1 6176   0.368   4.633   6.385
 1759SOL    HW2 6177   0.212   4.661   6.427
 1760SOL     OW 6178   6.271   1.835   1.426
 1760SOL    HW1 6179   6.202   1.814   1.358
 1760SOL    HW2 6180   6.360   1.844   1.382
 1761SOL     OW 6181   6.790   0.692   0.768
 1761SOL    HW1 6182   6.700   0.724   0.737
 1761SOL    HW2 6183   6.798   0.594   0.748
 1762SOL     OW 6184   6.268   2.126   5.233
 1762SOL    HW1 6185   6.347   2.110   5.175
 1762SOL    HW2 6186   6.284   2.204   5.293
 1763SOL     OW 6187   2.102   3.936   4.350
 1763SOL    HW1 6188   2.076   3.906   4.258
 1763SOL    HW2 6189   2.022   3.967   4.399
 1764SOL     OW 6190   2.155   3.936   2.761
 1764SOL    HW1 6191   2.203   3.956   2.676
 1764SOL    HW2 6192   2.142   3.837   2.770
 1765SOL     OW 6193   3.293   1.205   7.006
 1765SOL    HW1 6194   3.196   1.207   0.007
 1765SOL    HW2 6195   3.328   1.298   7.001
 1766SOL     OW 6196   5.726   2.518   4.655
 1766SOL    HW1 6197   5.708   2.438   4.711
 1766SOL    HW2 6198   5.736   2.491   4.559
 1767SOL     OW 6199   5.069   4.120   2.677
 1767SOL    HW1 6200   5.114   4.193   2.626
 1767SOL    HW2 6201   5.082   4.033   2.628
 1768SOL     OW 6202   4.422   0.168   4.897
 1768SOL    HW1 6203   4.497   0.133   4.953
 1768SOL    HW2 6204   4.383   0.093   4.843
 1769SOL     OW 6205   3.974   2.116   4.308
 1769SOL    HW1 6206   3.981   2.063   4.392
 1769SOL    HW2 6207   4.063   2.156   4.286
 1770SOL     OW 6208   1.594   5.639   4.622
 1770SOL    HW1 6209   1.662   5.673   4.686
 1770SOL    HW2 6210   1.511   5.613   4.672
 1771SOL     OW 6211   2.573   5.766   6.914
 1771SOL    HW1 6212   2.476   5.769   6.888
 1771SOL    HW2 6213   2.624   5.829   6.856
 1772SOL     OW 6214   3.645   0.304   3.954
 1772SOL    HW1 6215   3.682   0.396   3.942
 1772SOL    HW2 6216   3.675   0.268   4.042
 1773SOL     OW 6217   2.607   5.255   5.749
 1773SOL    HW1 6218   2.567   5.227   5.661
 1773SOL    HW2 6219   2.587   5.352   5.765
 1774SOL     OW 6220   4.434   5.642   1.905
 1774SOL    HW1 6221   4.517   5.651   1.850
 1774SOL    HW2 6222   4.446   5.689   1.992
 1775SOL     OW 6223   1.306   3.876   2.881
 1775SOL    HW1 6224   1.284   3.863   2.977
 1775SOL    HW2 6225   1.391   3.828   2.859
 1776SOL     OW 6226   3.934   6.383   4.396
 1776SOL    HW1 6227   3.839   6.408   4.411
 1776SOL    HW2 6228   3.943   6.283   4.398
 1777SOL     OW 6229   3.814   5.636   6.399
 1777SOL    HW1 6230   3.895   5.676   6.355
 1777SOL    HW2 6231   3.776   5.702   6.464
 1778SOL     OW 6232   4.472   3.706   5.837
 1778SOL    HW1 6233   4.411   3.705   5.916
 1778SOL    HW2 6234   4.451   3.629   5.777
 1779SOL     OW 6235   4.618   0.349   4.804
 1779SOL    HW1 6236   4.551   0.292   4.852
 1779SOL    HW2 6237   4.697   0.294   4.780
 1780SOL     OW 6238   3.350   2.930   6.809
 1780SOL    HW1 6239   3.348   2.969   6.900
 1780SOL    HW2 6240   3.279   2.860   6.801
 1781SOL     OW 6241   3.763   6.048   2.580
 1781SOL    HW1 6242   3.812   6.055   2.666
 1781SOL    HW2 6243   3.720   5.958   2.573
 1782SOL     OW 6244   3.006   1.668   2.909
 1782SOL    HW1 6245   3.032   1.648   2.814
 1782SOL    HW2 6246   2.907   1.679   2.915
 1783SOL     OW 6247   2.012   5.792   5.920
 1783SOL    HW1 6248   1.962   5.832   5.997
 1783SOL    HW2 6249   2.107   5.778   5.946
 1784SOL     OW 6250   4.190   1.212   6.400
 1784SOL    HW1 6251   4.217   1.301   6.436
 1784SOL    HW2 6252   4.091   1.200   6.410
 1785SOL     OW 6253   6.144   4.065   2.945
 1785SOL    HW1 6254   6.171   3.973   2.918
 1785SOL    HW2 6255   6.079   4.101   2.878
 1786SOL     OW 6256   2.200   2.818   0.021
 1786SOL    HW1 6257   2.146   2.734   0.024
 1786SOL    HW2 6258   2.139   2.897   0.030
 1787SOL     OW 6259   2.583   1.262   5.061
 1787SOL    HW1 6260   2.538   1.341   5.021
 1787SOL    HW2 6261   2.582   1.269   5.161
 1788SOL     OW 6262   2.800   3.735   6.445
 1788SOL    HW1 6263   2.802   3.791   6.362
 1788SOL    HW2 6264   2.735   3.660   6.434
 1789SOL     OW 6265   5.718   1.592   2.433
 1789SOL    HW1 6266   5.731   1.531   2.511
 1789SOL    HW2 6267   5.790   1.661   2.432
 1790SOL     OW 6268   3.964   6.559   3.922
 1790SOL    HW1 6269   3.977   6.557   3.823
 1790SOL    HW2 6270   3.931   6.649   3.950
 1791SOL     OW 6271   6.308   0.418   3.535
 1791SOL    HW1 6272   6.383   0.383   3.591
 1791SOL    HW2 6273   6.339   0.498   3.483
 1792SOL     OW 6274   6.099   3.268   5.254
 1792SOL    HW1 6275   6.195   3.274   5.226
 1792SOL    HW2 6276   6.093   3.248   5.352
 1793SOL     OW 6277   6.070   6.922   3.869
 1793SOL    HW1 6278   6.115   6.884   3.950
 1793SOL    HW2 6279   6.111   6.884   3.786
 1794SOL     OW 6280   4.909   6.266   5.603
 1794SOL    HW1 6281   4.940   6.192   5.543
 1794SOL    HW2 6282   4.978   6.281   5.674
 1795SOL     OW 6283   1.139   2.203   1.304
 1795SOL    HW1 6284   1.134   2.276   1.236
 1795SOL    HW2 6285   1.105   2.118   1.263
 1796SOL     OW 6286   2.673   0.709   5.373
 1796SOL    HW1 6287   2.674   0.775   5.449
 1796SOL    HW2 6288   2.585   0.662   5.372
 1797SOL     OW 6289   1.440   0.027   0.382
 1797SOL    HW1 6290   1.341   0.017   0.373
 1797SOL    HW2 6291   1.468   0.114   0.342
 1798SOL     OW 6292   4.590   2.205   3.848
 1798SOL    HW1 6293   4.652   2.240   3.777
 1798SOL    HW2 6294   4.634   2.213   3.938
 1799SOL     OW 6295   6.937   2.826   5.407
 1799SOL    HW1 6296   6.983   2.737   5.412
 1799SOL    HW2 6297   6.973   2.887   5.477
 1800SOL     OW 6298   4.103   4.512   1.652
 1800SOL    HW1 6299   4.006   4.504   1.671
 1800SOL    HW2 6300   4.117   4.568   1.570
 1801SOL     OW 6301   0.236   0.198   1.855
 1801SOL    HW1 6302   0.238   0.277   1.793
 1801SOL    HW2 6303   0.145   0.158   1.856
 1802SOL     OW 6304   5.143   5.356   4.287
 1802SOL    HW1 6305   5.184   5.292   4.352
 1802SOL    HW2 6306   5.056   5.389   4.323
 1803SOL     OW 6307   6.951   5.317   6.339
 1803SOL    HW1 6308   7.009   5.389   6.376
 1803SOL    HW2 6309   6.995   5.275   6.259
 1804SOL     OW 6310   2.517   3.674   5.500
 1804SOL    HW1 6311   2.418   3.674   5.491
 1804SOL    HW2 6312   2.556   3.745   5.441
 1805SOL     OW 6313   5.391   4.071   6.256
 1805SOL    HW1 6314   5.409   4.054   6.353
 1805SOL    HW2 6315   5.354   3.987   6.214
 1806SOL     OW 6316   0.460   0.228   6.664
 1806SOL    HW1 6317   0.418   0.201   6.750
 1806SOL    HW2 6318   0.548   0.273   6.682
 1807SOL     OW 6319   5.132   2.836   4.732
 1807SOL    HW1 6320   5.084   2.780   4.799
 1807SOL    HW2 6321   5.121   2.797   4.641
 1808SOL     OW 6322   0.423   4.374   5.562
 1808SOL    HW1 6323   0.398   4.433   5.639
 1808SOL    HW2 6324   0.348   4.311   5.542
 1809SOL     OW 6325   1.937   2.424   4.992
 1809SOL    HW1 6326   2.033   2.439   5.016
 1809SOL    HW2 6327   1.879   2.489   5.041
 1810SOL     OW 6328   2.835   6.669   3.833
 1810SOL    HW1 6329   2.802   6.762   3.819
 1810SOL    HW2 6330   2.904   6.647   3.764
 1811SOL     OW 6331   5.727   5.930   3.181
 1811SOL    HW1 6332   5.740   6.010   3.239
 1811SOL    HW2 6333   5.651   5.875   3.217
 1812SOL     OW 6334   4.213   5.891   5.005
 1812SOL    HW1 6335   4.175   5.983   4.997
 1812SOL    HW2 6336   4.141   5.823   4.990
 1813SOL     OW 6337   6.162   4.271   0.676
 1813SOL    HW1 6338   6.260   4.262   0.660
 1813SOL    HW2 6339   6.145   4.344   0.742
 1814SOL     OW 6340   5.251   0.025   2.174
 1814SOL    HW1 6341   5.330   6.987   2.172
 1814SOL    HW2 6342   5.170   6.999   2.206
 1815SOL     OW 6343   0.582   2.111   2.447
 1815SOL    HW1 6344   0.677   2.130   2.473
 1815SOL    HW2 6345   0.574   2.114   2.347
 1816SOL     OW 6346   2.850   3.559   0.886
 1816SOL    HW1 6347   2.821   3.467   0.860
 1816SOL    HW2 6348   2.827   3.623   0.813
 1817SOL     OW 6349   2.804   6.745   2.284
 1817SOL    HW1 6350   2.754   6.748   2.197
 1817SOL    HW2 6351   2.811   6.650   2.314
 1818SOL     OW 6352   1.371   0.170   3.151
 1818SOL    HW1 6353   1.380   0.255   3.204
 1818SOL    HW2 6354   1.463   0.138   3.125
 1819SOL     OW 6355   1.149   4.291   2.103
 1819SOL    HW1 6356   1.098   4.206   2.088
 1819SOL    HW2 6357   1.232   4.290   2.048
 1820SOL     OW 6358   3.860   1.133   2.809
 1820SOL    HW1 6359   3.832   1.228   2.794
 1820SOL    HW2 6360   3.896   1.095   2.724
 1821SOL     OW 6361   0.976   1.520   2.319
 1821SOL    HW1 6362   0.893   1.554   2.362
 1821SOL    HW2 6363   1.001   1.580   2.242
 1822SOL     OW 6364   3.428   2.476   1.090
 1822SOL    HW1 6365   3.508   2.441   1.139
 1822SOL    HW2 6366   3.357   2.500   1.156
 1823SOL     OW 6367   3.612   6.177   3.419
 1823SOL    HW1 6368   3.604   6.085   3.379
 1823SOL    HW2 6369   3.709   6.199   3.431
 1824SOL     OW 6370   4.039   2.398   1.091
 1824SOL    HW1 6371   3.984   2.480   1.105
 1824SOL    HW2 6372   4.078   2.368   1.178
 1825SOL     OW 6373   1.166   0.243   2.335
 1825SOL    HW1 6374   1.143   0.152   2.371
 1825SOL    HW2 6375   1.098   0.270   2.267
 1826SOL     OW 6376   3.011   1.507   1.312
 1826SOL    HW1 6377   3.088   1.548   1.361
 1826SOL    HW2 6378   2.926   1.527   1.360
 1827SOL     OW 6379   0.502   4.994   2.216
 1827SOL    HW1 6380   0.529   4.918   2.157
 1827SOL    HW2 6381   0.580   5.025   2.270
 1828SOL     OW 6382   0.335   2.300   6.760
 1828SOL    HW1 6383   0.324   2.203   6.783
 1828SOL    HW2 6384   0.245   2.344   6.755
 1829SOL     OW 6385   4.981   0.175   2.996
 1829SOL    HW1 6386   4.991   0.078   3.017
 1829SOL    HW2 6387   4.884   0.200   2.998
 1830SOL     OW 6388   5.384   5.923   3.559
 1830SOL    HW1 6389   5.346   5.851   3.502
 1830SOL    HW2 6390   5.464   5.889   3.608
 1831SOL     OW 6391   5.667   6.499   2.903
 1831SOL    HW1 6392   5.617   6.533   2.824
 1831SOL    HW2 6393   5.603   6.460   2.970
 1832SOL     OW 6394   5.504   2.087   0.977
 1832SOL    HW1 6395   5.454   2.009   0.941
 1832SOL    HW2 6396   5.440   2.161   0.998
 1833SOL     OW 6397   5.545   0.669   4.680
 1833SOL    HW1 6398   5.578   0.632   4.767
 1833SOL    HW2 6399   5.488   0.601   4.635
 1834SOL     OW 6400   3.019   4.143   0.161
 1834SOL    HW1 6401   2.962   4.165   0.240
 1834SOL    HW2 6402   3.091   4.212   0.152
 1835SOL     OW 6403   1.257   4.553   1.540
 1835SOL    HW1 6404   1.193   4.511   1.475
 1835SOL    HW2 6405   1.222   4.542   1.633
 1836SOL     OW 6406   6.889   2.125   1.329
 1836SOL    HW1 6407   6.966   2.188   1.341
 1836SOL    HW2 6408   6.905   2.069   1.247
 1837SOL     OW 6409   0.469   2.019   3.615
 1837SOL    HW1 6410   0.529   1.987   3.688
 1837SOL    HW2 6411   0.388   2.061   3.654
 1838SOL     OW 6412   0.293   1.776   3.756
 1838SOL    HW1 6413   0.282   1.700   3.692
 1838SOL    HW2 6414   0.253   1.859   3.716
 1839SOL     OW 6415   4.610   2.655   5.018
 1839SOL    HW1 6416   4.577   2.596   5.092
 1839SOL    HW2 6417   4.598   2.608   4.931
 1840SOL     OW 6418   3.255   6.225   1.639
 1840SOL    HW1 6419   3.324   6.153   1.629
 1840SOL    HW2 6420   3.252   6.255   1.734
 1841SOL     OW 6421   1.933   3.606   4.579
 1841SOL    HW1 6422   1.909   3.559   4.494
 1841SOL    HW2 6423   1.862   3.588   4.648
 1842SOL     OW 6424   0.398   5.559   0.523
 1842SOL    HW1 6425   0.446   5.545   0.437
 1842SOL    HW2 6426   0.333   5.635   0.514
 1843SOL     OW 6427   1.844   2.628   4.540
 1843SOL    HW1 6428   1.877   2.576   4.461
 1843SOL    HW2 6429   1.762   2.680   4.514
 1844SOL     OW 6430   3.651   1.446   5.052
 1844SOL    HW1 6431   3.735   1.491   5.022
 1844SOL    HW2 6432   3.596   1.511   5.105
 1845SOL     OW 6433   2.472   0.377   6.315
 1845SOL    HW1 6434   2.484   0.407   6.409
 1845SOL    HW2 6435   2.559   0.384   6.266
 1846SOL     OW 6436   3.984   2.043   6.760
 1846SOL    HW1 6437   3.934   1.977   6.816
 1846SOL    HW2 6438   4.007   2.002   6.672
 1847SOL     OW 6439   1.601   0.647   6.361
 1847SOL    HW1 6440   1.579   0.686   6.450
 1847SOL    HW2 6441   1.537   0.683   6.293
 1848SOL     OW 6442   1.767   5.925   2.633
 1848SOL    HW1 6443   1.867   5.930   2.637
 1848SOL    HW2 6444   1.733   5.987   2.563
 1849SOL     OW 6445   4.081   1.240   0.726
 1849SOL    HW1 6446   4.053   1.224   0.821
 1849SOL    HW2 6447   4.105   1.153   0.683
 1850SOL     OW 6448   6.030   1.907   2.717
 1850SOL    HW1 6449   6.059   1.955   2.799
 1850SOL    HW2 6450   6.022   1.972   2.641
 1851SOL     OW 6451   0.386   1.450   1.037
 1851SOL    HW1 6452   0.384   1.418   0.942
 1851SOL    HW2 6453   0.398   1.371   1.098
 1852SOL     OW 6454   4.573   3.823   1.117
 1852SOL    HW1 6455   4.502   3.892   1.121
 1852SOL    HW2 6456   4.533   3.732   1.132
 1853SOL     OW 6457   0.731   3.696   1.881
 1853SOL    HW1 6458   0.690   3.787   1.883
 1853SOL    HW2 6459   0.669   3.632   1.836
 1854SOL     OW 6460   2.842   5.768   4.140
 1854SOL    HW1 6461   2.816   5.841   4.204
 1854SOL    HW2 6462   2.769   5.755   4.074
 1855SOL     OW 6463   4.851   4.692   0.507
 1855SOL    HW1 6464   4.927   4.751   0.481
 1855SOL    HW2 6465   4.836   4.623   0.437
 1856SOL     OW 6466   6.030   3.016   5.760
 1856SOL    HW1 6467   6.017   3.108   5.797
 1856SOL    HW2 6468   5.969   3.002   5.682
 1857SOL     OW 6469   4.030   1.125   5.258
 1857SOL    HW1 6470   4.057   1.125   5.354
 1857SOL    HW2 6471   4.093   1.066   5.206
 1858SOL     OW 6472   5.786   2.904   3.675
 1858SOL    HW1 6473   5.806   2.962   3.754
 1858SOL    HW2 6474   5.795   2.808   3.701
 1859SOL     OW 6475   4.039   2.023   3.870
 1859SOL    HW1 6476   4.010   1.950   3.808
 1859SOL    HW2 6477   3.959   2.069   3.908
 1860SOL     OW 6478   6.888   1.254   3.483
 1860SOL    HW1 6479   6.809   1.306   3.450
 1860SOL    HW2 6480   6.858   1.186   3.550
 1861SOL     OW 6481   4.646   6.469   1.932
 1861SOL    HW1 6482   4.586   6.544   1.906
 1861SOL    HW2 6483   4.716   6.503   1.995
 1862SOL     OW 6484   2.116   6.913   7.014
 1862SOL    HW1 6485   2.124   6.880   0.084
 1862SOL    HW2 6486   2.196   6.884   6.962
 1863SOL     OW 6487   2.636   2.696   0.382
 1863SOL    HW1 6488   2.545   2.724   0.351
 1863SOL    HW2 6489   2.628   2.617   0.443
 1864SOL     OW 6490   0.859   0.300   5.576
 1864SOL    HW1 6491   0.852   0.209   5.615
 1864SOL    HW2 6492   0.769   0.345   5.580
 1865SOL     OW 6493   3.713   0.852   5.390
 1865SOL    HW1 6494   3.720   0.923   5.320
 1865SOL    HW2 6495   3.685   0.894   5.477
 1866SOL     OW 6496   4.304   4.690   2.249
 1866SOL    HW1 6497   4.363   4.609   2.251
 1866SOL    HW2 6498   4.247   4.692   2.332
 1867SOL     OW 6499   0.910   3.718   0.436
 1867SOL    HW1 6500   0.828   3.765   0.404
 1867SOL    HW2 6501   0.884   3.632   0.480
 1868SOL     OW 6502   5.375   4.895   6.927
 1868SOL    HW1 6503   5.312   4.826   6.892
 1868SOL    HW2 6504   5.336   4.986   6.914
 1869SOL     OW 6505   6.455   1.995   5.070
 1869SOL    HW1 6506   6.432   1.906   5.110
 1869SOL    HW2 6507   6.553   2.000   5.053
 1870SOL     OW 6508   1.834   4.400   5.493
 1870SOL    HW1 6509   1.928   4.432   5.502
 1870SOL    HW2 6510   1.774   4.458   5.549
 1871SOL     OW 6511   1.253   6.706   0.976
 1871SOL    HW1 6512   1.175   6.676   0.922
 1871SOL    HW2 6513   1.335   6.657   0.947
 1872SOL     OW 6514   3.347   4.198   6.754
 1872SOL    HW1 6515   3.434   4.246   6.738
 1872SOL    HW2 6516   3.366   4.104   6.783
 1873SOL     OW 6517   4.401   1.250   5.400
 1873SOL    HW1 6518   4.371   1.198   5.320
 1873SOL    HW2 6519   4.372   1.203   5.483
 1874SOL     OW 6520   2.769   1.587   1.397
 1874SOL    HW1 6521   2.713   1.553   1.473
 1874SOL    HW2 6522   2.796   1.681   1.415
 1875SOL     OW 6523   0.985   0.706   6.632
 1875SOL    HW1 6524   1.041   0.684   6.712
 1875SOL    HW2 6525   0.908   0.764   6.660
 1876SOL     OW 6526   3.507   0.273   5.934
 1876SOL    HW1 6527   3.538   0.328   6.011
 1876SOL    HW2 6528   3.442   0.326   5.880
 1877SOL     OW 6529   0.341   0.364   3.574
 1877SOL    HW1 6530   0.374   0.400   3.487
 1877SOL    HW2 6531   0.340   0.438   3.642
 1878SOL     OW 6532   6.828   1.642   3.832
 1878SOL    HW1 6533   6.773   1.710   3.880
 1878SOL    HW2 6534   6.768   1.576   3.787
 1879SOL     OW 6535   1.140   3.965   4.119
 1879SOL    HW1 6536   1.155   4.054   4.163
 1879SOL    HW2 6537   1.051   3.929   4.147
 1880SOL     OW 6538   0.204   0.756   5.001
 1880SOL    HW1 6539   0.182   0.853   4.985
 1880SOL    HW2 6540   0.303   0.744   4.996
 1881SOL     OW 6541   5.782   2.377   2.095
 1881SOL    HW1 6542   5.722   2.450   2.127
 1881SOL    HW2 6543   5.745   2.288   2.125
 1882SOL     OW 6544   1.234   4.619   6.442
 1882SOL    HW1 6545   1.243   4.522   6.461
 1882SOL    HW2 6546   1.322   4.656   6.413
 1883SOL     OW 6547   6.302   2.336   2.916
 1883SOL    HW1 6548   6.335   2.293   2.832
 1883SOL    HW2 6549   6.359   2.307   2.993
 1884SOL     OW 6550   1.480   1.861   1.069
 1884SOL    HW1 6551   1.538   1.780   1.073
 1884SOL    HW2 6552   1.384   1.835   1.082
 1885SOL     OW 6553   1.614   1.990   5.854
 1885SOL    HW1 6554   1.676   2.056   5.898
 1885SOL    HW2 6555   1.652   1.963   5.766
 1886SOL     OW 6556   2.029   0.173   1.543
 1886SOL    HW1 6557   1.972   0.209   1.470
 1886SOL    HW2 6558   2.071   0.087   1.514
 1887SOL     OW 6559   0.779   5.687   5.735
 1887SOL    HW1 6560   0.861   5.744   5.734
 1887SOL    HW2 6561   0.764   5.651   5.827
 1888SOL     OW 6562   3.244   1.964   6.820
 1888SOL    HW1 6563   3.339   1.993   6.834
 1888SOL    HW2 6564   3.197   1.962   6.908
 1889SOL     OW 6565   0.134   3.339   4.148
 1889SOL    HW1 6566   0.232   3.347   4.126
 1889SOL    HW2 6567   0.084   3.413   4.104
 1890SOL     OW 6568   0.684   5.531   4.031
 1890SOL    HW1 6569   0.585   5.545   4.035
 1890SOL    HW2 6570   0.703   5.434   4.014
 1891SOL     OW 6571   4.162   2.905   1.642
 1891SOL    HW1 6572   4.190   3.001   1.639
 1891SOL    HW2 6573   4.240   2.847   1.619
 1892SOL     OW 6574   0.253   0.451   1.720
 1892SOL    HW1 6575   0.319   0.523   1.699
 1892SOL    HW2 6576   0.188   0.485   1.789
 1893SOL     OW 6577   3.592   2.863   2.122
 1893SOL    HW1 6578   3.640   2.843   2.037
 1893SOL    HW2 6579   3.657   2.860   2.198
 1894SOL     OW 6580   3.400   3.837   4.014
 1894SOL    HW1 6581   3.483   3.827   3.959
 1894SOL    HW2 6582   3.416   3.905   4.086
 1895SOL     OW 6583   4.202   0.062   0.988
 1895SOL    HW1 6584   4.244   0.118   0.918
 1895SOL    HW2 6585   4.244   6.995   0.989
 1896SOL     OW 6586   6.243   1.160   0.754
 1896SOL    HW1 6587   6.295   1.102   0.691
 1896SOL    HW2 6588   6.290   1.247   0.766
 1897SOL     OW 6589   1.864   4.846   1.964
 1897SOL    HW1 6590   1.959   4.876   1.958
 1897SOL    HW2 6591   1.859   4.763   2.019
 1898SOL     OW 6592   2.332   4.384   2.287
 1898SOL    HW1 6593   2.409   4.406   2.228
 1898SOL    HW2 6594   2.250   4.373   2.231
 1899SOL     OW 6595   1.008   1.137   6.926
 1899SOL    HW1 6596   0.921   1.185   6.939
 1899SOL    HW2 6597   1.004   1.083   6.842
 1900SOL     OW 6598   2.444   0.838   6.783
 1900SOL    HW1 6599   2.460   0.758   6.841
 1900SOL    HW2 6600   2.441   0.920   6.839
 1901SOL     OW 6601   2.680   2.256   1.025
 1901SOL    HW1 6602   2.594   2.221   0.990
 1901SOL    HW2 6603   2.663   2.313   1.105
 1902SOL     OW 6604   2.643   0.642   4.604
 1902SOL    HW1 6605   2.702   0.635   4.523
 1902SOL    HW2 6606   2.602   0.733   4.607
 1903SOL     OW 6607   0.835   3.328   3.156
 1903SOL    HW1 6608   0.887   3.298   3.237
 1903SOL    HW2 6609   0.743   3.289   3.159
 1904SOL     OW 6610   5.473   5.385   3.222
 1904SOL    HW1 6611   5.462   5.285   3.216
 1904SOL    HW2 6612   5.567   5.409   3.197
 1905SOL     OW 6613   0.704   0.603   3.367
 1905SOL    HW1 6614   0.740   0.653   3.445
 1905SOL    HW2 6615   0.776   0.547   3.327
 1906SOL     OW 6616   2.627   0.949   5.884
 1906SOL    HW1 6617   2.716   0.973   5.844
 1906SOL    HW2 6618   2.554   0.979   5.822
 1907SOL     OW 6619   4.842   2.514   1.280
 1907SOL    HW1 6620   4.819   2.601   1.324
 1907SOL    HW2 6621   4.764   2.452   1.285
 1908SOL     OW 6622   4.011   6.540   6.312
 1908SOL    HW1 6623   3.952   6.508   6.238
 1908SOL    HW2 6624   4.029   6.466   6.376
 1909SOL     OW 6625   0.768   3.021   3.821
 1909SOL    HW1 6626   0.747   2.971   3.738
 1909SOL    HW2 6627   0.719   2.981   3.898
 1910SOL     OW 6628   6.821   6.283   5.416
 1910SOL    HW1 6629   6.807   6.187   5.437
 1910SOL    HW2 6630   6.742   6.319   5.368
 1911SOL     OW 6631   6.836   3.610   4.733
 1911SOL    HW1 6632   6.816   3.512   4.737
 1911SOL    HW2 6633   6.787   3.657   4.806
 1912SOL     OW 6634   2.933   5.611   2.583
 1912SOL    HW1 6635   2.855   5.552   2.600
 1912SOL    HW2 6636   2.902   5.699   2.548
 1913SOL     OW 6637   2.436   6.743   4.315
 1913SOL    HW1 6638   2.508   6.673   4.322
 1913SOL    HW2 6639   2.347   6.698   4.311
 1914SOL     OW 6640   4.061   3.965   6.973
 1914SOL    HW1 6641   4.099   4.012   0.028
 1914SOL    HW2 6642   4.129   3.964   6.899
 1915SOL     OW 6643   4.842   3.053   5.746
 1915SOL    HW1 6644   4.777   2.999   5.799
 1915SOL    HW2 6645   4.798   3.085   5.661
 1916SOL     OW 6646   4.698   6.676   1.259
 1916SOL    HW1 6647   4.633   6.736   1.305
 1916SOL    HW2 6648   4.674   6.670   1.162
 1917SOL     OW 6649   2.805   3.820   0.137
 1917SOL    HW1 6650   2.764   3.903   0.174
 1917SOL    HW2 6651   2.755   3.791   0.055
 1918SOL     OW 6652   1.160   1.027   4.594
 1918SOL    HW1 6653   1.168   1.056   4.499
 1918SOL    HW2 6654   1.177   1.105   4.654
 1919SOL     OW 6655   1.960   1.793   1.032
 1919SOL    HW1 6656   1.998   1.748   0.950
 1919SOL    HW2 6657   1.894   1.732   1.075
 1920SOL     OW 6658   6.030   2.962   2.367
 1920SOL    HW1 6659   6.015   3.003   2.277
 1920SOL    HW2 6660   5.961   2.891   2.383
 1921SOL     OW 6661   0.904   2.888   0.043
 1921SOL    HW1 6662   0.982   2.881   0.105
 1921SOL    HW2 6663   0.898   2.805   7.011
 1922SOL     OW 6664   3.129   3.300   1.881
 1922SOL    HW1 6665   3.169   3.298   1.790
 1922SOL    HW2 6666   3.055   3.233   1.887
 1923SOL     OW 6667   4.690   1.000   0.362
 1923SOL    HW1 6668   4.770   0.942   0.345
 1923SOL    HW2 6669   4.650   0.976   0.450
 1924SOL     OW 6670   4.574   0.022   0.882
 1924SOL    HW1 6671   4.653   0.076   0.855
 1924SOL    HW2 6672   4.494   0.082   0.889
 1925SOL     OW 6673   1.117   4.439   1.747
 1925SOL    HW1 6674   1.100   4.353   1.699
 1925SOL    HW2 6675   1.034   4.494   1.748
 1926SOL     OW 6676   3.575   0.247   1.666
 1926SOL    HW1 6677   3.616   0.337   1.650
 1926SOL    HW2 6678   3.530   0.247   1.756
 1927SOL     OW 6679   2.327   3.832   0.597
 1927SOL    HW1 6680   2.352   3.772   0.673
 1927SOL    HW2 6681   2.238   3.873   0.616
 1928SOL     OW 6682   4.869   4.860   3.953
 1928SOL    HW1 6683   4.941   4.792   3.957
 1928SOL    HW2 6684   4.863   4.896   3.859
 1929SOL     OW 6685   2.548   0.818   2.089
 1929SOL    HW1 6686   2.628   0.839   2.145
 1929SOL    HW2 6687   2.565   0.848   1.995
 1930SOL     OW 6688   5.122   3.215   6.443
 1930SOL    HW1 6689   5.172   3.202   6.529
 1930SOL    HW2 6690   5.067   3.133   6.424
 1931SOL     OW 6691   1.078   1.786   6.509
 1931SOL    HW1 6692   1.019   1.723   6.560
 1931SOL    HW2 6693   1.059   1.777   6.411
 1932SOL     OW 6694   4.540   2.561   3.319
 1932SOL    HW1 6695   4.554   2.517   3.407
 1932SOL    HW2 6696   4.463   2.519   3.272
 1933SOL     OW 6697   0.373   1.783   0.267
 1933SOL    HW1 6698   0.377   1.734   0.354
 1933SOL    HW2 6699   0.462   1.778   0.221
 1934SOL     OW 6700   0.421   0.171   5.872
 1934SOL    HW1 6701   0.401   0.089   5.819
 1934SOL    HW2 6702   0.382   0.162   5.964
 1935SOL     OW 6703   4.693   4.447   4.005
 1935SOL    HW1 6704   4.685   4.394   3.921
 1935SOL    HW2 6705   4.653   4.537   3.992
 1936SOL     OW 6706   5.117   3.693   3.827
 1936SOL    HW1 6707   5.033   3.738   3.796
 1936SOL    HW2 6708   5.126   3.705   3.926
 1937SOL     OW 6709   4.551   6.058   6.647
 1937SOL    HW1 6710   4.562   6.087   6.552
 1937SOL    HW2 6711   4.547   5.958   6.651
 1938SOL     OW 6712   1.223   2.744   6.885
 1938SOL    HW1 6713   1.125   2.728   6.900
 1938SOL    HW2 6714   1.240   2.761   6.788
 1939SOL     OW 6715   0.613   5.527   4.573
 1939SOL    HW1 6716   0.522   5.488   4.555
 1939SOL    HW2 6717   0.683   5.462   4.545
 1940SOL     OW 6718   5.827   4.350   1.962
 1940SOL    HW1 6719   5.886   4.289   2.016
 1940SOL    HW2 6720   5.876   4.435   1.944
 1941SOL     OW 6721   0.226   2.663   3.488
 1941SOL    HW1 6722   0.312   2.711   3.507
 1941SOL    HW2 6723   0.241   2.564   3.498
 1942SOL     OW 6724   5.470   3.877   2.724
 1942SOL    HW1 6725   5.454   3.974   2.708
 1942SOL    HW2 6726   5.548   3.847   2.669
 1943SOL     OW 6727   1.075   1.658   2.109
 1943SOL    HW1 6728   1.066   1.757   2.122
 1943SOL    HW2 6729   1.069   1.637   2.011
 1944SOL     OW 6730   6.783   3.438   0.855
 1944SOL    HW1 6731   6.688   3.423   0.882
 1944SOL    HW2 6732   6.817   3.356   0.807
 1945SOL     OW 6733   4.202   6.564   0.996
 1945SOL    HW1 6734   4.223   6.514   0.913
 1945SOL    HW2 6735   4.103   6.575   1.005
 1946SOL     OW 6736   6.123   6.216   1.060
 1946SOL    HW1 6737   6.039   6.248   1.017
 1946SOL    HW2 6738   6.123   6.241   1.157
 1947SOL     OW 6739   6.041   5.014   3.708
 1947SOL    HW1 6740   6.135   5.018   3.741
 1947SOL    HW2 6741   5.983   4.975   3.779
 1948SOL     OW 6742   5.697   4.074   2.980
 1948SOL    HW1 6743   5.628   4.064   2.909
 1948SOL    HW2 6744   5.787   4.050   2.943
 1949SOL     OW 6745   3.854   4.295   0.635
 1949SOL    HW1 6746   3.809   4.376   0.673
 1949SOL    HW2 6747   3.792   4.249   0.571
 1950SOL     OW 6748   3.649   3.692   3.978
 1950SOL    HW1 6749   3.698   3.619   3.930
 1950SOL    HW2 6750   3.641   3.667   4.075
 1951SOL     OW 6751   6.486   4.513   5.639
 1951SOL    HW1 6752   6.473   4.525   5.541
 1951SOL    HW2 6753   6.570   4.559   5.668
 1952SOL     OW 6754   5.202   4.062   1.152
 1952SOL    HW1 6755   5.209   4.116   1.068
 1952SOL    HW2 6756   5.119   4.007   1.149
 1953SOL     OW 6757   0.179   1.121   6.280
 1953SOL    HW1 6758   0.181   1.077   6.190
 1953SOL    HW2 6759   0.217   1.058   6.348
 1954SOL     OW 6760   5.022   0.487   1.594
 1954SOL    HW1 6761   4.996   0.498   1.690
 1954SOL    HW2 6762   5.101   0.426   1.588
 1955SOL     OW 6763   0.736   1.549   1.874
 1955SOL    HW1 6764   0.807   1.617   1.893
 1955SOL    HW2 6765   0.779   1.459   1.863
 1956SOL     OW 6766   5.530   1.070   2.925
 1956SOL    HW1 6767   5.539   1.156   2.874
 1956SOL    HW2 6768   5.553   0.993   2.865
 1957SOL     OW 6769   5.109   3.009   3.766
 1957SOL    HW1 6770   5.142   3.103   3.779
 1957SOL    HW2 6771   5.145   2.973   3.680
 1958SOL     OW 6772   4.483   1.786   0.823
 1958SOL    HW1 6773   4.516   1.763   0.915
 1958SOL    HW2 6774   4.402   1.731   0.802
 1959SOL     OW 6775   6.942   6.910   3.861
 1959SOL    HW1 6776   6.944   6.972   3.782
 1959SOL    HW2 6777   6.960   6.817   3.830
 1960SOL     OW 6778   6.190   3.296   2.976
 1960SOL    HW1 6779   6.172   3.362   2.903
 1960SOL    HW2 6780   6.158   3.206   2.948
 1961SOL     OW 6781   6.434   4.757   4.984
 1961SOL    HW1 6782   6.488   4.727   5.063
 1961SOL    HW2 6783   6.437   4.856   4.977
 1962SOL     OW 6784   1.308   5.939   2.913
 1962SOL    HW1 6785   1.334   5.914   3.006
 1962SOL    HW2 6786   1.336   6.033   2.895
 1963SOL     OW 6787   0.981   1.102   1.684
 1963SOL    HW1 6788   0.909   1.088   1.616
 1963SOL    HW2 6789   1.040   1.022   1.686
 1964SOL     OW 6790   5.527   4.806   1.863
 1964SOL    HW1 6791   5.463   4.797   1.787
 1964SOL    HW2 6792   5.539   4.718   1.907
 1965SOL     OW 6793   0.779   3.935   3.953
 1965SOL    HW1 6794   0.832   4.017   3.932
 1965SOL    HW2 6795   0.781   3.919   4.051
 1966SOL     OW 6796   1.403   4.977   1.164
 1966SOL    HW1 6797   1.313   4.933   1.164
 1966SOL    HW2 6798   1.470   4.915   1.123
 1967SOL     OW 6799   6.719   2.184   3.862
 1967SOL    HW1 6800   6.786   2.111   3.847
 1967SOL    HW2 6801   6.628   2.151   3.836
 1968SOL     OW 6802   2.499   1.057   5.654
 1968SOL    HW1 6803   2.494   0.983   5.588
 1968SOL    HW2 6804   2.489   1.145   5.606
 1969SOL     OW 6805   3.094   0.775   1.535
 1969SOL    HW1 6806   3.134   0.703   1.592
 1969SOL    HW2 6807   3.151   0.857   1.541
 1970SOL     OW 6808   6.359   6.355   5.100
 1970SOL    HW1 6809   6.331   6.358   5.196
 1970SOL    HW2 6810   6.439   6.414   5.087
 1971SOL     OW 6811   1.578   0.103   5.625
 1971SOL    HW1 6812   1.590   0.122   5.722
 1971SOL    HW2 6813   1.498   0.152   5.591
 1972SOL     OW 6814   5.722   2.649   1.687
 1972SOL    HW1 6815   5.638   2.601   1.712
 1972SOL    HW2 6816   5.742   2.633   1.591
 1973SOL     OW 6817   2.672   3.651   1.231
 1973SOL    HW1 6818   2.633   3.607   1.151
 1973SOL    HW2 6819   2.719   3.735   1.203
 1974SOL     OW 6820   4.068   6.645   4.557
 1974SOL    HW1 6821   4.069   6.663   4.459
 1974SOL    HW2 6822   4.094   6.550   4.575
 1975SOL     OW 6823   2.203   3.125   3.413
 1975SOL    HW1 6824   2.233   3.162   3.501
 1975SOL    HW2 6825   2.154   3.039   3.428
 1976SOL     OW 6826   6.390   0.277   6.554
 1976SOL    HW1 6827   6.457   0.211   6.590
 1976SOL    HW2 6828   6.438   0.346   6.500
 1977SOL     OW 6829   2.554   3.660   6.700
 1977SOL    HW1 6830   2.574   3.598   6.624
 1977SOL    HW2 6831   2.544   3.753   6.665
 1978SOL     OW 6832   2.780   6.542   2.663
 1978SOL    HW1 6833   2.869   6.564   2.701
 1978SOL    HW2 6834   2.713   6.611   2.691
 1979SOL     OW 6835   5.889   5.174   6.836
 1979SOL    HW1 6836   5.880   5.083   6.795
 1979SOL    HW2 6837   5.816   5.189   6.902
 1980SOL     OW 6838   2.820   0.693   2.020
 1980SOL    HW1 6839   2.865   0.780   2.040
 1980SOL    HW2 6840   2.743   0.708   1.958
 1981SOL     OW 6841   5.060   2.474   3.011
 1981SOL    HW1 6842   4.972   2.483   2.965
 1981SOL    HW2 6843   5.047   2.432   3.100
 1982SOL     OW 6844   6.577   3.499   3.881
 1982SOL    HW1 6845   6.676   3.484   3.882
 1982SOL    HW2 6846   6.558   3.594   3.855
 1983SOL     OW 6847   0.574   0.430   0.865
 1983SOL    HW1 6848   0.545   0.354   0.807
 1983SOL    HW2 6849   0.668   0.414   0.897
 1984SOL     OW 6850   5.076   2.626   5.556
 1984SOL    HW1 6851   5.144   2.690   5.519
 1984SOL    HW2 6852   4.996   2.677   5.587
 1985SOL     OW 6853   6.448   5.129   1.464
 1985SOL    HW1 6854   6.385   5.123   1.387
 1985SOL    HW2 6855   6.541   5.110   1.433
 1986SOL     OW 6856   3.187   1.061   6.634
 1986SOL    HW1 6857   3.237   1.054   6.548
 1986SOL    HW2 6858   3.107   1.119   6.622
 1987SOL     OW 6859   1.249   1.025   4.072
 1987SOL    HW1 6860   1.340   1.066   4.079
 1987SOL    HW2 6861   1.258   0.930   4.043
 1988SOL     OW 6862   0.279   1.835   1.134
 1988SOL    HW1 6863   0.191   1.826   1.087
 1988SOL    HW2 6864   0.292   1.930   1.163
 1989SOL     OW 6865   2.954   5.467   5.289
 1989SOL    HW1 6866   2.892   5.543   5.268
 1989SOL    HW2 6867   2.902   5.382   5.289
 1990SOL     OW 6868   4.077   0.714   0.257
 1990SOL    HW1 6869   4.023   0.660   0.322
 1990SOL    HW2 6870   4.162   0.666   0.236
 1991SOL     OW 6871   3.087   5.794   0.227
 1991SOL    HW1 6872   3.130   5.706   0.250
 1991SOL    HW2 6873   2.988   5.782   0.224
 1992SOL     OW 6874   6.653   6.659   0.066
 1992SOL    HW1 6875   6.668   6.668   0.165
 1992SOL    HW2 6876   6.681   6.567   0.037
 1993SOL     OW 6877   1.989   2.866   4.903
 1993SOL    HW1 6878   2.033   2.781   4.931
 1993SOL    HW2 6879   2.059   2.933   4.879
 1994SOL     OW 6880   4.079   3.209   0.702
 1994SOL    HW1 6881   4.001   3.254   0.658
 1994SOL    HW2 6882   4.127   3.153   0.635
 1995SOL     OW 6883   5.332   1.899   5.073
 1995SOL    HW1 6884   5.320   1.999   5.075
 1995SOL    HW2 6885   5.269   1.857   5.138
 1996SOL     OW 6886   3.362   1.932   1.367
 1996SOL    HW1 6887   3.380   1.833   1.367
 1996SOL    HW2 6888   3.355   1.964   1.272
 1997SOL     OW 6889   3.319   1.451   3.898
 1997SOL    HW1 6890   3.353   1.461   3.991
 1997SOL    HW2 6891   3.219   1.464   3.897
 1998SOL     OW 6892   1.361   2.934   1.705
 1998SOL    HW1 6893   1.423   2.887   1.767
 1998SOL    HW2 6894   1.356   3.031   1.730
 1999SOL     OW 6895   0.626   0.425   5.550
 1999SOL    HW1 6896   0.640   0.524   5.560
 1999SOL    HW2 6897   0.548   0.396   5.604
 2000SOL     OW 6898   3.700   3.671   6.322
 2000SOL    HW1 6899   3.648   3.588   6.339
 2000SOL    HW2 6900   3.784   3.670   6.375
 2001SOL     OW 6901   1.768   1.708   6.723
 2001SOL    HW1 6902   1.698   1.675   6.661
 2001SOL    HW2 6903   1.858   1.673   6.694
 2002SOL     OW 6904   0.068   5.570   0.948
 2002SOL    HW1 6905   7.003   5.614   0.936
 2002SOL    HW2 6906   0.137   5.621   0.898
 2003SOL     OW 6907   6.415   4.983   1.933
 2003SOL    HW1 6908   6.494   5.044   1.930
 2003SOL    HW2 6909   6.352   5.012   2.005
 2004SOL     OW 6910   3.700   0.394   3.635
 2004SOL    HW1 6911   3.660   0.309   3.603
 2004SOL    HW2 6912   3.788   0.376   3.678
 2005SOL     OW 6913   0.301   5.989   0.443
 2005SOL    HW1 6914   0.228   5.938   0.398
 2005SOL    HW2 6915   0.324   6.070   0.387
 2006SOL     OW 6916   5.221   0.540   4.258
 2006SOL    HW1 6917   5.124   0.563   4.268
 2006SOL    HW2 6918   5.273   0.623   4.238
 2007SOL     OW 6919   4.768   4.245   1.119
 2007SOL    HW1 6920   4.737   4.309   1.189
 2007SOL    HW2 6921   4.775   4.153   1.158
 2008SOL     OW 6922   2.118   3.641   3.775
 2008SOL    HW1 6923   2.215   3.619   3.765
 2008SOL    HW2 6924   2.099   3.727   3.727
 2009SOL     OW 6925   6.502   6.125   2.098
 2009SOL    HW1 6926   6.403   6.110   2.096
 2009SOL    HW2 6927   6.531   6.168   2.013
 2010SOL     OW 6928   1.609   2.369   1.691
 2010SOL    HW1 6929   1.568   2.317   1.617
 2010SOL    HW2 6930   1.599   2.467   1.673
 2011SOL     OW 6931   0.156   6.673   5.556
 2011SOL    HW1 6932   0.142   6.671   5.655
 2011SOL    HW2 6933   0.250   6.648   5.535
 2012SOL     OW 6934   1.426   3.119   2.332
 2012SOL    HW1 6935   1.520   3.152   2.327
 2012SOL    HW2 6936   1.382   3.154   2.414
 2013SOL     OW 6937   0.488   2.884   2.961
 2013SOL    HW1 6938   0.424   2.872   3.037
 2013SOL    HW2 6939   0.439   2.917   2.881
 2014SOL     OW 6940   2.932   0.430   3.629
 2014SOL    HW1 6941   2.928   0.478   3.542
 2014SOL    HW2 6942   2.994   0.351   3.621
 2015SOL     OW 6943   3.765   1.066   1.898
 2015SOL    HW1 6944   3.703   1.138   1.867
 2015SOL    HW2 6945   3.743   0.981   1.851
 2016SOL     OW 6946   1.763   6.168   5.364
 2016SOL    HW1 6947   1.814   6.214   5.291
 2016SOL    HW2 6948   1.699   6.231   5.406
 2017SOL     OW 6949   4.109   6.841   3.000
 2017SOL    HW1 6950   4.130   6.937   3.019
 2017SOL    HW2 6951   4.017   6.834   2.963
 2018SOL     OW 6952   6.878   2.229   3.204
 2018SOL    HW1 6953   6.886   2.145   3.151
 2018SOL    HW2 6954   6.930   2.302   3.159
 2019SOL     OW 6955   6.126   4.970   6.189
 2019SOL    HW1 6956   6.135   4.882   6.142
 2019SOL    HW2 6957   6.066   5.030   6.137
 2020SOL     OW 6958   1.682   6.347   5.800
 2020SOL    HW1 6959   1.733   6.310   5.878
 2020SOL    HW2 6960   1.585   6.354   5.824
 2021SOL     OW 6961   6.026   6.408   3.573
 2021SOL    HW1 6962   6.002   6.318   3.607
 2021SOL    HW2 6963   6.002   6.477   3.642
 2022SOL     OW 6964   2.077   4.209   5.024
 2022SOL    HW1 6965   2.162   4.158   5.010
 2022SOL    HW2 6966   2.004   4.146   5.049
 2023SOL     OW 6967   0.213   0.623   6.891
 2023SOL    HW1 6968   0.123   0.617   6.933
 2023SOL    HW2 6969   0.220   0.555   6.818
 2024SOL     OW 6970   0.392   5.467   4.431
 2024SOL    HW1 6971   0.442   5.394   4.384
 2024SOL    HW2 6972   0.393   5.549   4.374
 2025SOL     OW 6973   2.347   1.117   4.482
 2025SOL    HW1 6974   2.311   1.054   4.413
 2025SOL    HW2 6975   2.300   1.205   4.473
 2026SOL     OW 6976   5.579   0.679   6.565
 2026SOL    HW1 6977   5.585   0.762   6.620
 2026SOL    HW2 6978   5.582   0.704   6.468
 2027SOL     OW 6979   0.700   5.592   1.489
 2027SOL    HW1 6980   0.715   5.527   1.564
 2027SOL    HW2 6981   0.609   5.577   1.450
 2028SOL     OW 6982   3.675   5.787   2.658
 2028SOL    HW1 6983   3.610   5.715   2.636
 2028SOL    HW2 6984   3.748   5.750   2.716
 2029SOL     OW 6985   6.858   1.923   6.409
 2029SOL    HW1 6986   6.786   1.964   6.466
 2029SOL    HW2 6987   6.943   1.973   6.422
 2030SOL     OW 6988   3.112   6.023   3.352
 2030SOL    HW1 6989   3.097   5.950   3.418
 2030SOL    HW2 6990   3.024   6.065   3.329
 2031SOL     OW 6991   7.013   5.660   2.987
 2031SOL    HW1 6992   6.944   5.612   3.041
 2031SOL    HW2 6993   6.968   5.728   2.929
 2032SOL     OW 6994   3.490   1.304   6.495
 2032SOL    HW1 6995   3.392   1.320   6.505
 2032SOL    HW2 6996   3.507   1.208   6.473
 2033SOL     OW 6997   1.642   0.904   0.869
 2033SOL    HW1 6998   1.651   0.892   0.770
 2033SOL    HW2 6999   1.623   1.000   0.889
 2034SOL     OW 7000   0.850   5.476   5.591
 2034SOL    HW1 7001   0.800   5.539   5.651
 2034SOL    HW2 7002   0.949   5.486   5.608
 2035SOL     OW 7003   6.205   6.717   2.064
 2035SOL    HW1 7004   6.163   6.627   2.049
 2035SOL    HW2 7005   6.139   6.778   2.109
 2036SOL     OW 7006   0.915   3.413   2.654
 2036SOL    HW1 7007   0.983   3.362   2.708
 2036SOL    HW2 7008   0.944   3.508   2.646
 2037SOL     OW 7009   0.337   2.801   6.148
 2037SOL    HW1 7010   0.257   2.742   6.152
 2037SOL    HW2 7011   0.372   2.803   6.054
 2038SOL     OW 7012   2.572   1.652   6.774
 2038SOL    HW1 7013   2.587   1.580   6.843
 2038SOL    HW2 7014   2.502   1.715   6.806
 2039SOL     OW 7015   0.062   6.035   2.624
 2039SOL    HW1 7016   6.990   6.017   2.642
 2039SOL    HW2 7017   0.108   5.950   2.600
 2040SOL     OW 7018   2.453   2.781   0.066
 2040SOL    HW1 7019   2.355   2.789   0.049
 2040SOL    HW2 7020   2.494   2.723   7.020
 2041SOL     OW 7021   1.791   6.830   6.179
 2041SOL    HW1 7022   1.861   6.896   6.151
 2041SOL    HW2 7023   1.739   6.801   6.099
 2042SOL     OW 7024   4.769   0.431   6.425
 2042SOL    HW1 7025   4.830   0.354   6.443
 2042SOL    HW2 7026   4.753   0.438   6.326
 2043SOL     OW 7027   6.988   2.936   1.380
 2043SOL    HW1 7028   0.024   2.875   1.431
 2043SOL    HW2 7029   6.996   2.917   1.282
 2044SOL     OW 7030   5.145   1.176   0.862
 2044SOL    HW1 7031   5.061   1.174   0.916
 2044SOL    HW2 7032   5.130   1.232   0.780
 2045SOL     OW 7033   1.887   5.903   6.127
 2045SOL    HW1 7034   1.907   5.964   6.203
 2045SOL    HW2 7035   1.815   5.838   6.154
 2046SOL     OW 7036   1.064   1.264   5.381
 2046SOL    HW1 7037   1.017   1.232   5.299
 2046SOL    HW2 7038   1.002   1.322   5.434
 2047SOL     OW 7039   6.520   2.380   0.309
 2047SOL    HW1 7040   6.454   2.438   0.357
 2047SOL    HW2 7041   6.502   2.284   0.332
 2048SOL     OW 7042   0.994   1.171   4.289
 2048SOL    HW1 7043   1.071   1.114   4.317
 2048SOL    HW2 7044   0.998   1.259   4.338
 2049SOL     OW 7045   4.578   1.563   4.815
 2049SOL    HW1 7046   4.509   1.545   4.745
 2049SOL    HW2 7047   4.573   1.659   4.842
 2050SOL     OW 7048   0.769   1.207   4.114
 2050SOL    HW1 7049   0.741   1.300   4.136
 2050SOL    HW2 7050   0.828   1.172   4.187
 2051SOL     OW 7051   3.011   6.645   1.104
 2051SOL    HW1 7052   3.058   6.676   1.187
 2051SOL    HW2 7053   3.067   6.666   1.024
 2052SOL     OW 7054   1.578   4.316   6.983
 2052SOL    HW1 7055   1.496   4.341   0.010
 2052SOL    HW2 7056   1.649   4.285   0.022
 2053SOL     OW 7057   0.889   5.703   3.949
 2053SOL    HW1 7058   0.821   5.640   3.986
 2053SOL    HW2 7059   0.955   5.727   4.021
 2054SOL     OW 7060   3.240   3.437   3.372
 2054SOL    HW1 7061   3.150   3.481   3.372
 2054SOL    HW2 7062   3.284   3.454   3.460
 2055SOL     OW 7063   1.581   2.505   4.903
 2055SOL    HW1 7064   1.658   2.566   4.887
 2055SOL    HW2 7065   1.496   2.554   4.885
 2056SOL     OW 7066   4.024   4.683   0.859
 2056SOL    HW1 7067   4.088   4.760   0.854
 2056SOL    HW2 7068   4.015   4.652   0.953
 2057SOL     OW 7069   5.397   2.254   4.630
 2057SOL    HW1 7070   5.301   2.245   4.659
 2057SOL    HW2 7071   5.456   2.251   4.711
 2058SOL     OW 7072   1.041   6.709   3.413
 2058SOL    HW1 7073   1.079   6.734   3.502
 2058SOL    HW2 7074   0.956   6.760   3.397
 2059SOL     OW 7075   2.381   0.151   5.772
 2059SOL    HW1 7076   2.393   0.191   5.863
 2059SOL    HW2 7077   2.388   0.222   5.703
 2060SOL     OW 7078   1.449   3.420   0.051
 2060SOL    HW1 7079   1.397   3.411   6.990
 2060SOL    HW2 7080   1.520   3.489   0.039
 2061SOL     OW 7081   2.056   2.026   2.156
 2061SOL    HW1 7082   2.022   2.119   2.161
 2061SOL    HW2 7083   2.063   1.987   2.248
 2062SOL     OW 7084   6.396   5.473   5.395
 2062SOL    HW1 7085   6.470   5.416   5.359
 2062SOL    HW2 7086   6.433   5.562   5.420
 2063SOL     OW 7087   1.359   0.412   5.299
 2063SOL    HW1 7088   1.261   0.431   5.295
 2063SOL    HW2 7089   1.389   0.366   5.216
 2064SOL     OW 7090   0.514   2.780   4.312
 2064SOL    HW1 7091   0.455   2.744   4.239
 2064SOL    HW2 7092   0.459   2.797   4.394
 2065SOL     OW 7093   4.579   2.927   5.594
 2065SOL    HW1 7094   4.523   2.980   5.658
 2065SOL    HW2 7095   4.600   2.981   5.513
 2066SOL     OW 7096   5.634   3.283   5.923
 2066SOL    HW1 7097   5.614   3.200   5.975
 2066SOL    HW2 7098   5.734   3.293   5.914
 2067SOL     OW 7099   6.875   4.603   1.644
 2067SOL    HW1 7100   6.777   4.586   1.656
 2067SOL    HW2 7101   6.888   4.689   1.595
 2068SOL     OW 7102   3.867   0.885   3.532
 2068SOL    HW1 7103   3.880   0.955   3.602
 2068SOL    HW2 7104   3.943   0.887   3.467
 2069SOL     OW 7105   6.819   1.917   4.240
 2069SOL    HW1 7106   6.785   1.857   4.168
 2069SOL    HW2 7107   6.918   1.925   4.233
 2070SOL     OW 7108   0.960   3.543   1.779
 2070SOL    HW1 7109   0.937   3.474   1.848
 2070SOL    HW2 7110   0.898   3.620   1.787
 2071SOL     OW 7111   6.255   1.473   5.999
 2071SOL    HW1 7112   6.262   1.569   5.971
 2071SOL    HW2 7113   6.298   1.415   5.930
 2072SOL     OW 7114   3.912   4.561   5.346
 2072SOL    HW1 7115   3.878   4.469   5.327
 2072SOL    HW2 7116   4.006   4.570   5.311
 2073SOL     OW 7117   3.583   6.008   0.087
 2073SOL    HW1 7118   3.629   5.936   0.035
 2073SOL    HW2 7119   3.599   5.993   0.185
 2074SOL     OW 7120   1.853   3.771   5.476
 2074SOL    HW1 7121   1.822   3.828   5.399
 2074SOL    HW2 7122   1.832   3.675   5.458
 2075SOL     OW 7123   6.976   2.143   1.769
 2075SOL    HW1 7124   6.934   2.101   1.688
 2075SOL    HW2 7125   6.905   2.165   1.836
 2076SOL     OW 7126   5.403   6.151   4.734
 2076SOL    HW1 7127   5.392   6.251   4.735
 2076SOL    HW2 7128   5.375   6.116   4.645
 2077SOL     OW 7129   0.266   3.324   1.355
 2077SOL    HW1 7130   0.325   3.291   1.281
 2077SOL    HW2 7131   0.179   3.273   1.353
 2078SOL     OW 7132   2.049   4.344   5.744
 2078SOL    HW1 7133   1.954   4.314   5.745
 2078SOL    HW2 7134   2.062   4.419   5.809
 2079SOL     OW 7135   5.262   1.770   1.595
 2079SOL    HW1 7136   5.227   1.782   1.688
 2079SOL    HW2 7137   5.219   1.690   1.552
 2080SOL     OW 7138   2.789   2.552   5.378
 2080SOL    HW1 7139   2.707   2.516   5.423
 2080SOL    HW2 7140   2.870   2.509   5.417
 2081SOL     OW 7141   6.977   0.076   3.291
 2081SOL    HW1 7142   6.895   0.127   3.266
 2081SOL    HW2 7143   6.955   0.008   3.361
 2082SOL     OW 7144   0.498   6.278   2.539
 2082SOL    HW1 7145   0.593   6.310   2.533
 2082SOL    HW2 7146   0.497   6.179   2.557
 2083SOL     OW 7147   6.636   5.857   4.317
 2083SOL    HW1 7148   6.649   5.943   4.267
 2083SOL    HW2 7149   6.687   5.861   4.403
 2084SOL     OW 7150   0.500   1.652   2.192
 2084SOL    HW1 7151   0.513   1.621   2.098
 2084SOL    HW2 7152   0.520   1.576   2.255
 2085SOL     OW 7153   5.080   5.609   0.072
 2085SOL    HW1 7154   5.109   5.649   7.009
 2085SOL    HW2 7155   5.101   5.672   0.147
 2086SOL     OW 7156   4.520   0.126   6.785
 2086SOL    HW1 7157   4.520   0.195   6.713
 2086SOL    HW2 7158   4.571   0.045   6.754
 2087SOL     OW 7159   4.077   2.227   6.955
 2087SOL    HW1 7160   3.992   2.213   6.905
 2087SOL    HW2 7161   4.119   2.313   6.927
 2088SOL     OW 7162   0.067   5.677   5.022
 2088SOL    HW1 7163   0.011   5.596   5.005
 2088SOL    HW2 7164   0.120   5.699   4.940
 2089SOL     OW 7165   2.633   3.155   5.857
 2089SOL    HW1 7166   2.698   3.107   5.916
 2089SOL    HW2 7167   2.675   3.239   5.823
 2090SOL     OW 7168   4.493   3.610   5.371
 2090SOL    HW1 7169   4.444   3.676   5.314
 2090SOL    HW2 7170   4.569   3.571   5.319
 2091SOL     OW 7171   6.246   5.921   1.764
 2091SOL    HW1 7172   6.341   5.891   1.754
 2091SOL    HW2 7173   6.187   5.841   1.772
 2092SOL     OW 7174   4.444   3.625   1.266
 2092SOL    HW1 7175   4.382   3.604   1.190
 2092SOL    HW2 7176   4.443   3.549   1.331
 2093SOL     OW 7177   3.934   2.093   2.712
 2093SOL    HW1 7178   3.992   2.054   2.784
 2093SOL    HW2 7179   3.849   2.126   2.751
 2094SOL     OW 7180   5.473   2.829   6.884
 2094SOL    HW1 7181   5.488   2.731   6.875
 2094SOL    HW2 7182   5.452   2.851   6.980
 2095SOL     OW 7183   5.665   6.379   3.965
 2095SOL    HW1 7184   5.629   6.442   3.896
 2095SOL    HW2 7185   5.651   6.284   3.935
 2096SOL     OW 7186   4.278   6.450   1.921
 2096SOL    HW1 7187   4.197   6.479   1.871
 2096SOL    HW2 7188   4.358   6.498   1.885
 2097SOL     OW 7189   1.886   4.805   6.657
 2097SOL    HW1 7190   1.819   4.732   6.651
 2097SOL    HW2 7191   1.889   4.841   6.751
 2098SOL     OW 7192   3.526   6.570   3.146
 2098SOL    HW1 7193   3.456   6.537   3.083
 2098SOL    HW2 7194   3.498   6.658   3.184
 2099SOL     OW 7195   5.334   1.083   0.102
 2099SOL    HW1 7196   5.430   1.089   0.074
 2099SOL    HW2 7197   5.276   1.076   0.021
 2100SOL     OW 7198   5.709   1.088   0.561
 2100SOL    HW1 7199   5.697   1.187   0.570
 2100SOL    HW2 7200   5.679   1.060   0.470
 2101SOL     OW 7201   0.316   6.529   1.879
 2101SOL    HW1 7202   0.373   6.572   1.949
 2101SOL    HW2 7203   0.338   6.568   1.790
 2102SOL     OW 7204   4.102   3.568   0.724
 2102SOL    HW1 7205   4.083   3.498   0.793
 2102SOL    HW2 7206   4.021   3.583   0.668
 2103SOL     OW 7207   3.104   5.888   6.953
 2103SOL    HW1 7208   3.173   5.914   7.022
 2103SOL    HW2 7209   3.038   5.962   6.943
 2104SOL     OW 7210   1.217   4.632   2.954
 2104SOL    HW1 7211   1.293   4.639   3.019
 2104SOL    HW2 7212   1.213   4.539   2.918
 2105SOL     OW 7213   5.422   4.362   6.975
 2105SOL    HW1 7214   5.511   4.392   6.941
 2105SOL    HW2 7215   5.394   4.422   0.026
 2106SOL     OW 7216   4.909   3.700   2.504
 2106SOL    HW1 7217   4.865   3.746   2.581
 2106SOL    HW2 7218   4.865   3.611   2.489
 2107SOL     OW 7219   5.517   3.856   5.160
 2107SOL    HW1 7220   5.528   3.955   5.166
 2107SOL    HW2 7221   5.521   3.827   5.064
 2108SOL     OW 7222   5.977   6.755   5.971
 2108SOL    HW1 7223   5.948   6.809   6.049
 2108SOL    HW2 7224   5.991   6.660   6.000
 2109SOL     OW 7225   2.988   5.361   3.214
 2109SOL    HW1 7226   3.049   5.378   3.136
 2109SOL    HW2 7227   2.933   5.280   3.196
 2110SOL     OW 7228   3.587   0.607   6.844
 2110SOL    HW1 7229   3.632   0.672   6.782
 2110SOL    HW2 7230   3.490   0.629   6.849
 2111SOL     OW 7231   1.116   3.210   5.794
 2111SOL    HW1 7232   1.134   3.303   5.826
 2111SOL    HW2 7233   1.111   3.149   5.873
 2112SOL     OW 7234   0.579   1.851   0.655
 2112SOL    HW1 7235   0.526   1.790   0.597
 2112SOL    HW2 7236   0.634   1.798   0.720
 2113SOL     OW 7237   1.913   0.039   4.784
 2113SOL    HW1 7238   1.831   0.050   4.839
 2113SOL    HW2 7239   1.888   0.016   4.690
 2114SOL     OW 7240   1.615   2.840   6.762
 2114SOL    HW1 7241   1.647   2.753   6.799
 2114SOL    HW2 7242   1.691   2.889   6.722
 2115SOL     OW 7243   0.163   5.450   3.375
 2115SOL    HW1 7244   0.156   5.442   3.474
 2115SOL    HW2 7245   0.133   5.364   3.333
 2116SOL     OW 7246   0.759   2.111   6.944
 2116SOL    HW1 7247   0.829   2.137   7.011
 2116SOL    HW2 7248   0.790   2.138   6.852
 2117SOL     OW 7249   5.766   1.555   2.145
 2117SOL    HW1 7250   5.718   1.545   2.232
 2117SOL    HW2 7251   5.700   1.551   2.070
 2118SOL     OW 7252   6.466   3.450   2.153
 2118SOL    HW1 7253   6.559   3.441   2.120
 2118SOL    HW2 7254   6.410   3.376   2.116
 2119SOL     OW 7255   2.845   0.393   6.891
 2119SOL    HW1 7256   2.838   0.298   6.921
 2119SOL    HW2 7257   2.933   0.408   6.845
 2120SOL     OW 7258   5.711   1.783   1.029
 2120SOL    HW1 7259   5.674   1.777   0.936
 2120SOL    HW2 7260   5.794   1.838   1.028
 2121SOL     OW 7261   2.151   0.999   6.471
 2121SOL    HW1 7262   2.231   0.948   6.503
 2121SOL    HW2 7263   2.109   0.950   6.395
 2122SOL     OW 7264   6.105   0.510   5.435
 2122SOL    HW1 7265   6.018   0.556   5.417
 2122SOL    HW2 7266   6.133   0.528   5.529
 2123SOL     OW 7267   1.134   6.218   3.017
 2123SOL    HW1 7268   1.062   6.238   2.951
 2123SOL    HW2 7269   1.223   6.242   2.979
 2124SOL     OW 7270   3.429   2.854   5.787
 2124SOL    HW1 7271   3.488   2.896   5.718
 2124SOL    HW2 7272   3.333   2.872   5.764
 2125SOL     OW 7273   1.782   5.938   2.901
 2125SOL    HW1 7274   1.762   5.946   2.803
 2125SOL    HW2 7275   1.724   6.002   2.951
 2126SOL     OW 7276   3.791   3.616   0.041
 2126SOL    HW1 7277   3.801   3.550   6.990
 2126SOL    HW2 7278   3.720   3.682   0.017
 2127SOL     OW 7279   0.411   2.676   5.892
 2127SOL    HW1 7280   0.450   2.706   5.805
 2127SOL    HW2 7281   0.311   2.669   5.883
 2128SOL     OW 7282   5.259   3.021   1.819
 2128SOL    HW1 7283   5.200   3.101   1.833
 2128SOL    HW2 7284   5.241   2.954   1.891
 2129SOL     OW 7285   5.392   4.217   3.882
 2129SOL    HW1 7286   5.484   4.185   3.860
 2129SOL    HW2 7287   5.325   4.147   3.856
 2130SOL     OW 7288   1.864   0.823   2.658
 2130SOL    HW1 7289   1.868   0.791   2.563
 2130SOL    HW2 7290   1.939   0.782   2.710
 2131SOL     OW 7291   5.664   1.939   5.887
 2131SOL    HW1 7292   5.677   1.866   5.819
 2131SOL    HW2 7293   5.709   1.913   5.972
 2132SOL     OW 7294   2.745   2.055   6.631
 2132SOL    HW1 7295   2.696   2.019   6.552
 2132SOL    HW2 7296   2.820   1.993   6.655
 2133SOL     OW 7297   2.561   2.225   1.731
 2133SOL    HW1 7298   2.596   2.262   1.646
 2133SOL    HW2 7299   2.467   2.256   1.745
 2134SOL     OW 7300   0.723   6.488   5.009
 2134SOL    HW1 7301   0.788   6.414   5.029
 2134SOL    HW2 7302   0.736   6.562   5.075
 2135SOL     OW 7303   0.483   1.325   3.522
 2135SOL    HW1 7304   0.564   1.332   3.464
 2135SOL    HW2 7305   0.402   1.314   3.465
 2136SOL     OW 7306   0.644   3.216   4.381
 2136SOL    HW1 7307   0.717   3.161   4.422
 2136SOL    HW2 7308   0.587   3.158   4.322
 2137SOL     OW 7309   1.460   6.941   5.112
 2137SOL    HW1 7310   1.528   6.998   5.066
 2137SOL    HW2 7311   1.463   6.848   5.075
 2138SOL     OW 7312   0.199   2.536   0.464
 2138SOL    HW1 7313   0.130   2.470   0.435
 2138SOL    HW2 7314   0.278   2.488   0.502
 2139SOL     OW 7315   3.302   0.540   4.724
 2139SOL    HW1 7316   3.280   0.449   4.689
 2139SOL    HW2 7317   3.265   0.549   4.817
 2140SOL     OW 7318   2.357   6.083   3.681
 2140SOL    HW1 7319   2.415   6.015   3.635
 2140SOL    HW2 7320   2.406   6.169   3.690
 2141SOL     OW 7321   5.831   2.293   0.738
 2141SOL    HW1 7322   5.803   2.219   0.801
 2141SOL    HW2 7323   5.851   2.375   0.791
 2142SOL     OW 7324   1.914   2.063   3.652
 2142SOL    HW1 7325   1.873   1.981   3.613
 2142SOL    HW2 7326   1.992   2.091   3.596
 2143SOL     OW 7327   3.492   0.056   1.504
 2143SOL    HW1 7328   3.563   7.010   1.509
 2143SOL    HW2 7329   3.522   0.137   1.555
 2144SOL     OW 7330   0.773   0.973   3.500
 2144SOL    HW1 7331   0.825   0.909   3.443
 2144SOL    HW2 7332   0.698   1.011   3.447
 2145SOL     OW 7333   3.519   5.265   3.282
 2145SOL    HW1 7334   3.610   5.293   3.250
 2145SOL    HW2 7335   3.501   5.307   3.371
 2146SOL     OW 7336   3.300   2.819   2.171
 2146SOL    HW1 7337   3.397   2.814   2.147
 2146SOL    HW2 7338   3.268   2.729   2.200
 2147SOL     OW 7339   0.666   1.628   6.128
 2147SOL    HW1 7340   0.577   1.590   6.152
 2147SOL    HW2 7341   0.738   1.574   6.171
 2148SOL     OW 7342   4.882   3.810   2.953
 2148SOL    HW1 7343   4.840   3.782   3.039
 2148SOL    HW2 7344   4.974   3.772   2.947
 2149SOL     OW 7345   4.042   1.196   2.391
 2149SOL    HW1 7346   4.059   1.293   2.412
 2149SOL    HW2 7347   4.129   1.150   2.376
 2150SOL     OW 7348   3.160   2.126   3.466
 2150SOL    HW1 7349   3.077   2.073   3.454
 2150SOL    HW2 7350   3.151   2.183   3.549
 2151SOL     OW 7351   3.685   2.708   5.557
 2151SOL    HW1 7352   3.611   2.643   5.575
 2151SOL    HW2 7353   3.685   2.779   5.627
 2152SOL     OW 7354   6.043   6.459   2.075
 2152SOL    HW1 7355   6.129   6.408   2.071
 2152SOL    HW2 7356   5.979   6.422   2.008
 2153SOL     OW 7357   4.438   1.813   3.807
 2153SOL    HW1 7358   4.374   1.865   3.864
 2153SOL    HW2 7359   4.466   1.870   3.730
 2154SOL     OW 7360   2.815   5.834   4.709
 2154SOL    HW1 7361   2.811   5.739   4.676
 2154SOL    HW2 7362   2.723   5.873   4.711
 2155SOL     OW 7363   1.150   4.078   0.253
 2155SOL    HW1 7364   1.094   4.080   0.336
 2155SOL    HW2 7365   1.237   4.124   0.271
 2156SOL     OW 7366   2.043   0.479   2.194
 2156SOL    HW1 7367   2.106   0.528   2.134
 2156SOL    HW2 7368   1.957   0.528   2.199
 2157SOL     OW 7369   0.365   1.177   4.895
 2157SOL    HW1 7370   0.397   1.146   4.805
 2157SOL    HW2 7371   0.298   1.113   4.931
 2158SOL     OW 7372   3.866   7.019   1.277
 2158SOL    HW1 7373   3.809   6.970   1.343
 2158SOL    HW2 7374   3.875   0.090   1.305
 2159SOL     OW 7375   1.226   6.906   4.964
 2159SOL    HW1 7376   1.269   6.962   5.036
 2159SOL    HW2 7377   1.181   6.828   5.005
 2160SOL     OW 7378   3.185   4.519   0.856
 2160SOL    HW1 7379   3.186   4.495   0.953
 2160SOL    HW2 7380   3.099   4.488   0.815
 2161SOL     OW 7381   5.135   3.068   3.159
 2161SOL    HW1 7382   5.059   3.003   3.165
 2161SOL    HW2 7383   5.130   3.133   3.235
 2162SOL     OW 7384   1.847   0.940   6.659
 2162SOL    HW1 7385   1.872   1.023   6.611
 2162SOL    HW2 7386   1.930   0.891   6.688
 2163SOL     OW 7387   1.664   1.239   0.476
 2163SOL    HW1 7388   1.710   1.153   0.455
 2163SOL    HW2 7389   1.668   1.299   0.395
 2164SOL     OW 7390   1.920   1.149   6.516
 2164SOL    HW1 7391   2.013   1.110   6.518
 2164SOL    HW2 7392   1.926   1.249   6.518
 2165SOL     OW 7393   1.844   0.081   3.303
 2165SOL    HW1 7394   1.784   0.160   3.294
 2165SOL    HW2 7395   1.865   0.066   3.399
 2166SOL     OW 7396   1.187   2.706   5.352
 2166SOL    HW1 7397   1.150   2.715   5.445
 2166SOL    HW2 7398   1.253   2.631   5.349
 2167SOL     OW 7399   3.884   0.934   2.110
 2167SOL    HW1 7400   3.862   0.977   2.197
 2167SOL    HW2 7401   3.842   0.986   2.036
 2168SOL     OW 7402   5.726   3.805   4.281
 2168SOL    HW1 7403   5.636   3.780   4.316
 2168SOL    HW2 7404   5.734   3.905   4.280
 2169SOL     OW 7405   4.885   2.255   6.366
 2169SOL    HW1 7406   4.936   2.337   6.340
 2169SOL    HW2 7407   4.944   2.175   6.359
 2170SOL     OW 7408   4.521   4.928   5.050
 2170SOL    HW1 7409   4.502   4.963   5.141
 2170SOL    HW2 7410   4.436   4.894   5.009
 2171SOL     OW 7411   6.787   3.009   0.376
 2171SOL    HW1 7412   6.713   2.990   0.441
 2171SOL    HW2 7413   6.750   3.010   0.283
 2172SOL     OW 7414   2.721   0.733   0.694
 2172SOL    HW1 7415   2.764   0.823   0.705
 2172SOL    HW2 7416   2.755   0.671   0.765
 2173SOL     OW 7417   5.344   1.731   5.731
 2173SOL    HW1 7418   5.285   1.651   5.725
 2173SOL    HW2 7419   5.440   1.702   5.729
 2174SOL     OW 7420   7.005   5.051   5.262
 2174SOL    HW1 7421   6.971   5.129   5.209
 2174SOL    HW2 7422   0.067   5.018   5.223
 2175SOL     OW 7423   2.530   0.542   4.189
 2175SOL    HW1 7424   2.619   0.524   4.231
 2175SOL    HW2 7425   2.513   0.477   4.115
 2176SOL     OW 7426   2.146   2.356   3.206
 2176SOL    HW1 7427   2.075   2.421   3.235
 2176SOL    HW2 7428   2.145   2.277   3.268
 2177SOL     OW 7429   0.481   2.460   0.756
 2177SOL    HW1 7430   0.428   2.459   0.841
 2177SOL    HW2 7431   0.434   2.406   0.687
 2178SOL     OW 7432   0.750   4.401   0.340
 2178SOL    HW1 7433   0.786   4.494   0.333
 2178SOL    HW2 7434   0.824   4.338   0.365
 2179SOL     OW 7435   1.829   5.352   4.314
 2179SOL    HW1 7436   1.768   5.430   4.328
 2179SOL    HW2 7437   1.922   5.384   4.298
 2180SOL     OW 7438   3.099   3.936   2.852
 2180SOL    HW1 7439   3.198   3.923   2.856
 2180SOL    HW2 7440   3.073   3.965   2.760
 2181SOL     OW 7441   5.459   5.606   5.768
 2181SOL    HW1 7442   5.414   5.645   5.688
 2181SOL    HW2 7443   5.415   5.519   5.792
 2182SOL     OW 7444   6.946   2.894   6.251
 2182SOL    HW1 7445   7.007   2.862   6.323
 2182SOL    HW2 7446   6.978   2.983   6.218
 2183SOL     OW 7447   3.567   3.080   0.623
 2183SOL    HW1 7448   3.612   3.129   0.549
 2183SOL    HW2 7449   3.620   3.000   0.647
 2184SOL     OW 7450   3.702   2.503   6.207
 2184SOL    HW1 7451   3.767   2.544   6.143
 2184SOL    HW2 7452   3.694   2.561   6.288
 2185SOL     OW 7453   1.621   0.917   1.575
 2185SOL    HW1 7454   1.571   0.885   1.656
 2185SOL    HW2 7455   1.628   1.017   1.579
 2186SOL     OW 7456   0.574   5.810   3.302
 2186SOL    HW1 7457   0.642   5.737   3.307
 2186SOL    HW2 7458   0.620   5.898   3.308
 2187SOL     OW 7459   6.818   1.506   0.112
 2187SOL    HW1 7460   6.860   1.468   0.194
 2187SOL    HW2 7461   6.886   1.510   0.038
 2188SOL     OW 7462   5.518   0.009   3.519
 2188SOL    HW1 7463   5.471   6.959   3.472
 2188SOL    HW2 7464   5.480   0.019   3.611
 2189SOL     OW 7465   1.997   6.458   6.396
 2189SOL    HW1 7466   2.060   6.522   6.352
 2189SOL    HW2 7467   2.017   6.454   6.494
 2190SOL     OW 7468   5.560   2.012   1.634
 2190SOL    HW1 7469   5.577   1.920   1.598
 2190SOL    HW2 7470   5.491   2.007   1.707
 2191SOL     OW 7471   2.907   3.008   6.329
 2191SOL    HW1 7472   2.938   2.945   6.400
 2191SOL    HW2 7473   2.983   3.067   6.303
 2192SOL     OW 7474   4.774   5.697   5.341
 2192SOL    HW1 7475   4.848   5.652   5.292
 2192SOL    HW2 7476   4.691   5.640   5.337
 2193SOL     OW 7477   0.717   5.218   5.447
 2193SOL    HW1 7478   0.640   5.247   5.390
 2193SOL    HW2 7479   0.801   5.221   5.393
 2194SOL     OW 7480   2.300   6.554   0.675
 2194SOL    HW1 7481   2.378   6.593   0.722
 2194SOL    HW2 7482   2.241   6.507   0.742
 2195SOL     OW 7483   0.991   5.360   2.903
 2195SOL    HW1 7484   1.046   5.281   2.876
 2195SOL    HW2 7485   0.917   5.330   2.963
 2196SOL     OW 7486   3.695   2.128   6.096
 2196SOL    HW1 7487   3.681   2.175   6.183
 2196SOL    HW2 7488   3.761   2.180   6.040
 2197SOL     OW 7489   5.154   5.024   1.238
 2197SOL    HW1 7490   5.085   5.077   1.287
 2197SOL    HW2 7491   5.157   4.931   1.275
 2198SOL     OW 7492   6.678   3.664   0.495
 2198SOL    HW1 7493   6.657   3.720   0.415
 2198SOL    HW2 7494   6.593   3.635   0.538
 2199SOL     OW 7495   4.562   6.972   1.162
 2199SOL    HW1 7496   4.561   7.004   1.067
 2199SOL    HW2 7497   4.498   6.896   1.172
 2200SOL     OW 7498   3.502   0.632   4.356
 2200SOL    HW1 7499   3.414   0.606   4.316
 2200SOL    HW2 7500   3.575   0.619   4.289
 2201SOL     OW 7501   5.684   3.574   2.193
 2201SOL    HW1 7502   5.734   3.617   2.118
 2201SOL    HW2 7503   5.635   3.494   2.159
 2202SOL     OW 7504   4.637   5.820   3.882
 2202SOL    HW1 7505   4.569   5.748   3.868
 2202SOL    HW2 7506   4.633   5.885   3.805
 2203SOL     OW 7507   3.402   1.972   3.452
 2203SOL    HW1 7508   3.332   2.044   3.454
 2203SOL    HW2 7509   3.459   1.983   3.371
 2204SOL     OW 7510   3.118   2.539   0.405
 2204SOL    HW1 7511   3.132   2.526   0.306
 2204SOL    HW2 7512   3.040   2.599   0.419
 2205SOL     OW 7513   3.080   0.105   0.942
 2205SOL    HW1 7514   3.094   0.204   0.939
 2205SOL    HW2 7515   3.135   0.061   0.871
 2206SOL     OW 7516   2.514   3.170   6.946
 2206SOL    HW1 7517   2.495   3.255   6.997
 2206SOL    HW2 7518   2.428   3.134   6.909
 2207SOL     OW 7519   0.970   4.615   6.407
 2207SOL    HW1 7520   0.922   4.531   6.381
 2207SOL    HW2 7521   1.068   4.597   6.412
 2208SOL     OW 7522   0.203   3.348   1.870
 2208SOL    HW1 7523   0.163   3.331   1.780
 2208SOL    HW2 7524   0.281   3.410   1.860
 2209SOL     OW 7525   0.907   5.892   6.544
 2209SOL    HW1 7526   0.851   5.819   6.585
 2209SOL    HW2 7527   0.884   5.899   6.447
 2210SOL     OW 7528   1.065   6.258   4.371
 2210SOL    HW1 7529   0.999   6.333   4.373
 2210SOL    HW2 7530   1.122   6.266   4.289
 2211SOL     OW 7531   5.897   1.326   5.821
 2211SOL    HW1 7532   5.953   1.244   5.808
 2211SOL    HW2 7533   5.800   1.300   5.821
 2212SOL     OW 7534   1.800   0.470   6.112
 2212SOL    HW1 7535   1.783   0.450   6.016
 2212SOL    HW2 7536   1.725   0.433   6.168
 2213SOL     OW 7537   3.708   1.836   3.441
 2213SOL    HW1 7538   3.663   1.920   3.409
 2213SOL    HW2 7539   3.774   1.806   3.373
 2214SOL     OW 7540   4.894   6.967   4.745
 2214SOL    HW1 7541   4.873   0.010   4.674
 2214SOL    HW2 7542   4.951   6.894   4.707
 2215SOL     OW 7543   6.294   2.389   5.368
 2215SOL    HW1 7544   6.250   2.434   5.290
 2215SOL    HW2 7545   6.387   2.425   5.378
 2216SOL     OW 7546   1.623   6.464   1.569
 2216SOL    HW1 7547   1.572   6.406   1.632
 2216SOL    HW2 7548   1.697   6.410   1.528
 2217SOL     OW 7549   4.101   0.288   1.108
 2217SOL    HW1 7550   4.125   0.204   1.060
 2217SOL    HW2 7551   4.178   0.319   1.163
 2218SOL     OW 7552   0.516   5.597   6.741
 2218SOL    HW1 7553   0.517   5.518   6.801
 2218SOL    HW2 7554   0.457   5.668   6.780
 2219SOL     OW 7555   1.815   3.988   2.992
 2219SOL    HW1 7556   1.764   3.970   3.076
 2219SOL    HW2 7557   1.814   3.907   2.934
 2220SOL     OW 7558   0.510   1.235   6.168
 2220SOL    HW1 7559   0.515   1.198   6.261
 2220SOL    HW2 7560   0.418   1.268   6.150
 2221SOL     OW 7561   6.479   2.408   1.542
 2221SOL    HW1 7562   6.445   2.423   1.634
 2221SOL    HW2 7563   6.450   2.483   1.482
 2222SOL     OW 7564   4.815   6.915   2.593
 2222SOL    HW1 7565   4.728   6.899   2.638
 2222SOL    HW2 7566   4.872   6.974   2.650
 2223SOL     OW 7567   5.738   5.399   3.088
 2223SOL    HW1 7568   5.782   5.474   3.040
 2223SOL    HW2 7569   5.765   5.312   3.046
 2224SOL     OW 7570   1.357   4.369   1.270
 2224SOL    HW1 7571   1.275   4.400   1.319
 2224SOL    HW2 7572   1.388   4.282   1.310
 2225SOL     OW 7573   6.246   5.045   2.128
 2225SOL    HW1 7574   6.271   4.963   2.178
 2225SOL    HW2 7575   6.146   5.052   2.122
 2226SOL     OW 7576   3.540   4.270   0.517
 2226SOL    HW1 7577   3.526   4.355   0.568
 2226SOL    HW2 7578   3.473   4.202   0.545
 2227SOL     OW 7579   6.661   4.153   5.051
 2227SOL    HW1 7580   6.582   4.211   5.032
 2227SOL    HW2 7581   6.743   4.209   5.054
 2228SOL     OW 7582   3.571   4.699   6.289
 2228SOL    HW1 7583   3.530   4.767   6.350
 2228SOL    HW2 7584   3.659   4.734   6.255
 2229SOL     OW 7585   4.515   1.022   3.344
 2229SOL    HW1 7586   4.512   0.927   3.373
 2229SOL    HW2 7587   4.431   1.044   3.294
 2230SOL     OW 7588   1.397   6.600   6.081
 2230SOL    HW1 7589   1.441   6.572   6.166
 2230SOL    HW2 7590   1.303   6.629   6.100
 2231SOL     OW 7591   2.203   6.997   1.422
 2231SOL    HW1 7592   2.254   6.924   1.378
 2231SOL    HW2 7593   2.159   6.962   1.505
 2232SOL     OW 7594   6.037   2.664   2.590
 2232SOL    HW1 7595   5.953   2.674   2.642
 2232SOL    HW2 7596   6.028   2.587   2.526
 2233SOL     OW 7597   3.924   0.130   0.117
 2233SOL    HW1 7598   3.946   0.065   0.189
 2233SOL    HW2 7599   3.965   0.101   0.031
 2234SOL     OW 7600   3.858   1.682   0.721
 2234SOL    HW1 7601   3.921   1.695   0.645
 2234SOL    HW2 7602   3.872   1.755   0.789
 2235SOL     OW 7603   1.499   6.610   0.604
 2235SOL    HW1 7604   1.415   6.625   0.656
 2235SOL    HW2 7605   1.493   6.523   0.556
 2236SOL     OW 7606   0.767   4.193   1.311
 2236SOL    HW1 7607   0.730   4.100   1.308
 2236SOL    HW2 7608   0.844   4.201   1.248
 2237SOL     OW 7609   6.254   2.712   4.479
 2237SOL    HW1 7610   6.162   2.706   4.517
 2237SOL    HW2 7611   6.286   2.620   4.456
 2238SOL     OW 7612   0.955   5.638   1.965
 2238SOL    HW1 7613   0.883   5.569   1.959
 2238SOL    HW2 7614   0.988   5.645   2.059
 2239SOL     OW 7615   4.434   4.921   3.132
 2239SOL    HW1 7616   4.373   4.845   3.107
 2239SOL    HW2 7617   4.480   4.899   3.218
 2240SOL     OW 7618   5.589   4.921   2.225
 2240SOL    HW1 7619   5.654   4.965   2.162
 2240SOL    HW2 7620   5.520   4.988   2.252
 2241SOL     OW 7621   0.462   7.008   2.215
 2241SOL    HW1 7622   0.539   0.005   2.156
 2241SOL    HW2 7623   0.379   0.024   2.177
 2242SOL     OW 7624   4.839   1.914   2.600
 2242SOL    HW1 7625   4.764   1.971   2.635
 2242SOL    HW2 7626   4.919   1.926   2.658
 2243SOL     OW 7627   2.413   5.997   5.152
 2243SOL    HW1 7628   2.340   5.978   5.217
 2243SOL    HW2 7629   2.494   6.028   5.201
 2244SOL     OW 7630   2.805   0.882   4.390
 2244SOL    HW1 7631   2.801   0.976   4.422
 2244SOL    HW2 7632   2.713   0.844   4.385
 2245SOL     OW 7633   1.168   1.363   2.141
 2245SOL    HW1 7634   1.224   1.351   2.059
 2245SOL    HW2 7635   1.124   1.453   2.138
 2246SOL     OW 7636   0.846   4.207   5.925
 2246SOL    HW1 7637   0.901   4.142   5.977
 2246SOL    HW2 7638   0.885   4.217   5.833
 2247SOL     OW 7639   2.147   2.300   6.022
 2247SOL    HW1 7640   2.096   2.339   5.944
 2247SOL    HW2 7641   2.151   2.368   6.096
 2248SOL     OW 7642   5.040   3.451   5.436
 2248SOL    HW1 7643   5.119   3.415   5.387
 2248SOL    HW2 7644   4.956   3.416   5.394
 2249SOL     OW 7645   5.177   5.441   3.800
 2249SOL    HW1 7646   5.133   5.423   3.888
 2249SOL    HW2 7647   5.185   5.356   3.748
 2250SOL     OW 7648   6.975   4.562   0.262
 2250SOL    HW1 7649   0.030   4.556   0.202
 2250SOL    HW2 7650   6.995   4.625   0.338
 2251SOL     OW 7651   5.881   1.007   6.849
 2251SOL    HW1 7652   5.936   0.971   6.774
 2251SOL    HW2 7653   5.785   0.984   6.834
 2252SOL     OW 7654   4.537   2.675   5.668
 2252SOL    HW1 7655   4.461   2.667   5.734
 2252SOL    HW2 7656   4.541   2.769   5.634
 2253SOL     OW 7657   2.435   3.447   0.003
 2253SOL    HW1 7658   2.406   3.482   0.092
 2253SOL    HW2 7659   2.370   3.474   6.957
 2254SOL     OW 7660   2.412   3.987   5.887
 2254SOL    HW1 7661   2.486   3.925   5.913
 2254SOL    HW2 7662   2.451   4.077   5.864
 2255SOL     OW 7663   6.083   2.662   1.596
 2255SOL    HW1 7664   6.149   2.622   1.660
 2255SOL    HW2 7665   6.108   2.756   1.575
 2256SOL     OW 7666   4.139   4.649   1.408
 2256SOL    HW1 7667   4.077   4.632   1.332
 2256SOL    HW2 7668   4.152   4.748   1.419
 2257SOL     OW 7669   2.033   4.210   4.116
 2257SOL    HW1 7670   2.039   4.307   4.136
 2257SOL    HW2 7671   1.937   4.185   4.103
 2258SOL     OW 7672   1.612   5.550   4.341
 2258SOL    HW1 7673   1.615   5.615   4.265
 2258SOL    HW2 7674   1.628   5.598   4.427
 2259SOL     OW 7675   5.103   3.541   6.917
 2259SOL    HW1 7676   5.128   3.635   6.894
 2259SOL    HW2 7677   5.145   3.478   6.852
 2260SOL     OW 7678   5.503   5.271   1.248
 2260SOL    HW1 7679   5.508   5.369   1.270
 2260SOL    HW2 7680   5.439   5.259   1.171
 2261SOL     OW 7681   5.299   6.170   6.699
 2261SOL    HW1 7682   5.213   6.178   6.648
 2261SOL    HW2 7683   5.355   6.251   6.684
 2262SOL     OW 7684   4.644   2.154   3.355
 2262SOL    HW1 7685   4.676   2.236   3.403
 2262SOL    HW2 7686   4.723   2.095   3.336
 2263SOL     OW 7687   0.693   4.865   6.098
 2263SOL    HW1 7688   0.709   4.922   6.018
 2263SOL    HW2 7689   0.780   4.850   6.146
 2264SOL     OW 7690   3.703   3.326   4.192
 2264SOL    HW1 7691   3.724   3.293   4.100
 2264SOL    HW2 7692   3.606   3.351   4.198
 2265SOL     OW 7693   0.007   0.044   1.813
 2265SOL    HW1 7694   6.998   0.001   1.730
 2265SOL    HW2 7695   6.964   0.033   1.887
 2266SOL     OW 7696   5.823   0.232   0.598
 2266SOL    HW1 7697   5.744   0.234   0.659
 2266SOL    HW2 7698   5.907   0.244   0.651
 2267SOL     OW 7699   6.122   2.701   5.723
 2267SOL    HW1 7700   6.045   2.702   5.786
 2267SOL    HW2 7701   6.131   2.610   5.682
 2268SOL     OW 7702   0.000   5.794   6.495
 2268SOL    HW1 7703   0.003   5.714   6.434
 2268SOL    HW2 7704   6.933   5.802   6.534
 2269SOL     OW 7705   6.547   5.108   5.754
 2269SOL    HW1 7706   6.573   5.018   5.719
 2269SOL    HW2 7707   6.607   5.178   5.715
 2270SOL     OW 7708   3.785   3.335   1.532
 2270SOL    HW1 7709   3.789   3.434   1.543
 2270SOL    HW2 7710   3.742   3.294   1.613
 2271SOL     OW 7711   6.646   4.434   2.181
 2271SOL    HW1 7712   6.718   4.440   2.112
 2271SOL    HW2 7713   6.586   4.514   2.174
 2272SOL     OW 7714   6.040   1.994   6.124
 2272SOL    HW1 7715   6.047   1.979   6.223
 2272SOL    HW2 7716   5.985   1.922   6.083
 2273SOL     OW 7717   0.745   1.638   2.804
 2273SOL    HW1 7718   0.685   1.717   2.820
 2273SOL    HW2 7719   0.706   1.580   2.733
 2274SOL     OW 7720   0.893   3.209   4.097
 2274SOL    HW1 7721   0.965   3.216   4.165
 2274SOL    HW2 7722   0.852   3.118   4.100
 2275SOL     OW 7723   5.138   6.897   3.961
 2275SOL    HW1 7724   5.191   6.815   3.983
 2275SOL    HW2 7725   5.066   6.909   4.030
 2276SOL     OW 7726   4.332   4.959   1.880
 2276SOL    HW1 7727   4.282   4.928   1.961
 2276SOL    HW2 7728   4.402   4.891   1.857
 2277SOL     OW 7729   3.365   3.331   0.030
 2277SOL    HW1 7730   3.313   3.252   7.024
 2277SOL    HW2 7731   3.314   3.381   0.100
 2278SOL     OW 7732   5.495   5.926   1.437
 2278SOL    HW1 7733   5.529   5.995   1.372
 2278SOL    HW2 7734   5.518   5.954   1.530
 2279SOL     OW 7735   5.790   3.395   4.693
 2279SOL    HW1 7736   5.726   3.433   4.626
 2279SOL    HW2 7737   5.883   3.420   4.668
 2280SOL     OW 7738   6.030   6.545   6.664
 2280SOL    HW1 7739   5.990   6.526   6.753
 2280SOL    HW2 7740   5.978   6.497   6.593
 2281SOL     OW 7741   3.680   2.849   0.712
 2281SOL    HW1 7742   3.709   2.897   0.795
 2281SOL    HW2 7743   3.639   2.761   0.736
 2282SOL     OW 7744   4.342   5.921   2.758
 2282SOL    HW1 7745   4.367   5.942   2.663
 2282SOL    HW2 7746   4.422   5.932   2.817
 2283SOL     OW 7747   6.898   2.908   3.051
 2283SOL    HW1 7748   6.927   2.817   3.081
 2283SOL    HW2 7749   6.977   2.969   3.049
 2284SOL     OW 7750   2.180   2.773   2.167
 2284SOL    HW1 7751   2.236   2.695   2.194
 2284SOL    HW2 7752   2.151   2.824   2.248
 2285SOL     OW 7753   1.544   4.202   0.504
 2285SOL    HW1 7754   1.636   4.239   0.494
 2285SOL    HW2 7755   1.544   4.105   0.481
 2286SOL     OW 7756   6.480   6.222   4.551
 2286SOL    HW1 7757   6.521   6.273   4.627
 2286SOL    HW2 7758   6.383   6.247   4.542
 2287SOL     OW 7759   2.267   2.522   1.951
 2287SOL    HW1 7760   2.192   2.467   1.913
 2287SOL    HW2 7761   2.264   2.519   2.051
 2288SOL     OW 7762   0.142   6.128   3.918
 2288SOL    HW1 7763   0.125   6.138   4.016
 2288SOL    HW2 7764   0.235   6.157   3.897
 2289SOL     OW 7765   5.252   2.056   2.281
 2289SOL    HW1 7766   5.172   2.009   2.243
 2289SOL    HW2 7767   5.288   2.120   2.213
 2290SOL     OW 7768   2.965   3.285   2.873
 2290SOL    HW1 7769   2.994   3.267   2.779
 2290SOL    HW2 7770   3.010   3.221   2.935
 2291SOL     OW 7771   1.859   2.922   0.519
 2291SOL    HW1 7772   1.915   2.843   0.542
 2291SOL    HW2 7773   1.909   3.006   0.543
 2292SOL     OW 7774   4.365   2.233   3.309
 2292SOL    HW1 7775   4.311   2.223   3.393
 2292SOL    HW2 7776   4.445   2.174   3.315
 2293SOL     OW 7777   6.243   1.218   6.902
 2293SOL    HW1 7778   6.170   1.196   6.966
 2293SOL    HW2 7779   6.324   1.164   6.924
 2294SOL     OW 7780   0.823   2.442   6.017
 2294SOL    HW1 7781   0.857   2.381   5.946
 2294SOL    HW2 7782   0.807   2.533   5.979
 2295SOL     OW 7783   5.957   6.497   1.389
 2295SOL    HW1 7784   5.981   6.540   1.301
 2295SOL    HW2 7785   5.998   6.549   1.464
 2296SOL     OW 7786   2.978   5.582   4.013
 2296SOL    HW1 7787   3.064   5.601   3.967
 2296SOL    HW2 7788   2.951   5.662   4.067
 2297SOL     OW 7789   4.178   4.581   5.312
 2297SOL    HW1 7790   4.210   4.533   5.231
 2297SOL    HW2 7791   4.244   4.570   5.386
 2298SOL     OW 7792   3.645   3.762   4.544
 2298SOL    HW1 7793   3.730   3.777   4.595
 2298SOL    HW2 7794   3.605   3.675   4.572
 2299SOL     OW 7795   5.405   2.902   4.652
 2299SOL    HW1 7796   5.469   2.834   4.618
 2299SOL    HW2 7797   5.330   2.856   4.700
 2300SOL     OW 7798   3.841   6.386   2.082
 2300SOL    HW1 7799   3.773   6.372   2.009
 2300SOL    HW2 7800   3.898   6.305   2.090
 2301SOL     OW 7801   3.470   3.493   4.530
 2301SOL    HW1 7802   3.404   3.455   4.465
 2301SOL    HW2 7803   3.431   3.491   4.622
 2302SOL     OW 7804   4.852   2.027   0.341
 2302SOL    HW1 7805   4.780   2.017   0.271
 2302SOL    HW2 7806   4.810   2.050   0.429
 2303SOL     OW 7807   3.712   2.487   0.812
 2303SOL    HW1 7808   3.642   2.557   0.821
 2303SOL    HW2 7809   3.673   2.398   0.836
 2304SOL     OW 7810   5.959   6.063   1.894
 2304SOL    HW1 7811   5.909   5.996   1.950
 2304SOL    HW2 7812   5.971   6.027   1.801
 2305SOL     OW 7813   1.894   1.122   5.024
 2305SOL    HW1 7814   1.929   1.087   4.937
 2305SOL    HW2 7815   1.952   1.197   5.056
 2306SOL     OW 7816   1.955   5.630   3.561
 2306SOL    HW1 7817   2.051   5.649   3.582
 2306SOL    HW2 7818   1.947   5.600   3.466
 2307SOL     OW 7819   0.339   2.069   5.516
 2307SOL    HW1 7820   0.384   2.034   5.598
 2307SOL    HW2 7821   0.392   2.146   5.480
 2308SOL     OW 7822   2.706   4.889   1.708
 2308SOL    HW1 7823   2.619   4.845   1.687
 2308SOL    HW2 7824   2.702   4.931   1.799
 2309SOL     OW 7825   1.421   6.185   4.931
 2309SOL    HW1 7826   1.488   6.257   4.909
 2309SOL    HW2 7827   1.470   6.101   4.954
 2310SOL     OW 7828   4.973   6.590   1.809
 2310SOL    HW1 7829   5.055   6.535   1.795
 2310SOL    HW2 7830   4.975   6.631   1.900
 2311SOL     OW 7831   2.576   6.180   0.763
 2311SOL    HW1 7832   2.523   6.233   0.829
 2311SOL    HW2 7833   2.673   6.186   0.787
 2312SOL     OW 7834   3.513   5.021   2.729
 2312SOL    HW1 7835   3.503   5.121   2.736
 2312SOL    HW2 7836   3.445   4.985   2.665
 2313SOL     OW 7837   5.148   5.124   2.121
 2313SOL    HW1 7838   5.056   5.160   2.136
 2313SOL    HW2 7839   5.176   5.070   2.200
 2314SOL     OW 7840   2.634   5.783   3.966
 2314SOL    HW1 7841   2.584   5.869   3.961
 2314SOL    HW2 7842   2.609   5.725   3.888
 2315SOL     OW 7843   4.005   3.363   6.719
 2315SOL    HW1 7844   3.983   3.273   6.757
 2315SOL    HW2 7845   4.061   3.352   6.637
 2316SOL     OW 7846   5.814   2.908   2.981
 2316SOL    HW1 7847   5.895   2.901   3.039
 2316SOL    HW2 7848   5.733   2.918   3.038
 2317SOL     OW 7849   1.339   5.148   3.632
 2317SOL    HW1 7850   1.307   5.242   3.624
 2317SOL    HW2 7851   1.326   5.100   3.545
 2318SOL     OW 7852   0.175   0.981   3.645
 2318SOL    HW1 7853   0.259   0.993   3.593
 2318SOL    HW2 7854   0.136   0.891   3.624
 2319SOL     OW 7855   1.499   4.097   4.135
 2319SOL    HW1 7856   1.533   4.088   4.041
 2319SOL    HW2 7857   1.408   4.137   4.133
 2320SOL     OW 7858   6.732   3.219   4.402
 2320SOL    HW1 7859   6.808   3.281   4.385
 2320SOL    HW2 7860   6.766   3.135   4.445
 2321SOL     OW 7861   3.203   6.598   5.572
 2321SOL    HW1 7862   3.167   6.521   5.625
 2321SOL    HW2 7863   3.128   6.639   5.519
 2322SOL     OW 7864   2.563   0.346   5.198
 2322SOL    HW1 7865   2.469   0.364   5.229
 2322SOL    HW2 7866   2.561   0.276   5.127
 2323SOL     OW 7867   4.802   5.326   1.748
 2323SOL    HW1 7868   4.775   5.288   1.836
 2323SOL    HW2 7869   4.892   5.368   1.755
 2324SOL     OW 7870   6.810   5.317   3.384
 2324SOL    HW1 7871   6.783   5.396   3.440
 2324SOL    HW2 7872   6.768   5.234   3.422
 2325SOL     OW 7873   0.082   3.780   0.662
 2325SOL    HW1 7874   0.062   3.827   0.576
 2325SOL    HW2 7875   0.006   3.719   0.686
 2326SOL     OW 7876   1.574   5.276   6.820
 2326SOL    HW1 7877   1.622   5.349   6.772
 2326SOL    HW2 7878   1.609   5.269   6.914
 2327SOL     OW 7879   4.860   2.593   4.452
 2327SOL    HW1 7880   4.868   2.611   4.354
 2327SOL    HW2 7881   4.952   2.586   4.492
 2328SOL     OW 7882   4.849   0.146   3.596
 2328SOL    HW1 7883   4.946   0.151   3.621
 2328SOL    HW2 7884   4.839   0.164   3.498
 2329SOL     OW 7885   0.437   6.249   3.845
 2329SOL    HW1 7886   0.432   6.172   3.782
 2329SOL    HW2 7887   0.490   6.223   3.926
 2330SOL     OW 7888   0.586   4.263   3.162
 2330SOL    HW1 7889   0.685   4.271   3.154
 2330SOL    HW2 7890   0.543   4.343   3.119
 2331SOL     OW 7891   1.063   4.481   5.095
 2331SOL    HW1 7892   0.964   4.494   5.094
 2331SOL    HW2 7893   1.100   4.498   5.004
 2332SOL     OW 7894   5.314   2.560   5.709
 2332SOL    HW1 7895   5.300   2.482   5.649
 2332SOL    HW2 7896   5.226   2.592   5.744
 2333SOL     OW 7897   0.735   5.852   3.788
 2333SOL    HW1 7898   0.779   5.940   3.807
 2333SOL    HW2 7899   0.783   5.780   3.839
 2334SOL     OW 7900   3.123   0.096   6.949
 2334SOL    HW1 7901   3.167   0.124   0.010
 2334SOL    HW2 7902   3.124   7.020   6.943
 2335SOL     OW 7903   5.279   6.694   4.123
 2335SOL    HW1 7904   5.260   6.597   4.109
 2335SOL    HW2 7905   5.345   6.705   4.197
 2336SOL     OW 7906   5.327   1.981   5.810
 2336SOL    HW1 7907   5.415   2.028   5.797
 2336SOL    HW2 7908   5.338   1.884   5.792
 2337SOL     OW 7909   5.303   6.911   3.342
 2337SOL    HW1 7910   5.294   7.010   3.347
 2337SOL    HW2 7911   5.336   6.885   3.251
 2338SOL     OW 7912   0.880   6.460   6.655
 2338SOL    HW1 7913   0.963   6.406   6.668
 2338SOL    HW2 7914   0.836   6.477   6.744
 2339SOL     OW 7915   3.467   4.300   0.254
 2339SOL    HW1 7916   3.495   4.299   0.350
 2339SOL    HW2 7917   3.512   4.226   0.205
 2340SOL     OW 7918   3.120   5.448   4.706
 2340SOL    HW1 7919   3.122   5.435   4.805
 2340SOL    HW2 7920   3.177   5.378   4.662
 2341SOL     OW 7921   5.637   5.109   0.587
 2341SOL    HW1 7922   5.559   5.048   0.599
 2341SOL    HW2 7923   5.619   5.196   0.632
 2342SOL     OW 7924   5.957   0.212   5.585
 2342SOL    HW1 7925   6.044   0.229   5.539
 2342SOL    HW2 7926   5.955   0.118   5.621
 2343SOL     OW 7927   1.237   6.606   1.413
 2343SOL    HW1 7928   1.260   6.509   1.406
 2343SOL    HW2 7929   1.138   6.618   1.405
 2344SOL     OW 7930   2.253   2.187   2.871
 2344SOL    HW1 7931   2.283   2.264   2.928
 2344SOL    HW2 7932   2.221   2.222   2.783
 2345SOL     OW 7933   1.934   1.341   4.478
 2345SOL    HW1 7934   1.880   1.422   4.455
 2345SOL    HW2 7935   1.895   1.261   4.432
 2346SOL     OW 7936   5.367   4.251   5.699
 2346SOL    HW1 7937   5.349   4.346   5.723
 2346SOL    HW2 7938   5.292   4.193   5.732
 2347SOL     OW 7939   1.929   2.990   1.974
 2347SOL    HW1 7940   1.877   3.011   2.057
 2347SOL    HW2 7941   2.024   2.969   1.998
 2348SOL     OW 7942   2.640   6.782   2.081
 2348SOL    HW1 7943   2.649   6.771   1.982
 2348SOL    HW2 7944   2.555   6.739   2.111
 2349SOL     OW 7945   5.350   5.686   5.542
 2349SOL    HW1 7946   5.271   5.651   5.491
 2349SOL    HW2 7947   5.368   5.780   5.514
 2350SOL     OW 7948   2.236   6.734   5.753
 2350SOL    HW1 7949   2.277   6.744   5.662
 2350SOL    HW2 7950   2.216   6.825   5.790
 2351SOL     OW 7951   2.173   5.592   4.441
 2351SOL    HW1 7952   2.217   5.584   4.531
 2351SOL    HW2 7953   2.214   5.527   4.378
 2352SOL     OW 7954   0.525   3.529   2.844
 2352SOL    HW1 7955   0.587   3.603   2.871
 2352SOL    HW2 7956   0.579   3.454   2.805
 2353SOL     OW 7957   2.994   4.065   5.890
 2353SOL    HW1 7958   2.927   4.074   5.963
 2353SOL    HW2 7959   3.081   4.032   5.928
 2354SOL     OW 7960   4.184   2.328   0.800
 2354SOL    HW1 7961   4.218   2.390   0.729
 2354SOL    HW2 7962   4.085   2.338   0.809
 2355SOL     OW 7963   0.546   6.178   0.696
 2355SOL    HW1 7964   0.627   6.227   0.728
 2355SOL    HW2 7965   0.550   6.168   0.597
 2356SOL     OW 7966   3.124   5.137   3.546
 2356SOL    HW1 7967   3.095   5.049   3.584
 2356SOL    HW2 7968   3.173   5.122   3.461
 2357SOL     OW 7969   6.550   4.204   1.602
 2357SOL    HW1 7970   6.574   4.233   1.694
 2357SOL    HW2 7971   6.633   4.185   1.550
 2358SOL     OW 7972   3.801   2.339   5.966
 2358SOL    HW1 7973   3.748   2.410   5.919
 2358SOL    HW2 7974   3.894   2.371   5.981
 2359SOL     OW 7975   1.470   1.645   5.602
 2359SOL    HW1 7976   1.427   1.625   5.690
 2359SOL    HW2 7977   1.473   1.562   5.547
 2360SOL     OW 7978   4.193   4.251   0.638
 2360SOL    HW1 7979   4.125   4.211   0.699
 2360SOL    HW2 7980   4.171   4.348   0.624
 2361SOL     OW 7981   4.004   6.228   1.743
 2361SOL    HW1 7982   4.081   6.249   1.683
 2361SOL    HW2 7983   4.033   6.163   1.813
 2362SOL     OW 7984   4.170   6.130   4.208
 2362SOL    HW1 7985   4.151   6.032   4.204
 2362SOL    HW2 7986   4.251   6.147   4.263
 2363SOL     OW 7987   3.062   4.012   0.483
 2363SOL    HW1 7988   3.126   4.084   0.455
 2363SOL    HW2 7989   3.075   3.993   0.580
 2364SOL     OW 7990   4.814   1.678   1.973
 2364SOL    HW1 7991   4.795   1.594   2.024
 2364SOL    HW2 7992   4.747   1.688   1.900
 2365SOL     OW 7993   4.873   3.725   3.570
 2365SOL    HW1 7994   4.842   3.768   3.486
 2365SOL    HW2 7995   4.901   3.631   3.552
 2366SOL     OW 7996   2.648   4.498   5.322
 2366SOL    HW1 7997   2.584   4.428   5.290
 2366SOL    HW2 7998   2.735   4.489   5.273
 2367SOL     OW 7999   0.732   4.615   5.645
 2367SOL    HW1 8000   0.685   4.667   5.574
 2367SOL    HW2 8001   0.689   4.632   5.733
 2368SOL     OW 8002   5.609   5.902   4.388
 2368SOL    HW1 8003   5.639   5.976   4.447
 2368SOL    HW2 8004   5.572   5.940   4.303
 2369SOL     OW 8005   3.154   1.715   4.038
 2369SOL    HW1 8006   3.209   1.748   3.960
 2369SOL    HW2 8007   3.084   1.782   4.059
 2370SOL     OW 8008   5.525   2.474   1.748
 2370SOL    HW1 8009   5.530   2.383   1.707
 2370SOL    HW2 8010   5.444   2.481   1.806
 2371SOL     OW 8011   0.860   0.213   3.019
 2371SOL    HW1 8012   0.772   0.186   3.057
 2371SOL    HW2 8013   0.895   0.138   2.961
 2372SOL     OW 8014   6.576   1.075   5.985
 2372SOL    HW1 8015   6.500   1.090   5.922
 2372SOL    HW2 8016   6.587   1.156   6.044
 2373SOL     OW 8017   5.931   6.557   6.155
 2373SOL    HW1 8018   5.866   6.483   6.141
 2373SOL    HW2 8019   5.884   6.636   6.194
 2374SOL     OW 8020   5.658   5.999   2.481
 2374SOL    HW1 8021   5.695   6.041   2.398
 2374SOL    HW2 8022   5.675   6.059   2.559
 2375SOL     OW 8023   1.080   0.508   3.987
 2375SOL    HW1 8024   0.982   0.527   3.979
 2375SOL    HW2 8025   1.104   0.501   4.083
 2376SOL     OW 8026   5.708   1.405   2.963
 2376SOL    HW1 8027   5.712   1.448   2.873
 2376SOL    HW2 8028   5.625   1.433   3.011
 2377SOL     OW 8029   3.980   5.115   5.908
 2377SOL    HW1 8030   4.006   5.132   5.813
 2377SOL    HW2 8031   3.934   5.195   5.946
 2378SOL     OW 8032   0.450   1.072   0.241
 2378SOL    HW1 8033   0.414   1.151   0.289
 2378SOL    HW2 8034   0.550   1.071   0.250
 2379SOL     OW 8035   6.710   5.260   1.045
 2379SOL    HW1 8036   6.740   5.353   1.065
 2379SOL    HW2 8037   6.709   5.246   0.946
 2380SOL     OW 8038   5.087   4.585   5.128
 2380SOL    HW1 8039   5.023   4.550   5.195
 2380SOL    HW2 8040   5.051   4.670   5.088
 2381SOL     OW 8041   2.756   5.340   4.715
 2381SOL    HW1 8042   2.778   5.290   4.632
 2381SOL    HW2 8043   2.657   5.337   4.731
 2382SOL     OW 8044   0.923   5.967   1.738
 2382SOL    HW1 8045   0.847   5.912   1.773
 2382SOL    HW2 8046   0.965   5.920   1.661
 2383SOL     OW 8047   4.949   5.712   5.565
 2383SOL    HW1 8048   4.869   5.731   5.507
 2383SOL    HW2 8049   5.006   5.643   5.521
 2384SOL     OW 8050   0.569   1.996   1.950
 2384SOL    HW1 8051   0.665   1.972   1.935
 2384SOL    HW2 8052   0.515   1.972   1.868
 2385SOL     OW 8053   1.038   1.965   1.197
 2385SOL    HW1 8054   1.046   1.947   1.098
 2385SOL    HW2 8055   0.941   1.969   1.222
 2386SOL     OW 8056   4.491   5.940   4.359
 2386SOL    HW1 8057   4.434   5.888   4.422
 2386SOL    HW2 8058   4.514   5.883   4.280
 2387SOL     OW 8059   1.735   1.470   4.034
 2387SOL    HW1 8060   1.647   1.516   4.019
 2387SOL    HW2 8061   1.780   1.511   4.114
 2388SOL     OW 8062   6.438   1.503   5.455
 2388SOL    HW1 8063   6.488   1.425   5.420
 2388SOL    HW2 8064   6.502   1.571   5.491
 2389SOL     OW 8065   6.238   4.577   4.624
 2389SOL    HW1 8066   6.149   4.579   4.670
 2389SOL    HW2 8067   6.307   4.538   4.686
 2390SOL     OW 8068   4.694   4.340   5.856
 2390SOL    HW1 8069   4.643   4.422   5.879
 2390SOL    HW2 8070   4.639   4.259   5.878
 2391SOL     OW 8071   3.644   3.917   6.188
 2391SOL    HW1 8072   3.638   3.994   6.252
 2391SOL    HW2 8073   3.628   3.831   6.237
 2392SOL     OW 8074   3.489   5.395   4.820
 2392SOL    HW1 8075   3.503   5.494   4.828
 2392SOL    HW2 8076   3.515   5.365   4.729
 2393SOL     OW 8077   3.300   5.331   1.485
 2393SOL    HW1 8078   3.266   5.274   1.558
 2393SOL    HW2 8079   3.367   5.280   1.431
 2394SOL     OW 8080   0.876   2.509   2.975
 2394SOL    HW1 8081   0.844   2.450   3.049
 2394SOL    HW2 8082   0.942   2.460   2.920
 2395SOL     OW 8083   0.101   2.134   5.339
 2395SOL    HW1 8084   0.188   2.106   5.381
 2395SOL    HW2 8085   0.027   2.122   5.405
 2396SOL     OW 8086   6.579   1.273   5.415
 2396SOL    HW1 8087   6.620   1.302   5.329
 2396SOL    HW2 8088   6.644   1.216   5.465
 2397SOL     OW 8089   0.226   5.150   4.981
 2397SOL    HW1 8090   0.315   5.177   5.018
 2397SOL    HW2 8091   0.213   5.191   4.891
 2398SOL     OW 8092   2.964   5.881   3.797
 2398SOL    HW1 8093   2.890   5.849   3.856
 2398SOL    HW2 8094   3.039   5.816   3.798
 2399SOL     OW 8095   2.709   2.365   4.120
 2399SOL    HW1 8096   2.792   2.356   4.174
 2399SOL    HW2 8097   2.679   2.275   4.088
 2400SOL     OW 8098   1.038   4.021   0.503
 2400SOL    HW1 8099   1.112   4.012   0.570
 2400SOL    HW2 8100   0.973   3.946   0.515
 2401SOL     OW 8101   3.610   0.132   5.665
 2401SOL    HW1 8102   3.512   0.117   5.655
 2401SOL    HW2 8103   3.628   0.179   5.752
 2402SOL     OW 8104   0.691   3.190   2.048
 2402SOL    HW1 8105   0.617   3.257   2.049
 2402SOL    HW2 8106   0.776   3.235   2.021
 2403SOL     OW 8107   3.633   3.742   3.090
 2403SOL    HW1 8108   3.564   3.764   3.159
 2403SOL    HW2 8109   3.602   3.664   3.035
 2404SOL     OW 8110   6.525   1.578   1.183
 2404SOL    HW1 8111   6.607   1.554   1.130
 2404SOL    HW2 8112   6.453   1.510   1.164
 2405SOL     OW 8113   2.369   3.873   0.344
 2405SOL    HW1 8114   2.375   3.785   0.297
 2405SOL    HW2 8115   2.368   3.858   0.443
 2406SOL     OW 8116   2.557   6.777   5.027
 2406SOL    HW1 8117   2.629   6.709   5.017
 2406SOL    HW2 8118   2.597   6.869   5.022
 2407SOL     OW 8119   3.661   1.302   3.827
 2407SOL    HW1 8120   3.584   1.318   3.765
 2407SOL    HW2 8121   3.664   1.205   3.852
 2408SOL     OW 8122   2.499   6.389   4.853
 2408SOL    HW1 8123   2.437   6.312   4.840
 2408SOL    HW2 8124   2.495   6.449   4.772
 2409SOL     OW 8125   2.195   2.653   1.068
 2409SOL    HW1 8126   2.283   2.696   1.088
 2409SOL    HW2 8127   2.151   2.625   1.153
 2410SOL     OW 8128   6.843   4.031   5.836
 2410SOL    HW1 8129   6.793   4.054   5.752
 2410SOL    HW2 8130   6.835   3.933   5.854
 2411SOL     OW 8131   2.521   3.827   0.036
 2411SOL    HW1 8132   2.553   3.744   0.082
 2411SOL    HW2 8133   2.582   3.847   6.984
 2412SOL     OW 8134   3.624   1.785   6.592
 2412SOL    HW1 8135   3.539   1.835   6.577
 2412SOL    HW2 8136   3.604   1.689   6.609
 2413SOL     OW 8137   0.109   2.817   6.503
 2413SOL    HW1 8138   0.119   2.917   6.496
 2413SOL    HW2 8139   0.200   2.776   6.511
 2414SOL     OW 8140   6.067   2.410   4.583
 2414SOL    HW1 8141   6.126   2.428   4.662
 2414SOL    HW2 8142   6.123   2.384   4.504
 2415SOL     OW 8143   2.821   6.199   0.902
 2415SOL    HW1 8144   2.874   6.121   0.937
 2415SOL    HW2 8145   2.813   6.268   0.973
 2416SOL     OW 8146   6.798   3.534   2.974
 2416SOL    HW1 8147   6.816   3.457   2.912
 2416SOL    HW2 8148   6.713   3.579   2.947
 2417SOL     OW 8149   3.664   3.710   0.972
 2417SOL    HW1 8150   3.701   3.801   0.990
 2417SOL    HW2 8151   3.565   3.715   0.958
 2418SOL     OW 8152   4.884   4.263   5.673
 2418SOL    HW1 8153   4.822   4.314   5.732
 2418SOL    HW2 8154   4.932   4.327   5.613
 2419SOL     OW 8155   2.070   6.327   4.111
 2419SOL    HW1 8156   2.081   6.228   4.119
 2419SOL    HW2 8157   2.027   6.363   4.194
 2420SOL     OW 8158   2.404   4.703   2.762
 2420SOL    HW1 8159   2.356   4.620   2.791
 2420SOL    HW2 8160   2.503   4.687   2.766
 2421SOL     OW 8161   3.215   6.976   4.542
 2421SOL    HW1 8162   3.203   6.877   4.551
 2421SOL    HW2 8163   3.150   7.011   4.475
 2422SOL     OW 8164   4.434   6.487   1.151
 2422SOL    HW1 8165   4.349   6.536   1.132
 2422SOL    HW2 8166   4.510   6.534   1.106
 2423SOL     OW 8167   2.150   4.678   2.058
 2423SOL    HW1 8168   2.111   4.662   1.967
 2423SOL    HW2 8169   2.226   4.743   2.051
 2424SOL     OW 8170   5.262   1.388   6.143
 2424SOL    HW1 8171   5.278   1.473   6.194
 2424SOL    HW2 8172   5.190   1.335   6.189
 2425SOL     OW 8173   4.348   5.232   5.610
 2425SOL    HW1 8174   4.324   5.191   5.522
 2425SOL    HW2 8175   4.328   5.168   5.683
 2426SOL     OW 8176   1.301   5.035   5.389
 2426SOL    HW1 8177   1.393   5.013   5.422
 2426SOL    HW2 8178   1.270   4.963   5.327
 2427SOL     OW 8179   4.998   0.748   6.375
 2427SOL    HW1 8180   5.039   0.693   6.302
 2427SOL    HW2 8181   5.070   0.787   6.432
 2428SOL     OW 8182   0.244   0.726   3.348
 2428SOL    HW1 8183   0.230   0.811   3.297
 2428SOL    HW2 8184   0.199   0.733   3.437
 2429SOL     OW 8185   5.478   5.715   2.332
 2429SOL    HW1 8186   5.430   5.801   2.344
 2429SOL    HW2 8187   5.476   5.688   2.235
 2430SOL     OW 8188   6.120   2.682   6.852
 2430SOL    HW1 8189   6.127   2.582   6.847
 2430SOL    HW2 8190   6.080   2.708   6.940
 2431SOL     OW 8191   6.731   1.793   1.124
 2431SOL    HW1 8192   6.718   1.720   1.056
 2431SOL    HW2 8193   6.646   1.808   1.174
 2432SOL     OW 8194   3.764   5.181   2.089
 2432SOL    HW1 8195   3.695   5.253   2.080
 2432SOL    HW2 8196   3.848   5.220   2.126
 2433SOL     OW 8197   6.644   3.722   0.054
 2433SOL    HW1 8198   6.628   3.765   0.142
 2433SOL    HW2 8199   6.572   3.655   0.036
 2434SOL     OW 8200   4.024   1.963   3.104
 2434SOL    HW1 8201   4.024   2.063   3.102
 2434SOL    HW2 8202   4.112   1.929   3.072
 2435SOL     OW 8203   5.384   6.625   6.565
 2435SOL    HW1 8204   5.416   6.696   6.627
 2435SOL    HW2 8205   5.395   6.655   6.471
 2436SOL     OW 8206   2.207   1.627   1.160
 2436SOL    HW1 8207   2.113   1.596   1.152
 2436SOL    HW2 8208   2.232   1.678   1.077
 2437SOL     OW 8209   6.784   5.544   1.944
 2437SOL    HW1 8210   6.865   5.556   2.002
 2437SOL    HW2 8211   6.782   5.616   1.875
 2438SOL     OW 8212   2.867   1.655   4.835
 2438SOL    HW1 8213   2.903   1.663   4.742
 2438SOL    HW2 8214   2.798   1.583   4.838
 2439SOL     OW 8215   0.483   5.597   0.241
 2439SOL    HW1 8216   0.525   5.669   0.185
 2439SOL    HW2 8217   0.543   5.517   0.243
 2440SOL     OW 8218   4.484   1.097   5.064
 2440SOL    HW1 8219   4.548   1.107   5.141
 2440SOL    HW2 8220   4.525   1.038   4.995
 2441SOL     OW 8221   5.965   0.599   6.871
 2441SOL    HW1 8222   6.014   0.685   6.857
 2441SOL    HW2 8223   5.964   0.546   6.787
 2442SOL     OW 8224   4.901   4.019   2.094
 2442SOL    HW1 8225   4.965   3.984   2.026
 2442SOL    HW2 8226   4.916   3.971   2.181
 2443SOL     OW 8227   2.257   2.168   0.724
 2443SOL    HW1 8228   2.185   2.135   0.662
 2443SOL    HW2 8229   2.224   2.247   0.775
 2444SOL     OW 8230   3.440   5.611   0.681
 2444SOL    HW1 8231   3.503   5.537   0.705
 2444SOL    HW2 8232   3.382   5.582   0.605
 2445SOL     OW 8233   0.691   2.084   0.687
 2445SOL    HW1 8234   0.643   1.998   0.673
 2445SOL    HW2 8235   0.780   2.067   0.730
 2446SOL     OW 8236   1.657   3.835   1.789
 2446SOL    HW1 8237   1.666   3.901   1.863
 2446SOL    HW2 8238   1.567   3.843   1.747
 2447SOL     OW 8239   2.737   0.324   0.730
 2447SOL    HW1 8240   2.793   0.373   0.798
 2447SOL    HW2 8241   2.695   0.391   0.668
 2448SOL     OW 8242   6.106   1.686   4.108
 2448SOL    HW1 8243   6.100   1.659   4.012
 2448SOL    HW2 8244   6.156   1.773   4.115
 2449SOL     OW 8245   1.664   4.273   1.890
 2449SOL    HW1 8246   1.704   4.317   1.970
 2449SOL    HW2 8247   1.711   4.306   1.807
 2450SOL     OW 8248   2.064   5.507   6.459
 2450SOL    HW1 8249   2.142   5.446   6.448
 2450SOL    HW2 8250   2.068   5.579   6.390
 2451SOL     OW 8251   0.987   0.090   4.834
 2451SOL    HW1 8252   1.019   0.000   4.866
 2451SOL    HW2 8253   0.972   0.087   4.735
 2452SOL     OW 8254   2.524   2.470   3.589
 2452SOL    HW1 8255   2.535   2.379   3.550
 2452SOL    HW2 8256   2.529   2.464   3.689
 2453SOL     OW 8257   0.403   1.509   0.061
 2453SOL    HW1 8258   0.425   1.581   7.019
 2453SOL    HW2 8259   0.473   1.508   0.132
 2454SOL     OW 8260   3.974   5.313   1.059
 2454SOL    HW1 8261   3.888   5.352   1.025
 2454SOL    HW2 8262   4.051   5.362   1.019
 2455SOL     OW 8263   3.786   0.952   0.683
 2455SOL    HW1 8264   3.885   0.953   0.668
 2455SOL    HW2 8265   3.749   0.863   0.655
 2456SOL     OW 8266   1.297   4.781   0.014
 2456SOL    HW1 8267   1.301   4.875   0.047
 2456SOL    HW2 8268   1.273   4.781   6.940
 2457SOL     OW 8269   5.423   1.749   5.290
 2457SOL    HW1 8270   5.501   1.689   5.271
 2457SOL    HW2 8271   5.405   1.807   5.211
 2458SOL     OW 8272   0.671   0.355   2.830
 2458SOL    HW1 8273   0.749   0.306   2.869
 2458SOL    HW2 8274   0.644   0.311   2.745
 2459SOL     OW 8275   2.642   6.264   0.468
 2459SOL    HW1 8276   2.600   6.224   0.549
 2459SOL    HW2 8277   2.577   6.325   0.423
 2460SOL     OW 8278   1.579   1.233   6.976
 2460SOL    HW1 8279   1.557   1.137   6.959
 2460SOL    HW2 8280   1.648   1.263   6.909
 2461SOL     OW 8281   4.197   0.864   4.079
 2461SOL    HW1 8282   4.256   0.832   4.005
 2461SOL    HW2 8283   4.251   0.875   4.162
 2462SOL     OW 8284   0.391   5.119   0.837
 2462SOL    HW1 8285   0.488   5.096   0.838
 2462SOL    HW2 8286   0.347   5.075   0.760
 2463SOL     OW 8287   6.791   1.107   6.955
 2463SOL    HW1 8288   6.860   1.042   6.989
 2463SOL    HW2 8289   6.834   1.168   6.888
 2464SOL     OW 8290   7.013   2.097   2.645
 2464SOL    HW1 8291   0.021   2.172   2.703
 2464SOL    HW2 8292   6.923   2.066   2.677
 2465SOL     OW 8293   0.199   5.013   5.836
 2465SOL    HW1 8294   0.105   4.980   5.838
 2465SOL    HW2 8295   0.214   5.067   5.753
 2466SOL     OW 8296   1.674   1.894   1.805
 2466SOL    HW1 8297   1.766   1.878   1.770
 2466SOL    HW2 8298   1.607   1.869   1.736
 2467SOL     OW 8299   4.885   1.480   6.071
 2467SOL    HW1 8300   4.896   1.418   6.148
 2467SOL    HW2 8301   4.798   1.529   6.079
 2468SOL     OW 8302   3.833   0.425   6.056
 2468SOL    HW1 8303   3.897   0.474   6.116
 2468SOL    HW2 8304   3.784   0.490   5.999
 2469SOL     OW 8305   4.206   2.675   5.609
 2469SOL    HW1 8306   4.108   2.658   5.617
 2469SOL    HW2 8307   4.257   2.595   5.638
 2470SOL     OW 8308   3.872   4.632   6.815
 2470SOL    HW1 8309   3.893   4.710   6.874
 2470SOL    HW2 8310   3.940   4.624   6.743
 2471SOL     OW 8311   3.956   6.645   1.031
 2471SOL    HW1 8312   3.978   6.738   1.001
 2471SOL    HW2 8313   3.873   6.647   1.087
 2472SOL     OW 8314   4.849   2.668   4.201
 2472SOL    HW1 8315   4.887   2.634   4.115
 2472SOL    HW2 8316   4.797   2.752   4.183
 2473SOL     OW 8317   0.965   4.274   4.812
 2473SOL    HW1 8318   1.018   4.357   4.831
 2473SOL    HW2 8319   1.023   4.194   4.822
 2474SOL     OW 8320   1.051   5.376   0.831
 2474SOL    HW1 8321   1.130   5.313   0.834
 2474SOL    HW2 8322   1.005   5.375   0.920
 2475SOL     OW 8323   5.135   0.338   0.624
 2475SOL    HW1 8324   5.221   0.293   0.600
 2475SOL    HW2 8325   5.148   0.437   0.624
 2476SOL     OW 8326   5.659   0.733   2.203
 2476SOL    HW1 8327   5.663   0.712   2.105
 2476SOL    HW2 8328   5.751   0.734   2.241
 2477SOL     OW 8329   3.999   0.449   3.439
 2477SOL    HW1 8330   4.046   0.363   3.418
 2477SOL    HW2 8331   3.992   0.460   3.538
 2478SOL     OW 8332   4.403   1.325   2.862
 2478SOL    HW1 8333   4.483   1.376   2.830
 2478SOL    HW2 8334   4.351   1.382   2.926
 2479SOL     OW 8335   0.661   2.666   1.489
 2479SOL    HW1 8336   0.686   2.571   1.470
 2479SOL    HW2 8337   0.588   2.694   1.427
 2480SOL     OW 8338   3.618   2.859   1.127
 2480SOL    HW1 8339   3.521   2.880   1.120
 2480SOL    HW2 8340   3.659   2.863   1.036
 2481SOL     OW 8341   3.389   0.351   1.880
 2481SOL    HW1 8342   3.307   0.298   1.858
 2481SOL    HW2 8343   3.384   0.380   1.975
 2482SOL     OW 8344   5.104   3.657   0.140
 2482SOL    HW1 8345   5.149   3.607   0.214
 2482SOL    HW2 8346   5.128   3.617   0.052
 2483SOL     OW 8347   0.740   2.573   0.012
 2483SOL    HW1 8348   0.690   2.635   0.074
 2483SOL    HW2 8349   0.696   2.484   0.012
 2484SOL     OW 8350   3.982   0.873   1.570
 2484SOL    HW1 8351   4.011   0.948   1.629
 2484SOL    HW2 8352   3.958   0.794   1.627
 2485SOL     OW 8353   5.906   2.419   6.945
 2485SOL    HW1 8354   5.823   2.457   6.904
 2485SOL    HW2 8355   5.987   2.454   6.896
 2486SOL     OW 8356   0.376   5.003   5.315
 2486SOL    HW1 8357   0.311   4.948   5.263
 2486SOL    HW2 8358   0.410   5.078   5.259
 2487SOL     OW 8359   4.369   6.315   0.921
 2487SOL    HW1 8360   4.401   6.359   1.005
 2487SOL    HW2 8361   4.327   6.227   0.943
 2488SOL     OW 8362   0.232   4.037   1.894
 2488SOL    HW1 8363   0.299   4.093   1.943
 2488SOL    HW2 8364   0.217   4.075   1.803
 2489SOL     OW 8365   0.694   6.379   4.204
 2489SOL    HW1 8366   0.649   6.447   4.146
 2489SOL    HW2 8367   0.743   6.425   4.278
 2490SOL     OW 8368   0.831   5.823   0.906
 2490SOL    HW1 8369   0.749   5.766   0.913
 2490SOL    HW2 8370   0.869   5.816   0.814
 2491SOL     OW 8371   3.853   4.258   1.494
 2491SOL    HW1 8372   3.806   4.290   1.411
 2491SOL    HW2 8373   3.949   4.285   1.490
 2492SOL     OW 8374   5.038   3.733   1.558
 2492SOL    HW1 8375   5.034   3.688   1.648
 2492SOL    HW2 8376   5.134   3.752   1.535
 2493SOL     OW 8377   0.082   0.300   0.867
 2493SOL    HW1 8378   7.011   0.274   0.851
 2493SOL    HW2 8379   0.105   0.283   0.963
 2494SOL     OW 8380   5.826   3.747   2.020
 2494SOL    HW1 8381   5.865   3.791   2.101
 2494SOL    HW2 8382   5.891   3.752   1.944
 2495SOL     OW 8383   5.066   5.874   3.256
 2495SOL    HW1 8384   5.127   5.816   3.309
 2495SOL    HW2 8385   5.002   5.920   3.318
 2496SOL     OW 8386   0.409   3.432   6.847
 2496SOL    HW1 8387   0.339   3.413   6.916
 2496SOL    HW2 8388   0.493   3.382   6.870
 2497SOL     OW 8389   0.826   0.354   0.378
 2497SOL    HW1 8390   0.743   0.298   0.378
 2497SOL    HW2 8391   0.800   0.451   0.383
 2498SOL     OW 8392   3.259   2.571   5.701
 2498SOL    HW1 8393   3.168   2.606   5.680
 2498SOL    HW2 8394   3.308   2.637   5.758
 2499SOL     OW 8395   6.095   2.909   1.881
 2499SOL    HW1 8396   6.144   2.863   1.955
 2499SOL    HW2 8397   6.160   2.932   1.808
 2500SOL     OW 8398   3.602   3.429   6.666
 2500SOL    HW1 8399   3.584   3.483   6.585
 2500SOL    HW2 8400   3.523   3.433   6.728
 2501SOL     OW 8401   5.145   5.803   0.267
 2501SOL    HW1 8402   5.227   5.812   0.210
 2501SOL    HW2 8403   5.167   5.751   0.350
 2502SOL     OW 8404   2.052   6.749   4.919
 2502SOL    HW1 8405   2.094   6.717   4.835
 2502SOL    HW2 8406   2.094   6.835   4.948
 2503SOL     OW 8407   3.320   6.809   5.210
 2503SOL    HW1 8408   3.370   6.737   5.161
 2503SOL    HW2 8409   3.232   6.824   5.166
 2504SOL     OW 8410   3.813   5.524   2.494
 2504SOL    HW1 8411   3.753   5.506   2.415
 2504SOL    HW2 8412   3.757   5.548   2.573
 2505SOL     OW 8413   0.380   5.796   3.118
 2505SOL    HW1 8414   0.457   5.817   3.179
 2505SOL    HW2 8415   0.344   5.705   3.140
 2506SOL     OW 8416   6.634   3.685   6.198
 2506SOL    HW1 8417   6.592   3.659   6.111
 2506SOL    HW2 8418   6.665   3.602   6.245
 2507SOL     OW 8419   0.420   3.422   0.433
 2507SOL    HW1 8420   0.336   3.451   0.480
 2507SOL    HW2 8421   0.403   3.338   0.383
 2508SOL     OW 8422   2.692   1.833   4.586
 2508SOL    HW1 8423   2.720   1.875   4.499
 2508SOL    HW2 8424   2.712   1.895   4.661
 2509SOL     OW 8425   6.731   4.121   0.308
 2509SOL    HW1 8426   6.801   4.144   0.240
 2509SOL    HW2 8427   6.756   4.161   0.396
 2510SOL     OW 8428   3.608   4.506   0.713
 2510SOL    HW1 8429   3.651   4.528   0.625
 2510SOL    HW2 8430   3.529   4.566   0.726
 2511SOL     OW 8431   2.242   1.373   4.487
 2511SOL    HW1 8432   2.258   1.381   4.585
 2511SOL    HW2 8433   2.144   1.388   4.468
 2512SOL     OW 8434   4.210   4.158   5.530
 2512SOL    HW1 8435   4.192   4.206   5.617
 2512SOL    HW2 8436   4.251   4.222   5.465
 2513SOL     OW 8437   2.019   5.588   5.032
 2513SOL    HW1 8438   1.962   5.634   4.964
 2513SOL    HW2 8439   2.022   5.490   5.013
 2514SOL     OW 8440   0.768   3.440   4.448
 2514SOL    HW1 8441   0.858   3.405   4.423
 2514SOL    HW2 8442   0.699   3.369   4.433
 2515SOL     OW 8443   1.690   6.899   1.335
 2515SOL    HW1 8444   1.652   6.817   1.378
 2515SOL    HW2 8445   1.780   6.877   1.295
 2516SOL     OW 8446   4.933   1.231   2.233
 2516SOL    HW1 8447   5.027   1.237   2.266
 2516SOL    HW2 8448   4.910   1.315   2.184
 2517SOL     OW 8449   1.729   0.439   5.851
 2517SOL    HW1 8450   1.790   0.405   5.779
 2517SOL    HW2 8451   1.661   0.500   5.811
 2518SOL     OW 8452   1.627   5.410   0.830
 2518SOL    HW1 8453   1.539   5.403   0.877
 2518SOL    HW2 8454   1.669   5.499   0.850
 2519SOL     OW 8455   3.404   1.212   1.442
 2519SOL    HW1 8456   3.489   1.167   1.415
 2519SOL    HW2 8457   3.425   1.293   1.496
 2520SOL     OW 8458   3.405   1.471   6.970
 2520SOL    HW1 8459   3.502   1.484   6.954
 2520SOL    HW2 8460   3.376   1.529   0.022
 2521SOL     OW 8461   3.148   1.581   5.515
 2521SOL    HW1 8462   3.227   1.621   5.561
 2521SOL    HW2 8463   3.073   1.570   5.580
 2522SOL     OW 8464   1.882   1.544   5.499
 2522SOL    HW1 8465   1.975   1.535   5.536
 2522SOL    HW2 8466   1.846   1.453   5.477
 2523SOL     OW 8467   1.766   3.373   1.380
 2523SOL    HW1 8468   1.854   3.332   1.359
 2523SOL    HW2 8469   1.744   3.443   1.312
 2524SOL     OW 8470   0.043   6.764   4.557
 2524SOL    HW1 8471   0.005   6.694   4.617
 2524SOL    HW2 8472   0.054   6.850   4.607
 2525SOL     OW 8473   1.546   3.398   4.726
 2525SOL    HW1 8474   1.506   3.352   4.647
 2525SOL    HW2 8475   1.483   3.392   4.804
 2526SOL     OW 8476   1.648   4.378   6.294
 2526SOL    HW1 8477   1.572   4.422   6.247
 2526SOL    HW2 8478   1.677   4.297   6.243
 2527SOL     OW 8479   5.322   5.955   5.470
 2527SOL    HW1 8480   5.297   5.959   5.567
 2527SOL    HW2 8481   5.368   6.040   5.444
 2528SOL     OW 8482   5.587   4.360   5.872
 2528SOL    HW1 8483   5.490   4.383   5.861
 2528SOL    HW2 8484   5.640   4.405   5.800
 2529SOL     OW 8485   0.492   6.724   0.021
 2529SOL    HW1 8486   0.513   6.634   7.008
 2529SOL    HW2 8487   0.506   6.723   0.120
 2530SOL     OW 8488   2.640   6.059   5.316
 2530SOL    HW1 8489   2.649   6.154   5.344
 2530SOL    HW2 8490   2.657   5.999   5.394
 2531SOL     OW 8491   6.012   6.294   5.615
 2531SOL    HW1 8492   6.036   6.391   5.618
 2531SOL    HW2 8493   6.094   6.238   5.625
 2532SOL     OW 8494   0.340   6.090   0.816
 2532SOL    HW1 8495   0.317   6.009   0.762
 2532SOL    HW2 8496   0.426   6.129   0.783
 2533SOL     OW 8497   4.512   0.453   3.744
 2533SOL    HW1 8498   4.572   0.381   3.781
 2533SOL    HW2 8499   4.524   0.537   3.796
 2534SOL     OW 8500   3.937   1.326   1.553
 2534SOL    HW1 8501   3.890   1.403   1.597
 2534SOL    HW2 8502   3.921   1.329   1.454
 2535SOL     OW 8503   3.473   2.461   6.730
 2535SOL    HW1 8504   3.555   2.495   6.775
 2535SOL    HW2 8505   3.391   2.499   6.774
 2536SOL     OW 8506   1.849   0.574   6.580
 2536SOL    HW1 8507   1.844   0.474   6.579
 2536SOL    HW2 8508   1.883   0.607   6.492
 2537SOL     OW 8509   3.236   7.023   6.380
 2537SOL    HW1 8510   3.221   6.946   6.318
 2537SOL    HW2 8511   3.172   0.073   6.357
 2538SOL     OW 8512   0.287   3.684   4.158
 2538SOL    HW1 8513   0.380   3.648   4.161
 2538SOL    HW2 8514   0.223   3.610   4.137
 2539SOL     OW 8515   4.966   1.140   4.473
 2539SOL    HW1 8516   4.958   1.110   4.378
 2539SOL    HW2 8517   4.917   1.075   4.532
 2540SOL     OW 8518   4.097   1.812   2.867
 2540SOL    HW1 8519   4.121   1.737   2.806
 2540SOL    HW2 8520   3.998   1.829   2.862
 2541SOL     OW 8521   3.014   0.023   5.219
 2541SOL    HW1 8522   3.010   0.016   5.319
 2541SOL    HW2 8523   3.014   6.955   5.179
 2542SOL     OW 8524   3.445   3.552   6.448
 2542SOL    HW1 8525   3.383   3.518   6.518
 2542SOL    HW2 8526   3.393   3.602   6.379
 2543SOL     OW 8527   0.261   0.700   4.327
 2543SOL    HW1 8528   0.194   0.625   4.328
 2543SOL    HW2 8529   0.249   0.756   4.408
 2544SOL     OW 8530   0.226   5.546   0.201
 2544SOL    HW1 8531   0.319   5.574   0.222
 2544SOL    HW2 8532   0.210   5.555   0.103
 2545SOL     OW 8533   1.603   6.526   2.254
 2545SOL    HW1 8534   1.571   6.620   2.253
 2545SOL    HW2 8535   1.703   6.525   2.245
 2546SOL     OW 8536   6.944   1.798   1.295
 2546SOL    HW1 8537   6.994   1.794   1.209
 2546SOL    HW2 8538   6.846   1.789   1.277
 2547SOL     OW 8539   0.710   3.899   0.362
 2547SOL    HW1 8540   0.639   3.849   0.313
 2547SOL    HW2 8541   0.708   3.995   0.334
 2548SOL     OW 8542   0.629   6.647   4.564
 2548SOL    HW1 8543   0.633   6.677   4.660
 2548SOL    HW2 8544   0.557   6.579   4.554
 2549SOL     OW 8545   1.051   0.415   1.592
 2549SOL    HW1 8546   1.055   0.438   1.689
 2549SOL    HW2 8547   1.142   0.428   1.551
 2550SOL     OW 8548   6.471   0.017   0.295
 2550SOL    HW1 8549   6.545   0.079   0.270
 2550SOL    HW2 8550   6.410   0.005   0.217
 2551SOL     OW 8551   3.159   4.635   0.407
 2551SOL    HW1 8552   3.136   4.655   0.312
 2551SOL    HW2 8553   3.103   4.691   0.468
 2552SOL     OW 8554   1.994   6.024   4.343
 2552SOL    HW1 8555   1.904   6.066   4.338
 2552SOL    HW2 8556   1.993   5.950   4.410
 2553SOL     OW 8557   3.982   3.387   6.061
 2553SOL    HW1 8558   4.065   3.440   6.040
 2553SOL    HW2 8559   3.924   3.383   5.980
 2554SOL     OW 8560   2.364   0.845   0.209
 2554SOL    HW1 8561   2.273   0.848   0.250
 2554SOL    HW2 8562   2.399   0.752   0.210
 2555SOL     OW 8563   5.889   1.582   4.266
 2555SOL    HW1 8564   5.894   1.489   4.228
 2555SOL    HW2 8565   5.951   1.642   4.215
 2556SOL     OW 8566   4.459   6.290   0.293
 2556SOL    HW1 8567   4.497   6.319   0.381
 2556SOL    HW2 8568   4.382   6.349   0.269
 2557SOL     OW 8569   1.607   3.485   0.522
 2557SOL    HW1 8570   1.681   3.540   0.484
 2557SOL    HW2 8571   1.533   3.477   0.455
 2558SOL     OW 8572   4.874   1.287   5.361
 2558SOL    HW1 8573   4.791   1.343   5.369
 2558SOL    HW2 8574   4.891   1.240   5.447
 2559SOL     OW 8575   1.274   4.255   5.432
 2559SOL    HW1 8576   1.199   4.275   5.370
 2559SOL    HW2 8577   1.348   4.322   5.417
 2560SOL     OW 8578   6.119   2.446   5.595
 2560SOL    HW1 8579   6.170   2.381   5.539
 2560SOL    HW2 8580   6.023   2.419   5.600
 2561SOL     OW 8581   2.577   4.892   5.088
 2561SOL    HW1 8582   2.634   4.969   5.115
 2561SOL    HW2 8583   2.625   4.807   5.107
 2562SOL     OW 8584   2.375   4.889   0.856
 2562SOL    HW1 8585   2.396   4.793   0.874
 2562SOL    HW2 8586   2.443   4.947   0.901
 2563SOL     OW 8587   3.692   1.329   1.020
 2563SOL    HW1 8588   3.677   1.266   0.944
 2563SOL    HW2 8589   3.750   1.404   0.989
 2564SOL     OW 8590   1.775   5.525   0.138
 2564SOL    HW1 8591   1.709   5.468   0.088
 2564SOL    HW2 8592   1.844   5.559   0.075
 2565SOL     OW 8593   1.523   0.693   0.101
 2565SOL    HW1 8594   1.577   0.737   0.029
 2565SOL    HW2 8595   1.447   0.643   0.060
 2566SOL     OW 8596   2.678   6.745   1.820
 2566SOL    HW1 8597   2.643   6.834   1.791
 2566SOL    HW2 8598   2.701   6.691   1.739
 2567SOL     OW 8599   0.938   0.537   0.840
 2567SOL    HW1 8600   0.872   0.601   0.880
 2567SOL    HW2 8601   0.897   0.446   0.836
 2568SOL     OW 8602   4.642   2.117   6.916
 2568SOL    HW1 8603   4.635   2.047   6.845
 2568SOL    HW2 8604   4.553   2.160   6.929
 2569SOL     OW 8605   3.100   0.692   3.023
 2569SOL    HW1 8606   3.005   0.672   3.046
 2569SOL    HW2 8607   3.108   0.705   2.924
 2570SOL     OW 8608   5.851   0.705   5.590
 2570SOL    HW1 8609   5.822   0.778   5.651
 2570SOL    HW2 8610   5.885   0.743   5.504
 2571SOL     OW 8611   1.664   4.882   3.785
 2571SOL    HW1 8612   1.657   4.952   3.714
 2571SOL    HW2 8613   1.581   4.884   3.841
 2572SOL     OW 8614   3.072   5.486   2.367
 2572SOL    HW1 8615   3.028   5.533   2.444
 2572SOL    HW2 8616   3.030   5.396   2.354
 2573SOL     OW 8617   0.782   1.779   1.135
 2573SOL    HW1 8618   0.784   1.840   1.214
 2573SOL    HW2 8619   0.688   1.757   1.111
 2574SOL     OW 8620   5.024   3.615   1.321
 2574SOL    HW1 8621   5.074   3.530   1.335
 2574SOL    HW2 8622   5.011   3.661   1.408
 2575SOL     OW 8623   5.712   5.492   6.544
 2575SOL    HW1 8624   5.693   5.400   6.509
 2575SOL    HW2 8625   5.794   5.490   6.600
 2576SOL     OW 8626   4.176   6.377   4.678
 2576SOL    HW1 8627   4.269   6.360   4.645
 2576SOL    HW2 8628   4.120   6.296   4.661
 2577SOL     OW 8629   3.143   5.367   2.083
 2577SOL    HW1 8630   3.173   5.434   2.015
 2577SOL    HW2 8631   3.138   5.277   2.042
 2578SOL     OW 8632   3.581   1.617   3.860
 2578SOL    HW1 8633   3.671   1.577   3.877
 2578SOL    HW2 8634   3.515   1.544   3.840
 2579SOL     OW 8635   1.261   6.307   4.173
 2579SOL    HW1 8636   1.320   6.387   4.158
 2579SOL    HW2 8637   1.302   6.227   4.129
 2580SOL     OW 8638   2.586   4.734   0.080
 2580SOL    HW1 8639   2.636   4.686   0.008
 2580SOL    HW2 8640   2.540   4.667   0.139
 2581SOL     OW 8641   2.032   5.493   0.857
 2581SOL    HW1 8642   1.935   5.511   0.874
 2581SOL    HW2 8643   2.079   5.578   0.834
 2582SOL     OW 8644   6.952   4.008   1.771
 2582SOL    HW1 8645   0.005   4.050   1.724
 2582SOL    HW2 8646   6.941   4.049   1.861
 2583SOL     OW 8647   0.830   0.958   6.555
 2583SOL    HW1 8648   0.803   0.989   6.463
 2583SOL    HW2 8649   0.787   0.870   6.573
 2584SOL     OW 8650   4.231   4.853   5.686
 2584SOL    HW1 8651   4.154   4.904   5.648
 2584SOL    HW2 8652   4.208   4.823   5.779
 2585SOL     OW 8653   2.628   4.332   6.862
 2585SOL    HW1 8654   2.707   4.312   6.804
 2585SOL    HW2 8655   2.630   4.273   6.942
 2586SOL     OW 8656   3.044   1.223   5.800
 2586SOL    HW1 8657   3.066   1.214   5.703
 2586SOL    HW2 8658   3.123   1.196   5.855
 2587SOL     OW 8659   6.349   1.244   3.255
 2587SOL    HW1 8660   6.309   1.202   3.173
 2587SOL    HW2 8661   6.402   1.324   3.229
 2588SOL     OW 8662   4.059   2.347   5.362
 2588SOL    HW1 8663   3.965   2.371   5.384
 2588SOL    HW2 8664   4.102   2.423   5.313
 2589SOL     OW 8665   0.983   6.790   6.585
 2589SOL    HW1 8666   1.009   6.749   6.672
 2589SOL    HW2 8667   0.884   6.782   6.572
 2590SOL     OW 8668   2.844   5.058   0.105
 2590SOL    HW1 8669   2.833   5.007   0.190
 2590SOL    HW2 8670   2.940   5.087   0.096
 2591SOL     OW 8671   0.042   5.220   3.272
 2591SOL    HW1 8672   0.066   5.153   3.343
 2591SOL    HW2 8673   6.982   5.266   3.298
 2592SOL     OW 8674   2.707   4.090   6.482
 2592SOL    HW1 8675   2.687   4.126   6.391
 2592SOL    HW2 8676   2.650   4.009   6.498
 2593SOL     OW 8677   3.282   5.538   0.473
 2593SOL    HW1 8678   3.183   5.552   0.478
 2593SOL    HW2 8679   3.301   5.455   0.419
 2594SOL     OW 8680   2.613   4.125   6.199
 2594SOL    HW1 8681   2.520   4.147   6.168
 2594SOL    HW2 8682   2.674   4.202   6.177
 2595SOL     OW 8683   0.511   1.744   4.217
 2595SOL    HW1 8684   0.483   1.655   4.253
 2595SOL    HW2 8685   0.490   1.749   4.120
 2596SOL     OW 8686   2.023   2.911   1.065
 2596SOL    HW1 8687   2.068   2.898   0.977
 2596SOL    HW2 8688   1.953   2.841   1.078
 2597SOL     OW 8689   6.636   4.983   6.774
 2597SOL    HW1 8690   6.661   5.070   6.815
 2597SOL    HW2 8691   6.711   4.951   6.716
 2598SOL     OW 8692   6.430   1.485   1.947
 2598SOL    HW1 8693   6.393   1.563   1.998
 2598SOL    HW2 8694   6.515   1.512   1.901
 2599SOL     OW 8695   1.601   6.409   1.114
 2599SOL    HW1 8696   1.661   6.488   1.128
 2599SOL    HW2 8697   1.624   6.338   1.181
 2600SOL     OW 8698   5.861   2.923   3.977
 2600SOL    HW1 8699   5.823   3.015   3.987
 2600SOL    HW2 8700   5.883   2.886   4.067
 2601SOL     OW 8701   1.756   2.336   1.909
 2601SOL    HW1 8702   1.732   2.248   1.948
 2601SOL    HW2 8703   1.706   2.350   1.823
 2602SOL     OW 8704   1.778   5.189   4.593
 2602SOL    HW1 8705   1.835   5.251   4.538
 2602SOL    HW2 8706   1.812   5.095   4.583
 2603SOL     OW 8707   2.367   0.814   2.514
 2603SOL    HW1 8708   2.419   0.886   2.469
 2603SOL    HW2 8709   2.271   0.840   2.519
 2604SOL     OW 8710   5.528   1.989   2.363
 2604SOL    HW1 8711   5.431   2.008   2.348
 2604SOL    HW2 8712   5.540   1.942   2.450
 2605SOL     OW 8713   1.549   3.774   2.778
 2605SOL    HW1 8714   1.597   3.849   2.733
 2605SOL    HW2 8715   1.500   3.720   2.710
 2606SOL     OW 8716   5.582   5.224   1.505
 2606SOL    HW1 8717   5.659   5.280   1.535
 2606SOL    HW2 8718   5.568   5.236   1.407
 2607SOL     OW 8719   1.643   2.054   1.210
 2607SOL    HW1 8720   1.724   1.997   1.225
 2607SOL    HW2 8721   1.562   1.997   1.202
 2608SOL     OW 8722   2.675   5.645   6.630
 2608SOL    HW1 8723   2.642   5.609   6.718
 2608SOL    HW2 8724   2.723   5.572   6.581
 2609SOL     OW 8725   0.384   1.243   1.231
 2609SOL    HW1 8726   0.316   1.171   1.246
 2609SOL    HW2 8727   0.364   1.320   1.293
 2610SOL     OW 8728   1.462   4.701   3.919
 2610SOL    HW1 8729   1.475   4.623   3.858
 2610SOL    HW2 8730   1.425   4.778   3.868
 2611SOL     OW 8731   4.359   6.267   7.009
 2611SOL    HW1 8732   4.320   6.347   0.029
 2611SOL    HW2 8733   4.362   6.191   0.049
 2612SOL     OW 8734   5.084   6.793   4.484
 2612SOL    HW1 8735   5.160   6.736   4.514
 2612SOL    HW2 8736   5.118   6.885   4.464
 2613SOL     OW 8737   1.722   5.143   6.310
 2613SOL    HW1 8738   1.673   5.215   6.359
 2613SOL    HW2 8739   1.764   5.182   6.228
 2614SOL     OW 8740   5.761   0.632   6.305
 2614SOL    HW1 8741   5.796   0.708   6.251
 2614SOL    HW2 8742   5.783   0.648   6.402
 2615SOL     OW 8743   1.340   3.216   1.741
 2615SOL    HW1 8744   1.332   3.222   1.841
 2615SOL    HW2 8745   1.374   3.303   1.705
 2616SOL     OW 8746   0.907   1.179   5.024
 2616SOL    HW1 8747   0.851   1.193   5.106
 2616SOL    HW2 8748   0.929   1.268   4.983
 2617SOL     OW 8749   5.309   0.657   0.878
 2617SOL    HW1 8750   5.366   0.660   0.796
 2617SOL    HW2 8751   5.292   0.750   0.910
 2618SOL     OW 8752   0.982   5.614   4.779
 2618SOL    HW1 8753   0.999   5.614   4.878
 2618SOL    HW2 8754   0.895   5.660   4.761
 2619SOL     OW 8755   4.376   1.691   1.986
 2619SOL    HW1 8756   4.406   1.696   1.890
 2619SOL    HW2 8757   4.331   1.603   2.002
 2620SOL     OW 8758   6.219   6.068   2.001
 2620SOL    HW1 8759   6.230   6.012   1.919
 2620SOL    HW2 8760   6.146   6.134   1.988
 2621SOL     OW 8761   0.684   5.494   2.744
 2621SOL    HW1 8762   0.780   5.473   2.729
 2621SOL    HW2 8763   0.675   5.588   2.777
 2622SOL     OW 8764   2.755   2.984   6.087
 2622SOL    HW1 8765   2.666   2.943   6.108
 2622SOL    HW2 8766   2.802   3.008   6.172
 2623SOL     OW 8767   0.302   0.042   3.801
 2623SOL    HW1 8768   0.337   6.976   3.828
 2623SOL    HW2 8769   0.246   0.032   3.719
 2624SOL     OW 8770   6.631   2.234   4.840
 2624SOL    HW1 8771   6.538   2.255   4.870
 2624SOL    HW2 8772   6.668   2.158   4.893
 2625SOL     OW 8773   2.206   4.899   5.535
 2625SOL    HW1 8774   2.226   4.959   5.457
 2625SOL    HW2 8775   2.291   4.854   5.565
 2626SOL     OW 8776   6.632   6.952   5.217
 2626SOL    HW1 8777   6.668   6.979   5.306
 2626SOL    HW2 8778   6.533   6.941   5.224
 2627SOL     OW 8779   0.997   0.290   6.464
 2627SOL    HW1 8780   1.069   0.245   6.411
 2627SOL    HW2 8781   1.002   0.259   6.559
 2628SOL     OW 8782   1.647   3.318   3.817
 2628SOL    HW1 8783   1.585   3.396   3.825
 2628SOL    HW2 8784   1.705   3.329   3.736
 2629SOL     OW 8785   3.291   4.137   3.326
 2629SOL    HW1 8786   3.297   4.111   3.422
 2629SOL    HW2 8787   3.233   4.073   3.277
 2630SOL     OW 8788   3.379   0.994   3.147
 2630SOL    HW1 8789   3.475   1.019   3.156
 2630SOL    HW2 8790   3.361   0.960   3.055
 2631SOL     OW 8791   5.326   0.381   6.318
 2631SOL    HW1 8792   5.315   0.397   6.416
 2631SOL    HW2 8793   5.410   0.329   6.302
 2632SOL     OW 8794   5.593   4.916   1.489
 2632SOL    HW1 8795   5.599   5.015   1.504
 2632SOL    HW2 8796   5.649   4.868   1.556
 2633SOL     OW 8797   6.715   2.695   5.467
 2633SOL    HW1 8798   6.702   2.648   5.555
 2633SOL    HW2 8799   6.806   2.736   5.465
 2634SOL     OW 8800   6.833   6.020   4.778
 2634SOL    HW1 8801   6.900   6.093   4.790
 2634SOL    HW2 8802   6.877   5.932   4.790
 2635SOL     OW 8803   5.586   5.440   4.019
 2635SOL    HW1 8804   5.614   5.358   4.070
 2635SOL    HW2 8805   5.664   5.474   3.966
 2636SOL     OW 8806   3.877   0.842   5.787
 2636SOL    HW1 8807   3.800   0.883   5.739
 2636SOL    HW2 8808   3.886   0.884   5.878
 2637SOL     OW 8809   0.131   1.936   3.584
 2637SOL    HW1 8810   0.117   2.027   3.543
 2637SOL    HW2 8811   0.048   1.882   3.573
 2638SOL     OW 8812   0.902   0.082   4.568
 2638SOL    HW1 8813   0.904   0.182   4.558
 2638SOL    HW2 8814   0.808   0.052   4.580
 2639SOL     OW 8815   4.648   5.115   4.863
 2639SOL    HW1 8816   4.607   5.070   4.942
 2639SOL    HW2 8817   4.748   5.113   4.872
 2640SOL     OW 8818   0.611   0.287   5.316
 2640SOL    HW1 8819   0.708   0.270   5.299
 2640SOL    HW2 8820   0.602   0.350   5.394
 2641SOL     OW 8821   5.512   2.502   0.136
 2641SOL    HW1 8822   5.511   2.407   0.168
 2641SOL    HW2 8823   5.603   2.542   0.151
 2642SOL     OW 8824   6.888   1.165   4.541
 2642SOL    HW1 8825   6.967   1.136   4.487
 2642SOL    HW2 8826   6.834   1.086   4.566
 2643SOL     OW 8827   0.645   2.866   3.986
 2643SOL    HW1 8828   0.555   2.866   4.030
 2643SOL    HW2 8829   0.681   2.773   3.984
 2644SOL     OW 8830   4.476   5.543   4.855
 2644SOL    HW1 8831   4.447   5.638   4.846
 2644SOL    HW2 8832   4.575   5.537   4.837
 2645SOL     OW 8833   4.737   5.073   3.423
 2645SOL    HW1 8834   4.675   5.151   3.430
 2645SOL    HW2 8835   4.785   5.077   3.335
 2646SOL     OW 8836   0.488   3.902   6.111
 2646SOL    HW1 8837   0.566   3.843   6.094
 2646SOL    HW2 8838   0.485   3.926   6.208
 2647SOL     OW 8839   5.234   0.332   1.570
 2647SOL    HW1 8840   5.220   0.361   1.475
 2647SOL    HW2 8841   5.326   0.357   1.599
 2648SOL     OW 8842   0.655   0.224   4.154
 2648SOL    HW1 8843   0.585   0.159   4.180
 2648SOL    HW2 8844   0.741   0.176   4.135
 2649SOL     OW 8845   5.107   2.795   1.636
 2649SOL    HW1 8846   5.018   2.814   1.595
 2649SOL    HW2 8847   5.146   2.880   1.673
 2650SOL     OW 8848   3.191   6.157   4.935
 2650SOL    HW1 8849   3.156   6.222   5.002
 2650SOL    HW2 8850   3.191   6.065   4.974
 2651SOL     OW 8851   3.765   1.907   5.916
 2651SOL    HW1 8852   3.819   1.849   5.978
 2651SOL    HW2 8853   3.722   1.980   5.969
 2652SOL     OW 8854   4.709   3.682   5.569
 2652SOL    HW1 8855   4.747   3.737   5.495
 2652SOL    HW2 8856   4.609   3.676   5.558
 2653SOL     OW 8857   3.396   5.818   6.368
 2653SOL    HW1 8858   3.476   5.877   6.365
 2653SOL    HW2 8859   3.314   5.874   6.384
 2654SOL     OW 8860   5.157   6.750   0.537
 2654SOL    HW1 8861   5.133   6.675   0.476
 2654SOL    HW2 8862   5.074   6.789   0.577
 2655SOL     OW 8863   4.818   5.999   3.358
 2655SOL    HW1 8864   4.815   5.902   3.381
 2655SOL    HW2 8865   4.861   6.050   3.432
 2656SOL     OW 8866   3.897   5.809   3.643
 2656SOL    HW1 8867   3.916   5.850   3.553
 2656SOL    HW2 8868   3.979   5.761   3.675
 2657SOL     OW 8869   1.951   3.668   0.650
 2657SOL    HW1 8870   1.954   3.751   0.706
 2657SOL    HW2 8871   1.955   3.588   0.709
 2658SOL     OW 8872   4.309   4.174   6.411
 2658SOL    HW1 8873   4.316   4.226   6.496
 2658SOL    HW2 8874   4.338   4.079   6.427
 2659SOL     OW 8875   5.294   2.188   5.037
 2659SOL    HW1 8876   5.368   2.254   5.028
 2659SOL    HW2 8877   5.249   2.200   5.125
 2660SOL     OW 8878   0.830   1.478   1.047
 2660SOL    HW1 8879   0.919   1.462   1.089
 2660SOL    HW2 8880   0.778   1.543   1.103
 2661SOL     OW 8881   1.498   0.419   1.570
 2661SOL    HW1 8882   1.552   0.501   1.591
 2661SOL    HW2 8883   1.406   0.446   1.541
 2662SOL     OW 8884   3.358   0.885   3.455
 2662SOL    HW1 8885   3.369   0.904   3.358
 2662SOL    HW2 8886   3.448   0.869   3.495
 2663SOL     OW 8887   3.265   6.758   5.952
 2663SOL    HW1 8888   3.193   6.756   5.883
 2663SOL    HW2 8889   3.342   6.813   5.918
 2664SOL     OW 8890   3.825   2.667   5.314
 2664SOL    HW1 8891   3.922   2.689   5.302
 2664SOL    HW2 8892   3.791   2.710   5.398
 2665SOL     OW 8893   2.404   3.432   5.354
 2665SOL    HW1 8894   2.436   3.337   5.354
 2665SOL    HW2 8895   2.476   3.491   5.390
 2666SOL     OW 8896   1.830   3.758   2.873
 2666SOL    HW1 8897   1.839   3.685   2.941
 2666SOL    HW2 8898   1.736   3.760   2.839
 2667SOL     OW 8899   6.369   4.087   3.931
 2667SOL    HW1 8900   6.371   4.035   3.845
 2667SOL    HW2 8901   6.353   4.024   4.007
 2668SOL     OW 8902   5.622   1.577   4.951
 2668SOL    HW1 8903   5.670   1.657   4.915
 2668SOL    HW2 8904   5.526   1.601   4.966
 2669SOL     OW 8905   2.350   6.448   0.200
 2669SOL    HW1 8906   2.345   6.362   0.150
 2669SOL    HW2 8907   2.374   6.522   0.137
 2670SOL     OW 8908   6.950   1.684   5.596
 2670SOL    HW1 8909   6.904   1.700   5.683
 2670SOL    HW2 8910   6.966   1.771   5.549
 2671SOL     OW 8911   3.815   5.653   5.970
 2671SOL    HW1 8912   3.807   5.711   5.889
 2671SOL    HW2 8913   3.908   5.657   6.005
 2672SOL     OW 8914   3.599   1.251   1.800
 2672SOL    HW1 8915   3.663   1.319   1.836
 2672SOL    HW2 8916   3.571   1.277   1.708
 2673SOL     OW 8917   4.962   0.117   2.723
 2673SOL    HW1 8918   4.998   0.160   2.805
 2673SOL    HW2 8919   4.864   0.135   2.716
 2674SOL     OW 8920   1.368   5.551   3.431
 2674SOL    HW1 8921   1.440   5.595   3.485
 2674SOL    HW2 8922   1.388   5.562   3.334
 2675SOL     OW 8923   7.001   5.951   3.805
 2675SOL    HW1 8924   0.035   5.901   3.740
 2675SOL    HW2 8925   0.028   6.028   3.843
 2676SOL     OW 8926   3.026   3.954   2.590
 2676SOL    HW1 8927   2.928   3.966   2.577
 2676SOL    HW2 8928   3.057   3.873   2.540
 2677SOL     OW 8929   2.111   4.454   1.246
 2677SOL    HW1 8930   2.141   4.549   1.237
 2677SOL    HW2 8931   2.176   4.404   1.302
 2678SOL     OW 8932   6.160   2.380   2.601
 2678SOL    HW1 8933   6.189   2.347   2.511
 2678SOL    HW2 8934   6.219   2.455   2.630
 2679SOL     OW 8935   1.614   5.473   1.810
 2679SOL    HW1 8936   1.638   5.416   1.889
 2679SOL    HW2 8937   1.600   5.567   1.841
 2680SOL     OW 8938   1.133   2.237   6.821
 2680SOL    HW1 8939   1.197   2.171   6.861
 2680SOL    HW2 8940   1.080   2.280   6.894
 2681SOL     OW 8941   0.974   3.143   5.226
 2681SOL    HW1 8942   0.911   3.066   5.238
 2681SOL    HW2 8943   0.980   3.195   5.312
 2682SOL     OW 8944   4.736   4.235   2.162
 2682SOL    HW1 8945   4.778   4.156   2.118
 2682SOL    HW2 8946   4.658   4.266   2.108
 2683SOL     OW 8947   2.248   4.308   3.302
 2683SOL    HW1 8948   2.151   4.333   3.303
 2683SOL    HW2 8949   2.287   4.322   3.393
 2684SOL     OW 8950   5.514   6.275   2.399
 2684SOL    HW1 8951   5.546   6.369   2.388
 2684SOL    HW2 8952   5.536   6.242   2.491
 2685SOL     OW 8953   6.975   5.449   4.921
 2685SOL    HW1 8954   6.885   5.446   4.877
 2685SOL    HW2 8955   0.022   5.450   4.850
 2686SOL     OW 8956   1.597   1.133   4.442
 2686SOL    HW1 8957   1.690   1.134   4.405
 2686SOL    HW2 8958   1.592   1.194   4.521
 2687SOL     OW 8959   4.210   1.432   1.940
 2687SOL    HW1 8960   4.159   1.486   1.874
 2687SOL    HW2 8961   4.158   1.351   1.966
 2688SOL     OW 8962   3.412   2.328   6.979
 2688SOL    HW1 8963   3.377   2.372   6.896
 2688SOL    HW2 8964   3.511   2.343   6.986
 2689SOL     OW 8965   0.656   3.906   2.682
 2689SOL    HW1 8966   0.572   3.937   2.725
 2689SOL    HW2 8967   0.714   3.985   2.661
 2690SOL     OW 8968   3.228   1.995   6.271
 2690SOL    HW1 8969   3.274   2.071   6.225
 2690SOL    HW2 8970   3.264   1.986   6.364
 2691SOL     OW 8971   0.087   4.352   4.634
 2691SOL    HW1 8972   0.136   4.319   4.553
 2691SOL    HW2 8973   0.123   4.308   4.716
 2692SOL     OW 8974   2.596   5.879   2.824
 2692SOL    HW1 8975   2.641   5.799   2.864
 2692SOL    HW2 8976   2.541   5.925   2.894
 2693SOL     OW 8977   1.769   5.796   3.770
 2693SOL    HW1 8978   1.837   5.868   3.755
 2693SOL    HW2 8979   1.782   5.724   3.701
 2694SOL     OW 8980   3.794   6.475   2.996
 2694SOL    HW1 8981   3.701   6.441   2.982
 2694SOL    HW2 8982   3.811   6.552   2.934
 2695SOL     OW 8983   6.606   6.744   2.557
 2695SOL    HW1 8984   6.543   6.691   2.614
 2695SOL    HW2 8985   6.564   6.764   2.469
 2696SOL     OW 8986   4.655   4.264   6.316
 2696SOL    HW1 8987   4.629   4.215   6.399
 2696SOL    HW2 8988   4.712   4.343   6.340
 2697SOL     OW 8989   4.304   1.435   1.063
 2697SOL    HW1 8990   4.281   1.394   1.151
 2697SOL    HW2 8991   4.402   1.427   1.047
 2698SOL     OW 8992   1.357   4.687   5.956
 2698SOL    HW1 8993   1.262   4.694   5.987
 2698SOL    HW2 8994   1.393   4.596   5.981
 2699SOL     OW 8995   3.052   5.945   2.347
 2699SOL    HW1 8996   3.084   5.862   2.301
 2699SOL    HW2 8997   3.112   6.021   2.324
 2700SOL     OW 8998   2.987   2.102   1.336
 2700SOL    HW1 8999   3.036   2.092   1.423
 2700SOL    HW2 9000   2.924   2.025   1.325
 2701SOL     OW 9001   5.255   3.062   4.311
 2701SOL    HW1 9002   5.327   3.019   4.257
 2701SOL    HW2 9003   5.287   3.075   4.405
 2702SOL     OW 9004   2.522   1.777   4.361
 2702SOL    HW1 9005   2.574   1.763   4.446
 2702SOL    HW2 9006   2.441   1.720   4.361
 2703SOL     OW 9007   1.890   5.566   1.480
 2703SOL    HW1 9008   1.847   5.642   1.527
 2703SOL    HW2 9009   1.844   5.481   1.505
 2704SOL     OW 9010   6.447   5.158   3.337
 2704SOL    HW1 9011   6.416   5.243   3.294
 2704SOL    HW2 9012   6.368   5.110   3.376
 2705SOL     OW 9013   0.567   0.841   5.019
 2705SOL    HW1 9014   0.567   0.935   5.054
 2705SOL    HW2 9015   0.630   0.786   5.073
 2706SOL     OW 9016   6.467   4.539   4.470
 2706SOL    HW1 9017   6.544   4.556   4.532
 2706SOL    HW2 9018   6.397   4.609   4.484
 2707SOL     OW 9019   3.808   0.053   2.923
 2707SOL    HW1 9020   3.905   0.075   2.929
 2707SOL    HW2 9021   3.755   0.137   2.911
 2708SOL     OW 9022   6.115   2.786   0.360
 2708SOL    HW1 9023   6.170   2.754   0.438
 2708SOL    HW2 9024   6.030   2.826   0.393
 2709SOL     OW 9025   5.006   0.018   6.251
 2709SOL    HW1 9026   5.001   0.057   6.159
 2709SOL    HW2 9027   4.964   6.952   6.251
 2710SOL     OW 9028   1.301   3.236   4.153
 2710SOL    HW1 9029   1.290   3.244   4.054
 2710SOL    HW2 9030   1.358   3.311   4.186
 2711SOL     OW 9031   3.736   1.847   3.741
 2711SOL    HW1 9032   3.694   1.887   3.660
 2711SOL    HW2 9033   3.685   1.765   3.769
 2712SOL     OW 9034   3.966   5.681   2.312
 2712SOL    HW1 9035   4.061   5.652   2.313
 2712SOL    HW2 9036   3.916   5.635   2.386
 2713SOL     OW 9037   4.802   4.497   6.351
 2713SOL    HW1 9038   4.831   4.489   6.447
 2713SOL    HW2 9039   4.877   4.470   6.292
 2714SOL     OW 9040   3.156   3.619   6.407
 2714SOL    HW1 9041   3.073   3.568   6.383
 2714SOL    HW2 9042   3.139   3.673   6.489
 2715SOL     OW 9043   5.132   1.607   1.433
 2715SOL    HW1 9044   5.081   1.638   1.352
 2715SOL    HW2 9045   5.192   1.532   1.407
 2716SOL     OW 9046   4.193   2.063   2.910
 2716SOL    HW1 9047   4.225   2.120   2.834
 2716SOL    HW2 9048   4.182   1.969   2.878
 2717SOL     OW 9049   1.068   1.173   2.393
 2717SOL    HW1 9050   1.112   1.252   2.435
 2717SOL    HW2 9051   1.007   1.203   2.320
 2718SOL     OW 9052   0.736   0.630   6.271
 2718SOL    HW1 9053   0.712   0.724   6.297
 2718SOL    HW2 9054   0.790   0.588   6.345
 2719SOL     OW 9055   1.881   4.695   2.733
 2719SOL    HW1 9056   1.943   4.617   2.729
 2719SOL    HW2 9057   1.814   4.688   2.659
 2720SOL     OW 9058   1.086   0.470   5.255
 2720SOL    HW1 9059   0.999   0.446   5.300
 2720SOL    HW2 9060   1.083   0.566   5.226
 2721SOL     OW 9061   3.066   6.262   1.441
 2721SOL    HW1 9062   3.163   6.243   1.457
 2721SOL    HW2 9063   3.014   6.237   1.523
 2722SOL     OW 9064   4.566   5.804   6.667
 2722SOL    HW1 9065   4.604   5.734   6.606
 2722SOL    HW2 9066   4.625   5.815   6.747
 2723SOL     OW 9067   3.423   6.588   0.048
 2723SOL    HW1 9068   3.352   6.586   0.119
 2723SOL    HW2 9069   3.512   6.599   0.091
 2724SOL     OW 9070   1.082   6.423   0.040
 2724SOL    HW1 9071   1.138   6.361   7.010
 2724SOL    HW2 9072   1.060   6.381   0.128
 2725SOL     OW 9073   5.034   3.898   4.125
 2725SOL    HW1 9074   5.039   3.800   4.105
 2725SOL    HW2 9075   5.077   3.950   4.051
 2726SOL     OW 9076   0.778   1.876   1.578
 2726SOL    HW1 9077   0.877   1.862   1.582
 2726SOL    HW2 9078   0.755   1.961   1.625
 2727SOL     OW 9079   2.285   4.167   4.076
 2727SOL    HW1 9080   2.322   4.079   4.106
 2727SOL    HW2 9081   2.195   4.181   4.117
 2728SOL     OW 9082   5.332   5.600   6.307
 2728SOL    HW1 9083   5.426   5.617   6.280
 2728SOL    HW2 9084   5.330   5.542   6.389
 2729SOL     OW 9085   5.360   6.448   6.202
 2729SOL    HW1 9086   5.361   6.353   6.234
 2729SOL    HW2 9087   5.279   6.494   6.238
 2730SOL     OW 9088   0.603   5.641   2.174
 2730SOL    HW1 9089   0.556   5.709   2.119
 2730SOL    HW2 9090   0.556   5.631   2.262
 2731SOL     OW 9091   3.035   3.080   3.605
 2731SOL    HW1 9092   3.074   3.055   3.693
 2731SOL    HW2 9093   3.014   3.178   3.604
 2732SOL     OW 9094   4.620   1.347   1.074
 2732SOL    HW1 9095   4.640   1.387   1.164
 2732SOL    HW2 9096   4.706   1.323   1.029
 2733SOL     OW 9097   6.860   0.979   5.672
 2733SOL    HW1 9098   6.875   1.031   5.756
 2733SOL    HW2 9099   6.877   0.882   5.688
 2734SOL     OW 9100   3.716   6.209   1.696
 2734SOL    HW1 9101   3.715   6.134   1.629
 2734SOL    HW2 9102   3.810   6.222   1.729
 2735SOL     OW 9103   1.395   2.335   0.490
 2735SOL    HW1 9104   1.485   2.297   0.470
 2735SOL    HW2 9105   1.333   2.260   0.517
 2736SOL     OW 9106   5.393   6.193   3.467
 2736SOL    HW1 9107   5.394   6.094   3.485
 2736SOL    HW2 9108   5.479   6.233   3.499
 2737SOL     OW 9109   2.985   1.915   6.388
 2737SOL    HW1 9110   3.072   1.925   6.340
 2737SOL    HW2 9111   3.001   1.869   6.476
 2738SOL     OW 9112   5.943   0.712   1.632
 2738SOL    HW1 9113   5.979   0.774   1.702
 2738SOL    HW2 9114   5.922   0.624   1.674
 2739SOL     OW 9115   1.124   5.431   1.503
 2739SOL    HW1 9116   1.138   5.430   1.602
 2739SOL    HW2 9117   1.050   5.494   1.481
 2740SOL     OW 9118   0.443   5.906   2.578
 2740SOL    HW1 9119   0.428   5.878   2.672
 2740SOL    HW2 9120   0.540   5.896   2.555
 2741SOL     OW 9121   0.993   2.229   4.458
 2741SOL    HW1 9122   1.040   2.263   4.539
 2741SOL    HW2 9123   0.916   2.171   4.485
 2742SOL     OW 9124   3.340   4.687   1.703
 2742SOL    HW1 9125   3.335   4.624   1.626
 2742SOL    HW2 9126   3.429   4.680   1.747
 2743SOL     OW 9127   6.897   4.825   2.110
 2743SOL    HW1 9128   6.811   4.836   2.061
 2743SOL    HW2 9129   6.918   4.727   2.118
 2744SOL     OW 9130   3.196   3.308   2.415
 2744SOL    HW1 9131   3.210   3.271   2.323
 2744SOL    HW2 9132   3.247   3.253   2.481
 2745SOL     OW 9133   6.889   1.432   5.845
 2745SOL    HW1 9134   6.937   1.490   5.911
 2745SOL    HW2 9135   6.922   1.452   5.752
 2746SOL     OW 9136   0.825   0.656   3.980
 2746SOL    HW1 9137   0.764   0.631   3.905
 2746SOL    HW2 9138   0.853   0.751   3.970
 2747SOL     OW 9139   3.650   5.531   0.147
 2747SOL    HW1 9140   3.687   5.542   0.054
 2747SOL    HW2 9141   3.557   5.568   0.150
 2748SOL     OW 9142   4.630   0.655   1.307
 2748SOL    HW1 9143   4.724   0.672   1.335
 2748SOL    HW2 9144   4.628   0.616   1.215
 2749SOL     OW 9145   1.156   3.394   0.438
 2749SOL    HW1 9146   1.088   3.405   0.364
 2749SOL    HW2 9147   1.244   3.369   0.398
 2750SOL     OW 9148   2.715   5.344   2.404
 2750SOL    HW1 9149   2.780   5.298   2.343
 2750SOL    HW2 9150   2.755   5.350   2.496
 2751SOL     OW 9151   2.056   2.104   1.480
 2751SOL    HW1 9152   2.116   2.054   1.542
 2751SOL    HW2 9153   1.971   2.126   1.528
 2752SOL     OW 9154   3.922   4.615   5.628
 2752SOL    HW1 9155   3.909   4.562   5.544
 2752SOL    HW2 9156   3.972   4.698   5.607
 2753SOL     OW 9157   6.077   6.270   5.011
 2753SOL    HW1 9158   6.170   6.291   5.041
 2753SOL    HW2 9159   6.018   6.259   5.091
 2754SOL     OW 9160   0.352   6.082   6.766
 2754SOL    HW1 9161   0.409   6.163   6.752
 2754SOL    HW2 9162   0.330   6.041   6.678
 2755SOL     OW 9163   2.769   0.036   2.722
 2755SOL    HW1 9164   2.848   7.004   2.748
 2755SOL    HW2 9165   2.795   0.132   2.721
 2756SOL     OW 9166   4.826   6.613   0.468
 2756SOL    HW1 9167   4.896   6.668   0.421
 2756SOL    HW2 9168   4.839   6.620   0.567
 2757SOL     OW 9169   1.293   5.250   0.479
 2757SOL    HW1 9170   1.273   5.158   0.447
 2757SOL    HW2 9171   1.355   5.245   0.558
 2758SOL     OW 9172   5.438   0.010   5.139
 2758SOL    HW1 9173   5.457   0.061   5.223
 2758SOL    HW2 9174   5.417   6.939   5.163
 2759SOL     OW 9175   5.240   6.419   4.024
 2759SOL    HW1 9176   5.176   6.359   4.071
 2759SOL    HW2 9177   5.333   6.388   4.040
 2760SOL     OW 9178   1.947   5.605   1.979
 2760SOL    HW1 9179   1.865   5.649   1.943
 2760SOL    HW2 9180   1.934   5.584   2.076
 2761SOL     OW 9181   1.402   5.365   3.855
 2761SOL    HW1 9182   1.474   5.416   3.903
 2761SOL    HW2 9183   1.395   5.273   3.893
 2762SOL     OW 9184   0.991   0.537   5.621
 2762SOL    HW1 9185   0.964   0.442   5.612
 2762SOL    HW2 9186   1.086   0.549   5.590
 2763SOL     OW 9187   5.502   2.114   3.618
 2763SOL    HW1 9188   5.509   2.214   3.614
 2763SOL    HW2 9189   5.573   2.078   3.677
 2764SOL     OW 9190   5.523   0.174   1.398
 2764SOL    HW1 9191   5.538   0.271   1.416
 2764SOL    HW2 9192   5.552   0.120   1.477
 2765SOL     OW 9193   5.049   1.143   1.792
 2765SOL    HW1 9194   5.077   1.065   1.735
 2765SOL    HW2 9195   5.081   1.128   1.886
 2766SOL     OW 9196   5.976   1.359   0.597
 2766SOL    HW1 9197   5.992   1.348   0.695
 2766SOL    HW2 9198   5.909   1.432   0.583
 2767SOL     OW 9199   6.546   4.604   6.719
 2767SOL    HW1 9200   6.533   4.507   6.740
 2767SOL    HW2 9201   6.584   4.651   6.798
 2768SOL     OW 9202   5.910   1.109   0.260
 2768SOL    HW1 9203   5.884   1.205   0.268
 2768SOL    HW2 9204   5.834   1.051   0.290
 2769SOL     OW 9205   6.301   4.322   3.230
 2769SOL    HW1 9206   6.384   4.361   3.270
 2769SOL    HW2 9207   6.277   4.239   3.281
 2770SOL     OW 9208   1.170   5.494   0.440
 2770SOL    HW1 9209   1.233   5.417   0.456
 2770SOL    HW2 9210   1.154   5.541   0.527
 2771SOL     OW 9211   4.949   1.431   0.908
 2771SOL    HW1 9212   5.034   1.436   0.960
 2771SOL    HW2 9213   4.932   1.337   0.879
 2772SOL     OW 9214   4.605   2.407   0.126
 2772SOL    HW1 9215   4.667   2.329   0.135
 2772SOL    HW2 9216   4.637   2.466   0.051
 2773SOL     OW 9217   4.367   3.355   6.061
 2773SOL    HW1 9218   4.314   3.420   6.007
 2773SOL    HW2 9219   4.307   3.281   6.092
 2774SOL     OW 9220   5.842   2.763   2.343
 2774SOL    HW1 9221   5.759   2.726   2.383
 2774SOL    HW2 9222   5.913   2.692   2.338
 2775SOL     OW 9223   6.982   6.184   1.010
 2775SOL    HW1 9224   6.932   6.099   0.998
 2775SOL    HW2 9225   6.951   6.230   1.093
 2776SOL     OW 9226   4.118   5.417   5.616
 2776SOL    HW1 9227   4.116   5.516   5.631
 2776SOL    HW2 9228   4.203   5.391   5.570
 2777SOL     OW 9229   3.489   1.016   2.569
 2777SOL    HW1 9230   3.558   0.944   2.564
 2777SOL    HW2 9231   3.491   1.058   2.659
 2778SOL     OW 9232   1.742   1.331   5.357
 2778SOL    HW1 9233   1.718   1.407   5.298
 2778SOL    HW2 9234   1.708   1.246   5.317
 2779SOL     OW 9235   4.691   0.032   0.415
 2779SOL    HW1 9236   4.725   0.103   0.352
 2779SOL    HW2 9237   4.757   6.981   0.420
 2780SOL     OW 9238   5.989   5.576   5.994
 2780SOL    HW1 9239   5.976   5.574   6.093
 2780SOL    HW2 9240   5.916   5.526   5.949
 2781SOL     OW 9241   6.249   5.294   1.785
 2781SOL    HW1 9242   6.248   5.309   1.883
 2781SOL    HW2 9243   6.338   5.258   1.757
 2782SOL     OW 9244   2.970   2.862   6.531
 2782SOL    HW1 9245   2.965   2.888   6.628
 2782SOL    HW2 9246   3.005   2.768   6.524
 2783SOL     OW 9247   6.047   3.450   4.589
 2783SOL    HW1 9248   6.046   3.499   4.502
 2783SOL    HW2 9249   6.121   3.383   4.589
 2784SOL     OW 9250   2.311   2.439   0.912
 2784SOL    HW1 9251   2.259   2.508   0.963
 2784SOL    HW2 9252   2.360   2.379   0.976
 2785SOL     OW 9253   6.461   1.074   6.966
 2785SOL    HW1 9254   6.550   1.067   7.012
 2785SOL    HW2 9255   6.446   0.992   6.910
 2786SOL     OW 9256   3.780   0.136   1.049
 2786SOL    HW1 9257   3.719   0.198   1.098
 2786SOL    HW2 9258   3.800   0.057   1.106
 2787SOL     OW 9259   2.308   4.113   6.608
 2787SOL    HW1 9260   2.217   4.071   6.609
 2787SOL    HW2 9261   2.317   4.174   6.686
 2788SOL     OW 9262   2.653   4.438   0.562
 2788SOL    HW1 9263   2.676   4.476   0.651
 2788SOL    HW2 9264   2.553   4.432   0.554
 2789SOL     OW 9265   1.351   1.934   4.036
 2789SOL    HW1 9266   1.342   1.994   4.116
 2789SOL    HW2 9267   1.275   1.868   4.035
 2790SOL     OW 9268   4.083   5.215   2.730
 2790SOL    HW1 9269   4.078   5.307   2.693
 2790SOL    HW2 9270   4.019   5.205   2.806
 2791SOL     OW 9271   1.966   4.692   4.890
 2791SOL    HW1 9272   1.932   4.630   4.961
 2791SOL    HW2 9273   2.010   4.638   4.817
 2792SOL     OW 9274   1.501   0.615   5.442
 2792SOL    HW1 9275   1.448   0.546   5.392
 2792SOL    HW2 9276   1.580   0.642   5.387
 2793SOL     OW 9277   5.088   1.589   2.585
 2793SOL    HW1 9278   5.091   1.681   2.623
 2793SOL    HW2 9279   5.136   1.588   2.497
 2794SOL     OW 9280   0.352   2.310   0.559
 2794SOL    HW1 9281   0.267   2.258   0.553
 2794SOL    HW2 9282   0.418   2.273   0.493
 2795SOL     OW 9283   3.020   4.202   1.165
 2795SOL    HW1 9284   2.983   4.272   1.227
 2795SOL    HW2 9285   2.946   4.139   1.139
 2796SOL     OW 9286   6.602   4.232   2.364
 2796SOL    HW1 9287   6.680   4.241   2.427
 2796SOL    HW2 9288   6.615   4.295   2.287
 2797SOL     OW 9289   5.035   5.515   4.661
 2797SOL    HW1 9290   5.055   5.569   4.579
 2797SOL    HW2 9291   4.936   5.498   4.667
 2798SOL     OW 9292   0.709   3.979   2.987
 2798SOL    HW1 9293   0.660   4.006   3.070
 2798SOL    HW2 9294   0.680   3.887   2.960
 2799SOL     OW 9295   0.229   5.352   6.269
 2799SOL    HW1 9296   0.307   5.379   6.326
 2799SOL    HW2 9297   0.258   5.350   6.173
 2800SOL     OW 9298   4.423   4.583   6.426
 2800SOL    HW1 9299   4.472   4.563   6.341
 2800SOL    HW2 9300   4.435   4.506   6.489
 2801SOL     OW 9301   4.249   6.134   3.097
 2801SOL    HW1 9302   4.219   6.098   3.009
 2801SOL    HW2 9303   4.262   6.233   3.089
 2802SOL     OW 9304   4.083   2.446   6.249
 2802SOL    HW1 9305   4.011   2.494   6.197
 2802SOL    HW2 9306   4.042   2.404   6.330
 2803SOL     OW 9307   1.989   6.100   5.913
 2803SOL    HW1 9308   1.974   6.136   5.821
 2803SOL    HW2 9309   1.908   6.116   5.969
 2804SOL     OW 9310   0.336   4.371   3.374
 2804SOL    HW1 9311   0.276   4.417   3.439
 2804SOL    HW2 9312   0.417   4.336   3.421
 2805SOL     OW 9313   4.443   3.550   1.726
 2805SOL    HW1 9314   4.434   3.649   1.728
 2805SOL    HW2 9315   4.540   3.525   1.733
 2806SOL     OW 9316   5.908   5.576   3.269
 2806SOL    HW1 9317   5.964   5.505   3.312
 2806SOL    HW2 9318   5.854   5.537   3.195
 2807SOL     OW 9319   5.561   4.571   3.539
 2807SOL    HW1 9320   5.491   4.628   3.583
 2807SOL    HW2 9321   5.556   4.478   3.575
 2808SOL     OW 9322   4.598   1.179   3.057
 2808SOL    HW1 9323   4.522   1.227   3.013
 2808SOL    HW2 9324   4.571   1.151   3.149
 2809SOL     OW 9325   6.660   2.792   1.693
 2809SOL    HW1 9326   6.562   2.812   1.695
 2809SOL    HW2 9327   6.705   2.837   1.770
 2810SOL     OW 9328   3.522   6.683   4.763
 2810SOL    HW1 9329   3.594   6.693   4.695
 2810SOL    HW2 9330   3.559   6.642   4.846
 2811SOL     OW 9331   0.901   1.043   2.582
 2811SOL    HW1 9332   0.811   1.019   2.546
 2811SOL    HW2 9333   0.949   1.101   2.516
 2812SOL     OW 9334   4.942   3.502   2.084
 2812SOL    HW1 9335   4.907   3.542   2.000
 2812SOL    HW2 9336   4.919   3.404   2.087
 2813SOL     OW 9337   5.894   6.980   6.150
 2813SOL    HW1 9338   5.931   6.968   6.242
 2813SOL    HW2 9339   5.966   7.015   6.090
 2814SOL     OW 9340   4.166   3.279   6.515
 2814SOL    HW1 9341   4.263   3.302   6.521
 2814SOL    HW2 9342   4.125   3.329   6.439
 2815SOL     OW 9343   6.736   0.932   4.660
 2815SOL    HW1 9344   6.682   0.947   4.577
 2815SOL    HW2 9345   6.814   0.873   4.640
 2816SOL     OW 9346   6.224   6.566   3.955
 2816SOL    HW1 9347   6.263   6.652   3.986
 2816SOL    HW2 9348   6.142   6.584   3.900
 2817SOL     OW 9349   1.582   0.438   1.129
 2817SOL    HW1 9350   1.612   0.397   1.215
 2817SOL    HW2 9351   1.625   0.390   1.052
 2818SOL     OW 9352   6.836   4.870   6.612
 2818SOL    HW1 9353   6.769   4.843   6.543
 2818SOL    HW2 9354   6.897   4.793   6.631
 2819SOL     OW 9355   0.256   1.962   0.644
 2819SOL    HW1 9356   0.350   1.994   0.656
 2819SOL    HW2 9357   0.210   2.017   0.575
 2820SOL     OW 9358   0.354   2.512   2.853
 2820SOL    HW1 9359   0.447   2.528   2.820
 2820SOL    HW2 9360   0.296   2.484   2.776
 2821SOL     OW 9361   2.737   4.354   6.120
 2821SOL    HW1 9362   2.740   4.357   6.021
 2821SOL    HW2 9363   2.720   4.446   6.156
 2822SOL     OW 9364   4.259   2.756   0.530
 2822SOL    HW1 9365   4.327   2.794   0.468
 2822SOL    HW2 9366   4.190   2.707   0.478
 2823SOL     OW 9367   1.974   6.812   1.326
 2823SOL    HW1 9368   1.965   6.863   1.412
 2823SOL    HW2 9369   2.051   6.849   1.274
 2824SOL     OW 9370   1.979   1.044   4.789
 2824SOL    HW1 9371   2.072   1.010   4.802
 2824SOL    HW2 9372   1.931   0.986   4.723
 2825SOL     OW 9373   6.621   6.856   0.650
 2825SOL    HW1 9374   6.639   6.796   0.728
 2825SOL    HW2 9375   6.563   6.809   0.583
 2826SOL     OW 9376   5.581   1.763   6.236
 2826SOL    HW1 9377   5.493   1.807   6.255
 2826SOL    HW2 9378   5.642   1.776   6.314
 2827SOL     OW 9379   6.679   1.296   5.132
 2827SOL    HW1 9380   6.709   1.316   5.038
 2827SOL    HW2 9381   6.691   1.199   5.151
 2828SOL     OW 9382   3.548   1.025   6.086
 2828SOL    HW1 9383   3.622   1.008   6.151
 2828SOL    HW2 9384   3.561   1.115   6.044
 2829SOL     OW 9385   3.908   4.407   6.281
 2829SOL    HW1 9386   3.948   4.496   6.306
 2829SOL    HW2 9387   3.875   4.411   6.187
 2830SOL     OW 9388   6.444   4.319   6.362
 2830SOL    HW1 9389   6.382   4.244   6.388
 2830SOL    HW2 9390   6.520   4.323   6.427
 2831SOL     OW 9391   6.554   5.976   4.697
 2831SOL    HW1 9392   6.650   5.980   4.726
 2831SOL    HW2 9393   6.529   6.063   4.655
 2832SOL     OW 9394   0.564   1.696   1.549
 2832SOL    HW1 9395   0.581   1.611   1.599
 2832SOL    HW2 9396   0.643   1.756   1.559
 2833SOL     OW 9397   5.445   1.726   2.294
 2833SOL    HW1 9398   5.456   1.821   2.266
 2833SOL    HW2 9399   5.534   1.688   2.320
 2834SOL     OW 9400   2.938   1.290   6.609
 2834SOL    HW1 9401   2.862   1.312   6.548
 2834SOL    HW2 9402   2.928   1.341   6.694
 2835SOL     OW 9403   0.362   6.931   1.857
 2835SOL    HW1 9404   0.288   6.991   1.825
 2835SOL    HW2 9405   0.435   6.930   1.788
 2836SOL     OW 9406   7.015   6.956   1.560
 2836SOL    HW1 9407   6.945   6.961   1.489
 2836SOL    HW2 9408   0.059   0.003   1.544
 2837SOL     OW 9409   5.471   3.493   3.036
 2837SOL    HW1 9410   5.516   3.582   3.031
 2837SOL    HW2 9411   5.417   3.487   3.120
 2838SOL     OW 9412   2.240   4.466   1.645
 2838SOL    HW1 9413   2.287   4.403   1.706
 2838SOL    HW2 9414   2.238   4.428   1.553
 2839SOL     OW 9415   5.949   1.390   1.962
 2839SOL    HW1 9416   6.038   1.394   2.007
 2839SOL    HW2 9417   5.888   1.457   2.003
 2840SOL     OW 9418   0.222   0.805   4.578
 2840SOL    HW1 9419   0.291   0.800   4.650
 2840SOL    HW2 9420   0.202   0.901   4.558
 2841SOL     OW 9421   0.437   6.996   6.550
 2841SOL    HW1 9422   0.384   6.939   6.613
 2841SOL    HW2 9423   0.440   0.066   6.584
 2842SOL     OW 9424   6.872   2.390   3.758
 2842SOL    HW1 9425   6.934   2.438   3.821
 2842SOL    HW2 9426   6.816   2.325   3.810
 2843SOL     OW 9427   3.270   1.598   4.372
 2843SOL    HW1 9428   3.174   1.619   4.390
 2843SOL    HW2 9429   3.282   1.498   4.368
 2844SOL     OW 9430   1.148   3.643   0.577
 2844SOL    HW1 9431   1.165   3.550   0.544
 2844SOL    HW2 9432   1.089   3.691   0.512
 2845SOL     OW 9433   0.913   3.615   1.035
 2845SOL    HW1 9434   0.975   3.578   0.965
 2845SOL    HW2 9435   0.938   3.577   1.124
 2846SOL     OW 9436   4.595   1.325   0.150
 2846SOL    HW1 9437   4.560   1.236   0.179
 2846SOL    HW2 9438   4.558   1.348   0.060
 2847SOL     OW 9439   5.557   3.312   3.430
 2847SOL    HW1 9440   5.508   3.399   3.428
 2847SOL    HW2 9441   5.655   3.328   3.427
 2848SOL     OW 9442   0.378   4.540   5.788
 2848SOL    HW1 9443   0.447   4.611   5.798
 2848SOL    HW2 9444   0.311   4.549   5.862
 2849SOL     OW 9445   3.402   0.799   0.927
 2849SOL    HW1 9446   3.369   0.725   0.985
 2849SOL    HW2 9447   3.407   0.883   0.980
 2850SOL     OW 9448   3.250   0.637   1.897
 2850SOL    HW1 9449   3.304   0.721   1.911
 2850SOL    HW2 9450   3.277   0.594   1.811
 2851SOL     OW 9451   1.073   4.262   5.248
 2851SOL    HW1 9452   0.981   4.233   5.273
 2851SOL    HW2 9453   1.068   4.342   5.188
 2852SOL     OW 9454   5.729   4.050   6.715
 2852SOL    HW1 9455   5.669   4.004   6.780
 2852SOL    HW2 9456   5.805   4.093   6.765
 2853SOL     OW 9457   2.652   2.574   0.002
 2853SOL    HW1 9458   2.722   2.578   6.954
 2853SOL    HW2 9459   2.668   2.647   0.068
 2854SOL     OW 9460   2.994   1.277   4.239
 2854SOL    HW1 9461   3.014   1.228   4.154
 2854SOL    HW2 9462   3.008   1.375   4.225
 2855SOL     OW 9463   2.086   0.317   5.688
 2855SOL    HW1 9464   2.076   0.298   5.786
 2855SOL    HW2 9465   2.004   0.363   5.654
 2856SOL     OW 9466   2.214   3.024   6.083
 2856SOL    HW1 9467   2.161   2.944   6.059
 2856SOL    HW2 9468   2.175   3.105   6.040
 2857SOL     OW 9469   2.885   1.564   1.737
 2857SOL    HW1 9470   2.891   1.618   1.653
 2857SOL    HW2 9471   2.819   1.607   1.799
 2858SOL     OW 9472   6.155   3.313   1.891
 2858SOL    HW1 9473   6.236   3.321   1.833
 2858SOL    HW2 9474   6.119   3.405   1.910
 2859SOL     OW 9475   5.514   1.623   0.481
 2859SOL    HW1 9476   5.610   1.645   0.496
 2859SOL    HW2 9477   5.466   1.703   0.446
 2860SOL     OW 9478   4.470   1.759   1.102
 2860SOL    HW1 9479   4.411   1.719   1.172
 2860SOL    HW2 9480   4.500   1.850   1.131
 2861SOL     OW 9481   4.537   5.455   5.610
 2861SOL    HW1 9482   4.489   5.521   5.668
 2861SOL    HW2 9483   4.488   5.368   5.611
 2862SOL     OW 9484   5.777   1.491   3.404
 2862SOL    HW1 9485   5.746   1.583   3.379
 2862SOL    HW2 9486   5.769   1.479   3.503
 2863SOL     OW 9487   6.021   1.136   0.016
 2863SOL    HW1 9488   5.996   1.115   0.111
 2863SOL    HW2 9489   5.964   1.080   6.979
 2864SOL     OW 9490   3.981   6.917   1.041
 2864SOL    HW1 9491   4.025   6.992   0.993
 2864SOL    HW2 9492   3.967   6.942   1.137
 2865SOL     OW 9493   4.951   4.303   5.076
 2865SOL    HW1 9494   4.908   4.392   5.092
 2865SOL    HW2 9495   4.948   4.283   4.978
 2866SOL     OW 9496   6.896   0.061   0.196
 2866SOL    HW1 9497   6.993   0.049   0.174
 2866SOL    HW2 9498   6.854   6.995   0.209
 2867SOL     OW 9499   6.213   4.359   2.576
 2867SOL    HW1 9500   6.181   4.454   2.584
 2867SOL    HW2 9501   6.225   4.320   2.668
 2868SOL     OW 9502   0.706   3.637   5.111
 2868SOL    HW1 9503   0.712   3.707   5.182
 2868SOL    HW2 9504   0.692   3.547   5.154
 2869SOL     OW 9505   6.256   1.088   3.035
 2869SOL    HW1 9506   6.162   1.091   3.069
 2869SOL    HW2 9507   6.282   0.993   3.016
 2870SOL     OW 9508   6.627   1.577   4.211
 2870SOL    HW1 9509   6.591   1.484   4.205
 2870SOL    HW2 9510   6.618   1.611   4.304
 2871SOL     OW 9511   2.191   1.727   6.378
 2871SOL    HW1 9512   2.259   1.800   6.383
 2871SOL    HW2 9513   2.108   1.761   6.334
 2872SOL     OW 9514   3.028   1.453   3.910
 2872SOL    HW1 9515   3.029   1.480   4.006
 2872SOL    HW2 9516   3.051   1.356   3.903
 2873SOL     OW 9517   0.609   5.459   3.330
 2873SOL    HW1 9518   0.594   5.486   3.235
 2873SOL    HW2 9519   0.687   5.510   3.367
 2874SOL     OW 9520   5.154   5.234   1.824
 2874SOL    HW1 9521   5.171   5.145   1.866
 2874SOL    HW2 9522   5.132   5.222   1.727
 2875SOL     OW 9523   4.293   6.449   6.409
 2875SOL    HW1 9524   4.287   6.408   6.318
 2875SOL    HW2 9525   4.205   6.438   6.457
 2876SOL     OW 9526   0.819   0.527   2.245
 2876SOL    HW1 9527   0.793   0.464   2.172
 2876SOL    HW2 9528   0.858   0.610   2.206
 2877SOL     OW 9529   3.494   2.710   5.309
 2877SOL    HW1 9530   3.546   2.649   5.369
 2877SOL    HW2 9531   3.532   2.802   5.314
 2878SOL     OW 9532   3.250   5.259   4.515
 2878SOL    HW1 9533   3.186   5.238   4.441
 2878SOL    HW2 9534   3.242   5.190   4.586
 2879SOL     OW 9535   4.988   5.256   0.222
 2879SOL    HW1 9536   4.929   5.337   0.216
 2879SOL    HW2 9537   4.975   5.213   0.311
 2880SOL     OW 9538   6.436   6.818   0.433
 2880SOL    HW1 9539   6.451   6.913   0.405
 2880SOL    HW2 9540   6.343   6.791   0.408
 2881SOL     OW 9541   5.931   6.414   0.922
 2881SOL    HW1 9542   5.831   6.416   0.912
 2881SOL    HW2 9543   5.973   6.394   0.833
 2882SOL     OW 9544   0.654   3.325   2.706
 2882SOL    HW1 9545   0.657   3.243   2.763
 2882SOL    HW2 9546   0.747   3.356   2.686
 2883SOL     OW 9547   4.072   6.729   3.455
 2883SOL    HW1 9548   4.149   6.703   3.514
 2883SOL    HW2 9549   3.986   6.718   3.504
 2884SOL     OW 9550   0.372   6.196   3.170
 2884SOL    HW1 9551   0.471   6.208   3.182
 2884SOL    HW2 9552   0.332   6.282   3.137
 2885SOL     OW 9553   0.187   2.624   3.027
 2885SOL    HW1 9554   0.225   2.566   2.955
 2885SOL    HW2 9555   0.177   2.717   2.992
 2886SOL     OW 9556   2.199   2.835   6.563
 2886SOL    HW1 9557   2.238   2.743   6.558
 2886SOL    HW2 9558   2.258   2.899   6.513
 2887SOL     OW 9559   2.346   6.775   5.221
 2887SOL    HW1 9560   2.426   6.784   5.162
 2887SOL    HW2 9561   2.291   6.697   5.192
 2888SOL     OW 9562   6.994   4.809   6.242
 2888SOL    HW1 9563   0.040   4.840   6.178
 2888SOL    HW2 9564   6.989   4.709   6.240
 2889SOL     OW 9565   1.377   0.993   2.270
 2889SOL    HW1 9566   1.390   0.933   2.349
 2889SOL    HW2 9567   1.376   1.089   2.300
 2890SOL     OW 9568   2.990   0.391   1.181
 2890SOL    HW1 9569   2.949   0.300   1.174
 2890SOL    HW2 9570   2.917   0.459   1.188
 2891SOL     OW 9571   2.646   4.657   3.416
 2891SOL    HW1 9572   2.658   4.619   3.509
 2891SOL    HW2 9573   2.719   4.723   3.398
 2892SOL     OW 9574   5.071   3.972   0.263
 2892SOL    HW1 9575   5.032   3.990   0.173
 2892SOL    HW2 9576   5.109   3.880   0.265
 2893SOL     OW 9577   2.307   6.109   6.005
 2893SOL    HW1 9578   2.330   6.205   6.024
 2893SOL    HW2 9579   2.212   6.103   5.975
 2894SOL     OW 9580   2.842   2.698   6.843
 2894SOL    HW1 9581   2.861   2.790   6.811
 2894SOL    HW2 9582   2.923   2.660   6.887
 2895SOL     OW 9583   3.862   3.037   6.367
 2895SOL    HW1 9584   3.828   3.104   6.433
 2895SOL    HW2 9585   3.955   3.010   6.392
 2896SOL     OW 9586   2.763   5.421   6.498
 2896SOL    HW1 9587   2.687   5.360   6.519
 2896SOL    HW2 9588   2.848   5.369   6.497
 2897SOL     OW 9589   2.555   6.304   3.713
 2897SOL    HW1 9590   2.642   6.328   3.670
 2897SOL    HW2 9591   2.570   6.277   3.808
 2898SOL     OW 9592   4.822   4.758   2.723
 2898SOL    HW1 9593   4.832   4.772   2.624
 2898SOL    HW2 9594   4.814   4.847   2.768
 2899SOL     OW 9595   0.254   0.840   6.442
 2899SOL    HW1 9596   0.161   0.819   6.471
 2899SOL    HW2 9597   0.290   0.764   6.387
 2900SOL     OW 9598   1.165   4.644   5.514
 2900SOL    HW1 9599   1.096   4.573   5.529
 2900SOL    HW2 9600   1.253   4.601   5.496
 2901SOL     OW 9601   1.687   0.303   2.897
 2901SOL    HW1 9602   1.679   0.383   2.838
 2901SOL    HW2 9603   1.641   0.225   2.853
 2902SOL     OW 9604   5.648   6.474   0.380
 2902SOL    HW1 9605   5.663   6.464   0.479
 2902SOL    HW2 9606   5.702   6.550   0.345
 2903SOL     OW 9607   3.046   0.123   2.277
 2903SOL    HW1 9608   3.023   0.220   2.266
 2903SOL    HW2 9609   3.082   0.088   2.190
 2904SOL     OW 9610   2.464   3.181   5.383
 2904SOL    HW1 9611   2.474   3.116   5.308
 2904SOL    HW2 9612   2.467   3.133   5.470
 2905SOL     OW 9613   1.620   1.310   2.581
 2905SOL    HW1 9614   1.522   1.294   2.566
 2905SOL    HW2 9615   1.668   1.223   2.577
 2906SOL     OW 9616   5.225   4.945   1.878
 2906SOL    HW1 9617   5.157   4.880   1.913
 2906SOL    HW2 9618   5.312   4.929   1.924
 2907SOL     OW 9619   6.332   1.140   5.395
 2907SOL    HW1 9620   6.405   1.207   5.403
 2907SOL    HW2 9621   6.359   1.055   5.440
 2908SOL     OW 9622   4.193   6.652   4.291
 2908SOL    HW1 9623   4.219   6.685   4.200
 2908SOL    HW2 9624   4.262   6.588   4.324
 2909SOL     OW 9625   0.550   4.772   4.502
 2909SOL    HW1 9626   0.600   4.699   4.455
 2909SOL    HW2 9627   0.554   4.757   4.601
 2910SOL     OW 9628   3.531   6.367   4.891
 2910SOL    HW1 9629   3.465   6.326   4.827
 2910SOL    HW2 9630   3.623   6.354   4.855
 2911SOL     OW 9631   2.484   5.373   3.521
 2911SOL    HW1 9632   2.401   5.373   3.577
 2911SOL    HW2 9633   2.503   5.280   3.489
 2912SOL     OW 9634   2.881   5.657   0.463
 2912SOL    HW1 9635   2.842   5.718   0.532
 2912SOL    HW2 9636   2.955   5.603   0.505
 2913SOL     OW 9637   1.804   4.707   2.451
 2913SOL    HW1 9638   1.749   4.640   2.401
 2913SOL    HW2 9639   1.893   4.717   2.406
 2914SOL     OW 9640   6.023   5.239   5.985
 2914SOL    HW1 9641   5.948   5.173   5.987
 2914SOL    HW2 9642   6.010   5.302   5.908
 2915SOL     OW 9643   4.607   1.681   3.987
 2915SOL    HW1 9644   4.535   1.721   3.931
 2915SOL    HW2 9645   4.667   1.753   4.023
 2916SOL     OW 9646   6.377   4.794   5.913
 2916SOL    HW1 9647   6.476   4.799   5.925
 2916SOL    HW2 9648   6.345   4.878   5.870
 2917SOL     OW 9649   3.707   0.734   1.256
 2917SOL    HW1 9650   3.764   0.814   1.241
 2917SOL    HW2 9651   3.749   0.654   1.213
 2918SOL     OW 9652   6.769   3.303   3.135
 2918SOL    HW1 9653   6.697   3.245   3.097
 2918SOL    HW2 9654   6.773   3.389   3.084
 2919SOL     OW 9655   6.309   0.232   0.367
 2919SOL    HW1 9656   6.372   0.154   0.360
 2919SOL    HW2 9657   6.337   0.291   0.442
 2920SOL     OW 9658   3.598   2.096   2.537
 2920SOL    HW1 9659   3.503   2.095   2.506
 2920SOL    HW2 9660   3.658   2.114   2.459
 2921SOL     OW 9661   0.008   1.231   2.816
 2921SOL    HW1 9662   0.056   1.148   2.788
 2921SOL    HW2 9663   6.938   1.228   2.781
 2922SOL     OW 9664   5.967   6.437   6.914
 2922SOL    HW1 9665   5.873   6.406   6.922
 2922SOL    HW2 9666   6.026   6.381   6.971
 2923SOL     OW 9667   6.744   5.411   2.715
 2923SOL    HW1 9668   6.741   5.317   2.748
 2923SOL    HW2 9669   6.836   5.431   2.681
 2924SOL     OW 9670   0.400   1.523   6.166
 2924SOL    HW1 9671   0.369   1.456   6.234
 2924SOL    HW2 9672   0.326   1.542   6.102
 2925SOL     OW 9673   5.882   1.099   2.675
 2925SOL    HW1 9674   5.953   1.165   2.652
 2925SOL    HW2 9675   5.891   1.072   2.771
 2926SOL     OW 9676   6.999   1.630   4.964
 2926SOL    HW1 9677   6.962   1.600   5.052
 2926SOL    HW2 9678   0.047   1.567   4.935
 2927SOL     OW 9679   1.315   2.217   2.105
 2927SOL    HW1 9680   1.407   2.245   2.135
 2927SOL    HW2 9681   1.297   2.254   2.015
 2928SOL     OW 9682   6.481   1.653   6.542
 2928SOL    HW1 9683   6.576   1.642   6.572
 2928SOL    HW2 9684   6.430   1.569   6.563
 2929SOL     OW 9685   0.910   1.039   6.020
 2929SOL    HW1 9686   0.914   0.939   6.019
 2929SOL    HW2 9687   1.002   1.075   6.037
 2930SOL     OW 9688   4.920   6.651   4.808
 2930SOL    HW1 9689   4.912   6.749   4.792
 2930SOL    HW2 9690   4.871   6.627   4.891
 2931SOL     OW 9691   5.100   6.180   6.478
 2931SOL    HW1 9692   5.080   6.085   6.501
 2931SOL    HW2 9693   5.130   6.185   6.383
 2932SOL     OW 9694   1.833   4.569   1.768
 2932SOL    HW1 9695   1.825   4.656   1.718
 2932SOL    HW2 9696   1.809   4.493   1.707
 2933SOL     OW 9697   5.261   2.418   3.888
 2933SOL    HW1 9698   5.242   2.490   3.955
 2933SOL    HW2 9699   5.352   2.381   3.903
 2934SOL     OW 9700   3.455   0.853   1.321
 2934SOL    HW1 9701   3.544   0.813   1.305
 2934SOL    HW2 9702   3.387   0.811   1.260
 2935SOL     OW 9703   6.554   2.889   1.415
 2935SOL    HW1 9704   6.621   2.948   1.461
 2935SOL    HW2 9705   6.510   2.941   1.342
 2936SOL     OW 9706   4.777   5.777   1.224
 2936SOL    HW1 9707   4.763   5.861   1.276
 2936SOL    HW2 9708   4.850   5.723   1.266
 2937SOL     OW 9709   2.866   5.084   0.408
 2937SOL    HW1 9710   2.795   5.022   0.376
 2937SOL    HW2 9711   2.825   5.171   0.437
 2938SOL     OW 9712   4.815   5.035   5.377
 2938SOL    HW1 9713   4.853   5.024   5.470
 2938SOL    HW2 9714   4.740   5.101   5.380
 2939SOL     OW 9715   0.164   6.554   4.890
 2939SOL    HW1 9716   0.243   6.614   4.877
 2939SOL    HW2 9717   0.087   6.587   4.836
 2940SOL     OW 9718   5.393   6.749   5.284
 2940SOL    HW1 9719   5.325   6.677   5.270
 2940SOL    HW2 9720   5.365   6.807   5.360
 2941SOL     OW 9721   1.784   2.727   5.521
 2941SOL    HW1 9722   1.858   2.794   5.515
 2941SOL    HW2 9723   1.706   2.756   5.466
 2942SOL     OW 9724   2.830   0.543   2.253
 2942SOL    HW1 9725   2.827   0.613   2.182
 2942SOL    HW2 9726   2.738   0.508   2.270
 2943SOL     OW 9727   5.226   3.626   2.392
 2943SOL    HW1 9728   5.232   3.693   2.317
 2943SOL    HW2 9729   5.317   3.611   2.430
 2944SOL     OW 9730   3.486   5.177   5.917
 2944SOL    HW1 9731   3.406   5.151   5.863
 2944SOL    HW2 9732   3.462   5.254   5.977
 2945SOL     OW 9733   4.072   3.721   2.812
 2945SOL    HW1 9734   3.981   3.753   2.785
 2945SOL    HW2 9735   4.089   3.631   2.771
 2946SOL     OW 9736   6.828   5.759   5.916
 2946SOL    HW1 9737   6.753   5.705   5.954
 2946SOL    HW2 9738   6.805   5.856   5.917
 2947SOL     OW 9739   0.336   3.711   6.813
 2947SOL    HW1 9740   0.400   3.751   6.747
 2947SOL    HW2 9741   0.362   3.615   6.830
 2948SOL     OW 9742   6.143   3.634   5.653
 2948SOL    HW1 9743   6.129   3.730   5.632
 2948SOL    HW2 9744   6.073   3.579   5.606
 2949SOL     OW 9745   1.734   6.231   1.261
 2949SOL    HW1 9746   1.779   6.258   1.346
 2949SOL    HW2 9747   1.770   6.142   1.232
 2950SOL     OW 9748   5.606   3.497   4.495
 2950SOL    HW1 9749   5.520   3.464   4.533
 2950SOL    HW2 9750   5.599   3.501   4.395
 2951SOL     OW 9751   7.013   2.474   0.039
 2951SOL    HW1 9752   0.081   2.508   0.023
 2951SOL    HW2 9753   6.969   2.528   0.111
 2952SOL     OW 9754   1.080   4.720   3.440
 2952SOL    HW1 9755   1.092   4.624   3.418
 2952SOL    HW2 9756   1.038   4.729   3.531
 2953SOL     OW 9757   5.379   2.496   2.338
 2953SOL    HW1 9758   5.440   2.560   2.291
 2953SOL    HW2 9759   5.301   2.475   2.279
 2954SOL     OW 9760   1.356   5.948   2.045
 2954SOL    HW1 9761   1.291   5.989   2.109
 2954SOL    HW2 9762   1.307   5.881   1.988
 2955SOL     OW 9763   0.415   2.912   0.587
 2955SOL    HW1 9764   0.327   2.937   0.626
 2955SOL    HW2 9765   0.454   2.992   0.540
 2956SOL     OW 9766   0.203   5.661   2.846
 2956SOL    HW1 9767   0.123   5.658   2.906
 2956SOL    HW2 9768   0.237   5.569   2.829
 2957SOL     OW 9769   0.007   3.681   1.226
 2957SOL    HW1 9770   7.014   3.774   1.194
 2957SOL    HW2 9771   6.965   3.618   1.185
 2958SOL     OW 9772   2.323   4.537   5.123
 2958SOL    HW1 9773   2.249   4.505   5.182
 2958SOL    HW2 9774   2.410   4.496   5.152
 2959SOL     OW 9775   5.571   4.419   6.654
 2959SOL    HW1 9776   5.572   4.519   6.649
 2959SOL    HW2 9777   5.610   4.390   6.741
 2960SOL     OW 9778   3.018   1.136   0.043
 2960SOL    HW1 9779   2.998   1.153   0.140
 2960SOL    HW2 9780   2.966   1.200   7.011
 2961SOL     OW 9781   5.303   3.129   4.585
 2961SOL    HW1 9782   5.208   3.109   4.607
 2961SOL    HW2 9783   5.361   3.054   4.617
 2962SOL     OW 9784   4.770   0.660   3.570
 2962SOL    HW1 9785   4.785   0.750   3.528
 2962SOL    HW2 9786   4.832   0.594   3.528
 2963SOL     OW 9787   1.758   1.919   5.603
 2963SOL    HW1 9788   1.853   1.931   5.633
 2963SOL    HW2 9789   1.747   1.828   5.565
 2964SOL     OW 9790   1.955   6.968   2.332
 2964SOL    HW1 9791   2.031   6.914   2.297
 2964SOL    HW2 9792   1.981   0.040   2.333
 2965SOL     OW 9793   0.191   0.838   5.454
 2965SOL    HW1 9794   0.142   0.820   5.368
 2965SOL    HW2 9795   0.171   0.931   5.485
 2966SOL     OW 9796   5.843   4.366   3.561
 2966SOL    HW1 9797   5.767   4.430   3.574
 2966SOL    HW2 9798   5.818   4.277   3.598
 2967SOL     OW 9799   5.600   2.837   3.949
 2967SOL    HW1 9800   5.559   2.911   3.897
 2967SOL    HW2 9801   5.699   2.853   3.958
 2968SOL     OW 9802   0.707   3.918   5.770
 2968SOL    HW1 9803   0.636   3.987   5.786
 2968SOL    HW2 9804   0.785   3.961   5.724
 2969SOL     OW 9805   5.785   1.970   5.395
 2969SOL    HW1 9806   5.705   2.018   5.361
 2969SOL    HW2 9807   5.839   1.936   5.318
 2970SOL     OW 9808   1.311   4.198   6.538
 2970SOL    HW1 9809   1.316   4.099   6.524
 2970SOL    HW2 9810   1.385   4.227   6.598
 2971SOL     OW 9811   5.657   2.885   4.416
 2971SOL    HW1 9812   5.748   2.846   4.402
 2971SOL    HW2 9813   5.657   2.981   4.388
 2972SOL     OW 9814   6.436   4.086   0.058
 2972SOL    HW1 9815   6.442   3.994   0.018
 2972SOL    HW2 9816   6.412   4.079   0.154
 2973SOL     OW 9817   5.629   0.573   3.966
 2973SOL    HW1 9818   5.697   0.519   4.017
 2973SOL    HW2 9819   5.669   0.661   3.941
 2974SOL     OW 9820   5.580   3.840   3.649
 2974SOL    HW1 9821   5.570   3.889   3.563
 2974SOL    HW2 9822   5.508   3.869   3.713
 2975SOL     OW 9823   0.239   1.846   5.101
 2975SOL    HW1 9824   0.305   1.876   5.170
 2975SOL    HW2 9825   0.244   1.907   5.022
 2976SOL     OW 9826   3.780   1.401   2.794
 2976SOL    HW1 9827   3.688   1.419   2.831
 2976SOL    HW2 9828   3.820   1.487   2.762
 2977SOL     OW 9829   2.824   6.887   4.295
 2977SOL    HW1 9830   2.794   6.806   4.346
 2977SOL    HW2 9831   2.901   6.930   4.342
 2978SOL     OW 9832   4.700   4.946   0.207
 2978SOL    HW1 9833   4.649   4.960   0.292
 2978SOL    HW2 9834   4.679   4.856   0.170
 2979SOL     OW 9835   3.776   0.535   3.955
 2979SOL    HW1 9836   3.831   0.575   4.028
 2979SOL    HW2 9837   3.790   0.587   3.870
 2980SOL     OW 9838   1.432   6.121   4.372
 2980SOL    HW1 9839   1.388   6.195   4.425
 2980SOL    HW2 9840   1.479   6.060   4.435
 2981SOL     OW 9841   0.581   0.196   6.302
 2981SOL    HW1 9842   0.596   0.181   6.204
 2981SOL    HW2 9843   0.657   0.156   6.354
 2982SOL     OW 9844   4.402   6.570   3.217
 2982SOL    HW1 9845   4.322   6.529   3.174
 2982SOL    HW2 9846   4.373   6.637   3.286
 2983SOL     OW 9847   0.294   0.462   4.056
 2983SOL    HW1 9848   0.238   0.543   4.074
 2983SOL    HW2 9849   0.253   0.383   4.100
 2984SOL     OW 9850   5.546   6.076   1.208
 2984SOL    HW1 9851   5.614   6.146   1.230
 2984SOL    HW2 9852   5.459   6.119   1.187
 2985SOL     OW 9853   0.848   2.114   4.638
 2985SOL    HW1 9854   0.767   2.152   4.595
 2985SOL    HW2 9855   0.827   2.090   4.733
 2986SOL     OW 9856   2.281   4.433   5.878
 2986SOL    HW1 9857   2.370   4.398   5.906
 2986SOL    HW2 9858   2.268   4.417   5.780
 2987SOL     OW 9859   4.862   1.042   4.201
 2987SOL    HW1 9860   4.826   0.976   4.266
 2987SOL    HW2 9861   4.826   1.133   4.222
 2988SOL     OW 9862   0.935   0.205   2.093
 2988SOL    HW1 9863   0.862   0.273   2.082
 2988SOL    HW2 9864   0.953   0.160   2.005
 2989SOL     OW 9865   5.940   5.677   0.969
 2989SOL    HW1 9866   5.951   5.647   0.874
 2989SOL    HW2 9867   5.961   5.600   1.030
 2990SOL     OW 9868   3.968   1.106   3.178
 2990SOL    HW1 9869   4.020   1.152   3.106
 2990SOL    HW2 9870   3.876   1.084   3.145
 2991SOL     OW 9871   0.176   3.966   0.857
 2991SOL    HW1 9872   0.201   4.044   0.800
 2991SOL    HW2 9873   0.133   3.895   0.801
 2992SOL     OW 9874   2.509   5.544   5.860
 2992SOL    HW1 9875   2.599   5.537   5.904
 2992SOL    HW2 9876   2.508   5.624   5.800
 2993SOL     OW 9877   1.258   4.817   1.922
 2993SOL    HW1 9878   1.337   4.760   1.900
 2993SOL    HW2 9879   1.216   4.850   1.838
 2994SOL     OW 9880   4.722   0.697   0.127
 2994SOL    HW1 9881   4.816   0.729   0.135
 2994SOL    HW2 9882   4.714   0.632   0.051
 2995SOL     OW 9883   0.951   2.679   6.901
 2995SOL    HW1 9884   0.868   2.636   6.937
 2995SOL    HW2 9885   0.971   2.642   6.810
 2996SOL     OW 9886   3.177   6.415   5.141
 2996SOL    HW1 9887   3.185   6.489   5.076
 2996SOL    HW2 9888   3.205   6.446   5.232
 2997SOL     OW 9889   5.018   6.126   1.773
 2997SOL    HW1 9890   4.956   6.194   1.811
 2997SOL    HW2 9891   5.098   6.115   1.833
 2998SOL     OW 9892   4.707   5.645   4.510
 2998SOL    HW1 9893   4.783   5.596   4.466
 2998SOL    HW2 9894   4.621   5.617   4.468
 2999SOL     OW 9895   3.596   6.185   3.715
 2999SOL    HW1 9896   3.658   6.260   3.739
 2999SOL    HW2 9897   3.596   6.173   3.616
 3000SOL     OW 9898   1.481   3.477   5.829
 3000SOL    HW1 9899   1.571   3.479   5.872
 3000SOL    HW2 9900   1.484   3.525   5.741
 3001SOL     OW 9901   5.078   6.963   6.700
 3001SOL    HW1 9902   5.077   0.039   6.706
 3001SOL    HW2 9903   5.108   6.936   6.608
 3002SOL     OW 9904   3.687   0.305   5.090
 3002SOL    HW1 9905   3.637   0.345   5.013
 3002SOL    HW2 9906   3.629   0.305   5.171
 3003SOL     OW 9907   2.853   6.406   6.391
 3003SOL    HW1 9908   2.766   6.378   6.353
 3003SOL    HW2 9909   2.863   6.506   6.385
 3004SOL     OW 9910   6.473   4.134   3.595
 3004SOL    HW1 9911   6.374   4.144   3.592
 3004SOL    HW2 9912   6.514   4.188   3.521
 3005SOL     OW 9913   3.180   3.278   1.344
 3005SOL    HW1 9914   3.123   3.207   1.385
 3005SOL    HW2 9915   3.267   3.284   1.395
 3006SOL     OW 9916   6.337   1.405   0.546
 3006SOL    HW1 9917   6.255   1.453   0.514
 3006SOL    HW2 9918   6.389   1.372   0.468
 3007SOL     OW 9919   6.101   5.341   2.301
 3007SOL    HW1 9920   6.024   5.367   2.360
 3007SOL    HW2 9921   6.067   5.317   2.210
 3008SOL     OW 9922   3.601   0.648   6.176
 3008SOL    HW1 9923   3.610   0.549   6.191
 3008SOL    HW2 9924   3.555   0.664   6.089
 3009SOL     OW 9925   0.652   6.849   2.571
 3009SOL    HW1 9926   0.661   6.786   2.649
 3009SOL    HW2 9927   0.590   6.809   2.503
 3010SOL     OW 9928   4.045   6.147   3.268
 3010SOL    HW1 9929   4.139   6.114   3.255
 3010SOL    HW2 9930   4.006   6.173   3.180
 3011SOL     OW 9931   5.913   0.595   6.535
 3011SOL    HW1 9932   5.878   0.517   6.586
 3011SOL    HW2 9933   5.970   0.563   6.460
 3012SOL     OW 9934   0.397   3.324   4.119
 3012SOL    HW1 9935   0.410   3.242   4.175
 3012SOL    HW2 9936   0.421   3.405   4.173
 3013SOL     OW 9937   5.376   6.133   3.197
 3013SOL    HW1 9938   5.346   6.038   3.203
 3013SOL    HW2 9939   5.399   6.167   3.288
 3014SOL     OW 9940   5.471   1.880   4.225
 3014SOL    HW1 9941   5.506   1.962   4.181
 3014SOL    HW2 9942   5.455   1.899   4.322
 3015SOL     OW 9943   3.261   2.557   6.858
 3015SOL    HW1 9944   3.230   2.644   6.897
 3015SOL    HW2 9945   3.191   2.523   6.795
 3016SOL     OW 9946   2.976   5.899   4.479
 3016SOL    HW1 9947   2.924   5.905   4.564
 3016SOL    HW2 9948   3.022   5.810   4.474
 3017SOL     OW 9949   1.246   5.732   1.073
 3017SOL    HW1 9950   1.289   5.762   1.158
 3017SOL    HW2 9951   1.252   5.807   1.006
 3018SOL     OW 9952   3.214   0.691   6.292
 3018SOL    HW1 9953   3.260   0.740   6.219
 3018SOL    HW2 9954   3.266   0.700   6.377
 3019SOL     OW 9955   3.515   6.496   1.131
 3019SOL    HW1 9956   3.441   6.467   1.192
 3019SOL    HW2 9957   3.498   6.459   1.040
 3020SOL     OW 9958   3.624   3.594   1.352
 3020SOL    HW1 9959   3.674   3.588   1.438
 3020SOL    HW2 9960   3.664   3.664   1.295
 3021SOL     OW 9961   2.091   1.995   6.969
 3021SOL    HW1 9962   2.000   2.001   6.928
 3021SOL    HW2 9963   2.140   2.081   6.955
 3022SOL     OW 9964   4.168   6.379   2.415
 3022SOL    HW1 9965   4.227   6.420   2.345
 3022SOL    HW2 9966   4.111   6.308   2.373
 3023SOL     OW 9967   3.493   6.127   3.001
 3023SOL    HW1 9968   3.498   6.050   2.937
 3023SOL    HW2 9969   3.399   6.141   3.029
 3024SOL     OW 9970   2.723   0.934   6.311
 3024SOL    HW1 9971   2.673   0.938   6.397
 3024SOL    HW2 9972   2.756   1.026   6.287
 3025SOL     OW 9973   3.555   2.791   0.450
 3025SOL    HW1 9974   3.560   2.833   0.541
 3025SOL    HW2 9975   3.573   2.693   0.458
 3026SOL     OW 9976   1.067   3.514   0.830
 3026SOL    HW1 9977   1.031   3.421   0.825
 3026SOL    HW2 9978   1.070   3.553   0.738
 3027SOL     OW 9979   4.242   1.087   2.065
 3027SOL    HW1 9980   4.234   1.021   2.139
 3027SOL    HW2 9981   4.246   1.039   1.977
 3028SOL     OW 9982   1.221   4.783   6.731
 3028SOL    HW1 9983   1.227   4.763   6.633
 3028SOL    HW2 9984   1.127   4.769   6.762
 3029SOL     OW 9985   6.775   5.223   5.095
 3029SOL    HW1 9986   6.746   5.130   5.069
 3029SOL    HW2 9987   6.873   5.232   5.079
 3030SOL     OW 9988   0.910   1.475   5.551
 3030SOL    HW1 9989   0.856   1.414   5.609
 3030SOL    HW2 9990   0.850   1.543   5.508
 3031SOL     OW 9991   0.609   3.600   0.696
 3031SOL    HW1 9992   0.614   3.513   0.646
 3031SOL    HW2 9993   0.540   3.592   0.768
 3032SOL     OW 9994   5.359   0.177   0.298
 3032SOL    HW1 9995   5.335   0.266   0.336
 3032SOL    HW2 9996   5.425   0.132   0.357
 3033SOL     OW 9997   0.470   2.480   6.919
 3033SOL    HW1 9998   0.397   2.422   6.881
 3033SOL    HW2 9999   0.526   2.426   6.982
 3034SOL     OW10000   2.053   6.128   3.518
 3034SOL    HW110001   1.962   6.159   3.488
 3034SOL    HW210002   2.087   6.190   3.589
 3035SOL     OW10003   6.692   1.876   0.612
 3035SOL    HW110004   6.679   1.894   0.515
 3035SOL    HW210005   6.719   1.781   0.625
 3036SOL     OW10006   1.947   3.639   6.907
 3036SOL    HW110007   2.012   3.702   6.865
 3036SOL    HW210008   1.858   3.646   6.861
 3037SOL     OW10009   5.899   5.752   4.611
 3037SOL    HW110010   5.964   5.749   4.686
 3037SOL    HW210011   5.947   5.743   4.524
 3038SOL     OW10012   5.963   0.074   6.408
 3038SOL    HW110013   6.047   0.100   6.457
 3038SOL    HW210014   5.901   0.026   6.471
 3039SOL     OW10015   6.867   4.891   2.378
 3039SOL    HW110016   6.885   4.986   2.406
 3039SOL    HW210017   6.893   4.879   2.282
 3040SOL     OW10018   4.551   3.794   6.320
 3040SOL    HW110019   4.595   3.878   6.289
 3040SOL    HW210020   4.576   3.719   6.259
 3041SOL     OW10021   1.770   2.514   5.702
 3041SOL    HW110022   1.797   2.422   5.674
 3041SOL    HW210023   1.771   2.575   5.622
 3042SOL     OW10024   5.321   0.308   2.011
 3042SOL    HW110025   5.331   0.216   2.050
 3042SOL    HW210026   5.336   0.304   1.912
 3043SOL     OW10027   0.152   5.382   0.550
 3043SOL    HW110028   0.161   5.330   0.465
 3043SOL    HW210029   0.239   5.428   0.571
 3044SOL     OW10030   3.319   4.261   5.282
 3044SOL    HW110031   3.309   4.359   5.266
 3044SOL    HW210032   3.377   4.246   5.362
 3045SOL     OW10033   4.769   0.711   2.648
 3045SOL    HW110034   4.805   0.641   2.586
 3045SOL    HW210035   4.715   0.666   2.720
 3046SOL     OW10036   1.319   3.465   5.553
 3046SOL    HW110037   1.375   3.545   5.572
 3046SOL    HW210038   1.377   3.391   5.518
 3047SOL     OW10039   5.481   5.382   2.064
 3047SOL    HW110040   5.534   5.467   2.071
 3047SOL    HW210041   5.479   5.352   1.969
 3048SOL     OW10042   4.072   3.496   1.467
 3048SOL    HW110043   4.065   3.411   1.413
 3048SOL    HW210044   3.981   3.532   1.484
 3049SOL     OW10045   0.604   5.987   0.928
 3049SOL    HW110046   0.590   6.008   0.831
 3049SOL    HW210047   0.676   5.919   0.938
 3050SOL     OW10048   3.555   0.138   3.532
 3050SOL    HW110049   3.630   0.141   3.466
 3050SOL    HW210050   3.550   0.046   3.572
 3051SOL     OW10051   2.370   4.277   6.807
 3051SOL    HW110052   2.466   4.302   6.800
 3051SOL    HW210053   2.343   4.275   6.904
 3052SOL     OW10054   3.969   0.345   3.027
 3052SOL    HW110055   3.931   0.434   3.004
 3052SOL    HW210056   3.932   0.314   3.115
 3053SOL     OW10057   6.282   0.486   6.719
 3053SOL    HW110058   6.248   0.556   6.656
 3053SOL    HW210059   6.323   0.411   6.668
 3054SOL     OW10060   0.099   2.489   6.743
 3054SOL    HW110061   0.137   2.579   6.722
 3054SOL    HW210062   0.024   2.499   6.809
 3055SOL     OW10063   5.273   0.698   3.826
 3055SOL    HW110064   5.316   0.653   3.747
 3055SOL    HW210065   5.178   0.667   3.833
 3056SOL     OW10066   6.521   0.443   6.830
 3056SOL    HW110067   6.516   0.370   6.899
 3056SOL    HW210068   6.429   0.469   6.802
 3057SOL     OW10069   4.347   5.614   2.631
 3057SOL    HW110070   4.411   5.563   2.687
 3057SOL    HW210071   4.289   5.671   2.689
 3058SOL     OW10072   6.501   5.742   1.298
 3058SOL    HW110073   6.438   5.665   1.288
 3058SOL    HW210074   6.456   5.826   1.268
 3059SOL     OW10075   1.672   3.314   5.292
 3059SOL    HW110076   1.643   3.246   5.224
 3059SOL    HW210077   1.771   3.329   5.284
 3060SOL     OW10078   0.236   6.433   0.408
 3060SOL    HW110079   0.208   6.419   0.503
 3060SOL    HW210080   0.236   6.531   0.387
 3061SOL     OW10081   0.047   0.810   5.217
 3061SOL    HW110082   0.117   0.798   5.147
 3061SOL    HW210083   0.008   0.901   5.210
 3062SOL     OW10084   1.552   0.036   1.179
 3062SOL    HW110085   1.618   7.005   1.230
 3062SOL    HW210086   1.468   7.007   1.166
 3063SOL     OW10087   2.525   5.206   2.701
 3063SOL    HW110088   2.483   5.221   2.611
 3063SOL    HW210089   2.510   5.286   2.759
 3064SOL     OW10090   5.849   3.228   3.760
 3064SOL    HW110091   5.793   3.221   3.843
 3064SOL    HW210092   5.800   3.186   3.683
 3065SOL     OW10093   2.340   0.164   6.452
 3065SOL    HW110094   2.398   0.218   6.390
 3065SOL    HW210095   2.314   0.220   6.531
 3066SOL     OW10096   5.958   4.276   0.194
 3066SOL    HW110097   5.863   4.245   0.190
 3066SOL    HW210098   5.972   4.332   0.275
 3067SOL     OW10099   2.938   1.091   4.806
 3067SOL    HW110100   2.859   1.141   4.843
 3067SOL    HW210101   3.010   1.087   4.875
 3068SOL     OW10102   5.981   6.314   0.579
 3068SOL    HW110103   5.934   6.278   0.498
 3068SOL    HW210104   6.027   6.238   0.626
 3069SOL     OW10105   6.712   5.377   1.431
 3069SOL    HW110106   6.712   5.477   1.432
 3069SOL    HW210107   6.741   5.343   1.520
 3070SOL     OW10108   2.076   1.244   2.324
 3070SOL    HW110109   1.999   1.308   2.325
 3070SOL    HW210110   2.063   1.175   2.395
 3071SOL     OW10111   6.748   6.785   3.583
 3071SOL    HW110112   6.831   6.793   3.527
 3071SOL    HW210113   6.716   6.691   3.581
 3072SOL     OW10114   0.830   6.305   1.172
 3072SOL    HW110115   0.849   6.309   1.270
 3072SOL    HW210116   0.857   6.216   1.136
 3073SOL     OW10117   0.768   3.705   4.876
 3073SOL    HW110118   0.713   3.782   4.845
 3073SOL    HW210119   0.765   3.700   4.976
 3074SOL     OW10120   5.446   2.878   0.548
 3074SOL    HW110121   5.378   2.806   0.538
 3074SOL    HW210122   5.492   2.869   0.636
 3075SOL     OW10123   1.840   6.304   1.496
 3075SOL    HW110124   1.844   6.237   1.571
 3075SOL    HW210125   1.912   6.372   1.509
 3076SOL     OW10126   6.291   0.748   4.447
 3076SOL    HW110127   6.285   0.844   4.475
 3076SOL    HW210128   6.367   0.704   4.496
 3077SOL     OW10129   5.480   4.563   2.722
 3077SOL    HW110130   5.406   4.566   2.654
 3077SOL    HW210131   5.470   4.640   2.785
 3078SOL     OW10132   2.323   3.747   1.614
 3078SOL    HW110133   2.258   3.823   1.615
 3078SOL    HW210134   2.390   3.761   1.542
 3079SOL     OW10135   1.732   2.764   4.899
 3079SOL    HW110136   1.669   2.783   4.823
 3079SOL    HW210137   1.818   2.813   4.883
 3080SOL     OW10138   5.675   5.071   1.952
 3080SOL    HW110139   5.584   5.112   1.951
 3080SOL    HW210140   5.668   4.974   1.929
 3081SOL     OW10141   0.797   4.472   5.974
 3081SOL    HW110142   0.839   4.382   5.977
 3081SOL    HW210143   0.845   4.530   5.908
 3082SOL     OW10144   3.900   6.695   3.677
 3082SOL    HW110145   3.969   6.765   3.687
 3082SOL    HW210146   3.809   6.736   3.681
 3083SOL     OW10147   3.986   6.819   2.426
 3083SOL    HW110148   3.973   6.906   2.379
 3083SOL    HW210149   4.051   6.832   2.501
 3084SOL     OW10150   5.107   4.303   4.258
 3084SOL    HW110151   5.065   4.388   4.291
 3084SOL    HW210152   5.115   4.239   4.334
 3085SOL     OW10153   0.247   4.260   3.163
 3085SOL    HW110154   0.296   4.286   3.080
 3085SOL    HW210155   0.289   4.305   3.242
 3086SOL     OW10156   4.297   1.398   2.207
 3086SOL    HW110157   4.262   1.443   2.125
 3086SOL    HW210158   4.364   1.328   2.181
 3087SOL     OW10159   0.009   4.558   4.144
 3087SOL    HW110160   0.083   4.522   4.087
 3087SOL    HW210161   0.046   4.624   4.210
 3088SOL     OW10162   2.952   5.041   5.371
 3088SOL    HW110163   3.041   5.060   5.411
 3088SOL    HW210164   2.947   4.944   5.344
 3089SOL     OW10165   1.092   3.092   6.979
 3089SOL    HW110166   1.149   3.062   6.903
 3089SOL    HW210167   1.034   3.017   7.009
 3090SOL     OW10168   1.775   1.726   1.396
 3090SOL    HW110169   1.808   1.648   1.342
 3090SOL    HW210170   1.814   1.810   1.359
 3091SOL     OW10171   3.151   6.636   0.198
 3091SOL    HW110172   3.091   6.682   0.263
 3091SOL    HW210173   3.158   6.539   0.221
 3092SOL     OW10174   5.464   6.880   0.052
 3092SOL    HW110175   5.383   6.937   0.036
 3092SOL    HW210176   5.546   6.937   0.043
 3093SOL     OW10177   5.764   5.426   5.928
 3093SOL    HW110178   5.734   5.386   6.014
 3093SOL    HW210179   5.686   5.440   5.868
 3094SOL     OW10180   3.100   6.850   5.022
 3094SOL    HW110181   3.173   6.862   4.954
 3094SOL    HW210182   3.051   6.765   5.004
 3095SOL     OW10183   2.621   4.740   4.420
 3095SOL    HW110184   2.655   4.661   4.471
 3095SOL    HW210185   2.611   4.715   4.323
 3096SOL     OW10186   6.587   0.649   4.541
 3096SOL    HW110187   6.594   0.747   4.561
 3096SOL    HW210188   6.619   0.632   4.447
 3097SOL     OW10189   0.796   2.344   0.442
 3097SOL    HW110190   0.754   2.320   0.529
 3097SOL    HW210191   0.810   2.443   0.437
 3098SOL     OW10192   2.307   3.457   1.230
 3098SOL    HW110193   2.313   3.359   1.208
 3098SOL    HW210194   2.315   3.469   1.329
 3099SOL     OW10195   6.972   5.791   4.755
 3099SOL    HW110196   7.003   5.696   4.753
 3099SOL    HW210197   0.026   5.852   4.744
 3100SOL     OW10198   6.707   0.056   4.813
 3100SOL    HW110199   6.619   0.025   4.775
 3100SOL    HW210200   6.690   0.101   4.901
 3101SOL     OW10201   4.157   5.937   5.356
 3101SOL    HW110202   4.068   5.980   5.356
 3101SOL    HW210203   4.223   5.994   5.307
 3102SOL     OW10204   0.912   4.712   1.420
 3102SOL    HW110205   0.858   4.628   1.409
 3102SOL    HW210206   0.907   4.742   1.515
 3103SOL     OW10207   3.532   1.427   0.738
 3103SOL    HW110208   3.612   1.369   0.753
 3103SOL    HW210209   3.524   1.493   0.813
 3104SOL     OW10210   5.762   6.076   4.528
 3104SOL    HW110211   5.789   6.051   4.621
 3104SOL    HW210212   5.842   6.077   4.468
 3105SOL     OW10213   6.348   5.391   3.616
 3105SOL    HW110214   6.355   5.348   3.526
 3105SOL    HW210215   6.252   5.399   3.641
 3106SOL     OW10216   6.621   2.054   2.549
 3106SOL    HW110217   6.684   2.050   2.627
 3106SOL    HW210218   6.666   2.098   2.472
 3107SOL     OW10219   3.970   0.664   4.385
 3107SOL    HW110220   4.013   0.753   4.395
 3107SOL    HW210221   3.937   0.632   4.474
 3108SOL     OW10222   1.830   1.143   4.284
 3108SOL    HW110223   1.859   1.053   4.317
 3108SOL    HW210224   1.837   1.146   4.184
 3109SOL     OW10225   5.393   5.984   2.420
 3109SOL    HW110226   5.333   6.005   2.498
 3109SOL    HW210227   5.488   5.979   2.450
 3110SOL     OW10228   0.110   2.220   3.433
 3110SOL    HW110229   0.047   2.253   3.362
 3110SOL    HW210230   0.197   2.270   3.425
 3111SOL     OW10231   5.994   5.785   4.035
 3111SOL    HW110232   5.923   5.779   4.105
 3111SOL    HW210233   6.030   5.693   4.016
 3112SOL     OW10234   4.688   2.761   5.892
 3112SOL    HW110235   4.642   2.802   5.971
 3112SOL    HW210236   4.620   2.733   5.824
 3113SOL     OW10237   2.555   0.095   4.009
 3113SOL    HW110238   2.617   0.147   4.067
 3113SOL    HW210239   2.559   7.022   4.035
 3114SOL     OW10240   5.428   4.117   0.070
 3114SOL    HW110241   5.410   4.206   0.029
 3114SOL    HW210242   5.453   4.051   7.023
 3115SOL     OW10243   4.385   3.575   0.049
 3115SOL    HW110244   4.333   3.605   6.993
 3115SOL    HW210245   4.325   3.573   0.129
 3116SOL     OW10246   6.796   3.070   0.107
 3116SOL    HW110247   6.797   3.133   0.030
 3116SOL    HW210248   6.764   2.980   0.075
 3117SOL     OW10249   4.590   3.922   5.279
 3117SOL    HW110250   4.500   3.881   5.265
 3117SOL    HW210251   4.585   3.995   5.347
 3118SOL     OW10252   6.652   4.394   6.515
 3118SOL    HW110253   6.704   4.417   6.597
 3118SOL    HW210254   6.694   4.315   6.470
 3119SOL     OW10255   1.877   4.510   5.091
 3119SOL    HW110256   1.801   4.459   5.131
 3119SOL    HW210257   1.963   4.472   5.124
 3120SOL     OW10258   2.243   6.126   4.568
 3120SOL    HW110259   2.150   6.161   4.555
 3120SOL    HW210260   2.266   6.064   4.492
 3121SOL     OW10261   0.371   1.132   2.486
 3121SOL    HW110262   0.307   1.060   2.459
 3121SOL    HW210263   0.385   1.195   2.411
 3122SOL     OW10264   3.443   5.393   6.073
 3122SOL    HW110265   3.359   5.448   6.069
 3122SOL    HW210266   3.513   5.444   6.122
 3123SOL     OW10267   3.023   6.635   3.652
 3123SOL    HW110268   3.006   6.728   3.617
 3123SOL    HW210269   3.063   6.579   3.579
 3124SOL     OW10270   3.954   0.767   5.131
 3124SOL    HW110271   3.896   0.690   5.103
 3124SOL    HW210272   3.929   0.848   5.078
 3125SOL     OW10273   6.438   2.386   5.695
 3125SOL    HW110274   6.396   2.451   5.632
 3125SOL    HW210275   6.490   2.436   5.765
 3126SOL     OW10276   4.864   4.503   6.637
 3126SOL    HW110277   4.951   4.454   6.632
 3126SOL    HW210278   4.836   4.513   6.732
 3127SOL     OW10279   0.807   2.109   3.402
 3127SOL    HW110280   0.889   2.079   3.354
 3127SOL    HW210281   0.833   2.170   3.477
 3128SOL     OW10282   1.578   0.618   0.736
 3128SOL    HW110283   1.576   0.519   0.730
 3128SOL    HW210284   1.673   0.650   0.731
 3129SOL     OW10285   0.760   4.473   6.262
 3129SOL    HW110286   0.750   4.499   6.166
 3129SOL    HW210287   0.750   4.374   6.272
 3130SOL     OW10288   2.390   4.744   2.285
 3130SOL    HW110289   2.429   4.835   2.273
 3130SOL    HW210290   2.341   4.741   2.372
 3131SOL     OW10291   1.127   2.757   3.334
 3131SOL    HW110292   1.105   2.837   3.391
 3131SOL    HW210293   1.067   2.755   3.255
 3132SOL     OW10294   5.298   6.182   5.256
 3132SOL    HW110295   5.351   6.105   5.220
 3132SOL    HW210296   5.208   6.150   5.285
 3133SOL     OW10297   2.308   2.352   4.147
 3133SOL    HW110298   2.243   2.428   4.153
 3133SOL    HW210299   2.279   2.278   4.208
 3134SOL     OW10300   5.215   3.428   1.802
 3134SOL    HW110301   5.297   3.407   1.749
 3134SOL    HW210302   5.197   3.527   1.798
 3135SOL     OW10303   3.796   1.789   4.811
 3135SOL    HW110304   3.889   1.824   4.820
 3135SOL    HW210305   3.746   1.844   4.743
 3136SOL     OW10306   6.274   6.428   5.872
 3136SOL    HW110307   6.328   6.363   5.926
 3136SOL    HW210308   6.326   6.512   5.861
 3137SOL     OW10309   4.889   1.443   3.611
 3137SOL    HW110310   4.872   1.498   3.693
 3137SOL    HW210311   4.986   1.419   3.606
 3138SOL     OW10312   6.195   2.046   4.405
 3138SOL    HW110313   6.217   1.951   4.423
 3138SOL    HW210314   6.244   2.105   4.470
 3139SOL     OW10315   5.414   6.696   6.023
 3139SOL    HW110316   5.488   6.645   5.979
 3139SOL    HW210317   5.327   6.650   6.004
 3140SOL     OW10318   6.455   6.435   6.484
 3140SOL    HW110319   6.510   6.519   6.486
 3140SOL    HW210320   6.440   6.408   6.389
 3141SOL     OW10321   0.615   6.540   6.556
 3141SOL    HW110322   0.643   6.633   6.533
 3141SOL    HW210323   0.693   6.490   6.594
 3142SOL     OW10324   5.116   6.263   0.312
 3142SOL    HW110325   5.193   6.213   0.352
 3142SOL    HW210326   5.035   6.252   0.371
 3143SOL     OW10327   0.062   2.065   6.414
 3143SOL    HW110328   0.062   2.157   6.454
 3143SOL    HW210329   0.127   2.062   6.339
 3144SOL     OW10330   2.267   3.809   0.946
 3144SOL    HW110331   2.336   3.750   0.904
 3144SOL    HW210332   2.263   3.791   1.045
 3145SOL     OW10333   3.129   5.978   2.665
 3145SOL    HW110334   3.042   6.017   2.697
 3145SOL    HW210335   3.131   5.979   2.565
 3146SOL     OW10336   1.337   6.799   3.050
 3146SOL    HW110337   1.374   6.757   3.132
 3146SOL    HW210338   1.412   6.825   2.989
 3147SOL     OW10339   4.050   5.270   0.404
 3147SOL    HW110340   3.991   5.208   0.456
 3147SOL    HW210341   4.108   5.216   0.342
 3148SOL     OW10342   4.129   5.336   4.046
 3148SOL    HW110343   4.190   5.410   4.074
 3148SOL    HW210344   4.085   5.297   4.127
 3149SOL     OW10345   3.445   0.738   5.467
 3149SOL    HW110346   3.396   0.788   5.396
 3149SOL    HW210347   3.522   0.690   5.427
 3150SOL     OW10348   5.197   5.973   4.070
 3150SOL    HW110349   5.117   5.946   4.123
 3150SOL    HW210350   5.206   5.914   3.991
 3151SOL     OW10351   4.653   1.487   6.549
 3151SOL    HW110352   4.601   1.428   6.611
 3151SOL    HW210353   4.602   1.500   6.464
 3152SOL     OW10354   0.426   5.308   1.691
 3152SOL    HW110355   0.410   5.335   1.596
 3152SOL    HW210356   0.520   5.275   1.701
 3153SOL     OW10357   5.849   3.775   1.540
 3153SOL    HW110358   5.945   3.754   1.560
 3153SOL    HW210359   5.843   3.864   1.494
 3154SOL     OW10360   6.694   2.115   7.001
 3154SOL    HW110361   6.614   2.173   7.016
 3154SOL    HW210362   6.665   2.019   6.995
 3155SOL     OW10363   6.983   4.624   1.201
 3155SOL    HW110364   0.044   4.626   1.147
 3155SOL    HW210365   6.986   4.697   1.269
 3156SOL     OW10366   4.083   3.515   3.438
 3156SOL    HW110367   4.021   3.439   3.419
 3156SOL    HW210368   4.096   3.524   3.536
 3157SOL     OW10369   2.131   3.401   4.729
 3157SOL    HW110370   2.220   3.443   4.745
 3157SOL    HW210371   2.087   3.444   4.650
 3158SOL     OW10372   5.128   0.056   1.641
 3158SOL    HW110373   5.058   0.077   1.572
 3158SOL    HW210374   5.198   0.128   1.639
 3159SOL     OW10375   4.862   5.986   6.146
 3159SOL    HW110376   4.858   6.003   6.244
 3159SOL    HW210377   4.809   5.904   6.125
 3160SOL     OW10378   6.195   4.015   6.259
 3160SOL    HW110379   6.105   4.050   6.236
 3160SOL    HW210380   6.190   3.916   6.274
 3161SOL     OW10381   1.550   0.971   2.837
 3161SOL    HW110382   1.637   0.984   2.886
 3161SOL    HW210383   1.554   0.888   2.781
 3162SOL     OW10384   6.891   5.253   6.893
 3162SOL    HW110385   6.817   5.198   6.930
 3162SOL    HW210386   6.901   5.337   6.948
 3163SOL     OW10387   3.931   2.877   6.889
 3163SOL    HW110388   3.928   2.798   6.828
 3163SOL    HW210389   3.892   2.852   6.978
 3164SOL     OW10390   5.452   4.457   1.453
 3164SOL    HW110391   5.431   4.554   1.451
 3164SOL    HW210392   5.422   4.418   1.540
 3165SOL     OW10393   1.001   0.136   1.764
 3165SOL    HW110394   1.057   0.219   1.766
 3165SOL    HW210395   0.905   0.160   1.751
 3166SOL     OW10396   4.935   2.536   6.217
 3166SOL    HW110397   4.904   2.553   6.123
 3166SOL    HW210398   4.881   2.592   6.280
 3167SOL     OW10399   0.151   4.530   2.020
 3167SOL    HW110400   0.198   4.618   2.034
 3167SOL    HW210401   0.146   4.510   1.923
 3168SOL     OW10402   5.542   3.189   0.623
 3168SOL    HW110403   5.642   3.191   0.629
 3168SOL    HW210404   5.506   3.124   0.691
 3169SOL     OW10405   0.890   3.623   5.515
 3169SOL    HW110406   0.819   3.561   5.549
 3169SOL    HW210407   0.962   3.632   5.585
 3170SOL     OW10408   4.258   0.412   0.021
 3170SOL    HW110409   4.235   0.318   0.047
 3170SOL    HW210410   4.191   0.445   6.979
 3171SOL     OW10411   6.559   6.927   1.889
 3171SOL    HW110412   6.565   6.967   1.797
 3171SOL    HW210413   6.650   6.928   1.931
 3172SOL     OW10414   6.604   6.229   4.820
 3172SOL    HW110415   6.640   6.147   4.863
 3172SOL    HW210416   6.649   6.310   4.859
 3173SOL     OW10417   2.068   0.195   2.230
 3173SOL    HW110418   2.040   0.291   2.224
 3173SOL    HW210419   2.168   0.188   2.224
 3174SOL     OW10420   3.165   2.884   5.745
 3174SOL    HW110421   3.085   2.924   5.789
 3174SOL    HW210422   3.136   2.817   5.677
 3175SOL     OW10423   1.048   6.243   6.786
 3175SOL    HW110424   1.127   6.305   6.790
 3175SOL    HW210425   1.026   6.224   6.690
 3176SOL     OW10426   1.446   4.500   6.153
 3176SOL    HW110427   1.468   4.439   6.076
 3176SOL    HW210428   1.367   4.463   6.203
 3177SOL     OW10429   5.523   4.796   5.373
 3177SOL    HW110430   5.558   4.703   5.377
 3177SOL    HW210431   5.447   4.800   5.308
 3178SOL     OW10432   0.795   4.197   2.014
 3178SOL    HW110433   0.758   4.230   1.927
 3178SOL    HW210434   0.890   4.169   2.001
 3179SOL     OW10435   2.112   2.424   2.420
 3179SOL    HW110436   2.072   2.345   2.374
 3179SOL    HW210437   2.182   2.465   2.362
 3180SOL     OW10438   4.941   0.819   5.510
 3180SOL    HW110439   4.986   0.730   5.518
 3180SOL    HW210440   4.970   0.863   5.425
 3181SOL     OW10441   0.427   0.962   3.507
 3181SOL    HW110442   0.430   0.884   3.444
 3181SOL    HW210443   0.477   1.039   3.467
 3182SOL     OW10444   0.029   0.048   5.979
 3182SOL    HW110445   0.065   6.980   5.971
 3182SOL    HW210446   6.983   0.052   6.050
 3183SOL     OW10447   4.398   5.238   1.465
 3183SOL    HW110448   4.339   5.221   1.543
 3183SOL    HW210449   4.433   5.151   1.429
 3184SOL     OW10450   2.526   1.650   2.443
 3184SOL    HW110451   2.485   1.589   2.376
 3184SOL    HW210452   2.456   1.680   2.508
 3185SOL     OW10453   0.405   6.856   5.410
 3185SOL    HW110454   0.376   6.802   5.332
 3185SOL    HW210455   0.429   6.949   5.380
 3186SOL     OW10456   3.698   1.268   2.477
 3186SOL    HW110457   3.639   1.194   2.508
 3186SOL    HW210458   3.673   1.353   2.524
 3187SOL     OW10459   3.655   4.221   6.878
 3187SOL    HW110460   3.665   4.166   6.961
 3187SOL    HW210461   3.745   4.243   6.842
 3188SOL     OW10462   3.690   5.456   2.875
 3188SOL    HW110463   3.743   5.540   2.888
 3188SOL    HW210464   3.752   5.377   2.874
 3189SOL     OW10465   1.114   0.686   3.371
 3189SOL    HW110466   1.085   0.712   3.279
 3189SOL    HW210467   1.034   0.668   3.427
 3190SOL     OW10468   1.474   5.900   1.663
 3190SOL    HW110469   1.479   5.992   1.700
 3190SOL    HW210470   1.538   5.891   1.586
 3191SOL     OW10471   3.853   0.959   1.332
 3191SOL    HW110472   3.944   0.969   1.291
 3191SOL    HW210473   3.862   0.924   1.425
 3192SOL     OW10474   0.707   2.370   1.481
 3192SOL    HW110475   0.737   2.381   1.576
 3192SOL    HW210476   0.641   2.295   1.475
 3193SOL     OW10477   4.572   2.013   6.470
 3193SOL    HW110478   4.664   2.003   6.508
 3193SOL    HW210479   4.505   2.012   6.544
 3194SOL     OW10480   1.589   3.876   6.375
 3194SOL    HW110481   1.662   3.941   6.398
 3194SOL    HW210482   1.603   3.843   6.281
 3195SOL     OW10483   1.241   3.197   3.879
 3195SOL    HW110484   1.185   3.115   3.885
 3195SOL    HW210485   1.330   3.175   3.838
 3196SOL     OW10486   0.219   0.274   4.758
 3196SOL    HW110487   0.135   0.221   4.768
 3196SOL    HW210488   0.262   0.286   4.847
 3197SOL     OW10489   1.424   5.892   3.153
 3197SOL    HW110490   1.381   5.958   3.213
 3197SOL    HW210491   1.426   5.802   3.197
 3198SOL     OW10492   0.075   1.641   6.124
 3198SOL    HW110493   7.006   1.675   6.138
 3198SOL    HW210494   0.138   1.694   6.180
 3199SOL     OW10495   4.647   1.491   1.755
 3199SOL    HW110496   4.608   1.434   1.827
 3199SOL    HW210497   4.705   1.435   1.695
 3200SOL     OW10498   0.148   2.150   0.475
 3200SOL    HW110499   0.212   2.125   0.402
 3200SOL    HW210500   0.082   2.217   0.440
 3201SOL     OW10501   5.792   3.845   3.884
 3201SOL    HW110502   5.842   3.803   3.809
 3201SOL    HW210503   5.719   3.784   3.914
 3202SOL     OW10504   1.776   4.831   1.717
 3202SOL    HW110505   1.780   4.844   1.816
 3202SOL    HW210506   1.815   4.911   1.671
 3203SOL     OW10507   0.048   1.100   1.256
 3203SOL    HW110508   0.104   1.078   1.176
 3203SOL    HW210509   6.986   1.048   1.251
 3204SOL     OW10510   6.516   5.871   1.758
 3204SOL    HW110511   6.602   5.920   1.775
 3204SOL    HW210512   6.527   5.813   1.677
 3205SOL     OW10513   6.528   3.885   5.574
 3205SOL    HW110514   6.549   3.905   5.670
 3205SOL    HW210515   6.467   3.806   5.568
 3206SOL     OW10516   0.843   6.482   5.530
 3206SOL    HW110517   0.912   6.530   5.477
 3206SOL    HW210518   0.762   6.465   5.473
 3207SOL     OW10519   0.939   0.866   5.004
 3207SOL    HW110520   0.938   0.815   4.918
 3207SOL    HW210521   0.959   0.963   4.985
 3208SOL     OW10522   4.210   5.550   5.023
 3208SOL    HW110523   4.142   5.611   4.982
 3208SOL    HW210524   4.241   5.484   4.955
 3209SOL     OW10525   2.704   6.897   3.804
 3209SOL    HW110526   2.763   6.939   3.872
 3209SOL    HW210527   2.613   6.939   3.809
 3210SOL     OW10528   0.103   4.267   2.653
 3210SOL    HW110529   0.107   4.223   2.563
 3210SOL    HW210530   0.141   4.205   2.722
 3211SOL     OW10531   1.874   4.301   1.360
 3211SOL    HW110532   1.799   4.340   1.307
 3211SOL    HW210533   1.960   4.346   1.334
 3212SOL     OW10534   4.328   2.404   6.836
 3212SOL    HW110535   4.279   2.491   6.835
 3212SOL    HW210536   4.413   2.412   6.784
 3213SOL     OW10537   5.962   5.828   3.358
 3213SOL    HW110538   5.889   5.866   3.301
 3213SOL    HW210539   5.963   5.728   3.348
 3214SOL     OW10540   4.221   6.194   6.753
 3214SOL    HW110541   4.160   6.135   6.700
 3214SOL    HW210542   4.186   6.287   6.754
 3215SOL     OW10543   6.386   2.653   6.892
 3215SOL    HW110544   6.287   2.663   6.886
 3215SOL    HW210545   6.423   2.634   6.801
 3216SOL     OW10546   5.521   6.824   3.908
 3216SOL    HW110547   5.461   6.791   3.981
 3216SOL    HW210548   5.500   6.774   3.823
 3217SOL     OW10549   0.180   4.548   2.653
 3217SOL    HW110550   0.146   4.455   2.663
 3217SOL    HW210551   0.119   4.612   2.700
 3218SOL     OW10552   4.095   0.103   3.010
 3218SOL    HW110553   4.189   0.104   2.977
 3218SOL    HW210554   4.064   0.197   3.024
 3219SOL     OW10555   0.166   0.231   3.295
 3219SOL    HW110556   0.151   0.329   3.282
 3219SOL    HW210557   0.078   0.183   3.293
 3220SOL     OW10558   0.203   4.932   5.130
 3220SOL    HW110559   0.217   4.837   5.100
 3220SOL    HW210560   0.207   4.993   5.051
 3221SOL     OW10561   2.691   6.825   3.530
 3221SOL    HW110562   2.692   6.808   3.629
 3221SOL    HW210563   2.675   6.739   3.482
 3222SOL     OW10564   5.154   1.864   2.686
 3222SOL    HW110565   5.172   1.956   2.650
 3222SOL    HW210566   5.121   1.871   2.780
 3223SOL     OW10567   2.459   4.889   6.005
 3223SOL    HW110568   2.549   4.921   6.035
 3223SOL    HW210569   2.391   4.912   6.074
 3224SOL     OW10570   3.872   5.610   7.016
 3224SOL    HW110571   3.889   5.561   6.931
 3224SOL    HW210572   3.930   5.572   0.065
 3225SOL     OW10573   3.172   3.408   0.234
 3225SOL    HW110574   3.226   3.425   0.317
 3225SOL    HW210575   3.114   3.487   0.216
 3226SOL     OW10576   1.843   0.667   4.235
 3226SOL    HW110577   1.802   0.584   4.197
 3226SOL    HW210578   1.898   0.712   4.165
 3227SOL     OW10579   3.908   1.503   5.872
 3227SOL    HW110580   3.985   1.516   5.810
 3227SOL    HW210581   3.907   1.576   5.940
 3228SOL     OW10582   5.067   3.640   4.122
 3228SOL    HW110583   5.008   3.600   4.192
 3228SOL    HW210584   5.163   3.622   4.146
 3229SOL     OW10585   4.358   1.785   5.803
 3229SOL    HW110586   4.319   1.693   5.805
 3229SOL    HW210587   4.343   1.829   5.892
 3230SOL     OW10588   0.392   0.500   2.938
 3230SOL    HW110589   0.427   0.504   2.844
 3230SOL    HW210590   0.456   0.448   2.995
 3231SOL     OW10591   6.015   6.073   0.748
 3231SOL    HW110592   6.055   6.039   0.833
 3231SOL    HW210593   5.987   5.995   0.691
 3232SOL     OW10594   2.971   4.990   4.608
 3232SOL    HW110595   2.934   4.962   4.697
 3232SOL    HW210596   2.937   5.081   4.584
 3233SOL     OW10597   0.524   3.853   1.479
 3233SOL    HW110598   0.520   3.768   1.532
 3233SOL    HW210599   0.431   3.883   1.458
 3234SOL     OW10600   0.156   1.825   6.492
 3234SOL    HW110601   0.134   1.921   6.510
 3234SOL    HW210602   0.189   1.816   6.398
 3235SOL     OW10603   5.706   6.913   3.115
 3235SOL    HW110604   5.743   7.005   3.129
 3235SOL    HW210605   5.743   6.851   3.185
 3236SOL     OW10606   1.023   2.770   2.780
 3236SOL    HW110607   0.954   2.743   2.713
 3236SOL    HW210608   1.112   2.780   2.734
 3237SOL     OW10609   3.994   6.789   4.770
 3237SOL    HW110610   3.966   6.707   4.821
 3237SOL    HW210611   4.042   6.761   4.686
 3238SOL     OW10612   6.934   5.982   6.218
 3238SOL    HW110613   0.001   6.020   6.200
 3238SOL    HW210614   6.902   6.014   6.307
 3239SOL     OW10615   6.236   0.208   5.759
 3239SOL    HW110616   6.247   0.260   5.674
 3239SOL    HW210617   6.294   0.127   5.756
 3240SOL     OW10618   1.417   0.181   4.748
 3240SOL    HW110619   1.432   0.174   4.847
 3240SOL    HW210620   1.357   0.259   4.729
 3241SOL     OW10621   5.009   0.887   4.037
 3241SOL    HW110622   4.946   0.951   4.080
 3241SOL    HW210623   5.060   0.933   3.965
 3242SOL     OW10624   3.815   6.441   6.624
 3242SOL    HW110625   3.818   6.343   6.605
 3242SOL    HW210626   3.888   6.487   6.574
 3243SOL     OW10627   4.346   5.193   0.238
 3243SOL    HW110628   4.438   5.230   0.251
 3243SOL    HW210629   4.313   5.217   0.147
 3244SOL     OW10630   3.808   5.988   6.145
 3244SOL    HW110631   3.846   5.918   6.205
 3244SOL    HW210632   3.879   6.055   6.123
 3245SOL     OW10633   3.706   2.618   6.458
 3245SOL    HW110634   3.620   2.647   6.499
 3245SOL    HW210635   3.779   2.624   6.526
 3246SOL     OW10636   5.075   6.531   2.862
 3246SOL    HW110637   5.055   6.522   2.960
 3246SOL    HW210638   5.017   6.468   2.810
 3247SOL     OW10639   6.770   2.889   3.688
 3247SOL    HW110640   6.673   2.891   3.662
 3247SOL    HW210641   6.809   2.801   3.663
 3248SOL     OW10642   6.305   3.038   1.698
 3248SOL    HW110643   6.380   3.001   1.752
 3248SOL    HW210644   6.279   3.128   1.733
 3249SOL     OW10645   3.102   4.825   4.886
 3249SOL    HW110646   3.109   4.756   4.813
 3249SOL    HW210647   3.006   4.845   4.903
 3250SOL     OW10648   4.593   6.816   2.438
 3250SOL    HW110649   4.563   6.721   2.434
 3250SOL    HW210650   4.633   6.842   2.350
 3251SOL     OW10651   3.679   2.134   2.794
 3251SOL    HW110652   3.618   2.132   2.715
 3251SOL    HW210653   3.629   2.166   2.874
 3252SOL     OW10654   2.939   0.965   2.639
 3252SOL    HW110655   2.938   0.902   2.561
 3252SOL    HW210656   2.845   0.986   2.665
 3253SOL     OW10657   5.378   3.091   1.431
 3253SOL    HW110658   5.359   3.110   1.527
 3253SOL    HW210659   5.314   3.022   1.397
 3254SOL     OW10660   4.271   4.671   3.500
 3254SOL    HW110661   4.214   4.680   3.582
 3254SOL    HW210662   4.213   4.675   3.419
 3255SOL     OW10663   4.111   5.718   0.361
 3255SOL    HW110664   4.206   5.693   0.380
 3255SOL    HW210665   4.101   5.817   0.367
 3256SOL     OW10666   5.173   0.085   5.820
 3256SOL    HW110667   5.163   0.127   5.730
 3256SOL    HW210668   5.270   0.075   5.842
 3257SOL     OW10669   1.470   2.319   1.190
 3257SOL    HW110670   1.518   2.375   1.257
 3257SOL    HW210671   1.454   2.228   1.229
 3258SOL     OW10672   5.373   6.722   1.932
 3258SOL    HW110673   5.356   6.773   1.848
 3258SOL    HW210674   5.313   6.643   1.936
 3259SOL     OW10675   4.397   6.266   4.061
 3259SOL    HW110676   4.334   6.340   4.037
 3259SOL    HW210677   4.418   6.271   4.159
 3260SOL     OW10678   2.357   1.740   7.022
 3260SOL    HW110679   2.345   1.643   7.005
 3260SOL    HW210680   2.271   1.788   7.004
 3261SOL     OW10681   4.917   6.960   0.924
 3261SOL    HW110682   4.871   6.917   1.002
 3261SOL    HW210683   4.951   0.026   0.951
 3262SOL     OW10684   3.835   1.773   2.902
 3262SOL    HW110685   3.802   1.834   2.974
 3262SOL    HW210686   3.762   1.757   2.835
 3263SOL     OW10687   4.590   6.892   1.696
 3263SOL    HW110688   4.644   6.877   1.613
 3263SOL    HW210689   4.631   6.966   1.749
 3264SOL     OW10690   6.188   4.682   6.924
 3264SOL    HW110691   6.118   4.730   6.977
 3264SOL    HW210692   6.268   4.741   6.913
 3265SOL     OW10693   5.251   0.972   6.285
 3265SOL    HW110694   5.212   1.058   6.251
 3265SOL    HW210695   5.228   0.898   6.223
 3266SOL     OW10696   0.602   1.691   6.450
 3266SOL    HW110697   0.578   1.727   6.360
 3266SOL    HW210698   0.696   1.656   6.447
 3267SOL     OW10699   3.200   1.805   0.891
 3267SOL    HW110700   3.227   1.768   0.979
 3267SOL    HW210701   3.246   1.892   0.875
 3268SOL     OW10702   0.931   3.937   6.483
 3268SOL    HW110703   0.994   3.948   6.559
 3268SOL    HW210704   0.886   4.024   6.464
 3269SOL     OW10705   4.257   4.343   1.034
 3269SOL    HW110706   4.324   4.411   1.004
 3269SOL    HW210707   4.200   4.317   0.956
 3270SOL     OW10708   0.706   5.674   4.277
 3270SOL    HW110709   0.783   5.661   4.339
 3270SOL    HW210710   0.721   5.622   4.193
 3271SOL     OW10711   6.178   2.161   1.103
 3271SOL    HW110712   6.209   2.066   1.104
 3271SOL    HW210713   6.248   2.219   1.060
 3272SOL     OW10714   3.806   0.470   0.840
 3272SOL    HW110715   3.717   0.449   0.880
 3272SOL    HW210716   3.850   0.385   0.811
 3273SOL     OW10717   0.309   6.797   2.625
 3273SOL    HW110718   0.310   6.719   2.561
 3273SOL    HW210719   0.223   6.796   2.676
 3274SOL     OW10720   2.776   2.285   5.890
 3274SOL    HW110721   2.841   2.258   5.961
 3274SOL    HW210722   2.818   2.271   5.800
 3275SOL     OW10723   1.839   0.645   6.886
 3275SOL    HW110724   1.823   0.736   6.925
 3275SOL    HW210725   1.909   0.651   6.815
 3276SOL     OW10726   3.238   6.217   6.327
 3276SOL    HW110727   3.335   6.207   6.351
 3276SOL    HW210728   3.181   6.170   6.394
 3277SOL     OW10729   6.893   6.156   5.043
 3277SOL    HW110730   6.925   6.147   5.137
 3277SOL    HW210731   6.957   6.111   4.981
 3278SOL     OW10732   1.396   0.983   6.077
 3278SOL    HW110733   1.318   1.038   6.106
 3278SOL    HW210734   1.467   1.043   6.040
 3279SOL     OW10735   0.738   6.761   0.973
 3279SOL    HW110736   0.819   6.731   1.022
 3279SOL    HW210737   0.722   6.858   0.990
 3280SOL     OW10738   2.039   4.898   6.032
 3280SOL    HW110739   2.075   4.945   5.951
 3280SOL    HW210740   2.065   4.949   6.114
 3281SOL     OW10741   2.772   5.760   0.088
 3281SOL    HW110742   2.688   5.776   0.036
 3281SOL    HW210743   2.845   5.730   0.026
 3282SOL     OW10744   2.860   5.191   3.534
 3282SOL    HW110745   2.954   5.171   3.506
 3282SOL    HW210746   2.797   5.145   3.471
 3283SOL     OW10747   2.898   0.927   3.581
 3283SOL    HW110748   2.853   0.922   3.492
 3283SOL    HW210749   2.985   0.976   3.571
 3284SOL     OW10750   6.404   4.839   6.776
 3284SOL    HW110751   6.409   4.745   6.741
 3284SOL    HW210752   6.495   4.881   6.773
 3285SOL     OW10753   0.599   1.722   3.226
 3285SOL    HW110754   0.569   1.751   3.316
 3285SOL    HW210755   0.693   1.688   3.230
 3286SOL     OW10756   3.327   3.608   4.754
 3286SOL    HW110757   3.397   3.634   4.820
 3286SOL    HW210758   3.321   3.677   4.683
 3287SOL     OW10759   1.938   5.302   0.241
 3287SOL    HW110760   1.904   5.242   0.314
 3287SOL    HW210761   1.863   5.361   0.210
 3288SOL     OW10762   0.816   5.911   6.287
 3288SOL    HW110763   0.892   5.855   6.253
 3288SOL    HW210764   0.745   5.917   6.217
 3289SOL     OW10765   1.040   6.607   5.410
 3289SOL    HW110766   1.108   6.563   5.351
 3289SOL    HW210767   1.081   6.687   5.455
 3290SOL     OW10768   6.278   5.177   1.228
 3290SOL    HW110769   6.366   5.223   1.213
 3290SOL    HW210770   6.215   5.239   1.273
 3291SOL     OW10771   1.365   6.046   6.996
 3291SOL    HW110772   1.358   5.947   6.987
 3291SOL    HW210773   1.455   6.071   0.008
 3292SOL     OW10774   6.851   6.793   5.883
 3292SOL    HW110775   6.866   6.890   5.865
 3292SOL    HW210776   6.821   6.780   5.977
 3293SOL     OW10777   6.747   1.125   2.866
 3293SOL    HW110778   6.667   1.159   2.817
 3293SOL    HW210779   6.747   1.159   2.960
 3294SOL     OW10780   0.111   0.413   6.472
 3294SOL    HW110781   0.185   0.347   6.468
 3294SOL    HW210782   0.034   0.382   6.415
 3295SOL     OW10783   1.913   3.242   0.819
 3295SOL    HW110784   1.969   3.196   0.751
 3295SOL    HW210785   1.817   3.214   0.808
 3296SOL     OW10786   2.386   6.385   2.640
 3296SOL    HW110787   2.483   6.364   2.650
 3296SOL    HW210788   2.349   6.415   2.727
 3297SOL     OW10789   3.179   2.859   6.184
 3297SOL    HW110790   3.223   2.786   6.236
 3297SOL    HW210791   3.093   2.826   6.146
 3298SOL     OW10792   6.754   3.576   2.441
 3298SOL    HW110793   6.674   3.531   2.482
 3298SOL    HW210794   6.758   3.671   2.471
 3299SOL     OW10795   1.662   0.173   5.159
 3299SOL    HW110796   1.694   0.138   5.071
 3299SOL    HW210797   1.741   0.195   5.217
 3300SOL     OW10798   6.281   6.352   4.819
 3300SOL    HW110799   6.351   6.366   4.889
 3300SOL    HW210800   6.197   6.321   4.863
 3301SOL     OW10801   0.525   3.289   3.425
 3301SOL    HW110802   0.495   3.385   3.426
 3301SOL    HW210803   0.565   3.268   3.336
 3302SOL     OW10804   1.401   4.701   3.577
 3302SOL    HW110805   1.409   4.743   3.487
 3302SOL    HW210806   1.368   4.769   3.643
 3303SOL     OW10807   3.922   3.977   3.787
 3303SOL    HW110808   3.955   4.063   3.826
 3303SOL    HW210809   3.944   3.902   3.850
 3304SOL     OW10810   0.896   6.474   4.400
 3304SOL    HW110811   0.904   6.571   4.377
 3304SOL    HW210812   0.864   6.465   4.494
 3305SOL     OW10813   2.076   0.993   2.530
 3305SOL    HW110814   2.130   1.031   2.605
 3305SOL    HW210815   2.028   0.911   2.561
 3306SOL     OW10816   2.249   4.094   3.715
 3306SOL    HW110817   2.292   4.090   3.805
 3306SOL    HW210818   2.228   4.189   3.693
 3307SOL     OW10819   6.684   5.871   0.610
 3307SOL    HW110820   6.700   5.773   0.603
 3307SOL    HW210821   6.605   5.889   0.669
 3308SOL     OW10822   4.943   6.113   0.686
 3308SOL    HW110823   5.012   6.044   0.666
 3308SOL    HW210824   4.952   6.143   0.781
 3309SOL     OW10825   0.428   5.109   2.983
 3309SOL    HW110826   0.486   5.027   2.979
 3309SOL    HW210827   0.463   5.177   2.918
 3310SOL     OW10828   0.441   5.224   2.515
 3310SOL    HW110829   0.443   5.136   2.468
 3310SOL    HW210830   0.520   5.278   2.487
 3311SOL     OW10831   4.497   6.800   1.412
 3311SOL    HW110832   4.451   6.746   1.482
 3311SOL    HW210833   4.434   6.816   1.336
 3312SOL     OW10834   3.289   3.611   6.161
 3312SOL    HW110835   3.303   3.703   6.123
 3312SOL    HW210836   3.229   3.617   6.240
 3313SOL     OW10837   0.223   5.064   3.884
 3313SOL    HW110838   0.295   5.073   3.815
 3313SOL    HW210839   0.223   4.970   3.919
 3314SOL     OW10840   1.589   3.564   5.280
 3314SOL    HW110841   1.582   3.575   5.180
 3314SOL    HW210842   1.615   3.470   5.301
 3315SOL     OW10843   0.000   1.508   3.975
 3315SOL    HW110844   0.066   1.577   4.005
 3315SOL    HW210845   6.952   1.552   3.921
 3316SOL     OW10846   4.850   1.942   6.530
 3316SOL    HW110847   4.861   1.883   6.449
 3316SOL    HW210848   4.921   1.920   6.597
 3317SOL     OW10849   4.422   2.575   1.152
 3317SOL    HW110850   4.385   2.605   1.240
 3317SOL    HW210851   4.373   2.621   1.078
 3318SOL     OW10852   2.673   5.611   5.269
 3318SOL    HW110853   2.679   5.633   5.366
 3318SOL    HW210854   2.581   5.632   5.236
 3319SOL     OW10855   0.534   6.048   4.553
 3319SOL    HW110856   0.540   5.948   4.555
 3319SOL    HW210857   0.516   6.082   4.645
 3320SOL     OW10858   6.051   1.085   5.535
 3320SOL    HW110859   6.122   1.123   5.475
 3320SOL    HW210860   6.079   1.097   5.631
 3321SOL     OW10861   3.353   3.208   3.247
 3321SOL    HW110862   3.314   3.284   3.300
 3321SOL    HW210863   3.280   3.167   3.191
 3322SOL     OW10864   4.074   2.139   0.575
 3322SOL    HW110865   4.133   2.123   0.654
 3322SOL    HW210866   4.100   2.077   0.501
 3323SOL     OW10867   2.391   4.931   0.189
 3323SOL    HW110868   2.310   4.991   0.182
 3323SOL    HW210869   2.374   4.847   0.137
 3324SOL     OW10870   0.849   3.310   0.168
 3324SOL    HW110871   0.943   3.276   0.178
 3324SOL    HW210872   0.813   3.338   0.257
 3325SOL     OW10873   1.438   2.740   0.988
 3325SOL    HW110874   1.506   2.676   0.953
 3325SOL    HW210875   1.357   2.738   0.928
 3326SOL     OW10876   6.474   1.505   0.773
 3326SOL    HW110877   6.441   1.434   0.835
 3326SOL    HW210878   6.425   1.499   0.686
 3327SOL     OW10879   3.051   7.008   2.758
 3327SOL    HW110880   3.077   6.965   2.671
 3327SOL    HW210881   3.111   6.974   2.831
 3328SOL     OW10882   4.936   0.962   2.047
 3328SOL    HW110883   4.954   0.884   2.106
 3328SOL    HW210884   4.943   1.047   2.100
 3329SOL     OW10885   4.852   0.509   5.424
 3329SOL    HW110886   4.827   0.603   5.402
 3329SOL    HW210887   4.932   0.482   5.370
 3330SOL     OW10888   6.190   6.184   2.501
 3330SOL    HW110889   6.206   6.149   2.409
 3330SOL    HW210890   6.164   6.109   2.561
 3331SOL     OW10891   2.057   3.422   2.394
 3331SOL    HW110892   2.087   3.480   2.319
 3331SOL    HW210893   1.978   3.464   2.439
 3332SOL     OW10894   4.219   5.413   0.596
 3332SOL    HW110895   4.182   5.354   0.523
 3332SOL    HW210896   4.281   5.480   0.556
 3333SOL     OW10897   3.847   3.612   1.535
 3333SOL    HW110898   3.844   3.641   1.631
 3333SOL    HW210899   3.901   3.677   1.482
 3334SOL     OW10900   1.771   2.159   2.693
 3334SOL    HW110901   1.825   2.185   2.773
 3334SOL    HW210902   1.704   2.230   2.673
 3335SOL     OW10903   3.706   4.272   5.161
 3335SOL    HW110904   3.713   4.211   5.082
 3335SOL    HW210905   3.651   4.352   5.137
 3336SOL     OW10906   3.874   6.257   3.454
 3336SOL    HW110907   3.878   6.351   3.421
 3336SOL    HW210908   3.943   6.202   3.405
 3337SOL     OW10909   3.406   3.846   3.210
 3337SOL    HW110910   3.315   3.870   3.244
 3337SOL    HW210911   3.469   3.921   3.229
 3338SOL     OW10912   2.192   1.349   1.704
 3338SOL    HW110913   2.249   1.417   1.752
 3338SOL    HW210914   2.122   1.397   1.651
 3339SOL     OW10915   2.628   0.454   5.772
 3339SOL    HW110916   2.603   0.404   5.689
 3339SOL    HW210917   2.546   0.496   5.811
 3340SOL     OW10918   4.287   1.211   4.449
 3340SOL    HW110919   4.192   1.218   4.418
 3340SOL    HW210920   4.328   1.127   4.414
 3341SOL     OW10921   2.657   4.639   3.017
 3341SOL    HW110922   2.639   4.557   3.072
 3341SOL    HW210923   2.732   4.690   3.058
 3342SOL     OW10924   6.386   0.204   3.004
 3342SOL    HW110925   6.426   0.212   3.095
 3342SOL    HW210926   6.289   0.182   3.013
 3343SOL     OW10927   4.875   5.445   6.540
 3343SOL    HW110928   4.827   5.526   6.508
 3343SOL    HW210929   4.934   5.410   6.466
 3344SOL     OW10930   6.689   2.759   2.230
 3344SOL    HW110931   6.628   2.837   2.244
 3344SOL    HW210932   6.784   2.789   2.237
 3345SOL     OW10933   0.119   5.052   0.292
 3345SOL    HW110934   0.061   4.973   0.314
 3345SOL    HW210935   0.142   5.049   0.194
 3346SOL     OW10936   1.779   1.292   6.798
 3346SOL    HW110937   1.802   1.343   6.715
 3346SOL    HW210938   1.863   1.257   6.840
 3347SOL     OW10939   0.625   3.397   6.145
 3347SOL    HW110940   0.572   3.344   6.212
 3347SOL    HW210941   0.692   3.453   6.193
 3348SOL     OW10942   3.858   3.871   6.012
 3348SOL    HW110943   3.783   3.896   6.072
 3348SOL    HW210944   3.944   3.905   6.050
 3349SOL     OW10945   2.924   4.784   3.374
 3349SOL    HW110946   2.885   4.797   3.466
 3349SOL    HW210947   3.023   4.773   3.381
 3350SOL     OW10948   0.009   3.924   5.303
 3350SOL    HW110949   7.005   3.829   5.307
 3350SOL    HW210950   0.016   3.953   5.207
 3351SOL     OW10951   5.256   1.376   1.337
 3351SOL    HW110952   5.296   1.286   1.317
 3351SOL    HW210953   5.234   1.422   1.252
 3352SOL     OW10954   4.819   2.601   6.470
 3352SOL    HW110955   4.879   2.557   6.538
 3352SOL    HW210956   4.797   2.693   6.500
 3353SOL     OW10957   3.111   1.083   1.857
 3353SOL    HW110958   3.109   1.183   1.851
 3353SOL    HW210959   3.195   1.049   1.814
 3354SOL     OW10960   3.661   3.174   5.869
 3354SOL    HW110961   3.742   3.162   5.928
 3354SOL    HW210962   3.581   3.190   5.926
 3355SOL     OW10963   2.263   0.331   4.844
 3355SOL    HW110964   2.276   0.429   4.826
 3355SOL    HW210965   2.167   0.307   4.830
 3356SOL     OW10966   1.657   6.930   5.449
 3356SOL    HW110967   1.574   6.884   5.420
 3356SOL    HW210968   1.634   7.005   5.511
 3357SOL     OW10969   3.174   3.562   1.563
 3357SOL    HW110970   3.153   3.612   1.648
 3357SOL    HW210971   3.205   3.627   1.493
 3358SOL     OW10972   6.437   0.705   2.563
 3358SOL    HW110973   6.409   0.773   2.495
 3358SOL    HW210974   6.461   0.620   2.517
 3359SOL     OW10975   6.302   6.079   3.973
 3359SOL    HW110976   6.283   6.051   4.067
 3359SOL    HW210977   6.342   6.171   3.973
 3360SOL     OW10978   0.075   2.946   5.569
 3360SOL    HW110979   0.056   2.918   5.663
 3360SOL    HW210980   0.083   3.045   5.565
 3361SOL     OW10981   0.278   0.515   4.615
 3361SOL    HW110982   0.206   0.455   4.649
 3361SOL    HW210983   0.247   0.610   4.623
 3362SOL     OW10984   3.561   1.840   4.109
 3362SOL    HW110985   3.614   1.923   4.090
 3362SOL    HW210986   3.612   1.760   4.078
 3363SOL     OW10987   5.814   3.197   1.411
 3363SOL    HW110988   5.836   3.143   1.330
 3363SOL    HW210989   5.715   3.210   1.416
 3364SOL     OW10990   1.745   4.587   3.253
 3364SOL    HW110991   1.780   4.532   3.177
 3364SOL    HW210992   1.819   4.608   3.317
 3365SOL     OW10993   1.883   3.549   3.899
 3365SOL    HW110994   1.889   3.472   3.962
 3365SOL    HW210995   1.975   3.585   3.882
 3366SOL     OW10996   6.162   3.560   4.033
 3366SOL    HW110997   6.255   3.543   4.066
 3366SOL    HW210998   6.138   3.493   3.963
 3367SOL     OW10999   4.078   3.250   4.413
 3367SOL    HW111000   4.058   3.220   4.506
 3367SOL    HW211001   4.066   3.173   4.350
 3368SOL     OW11002   1.410   5.964   0.401
 3368SOL    HW111003   1.445   5.922   0.316
 3368SOL    HW211004   1.488   5.992   0.458
 3369SOL     OW11005   3.930   2.804   1.180
 3369SOL    HW111006   3.859   2.738   1.156
 3369SOL    HW211007   3.921   2.829   1.277
 3370SOL     OW11008   0.834   5.734   2.324
 3370SOL    HW111009   0.855   5.638   2.342
 3370SOL    HW211010   0.794   5.775   2.407
 3371SOL     OW11011   2.425   2.454   3.322
 3371SOL    HW111012   2.334   2.496   3.315
 3371SOL    HW211013   2.458   2.462   3.416
 3372SOL     OW11014   6.706   3.261   1.176
 3372SOL    HW111015   6.774   3.320   1.132
 3372SOL    HW211016   6.701   3.174   1.127
 3373SOL     OW11017   0.498   2.504   1.101
 3373SOL    HW111018   0.470   2.570   1.171
 3373SOL    HW211019   0.440   2.513   1.020
 3374SOL     OW11020   0.680   0.357   3.884
 3374SOL    HW111021   0.610   0.320   3.823
 3374SOL    HW211022   0.654   0.341   3.979
 3375SOL     OW11023   6.607   4.706   6.458
 3375SOL    HW111024   6.607   4.656   6.544
 3375SOL    HW211025   6.673   4.665   6.395
 3376SOL     OW11026   2.722   3.579   5.639
 3376SOL    HW111027   2.805   3.614   5.596
 3376SOL    HW211028   2.641   3.618   5.594
 3377SOL     OW11029   5.929   4.651   3.021
 3377SOL    HW111030   5.998   4.719   3.047
 3377SOL    HW211031   5.967   4.559   3.033
 3378SOL     OW11032   1.184   6.661   6.879
 3378SOL    HW111033   1.196   6.573   6.833
 3378SOL    HW211034   1.211   6.653   6.975
 3379SOL     OW11035   0.307   3.783   3.679
 3379SOL    HW111036   0.338   3.805   3.771
 3379SOL    HW211037   0.366   3.713   3.639
 3380SOL     OW11038   3.925   4.318   5.853
 3380SOL    HW111039   3.919   4.411   5.819
 3380SOL    HW211040   3.838   4.271   5.839
 3381SOL     OW11041   1.735   3.757   1.164
 3381SOL    HW111042   1.772   3.700   1.091
 3381SOL    HW211043   1.788   3.744   1.247
 3382SOL     OW11044   0.120   2.164   0.959
 3382SOL    HW111045   0.203   2.171   1.013
 3382SOL    HW211046   0.041   2.150   1.019
 3383SOL     OW11047   5.287   5.267   0.212
 3383SOL    HW111048   5.194   5.298   0.229
 3383SOL    HW211049   5.291   5.167   0.216
 3384SOL     OW11050   2.209   4.511   0.218
 3384SOL    HW111051   2.118   4.475   0.198
 3384SOL    HW211052   2.211   4.550   0.310
 3385SOL     OW11053   0.513   1.777   3.463
 3385SOL    HW111054   0.444   1.705   3.476
 3385SOL    HW211055   0.495   1.852   3.527
 3386SOL     OW11056   6.285   4.900   6.388
 3386SOL    HW111057   6.203   4.915   6.332
 3386SOL    HW211058   6.264   4.836   6.462
 3387SOL     OW11059   6.314   0.056   3.727
 3387SOL    HW111060   6.395   7.023   3.715
 3387SOL    HW211061   6.269   0.068   3.639
 3388SOL     OW11062   6.397   3.031   1.250
 3388SOL    HW111063   6.415   3.107   1.188
 3388SOL    HW211064   6.350   3.064   1.332
 3389SOL     OW11065   6.578   6.285   0.751
 3389SOL    HW111066   6.642   6.209   0.740
 3389SOL    HW211067   6.521   6.293   0.669
 3390SOL     OW11068   3.949   6.460   6.050
 3390SOL    HW111069   3.943   6.553   6.013
 3390SOL    HW211070   3.993   6.400   5.983
 3391SOL     OW11071   5.559   3.104   3.827
 3391SOL    HW111072   5.509   3.130   3.745
 3391SOL    HW211073   5.507   3.131   3.908
 3392SOL     OW11074   4.158   0.043   5.884
 3392SOL    HW111075   4.090   0.111   5.857
 3392SOL    HW211076   4.217   0.022   5.805
 3393SOL     OW11077   5.530   6.431   1.184
 3393SOL    HW111078   5.450   6.489   1.192
 3393SOL    HW211079   5.585   6.437   1.267
 3394SOL     OW11080   3.046   5.893   1.663
 3394SOL    HW111081   3.087   5.885   1.753
 3394SOL    HW211082   3.116   5.918   1.596
 3395SOL     OW11083   3.586   0.408   3.203
 3395SOL    HW111084   3.660   0.342   3.215
 3395SOL    HW211085   3.588   0.474   3.279
 3396SOL     OW11086   4.038   1.790   4.424
 3396SOL    HW111087   3.946   1.754   4.413
 3396SOL    HW211088   4.060   1.849   4.347
 3397SOL     OW11089   2.262   5.731   6.833
 3397SOL    HW111090   2.191   5.664   6.854
 3397SOL    HW211091   2.289   5.721   6.737
 3398SOL     OW11092   6.984   1.662   4.598
 3398SOL    HW111093   6.900   1.702   4.634
 3398SOL    HW211094   6.987   1.565   4.623
 3399SOL     OW11095   6.872   5.146   2.420
 3399SOL    HW111096   6.917   5.214   2.478
 3399SOL    HW211097   6.888   5.169   2.324
 3400SOL     OW11098   5.631   2.327   5.987
 3400SOL    HW111099   5.662   2.414   6.026
 3400SOL    HW211100   5.710   2.265   5.977
 3401SOL     OW11101   6.960   3.430   5.381
 3401SOL    HW111102   0.011   3.426   5.447
 3401SOL    HW211103   6.961   3.518   5.334
 3402SOL     OW11104   6.588   4.639   1.383
 3402SOL    HW111105   6.594   4.552   1.334
 3402SOL    HW211106   6.633   4.710   1.330
 3403SOL     OW11107   3.988   6.712   7.006
 3403SOL    HW111108   3.897   6.744   0.009
 3403SOL    HW211109   3.979   6.635   6.942
 3404SOL     OW11110   5.203   3.674   4.920
 3404SOL    HW111111   5.160   3.653   5.008
 3404SOL    HW211112   5.138   3.724   4.863
 3405SOL     OW11113   5.773   5.997   6.112
 3405SOL    HW111114   5.706   5.973   6.042
 3405SOL    HW211115   5.862   5.957   6.088
 3406SOL     OW11116   2.012   4.029   1.888
 3406SOL    HW111117   2.005   4.113   1.834
 3406SOL    HW211118   1.921   3.993   1.906
 3407SOL     OW11119   1.856   4.014   0.524
 3407SOL    HW111120   1.777   3.954   0.512
 3407SOL    HW211121   1.928   3.986   0.461
 3408SOL     OW11122   4.928   2.586   3.960
 3408SOL    HW111123   4.937   2.640   3.876
 3408SOL    HW211124   4.936   2.489   3.938
 3409SOL     OW11125   5.147   0.959   0.705
 3409SOL    HW111126   5.115   0.880   0.755
 3409SOL    HW211127   5.148   1.039   0.765
 3410SOL     OW11128   5.074   0.362   2.062
 3410SOL    HW111129   5.167   0.330   2.047
 3410SOL    HW211130   5.066   0.401   2.154
 3411SOL     OW11131   0.017   2.360   0.376
 3411SOL    HW111132   6.944   2.337   0.379
 3411SOL    HW211133   0.044   2.380   0.282
 3412SOL     OW11134   5.493   3.433   1.656
 3412SOL    HW111135   5.445   3.452   1.571
 3412SOL    HW211136   5.488   3.336   1.677
 3413SOL     OW11137   0.348   2.189   5.914
 3413SOL    HW111138   0.361   2.102   5.866
 3413SOL    HW211139   0.401   2.188   5.999
 3414SOL     OW11140   3.578   3.563   0.582
 3414SOL    HW111141   3.542   3.650   0.614
 3414SOL    HW211142   3.537   3.488   0.633
 3415SOL     OW11143   2.191   2.510   5.092
 3415SOL    HW111144   2.172   2.574   5.166
 3415SOL    HW211145   2.210   2.562   5.008
 3416SOL     OW11146   5.860   6.986   6.637
 3416SOL    HW111147   5.951   6.978   6.678
 3416SOL    HW211148   5.797   6.923   6.682
 3417SOL     OW11149   6.438   6.372   2.912
 3417SOL    HW111150   6.423   6.456   2.861
 3417SOL    HW211151   6.536   6.353   2.918
 3418SOL     OW11152   5.159   4.768   1.319
 3418SOL    HW111153   5.172   4.709   1.399
 3418SOL    HW211154   5.110   4.717   1.248
 3419SOL     OW11155   3.515   6.027   6.220
 3419SOL    HW111156   3.468   6.075   6.146
 3419SOL    HW211157   3.613   6.024   6.201
 3420SOL     OW11158   4.256   2.195   3.554
 3420SOL    HW111159   4.295   2.201   3.647
 3420SOL    HW211160   4.157   2.191   3.560
 3421SOL     OW11161   5.677   2.287   3.451
 3421SOL    HW111162   5.708   2.229   3.527
 3421SOL    HW211163   5.620   2.361   3.487
 3422SOL     OW11164   1.924   0.027   1.113
 3422SOL    HW111165   1.936   0.082   1.030
 3422SOL    HW211166   1.900   6.958   1.088
 3423SOL     OW11167   1.055   4.816   5.716
 3423SOL    HW111168   0.973   4.872   5.697
 3423SOL    HW211169   1.087   4.776   5.630
 3424SOL     OW11170   4.776   0.273   1.746
 3424SOL    HW111171   4.860   0.325   1.736
 3424SOL    HW211172   4.699   0.336   1.756
 3425SOL     OW11173   5.694   3.553   1.472
 3425SOL    HW111174   5.728   3.637   1.514
 3425SOL    HW211175   5.640   3.502   1.539
 3426SOL     OW11176   5.528   2.991   6.647
 3426SOL    HW111177   5.614   2.972   6.600
 3426SOL    HW211178   5.524   2.939   6.732
 3427SOL     OW11179   1.002   2.755   0.464
 3427SOL    HW111180   1.067   2.684   0.492
 3427SOL    HW211181   1.034   2.798   0.379
 3428SOL     OW11182   5.136   6.059   5.707
 3428SOL    HW111183   5.226   6.049   5.749
 3428SOL    HW211184   5.065   6.053   5.777
 3429SOL     OW11185   6.906   0.289   1.123
 3429SOL    HW111186   6.863   0.220   1.182
 3429SOL    HW211187   7.005   0.275   1.120
 3430SOL     OW11188   1.638   4.547   5.651
 3430SOL    HW111189   1.588   4.618   5.601
 3430SOL    HW211190   1.700   4.591   5.717
 3431SOL     OW11191   2.301   6.130   2.945
 3431SOL    HW111192   2.208   6.148   2.913
 3431SOL    HW211193   2.314   6.032   2.956
 3432SOL     OW11194   1.963   4.321   1.019
 3432SOL    HW111195   2.012   4.384   1.080
 3432SOL    HW211196   1.946   4.235   1.067
 3433SOL     OW11197   2.530   1.186   6.373
 3433SOL    HW111198   2.514   1.128   6.453
 3433SOL    HW211199   2.444   1.231   6.348
 3434SOL     OW11200   2.776   2.208   1.454
 3434SOL    HW111201   2.808   2.272   1.525
 3434SOL    HW211202   2.855   2.171   1.405
 3435SOL     OW11203   2.095   0.776   6.759
 3435SOL    HW111204   2.095   0.735   6.668
 3435SOL    HW211205   2.151   0.720   6.820
 3436SOL     OW11206   3.446   5.743   6.974
 3436SOL    HW111207   3.512   5.796   6.920
 3436SOL    HW211208   3.405   5.802   0.020
 3437SOL     OW11209   1.217   6.652   6.488
 3437SOL    HW111210   1.126   6.692   6.504
 3437SOL    HW211211   1.240   6.659   6.391
 3438SOL     OW11212   1.395   3.873   1.184
 3438SOL    HW111213   1.426   3.963   1.156
 3438SOL    HW211214   1.450   3.803   1.139
 3439SOL     OW11215   2.175   5.705   1.877
 3439SOL    HW111216   2.185   5.676   1.781
 3439SOL    HW211217   2.089   5.669   1.913
 3440SOL     OW11218   3.979   3.751   4.481
 3440SOL    HW111219   4.042   3.678   4.509
 3440SOL    HW211220   3.950   3.734   4.387
 3441SOL     OW11221   5.331   5.363   5.794
 3441SOL    HW111222   5.251   5.317   5.755
 3441SOL    HW211223   5.414   5.324   5.756
 3442SOL     OW11224   3.676   3.309   0.892
 3442SOL    HW111225   3.752   3.372   0.875
 3442SOL    HW211226   3.614   3.311   0.814
 3443SOL     OW11227   2.080   6.437   2.018
 3443SOL    HW111228   1.997   6.447   1.962
 3443SOL    HW211229   2.066   6.482   2.106
 3444SOL     OW11230   5.656   3.706   1.240
 3444SOL    HW111231   5.671   3.640   1.314
 3444SOL    HW211232   5.559   3.731   1.237
 3445SOL     OW11233   5.758   4.313   3.070
 3445SOL    HW111234   5.734   4.220   3.041
 3445SOL    HW211235   5.818   4.309   3.149
 3446SOL     OW11236   4.998   1.252   1.283
 3446SOL    HW111237   4.903   1.218   1.279
 3446SOL    HW211238   5.017   1.306   1.201
 3447SOL     OW11239   5.255   0.795   0.041
 3447SOL    HW111240   5.221   0.879   0.084
 3447SOL    HW211241   5.225   0.792   6.970
 3448SOL     OW11242   1.541   5.940   4.844
 3448SOL    HW111243   1.474   5.983   4.784
 3448SOL    HW211244   1.630   5.936   4.798
 3449SOL     OW11245   6.002   3.822   5.256
 3449SOL    HW111246   5.936   3.765   5.304
 3449SOL    HW211247   6.070   3.765   5.210
 3450SOL     OW11248   1.343   5.968   0.945
 3450SOL    HW111249   1.434   5.978   0.987
 3450SOL    HW211250   1.352   5.919   0.859
 3451SOL     OW11251   2.485   0.186   1.158
 3451SOL    HW111252   2.486   0.086   1.154
 3451SOL    HW211253   2.391   0.219   1.161
 3452SOL     OW11254   4.920   0.616   5.107
 3452SOL    HW111255   5.016   0.608   5.134
 3452SOL    HW211256   4.895   0.712   5.099
 3453SOL     OW11257   4.676   6.575   5.936
 3453SOL    HW111258   4.766   6.530   5.937
 3453SOL    HW211259   4.636   6.571   6.027
 3454SOL     OW11260   1.135   2.755   1.725
 3454SOL    HW111261   1.218   2.809   1.720
 3454SOL    HW211262   1.091   2.767   1.814
 3455SOL     OW11263   0.830   3.647   6.180
 3455SOL    HW111264   0.828   3.727   6.119
 3455SOL    HW211265   0.821   3.678   6.275
 3456SOL     OW11266   5.109   4.221   2.143
 3456SOL    HW111267   5.200   4.182   2.130
 3456SOL    HW211268   5.040   4.150   2.132
 3457SOL     OW11269   3.758   5.544   5.262
 3457SOL    HW111270   3.809   5.630   5.259
 3457SOL    HW211271   3.788   5.485   5.187
 3458SOL     OW11272   4.416   1.757   2.842
 3458SOL    HW111273   4.351   1.703   2.788
 3458SOL    HW211274   4.509   1.724   2.825
 3459SOL     OW11275   4.262   0.020   3.546
 3459SOL    HW111276   4.216   6.961   3.578
 3459SOL    HW211277   4.321   7.021   3.469
 3460SOL     OW11278   4.225   1.467   5.341
 3460SOL    HW111279   4.214   1.530   5.418
 3460SOL    HW211280   4.271   1.383   5.373
 3461SOL     OW11281   5.863   5.021   6.100
 3461SOL    HW111282   5.774   5.053   6.131
 3461SOL    HW211283   5.851   4.949   6.032
 3462SOL     OW11284   1.907   4.104   6.910
 3462SOL    HW111285   1.830   4.123   6.971
 3462SOL    HW211286   1.986   4.077   6.965
 3463SOL     OW11287   6.213   4.299   1.356
 3463SOL    HW111288   6.140   4.294   1.288
 3463SOL    HW211289   6.197   4.230   1.427
 3464SOL     OW11290   0.035   4.538   6.272
 3464SOL    HW111291   0.124   4.547   6.317
 3464SOL    HW211292   0.034   4.455   6.216
 3465SOL     OW11293   2.005   0.524   1.340
 3465SOL    HW111294   1.964   0.586   1.274
 3465SOL    HW211295   1.990   0.429   1.311
 3466SOL     OW11296   6.537   3.865   5.137
 3466SOL    HW111297   6.629   3.893   5.112
 3466SOL    HW211298   6.473   3.889   5.064
 3467SOL     OW11299   1.790   1.972   6.585
 3467SOL    HW111300   1.793   1.898   6.653
 3467SOL    HW211301   1.717   1.954   6.519
 3468SOL     OW11302   3.210   0.227   4.181
 3468SOL    HW111303   3.258   0.231   4.268
 3468SOL    HW211304   3.215   0.316   4.136
 3469SOL     OW11305   6.030   2.345   3.256
 3469SOL    HW111306   6.038   2.308   3.163
 3469SOL    HW211307   6.003   2.441   3.252
 3470SOL     OW11308   6.834   5.628   0.854
 3470SOL    HW111309   6.813   5.569   0.933
 3470SOL    HW211310   6.866   5.571   0.778
 3471SOL     OW11311   3.950   6.565   4.878
 3471SOL    HW111312   4.001   6.499   4.823
 3471SOL    HW211313   3.987   6.566   4.971
 3472SOL     OW11314   2.986   1.325   5.375
 3472SOL    HW111315   3.020   1.235   5.402
 3472SOL    HW211316   3.039   1.359   5.297
 3473SOL     OW11317   5.119   0.780   6.098
 3473SOL    HW111318   5.162   0.702   6.053
 3473SOL    HW211319   5.072   0.836   6.030
 3474SOL     OW11320   4.745   5.318   1.048
 3474SOL    HW111321   4.685   5.395   1.068
 3474SOL    HW211322   4.818   5.314   1.116
 3475SOL     OW11323   1.572   5.987   4.548
 3475SOL    HW111324   1.666   5.962   4.571
 3475SOL    HW211325   1.518   5.904   4.532
 3476SOL     OW11326   4.606   1.211   4.361
 3476SOL    HW111327   4.663   1.273   4.308
 3476SOL    HW211328   4.600   1.244   4.456
 3477SOL     OW11329   3.735   6.010   1.135
 3477SOL    HW111330   3.726   6.067   1.216
 3477SOL    HW211331   3.723   6.065   1.053
 3478SOL     OW11332   3.752   5.170   0.418
 3478SOL    HW111333   3.804   5.150   0.502
 3478SOL    HW211334   3.664   5.211   0.443
 3479SOL     OW11335   0.763   0.266   1.760
 3479SOL    HW111336   0.786   0.354   1.717
 3479SOL    HW211337   0.664   0.254   1.761
 3480SOL     OW11338   0.627   1.338   3.284
 3480SOL    HW111339   0.549   1.398   3.266
 3480SOL    HW211340   0.689   1.340   3.205
 3481SOL     OW11341   2.438   6.658   0.028
 3481SOL    HW111342   2.531   6.642   7.019
 3481SOL    HW211343   2.442   6.707   0.115
 3482SOL     OW11344   0.617   2.336   0.067
 3482SOL    HW111345   0.578   2.311   0.155
 3482SOL    HW211346   0.645   2.253   0.019
 3483SOL     OW11347   2.863   6.990   1.127
 3483SOL    HW111348   2.949   7.009   1.079
 3483SOL    HW211349   2.823   0.052   1.158
 3484SOL     OW11350   3.983   3.777   3.368
 3484SOL    HW111351   4.008   3.800   3.274
 3484SOL    HW211352   4.028   3.692   3.394
 3485SOL     OW11353   1.174   2.474   4.949
 3485SOL    HW111354   1.249   2.537   4.930
 3485SOL    HW211355   1.205   2.405   5.014
 3486SOL     OW11356   4.343   2.146   1.947
 3486SOL    HW111357   4.283   2.119   2.022
 3486SOL    HW211358   4.292   2.199   1.880
 3487SOL     OW11359   6.393   1.193   6.668
 3487SOL    HW111360   6.327   1.196   6.743
 3487SOL    HW211361   6.416   1.098   6.649
 3488SOL     OW11362   5.224   3.270   3.811
 3488SOL    HW111363   5.278   3.242   3.731
 3488SOL    HW211364   5.262   3.354   3.849
 3489SOL     OW11365   3.608   0.943   1.583
 3489SOL    HW111366   3.638   1.013   1.517
 3489SOL    HW211367   3.538   0.886   1.540
 3490SOL     OW11368   4.254   4.115   0.112
 3490SOL    HW111369   4.235   4.165   0.197
 3490SOL    HW211370   4.316   4.040   0.130
 3491SOL     OW11371   0.266   2.825   4.751
 3491SOL    HW111372   0.345   2.855   4.804
 3491SOL    HW211373   0.200   2.900   4.742
 3492SOL     OW11374   6.671   4.366   6.831
 3492SOL    HW111375   6.661   4.283   6.775
 3492SOL    HW211376   6.638   4.347   6.924
 3493SOL     OW11377   6.669   4.624   0.870
 3493SOL    HW111378   6.674   4.722   0.888
 3493SOL    HW211379   6.599   4.606   0.801
 3494SOL     OW11380   3.389   0.234   1.004
 3494SOL    HW111381   3.311   0.267   0.953
 3494SOL    HW211382   3.387   0.134   1.007
 3495SOL     OW11383   4.859   4.796   1.122
 3495SOL    HW111384   4.787   4.819   1.056
 3495SOL    HW211385   4.938   4.758   1.074
 3496SOL     OW11386   2.221   2.877   0.859
 3496SOL    HW111387   2.292   2.868   0.928
 3496SOL    HW211388   2.259   2.858   0.769
 3497SOL     OW11389   4.281   0.502   3.607
 3497SOL    HW111390   4.303   0.534   3.514
 3497SOL    HW211391   4.366   0.482   3.656
 3498SOL     OW11392   2.444   1.572   1.962
 3498SOL    HW111393   2.461   1.502   1.893
 3498SOL    HW211394   2.531   1.614   1.989
 3499SOL     OW11395   6.495   2.805   4.282
 3499SOL    HW111396   6.504   2.903   4.269
 3499SOL    HW211397   6.577   2.769   4.326
 3500SOL     OW11398   5.992   3.801   6.745
 3500SOL    HW111399   6.050   3.879   6.772
 3500SOL    HW211400   6.044   3.741   6.684
 3501SOL     OW11401   2.012   4.489   4.158
 3501SOL    HW111402   2.036   4.472   4.253
 3501SOL    HW211403   2.049   4.578   4.130
 3502SOL     OW11404   0.994   3.002   1.507
 3502SOL    HW111405   1.091   3.021   1.491
 3502SOL    HW211406   0.942   3.087   1.499
 3503SOL     OW11407   4.951   6.216   4.639
 3503SOL    HW111408   5.002   6.132   4.655
 3503SOL    HW211409   4.994   6.269   4.566
 3504SOL     OW11410   2.374   3.297   1.628
 3504SOL    HW111411   2.368   3.349   1.714
 3504SOL    HW211412   2.470   3.291   1.599
 3505SOL     OW11413   5.103   5.443   5.483
 3505SOL    HW111414   5.020   5.399   5.448
 3505SOL    HW211415   5.182   5.386   5.461
 3506SOL     OW11416   4.613   5.531   3.360
 3506SOL    HW111417   4.685   5.584   3.406
 3506SOL    HW211418   4.549   5.593   3.316
 3507SOL     OW11419   0.728   7.009   6.787
 3507SOL    HW111420   0.629   7.004   6.800
 3507SOL    HW211421   0.754   0.079   6.765
 3508SOL     OW11422   5.515   3.925   6.854
 3508SOL    HW111423   5.552   3.873   6.931
 3508SOL    HW211424   5.484   3.861   6.783
 3509SOL     OW11425   6.657   6.673   0.333
 3509SOL    HW111426   6.578   6.722   0.370
 3509SOL    HW211427   6.651   6.576   0.358
 3510SOL     OW11428   2.311   2.540   2.249
 3510SOL    HW111429   2.371   2.583   2.315
 3510SOL    HW211430   2.339   2.445   2.235
 3511SOL     OW11431   0.697   1.793   6.723
 3511SOL    HW111432   0.689   1.750   6.633
 3511SOL    HW211433   0.792   1.820   6.738
 3512SOL     OW11434   2.482   3.103   0.947
 3512SOL    HW111435   2.548   3.059   0.886
 3512SOL    HW211436   2.528   3.172   1.003
 3513SOL     OW11437   6.726   4.731   1.141
 3513SOL    HW111438   6.735   4.831   1.145
 3513SOL    HW211439   6.816   4.690   1.125
 3514SOL     OW11440   0.706   5.876   1.545
 3514SOL    HW111441   0.676   5.868   1.640
 3514SOL    HW211442   0.712   5.785   1.504
 3515SOL     OW11443   3.236   6.288   3.477
 3515SOL    HW111444   3.240   6.210   3.415
 3515SOL    HW211445   3.311   6.351   3.456
 3516SOL     OW11446   3.254   1.363   1.002
 3516SOL    HW111447   3.275   1.332   0.909
 3516SOL    HW211448   3.155   1.366   1.015
 3517SOL     OW11449   1.399   1.450   6.306
 3517SOL    HW111450   1.455   1.405   6.376
 3517SOL    HW211451   1.457   1.502   6.245
 3518SOL     OW11452   4.117   3.080   5.834
 3518SOL    HW111453   4.184   3.051   5.765
 3518SOL    HW211454   4.033   3.108   5.789
 3519SOL     OW11455   2.165   6.470   6.848
 3519SOL    HW111456   2.097   6.530   6.807
 3519SOL    HW211457   2.185   6.501   6.941
 3520SOL     OW11458   3.551   5.720   0.997
 3520SOL    HW111459   3.651   5.721   1.006
 3520SOL    HW211460   3.523   5.786   0.928
 3521SOL     OW11461   6.327   2.358   0.800
 3521SOL    HW111462   6.425   2.361   0.820
 3521SOL    HW211463   6.302   2.434   0.741
 3522SOL     OW11464   3.454   4.905   2.197
 3522SOL    HW111465   3.357   4.903   2.171
 3522SOL    HW211466   3.510   4.910   2.114
 3523SOL     OW11467   2.509   4.551   4.719
 3523SOL    HW111468   2.481   4.633   4.769
 3523SOL    HW211469   2.522   4.475   4.783
 3524SOL     OW11470   2.524   0.339   0.925
 3524SOL    HW111471   2.592   0.299   0.864
 3524SOL    HW211472   2.536   0.303   1.018
 3525SOL     OW11473   0.649   2.914   2.645
 3525SOL    HW111474   0.694   2.826   2.632
 3525SOL    HW211475   0.572   2.922   2.582
 3526SOL     OW11476   1.916   0.762   2.415
 3526SOL    HW111477   1.887   0.667   2.404
 3526SOL    HW211478   2.008   0.773   2.376
 3527SOL     OW11479   5.454   3.351   5.698
 3527SOL    HW111480   5.368   3.394   5.726
 3527SOL    HW211481   5.508   3.328   5.779
 3528SOL     OW11482   0.272   6.616   4.502
 3528SOL    HW111483   0.194   6.678   4.505
 3528SOL    HW211484   0.290   6.589   4.408
 3529SOL     OW11485   4.052   6.295   5.865
 3529SOL    HW111486   4.037   6.231   5.790
 3529SOL    HW211487   4.140   6.340   5.854
 3530SOL     OW11488   2.307   5.222   2.966
 3530SOL    HW111489   2.379   5.277   2.923
 3530SOL    HW211490   2.319   5.126   2.942
 3531SOL     OW11491   5.714   4.174   0.063
 3531SOL    HW111492   5.624   4.164   0.104
 3531SOL    HW211493   5.746   4.084   0.031
 3532SOL     OW11494   1.686   6.909   6.922
 3532SOL    HW111495   1.711   7.002   6.896
 3532SOL    HW211496   1.588   6.905   6.941
 3533SOL     OW11497   1.131   1.239   3.014
 3533SOL    HW111498   1.077   1.300   2.958
 3533SOL    HW211499   1.157   1.285   3.099
 3534SOL     OW11500   4.860   1.012   4.875
 3534SOL    HW111501   4.816   1.101   4.884
 3534SOL    HW211502   4.885   0.997   4.779
 3535SOL     OW11503   5.303   4.893   6.297
 3535SOL    HW111504   5.390   4.847   6.315
 3535SOL    HW211505   5.297   4.916   6.200
 3536SOL     OW11506   1.503   4.033   3.141
 3536SOL    HW111507   1.534   4.076   3.056
 3536SOL    HW211508   1.533   3.938   3.142
 3537SOL     OW11509   2.592   5.241   0.928
 3537SOL    HW111510   2.675   5.195   0.898
 3537SOL    HW211511   2.554   5.296   0.853
 3538SOL     OW11512   2.334   0.624   3.919
 3538SOL    HW111513   2.337   0.644   4.017
 3538SOL    HW211514   2.381   0.537   3.901
 3539SOL     OW11515   4.568   5.188   6.027
 3539SOL    HW111516   4.647   5.164   6.084
 3539SOL    HW211517   4.562   5.123   5.951
 3540SOL     OW11518   2.865   3.230   7.009
 3540SOL    HW111519   2.832   3.324   7.016
 3540SOL    HW211520   2.911   3.205   0.071
 3541SOL     OW11521   3.518   2.669   0.849
 3541SOL    HW111522   3.484   2.686   0.941
 3541SOL    HW211523   3.450   2.616   0.797
 3542SOL     OW11524   5.295   2.560   6.086
 3542SOL    HW111525   5.299   2.648   6.038
 3542SOL    HW211526   5.301   2.486   6.020
 3543SOL     OW11527   1.180   2.654   3.591
 3543SOL    HW111528   1.107   2.661   3.659
 3543SOL    HW211529   1.145   2.682   3.502
 3544SOL     OW11530   2.665   4.633   6.179
 3544SOL    HW111531   2.705   4.724   6.170
 3544SOL    HW211532   2.577   4.641   6.226
 3545SOL     OW11533   3.712   6.886   1.474
 3545SOL    HW111534   3.790   6.881   1.536
 3545SOL    HW211535   3.692   6.795   1.438
 3546SOL     OW11536   0.031   3.290   3.137
 3546SOL    HW111537   6.956   3.278   3.129
 3546SOL    HW211538   0.052   3.386   3.150
 3547SOL     OW11539   0.240   3.664   5.660
 3547SOL    HW111540   0.187   3.684   5.742
 3547SOL    HW211541   0.328   3.712   5.664
 3548SOL     OW11542   5.903   0.284   5.169
 3548SOL    HW111543   5.912   0.272   5.071
 3548SOL    HW211544   5.972   0.349   5.202
 3549SOL     OW11545   2.572   6.076   6.388
 3549SOL    HW111546   2.501   6.010   6.414
 3549SOL    HW211547   2.529   6.164   6.367
 3550SOL     OW11548   5.333   1.224   5.371
 3550SOL    HW111549   5.400   1.298   5.379
 3550SOL    HW211550   5.261   1.250   5.307
 3551SOL     OW11551   3.950   2.020   4.582
 3551SOL    HW111552   3.914   2.026   4.675
 3551SOL    HW211553   3.890   1.962   4.526
 3552SOL     OW11554   0.221   6.167   2.821
 3552SOL    HW111555   0.242   6.098   2.891
 3552SOL    HW211556   0.178   6.124   2.742
 3553SOL     OW11557   4.303   5.522   6.928
 3553SOL    HW111558   4.383   5.467   6.951
 3553SOL    HW211559   4.253   5.479   6.853
 3554SOL     OW11560   4.927   3.363   1.683
 3554SOL    HW111561   4.932   3.263   1.684
 3554SOL    HW211562   4.990   3.400   1.751
 3555SOL     OW11563   2.490   1.828   4.936
 3555SOL    HW111564   2.452   1.919   4.951
 3555SOL    HW211565   2.560   1.809   5.005
 3556SOL     OW11566   4.902   0.547   5.741
 3556SOL    HW111567   4.977   0.535   5.806
 3556SOL    HW211568   4.939   0.554   5.649
 3557SOL     OW11569   6.532   1.146   1.349
 3557SOL    HW111570   6.471   1.155   1.271
 3557SOL    HW211571   6.623   1.181   1.325
 3558SOL     OW11572   3.299   6.491   1.553
 3558SOL    HW111573   3.272   6.405   1.597
 3558SOL    HW211574   3.281   6.566   1.617
 3559SOL     OW11575   4.019   6.151   4.697
 3559SOL    HW111576   3.932   6.192   4.726
 3559SOL    HW211577   4.001   6.072   4.639
 3560SOL     OW11578   2.295   5.962   4.360
 3560SOL    HW111579   2.207   5.958   4.312
 3560SOL    HW211580   2.344   5.876   4.345
 3561SOL     OW11581   4.860   4.057   5.217
 3561SOL    HW111582   4.878   4.115   5.137
 3561SOL    HW211583   4.765   4.028   5.216
 3562SOL     OW11584   2.135   1.504   5.596
 3562SOL    HW111585   2.202   1.546   5.658
 3562SOL    HW211586   2.177   1.425   5.551
 3563SOL     OW11587   5.797   2.176   5.123
 3563SOL    HW111588   5.841   2.166   5.034
 3563SOL    HW211589   5.859   2.223   5.185
 3564SOL     OW11590   6.621   4.241   1.856
 3564SOL    HW111591   6.642   4.339   1.851
 3564SOL    HW211592   6.643   4.207   1.947
 3565SOL     OW11593   3.911   5.563   3.140
 3565SOL    HW111594   3.985   5.630   3.143
 3565SOL    HW211595   3.948   5.472   3.119
 3566SOL     OW11596   0.739   0.986   5.517
 3566SOL    HW111597   0.824   0.934   5.519
 3566SOL    HW211598   0.729   1.037   5.602
 3567SOL     OW11599   0.682   4.138   6.459
 3567SOL    HW111600   0.630   4.191   6.391
 3567SOL    HW211601   0.652   4.043   6.455
 3568SOL     OW11602   6.232   3.781   5.898
 3568SOL    HW111603   6.157   3.815   5.955
 3568SOL    HW211604   6.198   3.709   5.838
 3569SOL     OW11605   1.816   2.343   5.274
 3569SOL    HW111606   1.776   2.425   5.234
 3569SOL    HW211607   1.839   2.278   5.202
 3570SOL     OW11608   6.261   1.464   4.184
 3570SOL    HW111609   6.325   1.541   4.193
 3570SOL    HW211610   6.168   1.499   4.171
 3571SOL     OW11611   6.008   5.863   6.416
 3571SOL    HW111612   6.006   5.855   6.515
 3571SOL    HW211613   6.094   5.827   6.380
 3572SOL     OW11614   5.562   4.239   4.673
 3572SOL    HW111615   5.621   4.171   4.715
 3572SOL    HW211616   5.581   4.244   4.575
 3573SOL     OW11617   1.152   3.185   3.332
 3573SOL    HW111618   1.069   3.233   3.362
 3573SOL    HW211619   1.232   3.228   3.373
 3574SOL     OW11620   0.297   3.946   0.521
 3574SOL    HW111621   0.207   3.927   0.482
 3574SOL    HW211622   0.367   3.937   0.450
 3575SOL     OW11623   5.998   4.871   2.374
 3575SOL    HW111624   5.918   4.824   2.411
 3575SOL    HW211625   5.968   4.933   2.301
 3576SOL     OW11626   0.738   1.265   6.041
 3576SOL    HW111627   0.799   1.192   6.070
 3576SOL    HW211628   0.653   1.260   6.094
 3577SOL     OW11629   0.274   2.705   6.779
 3577SOL    HW111630   0.334   2.660   6.713
 3577SOL    HW211631   0.329   2.746   6.852
 3578SOL     OW11632   2.997   4.844   0.509
 3578SOL    HW111633   2.951   4.922   0.466
 3578SOL    HW211634   3.026   4.869   0.601
 3579SOL     OW11635   6.637   3.775   4.862
 3579SOL    HW111636   6.603   3.855   4.813
 3579SOL    HW211637   6.577   3.697   4.845
 3580SOL     OW11638   6.554   1.597   2.179
 3580SOL    HW111639   6.604   1.633   2.258
 3580SOL    HW211640   6.604   1.520   2.140
 3581SOL     OW11641   0.485   0.412   2.148
 3581SOL    HW111642   0.419   0.346   2.184
 3581SOL    HW211643   0.498   0.485   2.214
 3582SOL     OW11644   1.250   0.483   6.099
 3582SOL    HW111645   1.272   0.417   6.171
 3582SOL    HW211646   1.150   0.493   6.093
 3583SOL     OW11647   1.026   5.445   6.875
 3583SOL    HW111648   0.972   5.401   6.803
 3583SOL    HW211649   1.117   5.402   6.879
 3584SOL     OW11650   5.088   6.606   6.621
 3584SOL    HW111651   5.088   6.556   6.707
 3584SOL    HW211652   5.179   6.603   6.580
 3585SOL     OW11653   3.497   4.941   4.401
 3585SOL    HW111654   3.403   4.939   4.436
 3585SOL    HW211655   3.495   4.948   4.301
 3586SOL     OW11656   6.492   3.612   5.983
 3586SOL    HW111657   6.486   3.703   5.940
 3586SOL    HW211658   6.504   3.543   5.912
 3587SOL     OW11659   3.767   6.609   0.469
 3587SOL    HW111660   3.810   6.578   0.554
 3587SOL    HW211661   3.827   6.676   0.425
 3588SOL     OW11662   1.233   2.459   6.083
 3588SOL    HW111663   1.318   2.510   6.070
 3588SOL    HW211664   1.252   2.361   6.081
 3589SOL     OW11665   3.054   0.645   5.377
 3589SOL    HW111666   3.055   0.700   5.461
 3589SOL    HW211667   3.032   0.705   5.299
 3590SOL     OW11668   1.633   5.425   6.059
 3590SOL    HW111669   1.719   5.398   6.017
 3590SOL    HW211670   1.573   5.346   6.068
 3591SOL     OW11671   5.270   2.295   5.933
 3591SOL    HW111672   5.184   2.280   5.884
 3591SOL    HW211673   5.347   2.267   5.875
 3592SOL     OW11674   5.538   2.812   3.073
 3592SOL    HW111675   5.573   2.722   3.099
 3592SOL    HW211676   5.504   2.808   2.979
 3593SOL     OW11677   1.627   6.713   3.913
 3593SOL    HW111678   1.593   6.632   3.866
 3593SOL    HW211679   1.561   6.787   3.904
 3594SOL     OW11680   2.701   1.267   3.752
 3594SOL    HW111681   2.709   1.364   3.777
 3594SOL    HW211682   2.791   1.223   3.760
 3595SOL     OW11683   2.618   6.400   6.221
 3595SOL    HW111684   2.547   6.388   6.290
 3595SOL    HW211685   2.615   6.494   6.186
 3596SOL     OW11686   6.524   0.936   2.043
 3596SOL    HW111687   6.518   0.882   1.959
 3596SOL    HW211688   6.434   0.938   2.087
 3597SOL     OW11689   3.887   5.928   4.476
 3597SOL    HW111690   3.891   6.012   4.423
 3597SOL    HW211691   3.799   5.883   4.460
 3598SOL     OW11692   1.296   6.912   5.767
 3598SOL    HW111693   1.323   6.946   5.857
 3598SOL    HW211694   1.371   6.861   5.726
 3599SOL     OW11695   6.907   1.976   5.416
 3599SOL    HW111696   6.962   1.912   5.362
 3599SOL    HW211697   6.929   1.966   5.513
 3600SOL     OW11698   5.976   2.618   1.063
 3600SOL    HW111699   5.906   2.605   0.992
 3600SOL    HW211700   5.958   2.555   1.139
 3601SOL     OW11701   0.292   3.674   0.268
 3601SOL    HW111702   0.368   3.621   0.304
 3601SOL    HW211703   0.327   3.748   0.211
 3602SOL     OW11704   2.188   1.041   6.771
 3602SOL    HW111705   2.180   0.942   6.759
 3602SOL    HW211706   2.168   1.086   6.684
 3603SOL     OW11707   4.060   4.808   4.010
 3603SOL    HW111708   3.993   4.820   4.084
 3603SOL    HW211709   4.140   4.758   4.045
 3604SOL     OW11710   0.223   2.111   2.913
 3604SOL    HW111711   0.164   2.169   2.969
 3604SOL    HW211712   0.217   2.017   2.945
 3605SOL     OW11713   5.665   3.563   6.423
 3605SOL    HW111714   5.687   3.642   6.480
 3605SOL    HW211715   5.624   3.595   6.336
 3606SOL     OW11716   6.728   4.588   5.365
 3606SOL    HW111717   6.805   4.557   5.309
 3606SOL    HW211718   6.744   4.563   5.460
 3607SOL     OW11719   5.234   0.200   0.849
 3607SOL    HW111720   5.316   0.148   0.826
 3607SOL    HW211721   5.192   0.235   0.765
 3608SOL     OW11722   0.738   2.145   1.705
 3608SOL    HW111723   0.794   2.226   1.724
 3608SOL    HW211724   0.643   2.163   1.733
 3609SOL     OW11725   6.695   0.965   5.091
 3609SOL    HW111726   6.634   0.887   5.076
 3609SOL    HW211727   6.697   1.022   5.009
 3610SOL     OW11728   1.157   6.389   5.559
 3610SOL    HW111729   1.128   6.308   5.508
 3610SOL    HW211730   1.099   6.466   5.533
 3611SOL     OW11731   3.416   5.291   5.059
 3611SOL    HW111732   3.456   5.344   5.134
 3611SOL    HW211733   3.452   5.324   4.972
 3612SOL     OW11734   0.984   6.229   0.540
 3612SOL    HW111735   1.003   6.204   0.445
 3612SOL    HW211736   1.071   6.244   0.588
 3613SOL     OW11737   5.374   5.020   0.485
 3613SOL    HW111738   5.326   4.933   0.486
 3613SOL    HW211739   5.359   5.068   0.572
 3614SOL     OW11740   3.837   3.447   3.101
 3614SOL    HW111741   3.776   3.374   3.071
 3614SOL    HW211742   3.795   3.536   3.080
 3615SOL     OW11743   5.813   5.775   5.495
 3615SOL    HW111744   5.759   5.760   5.578
 3615SOL    HW211745   5.876   5.851   5.508
 3616SOL     OW11746   6.886   2.375   5.800
 3616SOL    HW111747   6.869   2.455   5.859
 3616SOL    HW211748   6.982   2.350   5.805
 3617SOL     OW11749   6.570   2.207   6.245
 3617SOL    HW111750   6.557   2.131   6.308
 3617SOL    HW211751   6.530   2.184   6.156
 3618SOL     OW11752   2.001   1.929   5.695
 3618SOL    HW111753   2.042   1.908   5.606
 3618SOL    HW211754   2.071   1.968   5.755
 3619SOL     OW11755   5.760   2.009   4.059
 3619SOL    HW111756   5.838   2.067   4.035
 3619SOL    HW211757   5.733   1.955   3.980
 3620SOL     OW11758   5.816   0.446   5.512
 3620SOL    HW111759   5.878   0.372   5.538
 3620SOL    HW211760   5.829   0.525   5.573
 3621SOL     OW11761   2.804   2.850   5.629
 3621SOL    HW111762   2.783   2.923   5.563
 3621SOL    HW211763   2.720   2.823   5.676
 3622SOL     OW11764   0.685   1.402   2.649
 3622SOL    HW111765   0.604   1.366   2.693
 3622SOL    HW211766   0.684   1.380   2.552
 3623SOL     OW11767   5.450   5.141   3.866
 3623SOL    HW111768   5.382   5.144   3.939
 3623SOL    HW211769   5.505   5.059   3.874
 3624SOL     OW11770   2.345   6.976   3.385
 3624SOL    HW111771   2.261   7.015   3.422
 3624SOL    HW211772   2.360   7.010   3.292
 3625SOL     OW11773   6.150   3.396   5.803
 3625SOL    HW111774   6.051   3.386   5.819
 3625SOL    HW211775   6.170   3.488   5.770
 3626SOL     OW11776   1.922   3.633   5.015
 3626SOL    HW111777   1.999   3.692   4.993
 3626SOL    HW211778   1.932   3.599   5.109
 3627SOL     OW11779   3.653   4.134   3.546
 3627SOL    HW111780   3.731   4.073   3.531
 3627SOL    HW211781   3.670   4.191   3.626
 3628SOL     OW11782   2.246   5.843   2.094
 3628SOL    HW111783   2.207   5.769   2.039
 3628SOL    HW211784   2.237   5.819   2.191
 3629SOL     OW11785   6.128   1.933   5.452
 3629SOL    HW111786   6.031   1.911   5.441
 3629SOL    HW211787   6.168   1.947   5.362
 3630SOL     OW11788   5.924   2.162   4.863
 3630SOL    HW111789   5.920   2.109   4.778
 3630SOL    HW211790   5.994   2.122   4.923
 3631SOL     OW11791   2.573   0.109   4.508
 3631SOL    HW111792   2.511   0.060   4.447
 3631SOL    HW211793   2.585   0.056   4.592
 3632SOL     OW11794   5.133   1.019   1.363
 3632SOL    HW111795   5.064   1.091   1.353
 3632SOL    HW211796   5.217   1.046   1.315
 3633SOL     OW11797   2.937   2.703   6.077
 3633SOL    HW111798   2.967   2.665   5.989
 3633SOL    HW211799   2.842   2.733   6.069
 3634SOL     OW11800   1.762   6.654   4.728
 3634SOL    HW111801   1.669   6.669   4.696
 3634SOL    HW211802   1.781   6.716   4.805
 3635SOL     OW11803   2.565   1.671   5.245
 3635SOL    HW111804   2.658   1.685   5.210
 3635SOL    HW211805   2.536   1.752   5.297
 3636SOL     OW11806   0.010   5.754   6.121
 3636SOL    HW111807   6.960   5.746   6.054
 3636SOL    HW211808   7.009   5.822   6.191
 3637SOL     OW11809   5.962   2.022   1.626
 3637SOL    HW111810   5.964   1.951   1.556
 3637SOL    HW211811   5.891   2.089   1.603
 3638SOL     OW11812   6.389   4.251   4.249
 3638SOL    HW111813   6.455   4.324   4.235
 3638SOL    HW211814   6.319   4.281   4.314
 3639SOL     OW11815   3.158   4.445   1.140
 3639SOL    HW111816   3.198   4.440   1.232
 3639SOL    HW211817   3.113   4.358   1.119
 3640SOL     OW11818   3.282   6.028   0.458
 3640SOL    HW111819   3.184   6.035   0.471
 3640SOL    HW211820   3.316   5.945   0.504
 3641SOL     OW11821   3.473   1.475   4.554
 3641SOL    HW111822   3.555   1.425   4.581
 3641SOL    HW211823   3.417   1.418   4.494
 3642SOL     OW11824   4.671   0.825   5.610
 3642SOL    HW111825   4.627   0.737   5.595
 3642SOL    HW211826   4.765   0.822   5.574
 3643SOL     OW11827   2.857   5.569   4.921
 3643SOL    HW111828   2.930   5.520   4.969
 3643SOL    HW211829   2.871   5.562   4.822
 3644SOL     OW11830   6.556   2.461   1.165
 3644SOL    HW111831   6.471   2.493   1.207
 3644SOL    HW211832   6.615   2.423   1.236
 3645SOL     OW11833   5.100   1.681   3.654
 3645SOL    HW111834   5.126   1.598   3.704
 3645SOL    HW211835   5.009   1.710   3.683
 3646SOL     OW11836   0.317   5.079   5.563
 3646SOL    HW111837   0.325   5.031   5.476
 3646SOL    HW211838   0.243   5.146   5.557
 3647SOL     OW11839   0.748   2.977   0.319
 3647SOL    HW111840   0.687   2.908   0.280
 3647SOL    HW211841   0.823   2.995   0.256
 3648SOL     OW11842   4.336   5.356   2.217
 3648SOL    HW111843   4.424   5.348   2.265
 3648SOL    HW211844   4.265   5.311   2.271
 3649SOL     OW11845   4.604   3.789   0.796
 3649SOL    HW111846   4.618   3.790   0.895
 3649SOL    HW211847   4.514   3.750   0.775
 3650SOL     OW11848   6.745   6.590   1.309
 3650SOL    HW111849   6.722   6.501   1.271
 3650SOL    HW211850   6.756   6.656   1.235
 3651SOL     OW11851   1.020   6.119   2.442
 3651SOL    HW111852   1.039   6.025   2.468
 3651SOL    HW211853   1.045   6.133   2.346
 3652SOL     OW11854   4.616   6.522   3.569
 3652SOL    HW111855   4.619   6.494   3.473
 3652SOL    HW211856   4.638   6.619   3.576
 3653SOL     OW11857   6.011   1.071   3.141
 3653SOL    HW111858   5.934   1.084   3.079
 3653SOL    HW211859   6.009   1.140   3.213
 3654SOL     OW11860   2.753   6.640   0.607
 3654SOL    HW111861   2.798   6.609   0.690
 3654SOL    HW211862   2.663   6.677   0.629
 3655SOL     OW11863   1.367   0.148   4.384
 3655SOL    HW111864   1.443   0.161   4.320
 3655SOL    HW211865   1.379   0.208   4.463
 3656SOL     OW11866   1.918   2.251   2.270
 3656SOL    HW111867   1.849   2.321   2.252
 3656SOL    HW211868   1.904   2.212   2.360
 3657SOL     OW11869   3.978   5.832   6.740
 3657SOL    HW111870   3.977   5.900   6.814
 3657SOL    HW211871   4.069   5.792   6.733
 3658SOL     OW11872   0.982   5.589   5.060
 3658SOL    HW111873   0.890   5.552   5.044
 3658SOL    HW211874   1.008   5.574   5.155
 3659SOL     OW11875   3.103   4.700   0.141
 3659SOL    HW111876   3.128   4.610   0.107
 3659SOL    HW211877   3.124   4.769   0.071
 3660SOL     OW11878   4.609   6.200   1.911
 3660SOL    HW111879   4.600   6.298   1.931
 3660SOL    HW211880   4.677   6.160   1.973
 3661SOL     OW11881   5.066   2.110   0.203
 3661SOL    HW111882   4.970   2.096   0.228
 3661SOL    HW211883   5.108   2.176   0.266
 3662SOL     OW11884   3.724   0.043   5.079
 3662SOL    HW111885   3.731   7.013   5.162
 3662SOL    HW211886   3.722   0.140   5.102
 3663SOL     OW11887   1.558   1.574   0.754
 3663SOL    HW111888   1.522   1.587   0.662
 3663SOL    HW211889   1.650   1.537   0.748
 3664SOL     OW11890   4.765   1.525   0.223
 3664SOL    HW111891   4.782   1.601   0.161
 3664SOL    HW211892   4.708   1.457   0.178
 3665SOL     OW11893   0.781   6.636   5.245
 3665SOL    HW111894   0.866   6.651   5.297
 3665SOL    HW211895   0.717   6.583   5.301
 3666SOL     OW11896   1.826   4.784   3.994
 3666SOL    HW111897   1.771   4.713   4.037
 3666SOL    HW211898   1.771   4.830   3.924
 3667SOL     OW11899   5.966   0.864   6.635
 3667SOL    HW111900   5.910   0.791   6.595
 3667SOL    HW211901   6.046   0.825   6.679
 3668SOL     OW11902   1.193   0.168   2.731
 3668SOL    HW111903   1.098   0.163   2.700
 3668SOL    HW211904   1.196   0.184   2.829
 3669SOL     OW11905   6.116   1.724   4.478
 3669SOL    HW111906   6.110   1.671   4.563
 3669SOL    HW211907   6.032   1.713   4.425
 3670SOL     OW11908   2.571   5.127   0.106
 3670SOL    HW111909   2.515   5.047   0.085
 3670SOL    HW211910   2.663   5.113   0.070
 3671SOL     OW11911   6.639   0.540   3.042
 3671SOL    HW111912   6.546   0.508   3.060
 3671SOL    HW211913   6.659   0.619   3.099
 3672SOL     OW11914   6.424   1.735   0.247
 3672SOL    HW111915   6.406   1.761   0.152
 3672SOL    HW211916   6.350   1.677   0.281
 3673SOL     OW11917   3.919   0.966   6.036
 3673SOL    HW111918   3.896   1.062   6.052
 3673SOL    HW211919   3.997   0.941   6.094
 3674SOL     OW11920   0.435   6.374   6.722
 3674SOL    HW111921   0.471   6.422   6.643
 3674SOL    HW211922   0.479   6.409   6.805
 3675SOL     OW11923   1.562   2.741   5.348
 3675SOL    HW111924   1.509   2.683   5.286
 3675SOL    HW211925   1.504   2.769   5.424
 3676SOL     OW11926   3.541   5.213   3.930
 3676SOL    HW111927   3.531   5.256   4.020
 3676SOL    HW211928   3.470   5.246   3.869
 3677SOL     OW11929   0.263   6.435   3.085
 3677SOL    HW111930   0.281   6.520   3.134
 3677SOL    HW211931   0.279   6.449   2.987
 3678SOL     OW11932   1.290   2.376   3.878
 3678SOL    HW111933   1.239   2.380   3.792
 3678SOL    HW211934   1.364   2.443   3.876
 3679SOL     OW11935   0.100   0.956   2.766
 3679SOL    HW111936   0.031   0.938   2.695
 3679SOL    HW211937   0.071   0.914   2.852
 3680SOL     OW11938   6.126   2.591   3.902
 3680SOL    HW111939   6.186   2.568   3.826
 3680SOL    HW211940   6.039   2.625   3.867
 3681SOL     OW11941   1.127   0.827   5.857
 3681SOL    HW111942   1.056   0.796   5.794
 3681SOL    HW211943   1.111   0.788   5.947
 3682SOL     OW11944   6.496   1.942   5.416
 3682SOL    HW111945   6.443   2.002   5.478
 3682SOL    HW211946   6.433   1.885   5.364
 3683SOL     OW11947   6.226   6.859   4.610
 3683SOL    HW111948   6.219   6.764   4.638
 3683SOL    HW211949   6.315   6.896   4.637
 3684SOL     OW11950   2.126   2.864   1.726
 3684SOL    HW111951   2.189   2.906   1.662
 3684SOL    HW211952   2.147   2.893   1.819
 3685SOL     OW11953   6.247   5.735   6.402
 3685SOL    HW111954   6.275   5.673   6.328
 3685SOL    HW211955   6.324   5.794   6.425
 3686SOL     OW11956   6.609   4.756   2.359
 3686SOL    HW111957   6.706   4.779   2.359
 3686SOL    HW211958   6.595   4.670   2.409
 3687SOL     OW11959   3.142   6.145   6.714
 3687SOL    HW111960   3.062   6.145   6.654
 3687SOL    HW211961   3.212   6.084   6.677
 3688SOL     OW11962   0.749   3.546   0.001
 3688SOL    HW111963   0.728   3.530   6.929
 3688SOL    HW211964   0.713   3.471   0.057
 3689SOL     OW11965   1.194   0.762   5.455
 3689SOL    HW111966   1.171   0.851   5.416
 3689SOL    HW211967   1.291   0.743   5.440
 3690SOL     OW11968   4.573   0.761   6.126
 3690SOL    HW111969   4.551   0.782   6.031
 3690SOL    HW211970   4.645   0.691   6.128
 3691SOL     OW11971   2.594   3.521   6.479
 3691SOL    HW111972   2.572   3.545   6.385
 3691SOL    HW211973   2.642   3.433   6.481
 3692SOL     OW11974   0.867   6.052   4.510
 3692SOL    HW111975   0.788   6.055   4.449
 3692SOL    HW211976   0.951   6.057   4.456
 3693SOL     OW11977   1.859   2.018   3.159
 3693SOL    HW111978   1.828   2.105   3.197
 3693SOL    HW211979   1.802   1.994   3.080
 3694SOL     OW11980   1.223   5.612   3.890
 3694SOL    HW111981   1.209   5.514   3.876
 3694SOL    HW211982   1.144   5.650   3.939
 3695SOL     OW11983   0.825   2.297   2.701
 3695SOL    HW111984   0.750   2.252   2.748
 3695SOL    HW211985   0.908   2.291   2.756
 3696SOL     OW11986   4.541   5.865   5.687
 3696SOL    HW111987   4.481   5.849   5.765
 3696SOL    HW211988   4.618   5.923   5.715
 3697SOL     OW11989   6.965   6.839   3.421
 3697SOL    HW111990   0.028   6.836   3.470
 3697SOL    HW211991   6.967   6.776   3.344
 3698SOL     OW11992   3.752   0.374   5.445
 3698SOL    HW111993   3.693   0.294   5.434
 3698SOL    HW211994   3.697   0.457   5.435
 3699SOL     OW11995   0.100   3.828   2.769
 3699SOL    HW111996   0.001   3.838   2.765
 3699SOL    HW211997   0.131   3.841   2.863
 3700SOL     OW11998   6.062   0.180   4.254
 3700SOL    HW111999   6.150   0.146   4.219
 3700SOL    HW212000   6.077   0.228   4.340
 3701SOL     OW12001   0.483   0.857   4.210
 3701SOL    HW112002   0.574   0.818   4.204
 3701SOL    HW212003   0.421   0.792   4.254
 3702SOL     OW12004   4.323   0.205   1.528
 3702SOL    HW112005   4.411   0.176   1.489
 3702SOL    HW212006   4.319   0.179   1.625
 3703SOL     OW12007   4.297   4.037   5.895
 3703SOL    HW112008   4.217   3.982   5.870
 3703SOL    HW212009   4.298   4.121   5.840
 3704SOL     OW12010   2.740   0.925   2.266
 3704SOL    HW112011   2.783   1.014   2.250
 3704SOL    HW212012   2.785   0.879   2.342
 3705SOL     OW12013   4.410   0.210   4.010
 3705SOL    HW112014   4.397   0.189   3.913
 3705SOL    HW212015   4.374   0.135   4.065
 3706SOL     OW12016   1.668   3.034   4.601
 3706SOL    HW112017   1.635   3.109   4.659
 3706SOL    HW212018   1.737   3.069   4.537
 3707SOL     OW12019   5.071   2.813   5.739
 3707SOL    HW112020   5.075   2.743   5.810
 3707SOL    HW212021   4.978   2.847   5.729
 3708SOL     OW12022   6.252   0.686   6.515
 3708SOL    HW112023   6.270   0.784   6.516
 3708SOL    HW212024   6.169   0.667   6.463
 3709SOL     OW12025   3.418   1.117   5.573
 3709SOL    HW112026   3.350   1.147   5.507
 3709SOL    HW212027   3.497   1.178   5.571
 3710SOL     OW12028   6.683   5.761   6.923
 3710SOL    HW112029   6.595   5.755   6.876
 3710SOL    HW212030   6.684   5.842   6.982
 3711SOL     OW12031   0.429   5.782   2.834
 3711SOL    HW112032   0.362   5.720   2.793
 3711SOL    HW212033   0.406   5.799   2.929
 3712SOL     OW12034   0.347   6.673   6.515
 3712SOL    HW112035   0.428   6.616   6.499
 3712SOL    HW212036   0.264   6.620   6.497
 3713SOL     OW12037   2.107   6.108   5.022
 3713SOL    HW112038   2.139   6.070   5.108
 3713SOL    HW212039   2.182   6.157   4.978
 3714SOL     OW12040   4.988   6.544   4.500
 3714SOL    HW112041   5.019   6.636   4.522
 3714SOL    HW212042   4.967   6.537   4.403
 3715SOL     OW12043   5.952   4.601   4.674
 3715SOL    HW112044   5.868   4.549   4.690
 3715SOL    HW212045   5.966   4.666   4.749
 3716SOL     OW12046   6.403   0.277   4.432
 3716SOL    HW112047   6.496   0.286   4.468
 3716SOL    HW212048   6.384   0.352   4.370
 3717SOL     OW12049   6.107   5.929   0.955
 3717SOL    HW112050   6.154   5.963   1.037
 3717SOL    HW212051   6.026   5.878   0.982
 3718SOL     OW12052   1.270   6.416   6.733
 3718SOL    HW112053   1.286   6.428   6.635
 3718SOL    HW212054   1.358   6.411   6.781
 3719SOL     OW12055   5.052   4.912   0.792
 3719SOL    HW112056   4.984   4.968   0.745
 3719SOL    HW212057   5.022   4.816   0.791
 3720SOL     OW12058   6.508   1.941   6.317
 3720SOL    HW112059   6.420   1.912   6.355
 3720SOL    HW212060   6.521   1.901   6.227
 3721SOL     OW12061   5.864   4.862   6.686
 3721SOL    HW112062   5.847   4.784   6.626
 3721SOL    HW212063   5.963   4.875   6.696
 3722SOL     OW12064   6.617   5.830   2.481
 3722SOL    HW112065   6.699   5.826   2.423
 3722SOL    HW212066   6.618   5.755   2.546
 3723SOL     OW12067   5.647   6.619   1.943
 3723SOL    HW112068   5.584   6.685   1.904
 3723SOL    HW212069   5.739   6.633   1.906
 3724SOL     OW12070   1.583   4.723   6.773
 3724SOL    HW112071   1.567   4.668   6.691
 3724SOL    HW212072   1.557   4.818   6.754
 3725SOL     OW12073   6.684   6.368   0.031
 3725SOL    HW112074   6.744   6.295   7.022
 3725SOL    HW212075   6.600   6.327   0.069
 3726SOL     OW12076   6.635   3.800   1.981
 3726SOL    HW112077   6.665   3.825   1.889
 3726SOL    HW212078   6.545   3.756   1.975
 3727SOL     OW12079   0.509   3.415   5.691
 3727SOL    HW112080   0.540   3.361   5.769
 3727SOL    HW212081   0.410   3.429   5.698
 3728SOL     OW12082   2.316   3.437   0.669
 3728SOL    HW112083   2.299   3.348   0.712
 3728SOL    HW212084   2.335   3.424   0.572
 3729SOL     OW12085   0.932   2.075   2.918
 3729SOL    HW112086   0.843   2.081   2.872
 3729SOL    HW212087   0.924   2.117   3.009
 3730SOL     OW12088   2.536   0.589   0.176
 3730SOL    HW112089   2.466   0.528   0.213
 3730SOL    HW212090   2.552   0.567   0.079
 3731SOL     OW12091   5.391   1.972   0.638
 3731SOL    HW112092   5.339   1.933   0.562
 3731SOL    HW212093   5.456   2.039   0.603
 3732SOL     OW12094   2.294   3.389   5.749
 3732SOL    HW112095   2.234   3.447   5.804
 3732SOL    HW212096   2.248   3.365   5.663
 3733SOL     OW12097   2.497   4.075   1.638
 3733SOL    HW112098   2.592   4.085   1.664
 3733SOL    HW212099   2.440   4.067   1.720
 3734SOL     OW12100   4.685   1.165   2.380
 3734SOL    HW112101   4.608   1.228   2.382
 3734SOL    HW212102   4.762   1.209   2.334
 3735SOL     OW12103   1.451   2.117   2.513
 3735SOL    HW112104   1.467   2.042   2.577
 3735SOL    HW212105   1.432   2.201   2.563
 3736SOL     OW12106   0.458   2.810   0.984
 3736SOL    HW112107   0.466   2.909   0.982
 3736SOL    HW212108   0.361   2.784   0.989
 3737SOL     OW12109   5.195   0.159   3.350
 3737SOL    HW112110   5.130   0.195   3.418
 3737SOL    HW212111   5.276   0.217   3.348
 3738SOL     OW12112   6.214   5.775   2.911
 3738SOL    HW112113   6.246   5.792   3.004
 3738SOL    HW212114   6.250   5.846   2.850
 3739SOL     OW12115   1.656   3.985   2.652
 3739SOL    HW112116   1.603   4.068   2.665
 3739SOL    HW212117   1.748   4.008   2.619
 3740SOL     OW12118   4.439   1.158   6.442
 3740SOL    HW112119   4.480   1.081   6.393
 3740SOL    HW212120   4.343   1.166   6.416
 3741SOL     OW12121   4.333   3.587   1.023
 3741SOL    HW112122   4.336   3.491   0.993
 3741SOL    HW212123   4.337   3.647   0.944
 3742SOL     OW12124   2.985   2.346   6.088
 3742SOL    HW112125   2.957   2.418   6.150
 3742SOL    HW212126   3.031   2.386   6.008
 3743SOL     OW12127   6.174   5.106   0.366
 3743SOL    HW112128   6.105   5.036   0.350
 3743SOL    HW212129   6.257   5.064   0.401
 3744SOL     OW12130   0.781   5.083   4.224
 3744SOL    HW112131   0.787   5.111   4.128
 3744SOL    HW212132   0.792   4.984   4.230
 3745SOL     OW12133   3.541   5.528   2.642
 3745SOL    HW112134   3.557   5.507   2.739
 3745SOL    HW212135   3.550   5.445   2.588
 3746SOL     OW12136   4.395   1.570   1.318
 3746SOL    HW112137   4.406   1.653   1.373
 3746SOL    HW212138   4.485   1.536   1.291
 3747SOL     OW12139   3.234   6.695   6.450
 3747SOL    HW112140   3.210   6.598   6.448
 3747SOL    HW212141   3.221   6.734   6.359
 3748SOL     OW12142   5.675   1.210   1.340
 3748SOL    HW112143   5.648   1.262   1.421
 3748SOL    HW212144   5.666   1.112   1.359
 3749SOL     OW12145   1.696   6.816   4.375
 3749SOL    HW112146   1.727   6.804   4.281
 3749SOL    HW212147   1.607   6.862   4.375
 3750SOL     OW12148   0.900   3.950   0.078
 3750SOL    HW112149   0.967   4.009   0.123
 3750SOL    HW212150   0.917   3.855   0.102
 3751SOL     OW12151   0.233   3.957   3.272
 3751SOL    HW112152   0.326   3.992   3.280
 3751SOL    HW212153   0.168   4.027   3.303
 3752SOL     OW12154   5.542   0.981   5.800
 3752SOL    HW112155   5.638   0.953   5.800
 3752SOL    HW212156   5.491   0.926   5.866
 3753SOL     OW12157   6.656   1.313   4.602
 3753SOL    HW112158   6.566   1.275   4.580
 3753SOL    HW212159   6.726   1.265   4.549
 3754SOL     OW12160   2.347   1.233   2.329
 3754SOL    HW112161   2.386   1.246   2.238
 3754SOL    HW212162   2.248   1.242   2.325
 3755SOL     OW12163   3.192   4.965   4.433
 3755SOL    HW112164   3.101   4.961   4.475
 3755SOL    HW212165   3.182   4.977   4.334
 3756SOL     OW12166   2.686   5.928   0.412
 3756SOL    HW112167   2.614   5.988   0.378
 3756SOL    HW212168   2.709   5.860   0.343
 3757SOL     OW12169   6.419   4.608   1.987
 3757SOL    HW112170   6.392   4.672   1.915
 3757SOL    HW212171   6.338   4.561   2.023
 3758SOL     OW12172   1.836   0.635   3.645
 3758SOL    HW112173   1.746   0.622   3.606
 3758SOL    HW212174   1.827   0.665   3.740
 3759SOL     OW12175   5.610   1.057   4.276
 3759SOL    HW112176   5.556   1.038   4.358
 3759SOL    HW212177   5.640   0.971   4.235
 3760SOL     OW12178   6.937   0.483   4.089
 3760SOL    HW112179   6.935   0.405   4.026
 3760SOL    HW212180   6.990   0.557   4.048
 3761SOL     OW12181   5.305   1.311   4.709
 3761SOL    HW112182   5.313   1.353   4.618
 3761SOL    HW212183   5.323   1.380   4.779
 3762SOL     OW12184   1.382   4.307   2.578
 3762SOL    HW112185   1.328   4.277   2.499
 3762SOL    HW212186   1.360   4.248   2.656
 3763SOL     OW12187   0.012   3.941   0.451
 3763SOL    HW112188   6.976   4.002   0.503
 3763SOL    HW212189   0.059   3.994   0.380
 3764SOL     OW12190   2.004   6.960   3.526
 3764SOL    HW112191   2.037   0.009   3.587
 3764SOL    HW212192   1.937   6.904   3.575
 3765SOL     OW12193   6.473   1.840   1.242
 3765SOL    HW112194   6.476   1.743   1.218
 3765SOL    HW212195   6.431   1.892   1.168
 3766SOL     OW12196   2.016   2.934   3.454
 3766SOL    HW112197   2.043   2.865   3.387
 3766SOL    HW212198   1.916   2.932   3.466
 3767SOL     OW12199   3.299   4.315   6.024
 3767SOL    HW112200   3.356   4.388   6.062
 3767SOL    HW212201   3.206   4.349   6.010
 3768SOL     OW12202   1.410   0.799   4.705
 3768SOL    HW112203   1.358   0.717   4.729
 3768SOL    HW212204   1.421   0.856   4.786
 3769SOL     OW12205   5.049   5.920   4.621
 3769SOL    HW112206   5.047   5.907   4.720
 3769SOL    HW212207   5.137   5.887   4.585
 3770SOL     OW12208   1.301   1.517   0.876
 3770SOL    HW112209   1.378   1.527   0.814
 3770SOL    HW212210   1.334   1.523   0.971
 3771SOL     OW12211   6.731   5.135   0.532
 3771SOL    HW112212   6.786   5.188   0.467
 3771SOL    HW212213   6.673   5.071   0.482
 3772SOL     OW12214   1.161   6.173   1.010
 3772SOL    HW112215   1.216   6.098   0.975
 3772SOL    HW212216   1.072   6.139   1.039
 3773SOL     OW12217   5.437   3.435   6.069
 3773SOL    HW112218   5.485   3.372   6.008
 3773SOL    HW212219   5.418   3.389   6.156
 3774SOL     OW12220   5.311   5.734   1.476
 3774SOL    HW112221   5.219   5.764   1.451
 3774SOL    HW212222   5.378   5.796   1.435
 3775SOL     OW12223   4.155   4.692   3.234
 3775SOL    HW112224   4.068   4.741   3.230
 3775SOL    HW212225   4.207   4.709   3.150
 3776SOL     OW12226   3.696   2.820   6.269
 3776SOL    HW112227   3.680   2.770   6.355
 3776SOL    HW212228   3.765   2.890   6.284
 3777SOL     OW12229   2.626   6.304   4.412
 3777SOL    HW112230   2.685   6.249   4.353
 3777SOL    HW212231   2.680   6.338   4.489
 3778SOL     OW12232   2.925   6.054   5.158
 3778SOL    HW112233   2.951   5.986   5.089
 3778SOL    HW212234   2.833   6.034   5.192
 3779SOL     OW12235   6.673   5.334   0.248
 3779SOL    HW112236   6.671   5.434   0.253
 3779SOL    HW212237   6.765   5.302   0.268
 3780SOL     OW12238   6.750   2.436   1.855
 3780SOL    HW112239   6.811   2.486   1.793
 3780SOL    HW212240   6.659   2.432   1.815
 3781SOL     OW12241   1.837   6.756   5.260
 3781SOL    HW112242   1.809   6.689   5.329
 3781SOL    HW212243   1.819   6.848   5.293
 3782SOL     OW12244   4.567   6.329   1.507
 3782SOL    HW112245   4.662   6.307   1.482
 3782SOL    HW212246   4.547   6.292   1.597
 3783SOL     OW12247   5.524   5.250   5.673
 3783SOL    HW112248   5.555   5.167   5.721
 3783SOL    HW212249   5.601   5.313   5.663
 3784SOL     OW12250   5.120   2.802   2.979
 3784SOL    HW112251   5.184   2.757   3.041
 3784SOL    HW212252   5.027   2.792   3.015
 3785SOL     OW12253   0.845   2.961   4.202
 3785SOL    HW112254   0.760   2.923   4.168
 3785SOL    HW212255   0.832   2.994   4.296
 3786SOL     OW12256   2.701   2.348   4.494
 3786SOL    HW112257   2.630   2.282   4.468
 3786SOL    HW212258   2.673   2.439   4.465
 3787SOL     OW12259   4.297   0.279   3.157
 3787SOL    HW112260   4.344   0.295   3.244
 3787SOL    HW212261   4.254   0.364   3.125
 3788SOL     OW12262   0.484   3.544   4.962
 3788SOL    HW112263   0.415   3.617   4.957
 3788SOL    HW212264   0.565   3.577   5.011
 3789SOL     OW12265   1.286   2.282   3.056
 3789SOL    HW112266   1.325   2.360   3.105
 3789SOL    HW212267   1.206   2.248   3.106
 3790SOL     OW12268   0.686   6.100   0.459
 3790SOL    HW112269   0.673   6.001   0.452
 3790SOL    HW212270   0.738   6.121   0.542
 3791SOL     OW12271   5.607   1.210   5.914
 3791SOL    HW112272   5.577   1.132   5.858
 3791SOL    HW212273   5.536   1.280   5.913
 3792SOL     OW12274   0.693   0.670   4.228
 3792SOL    HW112275   0.750   0.662   4.147
 3792SOL    HW212276   0.645   0.583   4.243
 3793SOL     OW12277   6.446   6.278   0.493
 3793SOL    HW112278   6.376   6.344   0.522
 3793SOL    HW212279   6.402   6.203   0.442
 3794SOL     OW12280   2.024   4.183   0.792
 3794SOL    HW112281   2.037   4.244   0.870
 3794SOL    HW212282   2.053   4.229   0.708
 3795SOL     OW12283   2.942   5.960   1.029
 3795SOL    HW112284   2.897   5.875   1.057
 3795SOL    HW212285   2.958   6.016   1.110
 3796SOL     OW12286   4.200   1.963   1.009
 3796SOL    HW112287   4.219   2.061   1.020
 3796SOL    HW212288   4.268   1.923   0.947
 3797SOL     OW12289   0.974   4.298   2.867
 3797SOL    HW112290   0.957   4.345   2.954
 3797SOL    HW212291   0.963   4.200   2.879
 3798SOL     OW12292   2.758   6.724   3.110
 3798SOL    HW112293   2.793   6.752   3.021
 3798SOL    HW212294   2.754   6.803   3.171
 3799SOL     OW12295   6.657   2.555   3.338
 3799SOL    HW112296   6.560   2.534   3.350
 3799SOL    HW212297   6.708   2.522   3.418
 3800SOL     OW12298   5.749   1.760   3.293
 3800SOL    HW112299   5.697   1.837   3.332
 3800SOL    HW212300   5.721   1.747   3.198
 3801SOL     OW12301   5.743   6.769   2.277
 3801SOL    HW112302   5.826   6.718   2.256
 3801SOL    HW212303   5.753   6.813   2.366
 3802SOL     OW12304   6.897   1.835   2.250
 3802SOL    HW112305   6.829   1.905   2.227
 3802SOL    HW212306   6.959   1.823   2.172
 3803SOL     OW12307   3.017   3.526   3.940
 3803SOL    HW112308   2.970   3.439   3.951
 3803SOL    HW212309   2.998   3.586   4.018
 3804SOL     OW12310   3.780   0.366   4.784
 3804SOL    HW112311   3.850   0.377   4.855
 3804SOL    HW212312   3.695   0.409   4.814
 3805SOL     OW12313   2.202   2.970   0.407
 3805SOL    HW112314   2.187   2.888   0.351
 3805SOL    HW212315   2.148   2.962   0.491
 3806SOL     OW12316   4.508   4.391   6.985
 3806SOL    HW112317   4.423   4.345   6.962
 3806SOL    HW212318   4.574   4.379   6.911
 3807SOL     OW12319   1.701   5.252   4.075
 3807SOL    HW112320   1.726   5.292   4.163
 3807SOL    HW212321   1.684   5.325   4.009
 3808SOL     OW12322   4.822   0.408   6.149
 3808SOL    HW112323   4.921   0.408   6.156
 3808SOL    HW212324   4.793   0.341   6.081
 3809SOL     OW12325   5.643   2.174   1.188
 3809SOL    HW112326   5.621   2.272   1.181
 3809SOL    HW212327   5.586   2.123   1.123
 3810SOL     OW12328   6.670   2.213   2.915
 3810SOL    HW112329   6.701   2.295   2.962
 3810SOL    HW212330   6.667   2.229   2.816
 3811SOL     OW12331   0.178   5.262   4.747
 3811SOL    HW112332   0.159   5.348   4.699
 3811SOL    HW212333   0.197   5.190   4.680
 3812SOL     OW12334   3.996   5.936   7.006
 3812SOL    HW112335   3.963   5.923   0.075
 3812SOL    HW212336   4.002   6.033   6.986
 3813SOL     OW12337   6.200   3.535   1.117
 3813SOL    HW112338   6.279   3.586   1.082
 3813SOL    HW212339   6.199   3.539   1.217
 3814SOL     OW12340   6.880   6.745   4.300
 3814SOL    HW112341   6.922   6.676   4.240
 3814SOL    HW212342   6.942   6.766   4.375
 3815SOL     OW12343   5.057   3.103   0.436
 3815SOL    HW112344   5.146   3.144   0.413
 3815SOL    HW212345   5.063   3.056   0.523
 3816SOL     OW12346   1.234   6.483   5.219
 3816SOL    HW112347   1.313   6.539   5.194
 3816SOL    HW212348   1.246   6.391   5.183
 3817SOL     OW12349   4.818   3.851   2.713
 3817SOL    HW112350   4.842   3.833   2.809
 3817SOL    HW212351   4.785   3.945   2.704
 3818SOL     OW12352   0.634   0.427   1.467
 3818SOL    HW112353   0.605   0.522   1.463
 3818SOL    HW212354   0.714   0.413   1.409
 3819SOL     OW12355   6.522   4.585   3.216
 3819SOL    HW112356   6.579   4.642   3.275
 3819SOL    HW212357   6.579   4.537   3.150
 3820SOL     OW12358   5.501   6.688   4.309
 3820SOL    HW112359   5.554   6.610   4.343
 3820SOL    HW212360   5.513   6.766   4.371
 3821SOL     OW12361   0.480   6.985   6.952
 3821SOL    HW112362   0.451   6.910   7.011
 3821SOL    HW212363   0.400   0.002   6.908
 3822SOL     OW12364   3.643   0.473   0.310
 3822SOL    HW112365   3.742   0.454   0.310
 3822SOL    HW212366   3.622   0.536   0.235
 3823SOL     OW12367   4.965   4.720   6.086
 3823SOL    HW112368   5.034   4.706   6.157
 3823SOL    HW212369   4.889   4.772   6.124
 3824SOL     OW12370   0.917   3.091   0.519
 3824SOL    HW112371   1.002   3.063   0.475
 3824SOL    HW212372   0.846   3.024   0.501
 3825SOL     OW12373   1.030   4.428   0.815
 3825SOL    HW112374   1.053   4.358   0.882
 3825SOL    HW212375   1.106   4.493   0.807
 3826SOL     OW12376   6.360   4.485   2.386
 3826SOL    HW112377   6.299   4.455   2.460
 3826SOL    HW212378   6.451   4.501   2.422
 3827SOL     OW12379   0.681   0.825   1.149
 3827SOL    HW112380   0.725   0.791   1.233
 3827SOL    HW212381   0.699   0.923   1.139
 3828SOL     OW12382   3.570   4.193   4.516
 3828SOL    HW112383   3.657   4.241   4.508
 3828SOL    HW212384   3.550   4.175   4.612
 3829SOL     OW12385   0.635   5.350   2.333
 3829SOL    HW112386   0.703   5.417   2.304
 3829SOL    HW212387   0.667   5.258   2.313
 3830SOL     OW12388   0.587   0.624   5.206
 3830SOL    HW112389   0.548   0.694   5.266
 3830SOL    HW212390   0.687   0.623   5.217
 3831SOL     OW12391   4.222   1.899   3.305
 3831SOL    HW112392   4.131   1.936   3.284
 3831SOL    HW212393   4.275   1.891   3.220
 3832SOL     OW12394   0.507   0.223   1.808
 3832SOL    HW112395   0.494   0.134   1.765
 3832SOL    HW212396   0.419   0.265   1.828
 3833SOL     OW12397   1.421   6.918   6.285
 3833SOL    HW112398   1.446   6.826   6.316
 3833SOL    HW212399   1.339   6.949   6.333
 3834SOL     OW12400   4.310   4.233   1.280
 3834SOL    HW112401   4.241   4.268   1.344
 3834SOL    HW212402   4.282   4.255   1.186
 3835SOL     OW12403   3.740   6.024   5.492
 3835SOL    HW112404   3.743   5.955   5.565
 3835SOL    HW212405   3.681   5.990   5.418
 3836SOL     OW12406   0.519   5.030   6.394
 3836SOL    HW112407   0.565   4.961   6.338
 3836SOL    HW212408   0.420   5.024   6.379
 3837SOL     OW12409   3.843   5.200   5.105
 3837SOL    HW112410   3.846   5.288   5.056
 3837SOL    HW212411   3.813   5.216   5.199
 3838SOL     OW12412   1.815   1.084   3.523
 3838SOL    HW112413   1.881   1.018   3.559
 3838SOL    HW212414   1.747   1.036   3.468
 3839SOL     OW12415   4.610   0.202   3.225
 3839SOL    HW112416   4.540   0.263   3.263
 3839SOL    HW212417   4.684   0.191   3.292
 3840SOL     OW12418   2.392   0.763   6.369
 3840SOL    HW112419   2.397   0.834   6.299
 3840SOL    HW212420   2.339   0.686   6.335
 3841SOL     OW12421   0.342   4.592   3.986
 3841SOL    HW112422   0.321   4.566   4.080
 3841SOL    HW212423   0.275   4.551   3.924
 3842SOL     OW12424   2.345   2.782   4.507
 3842SOL    HW112425   2.357   2.874   4.545
 3842SOL    HW212426   2.257   2.745   4.538
 3843SOL     OW12427   5.129   3.087   1.145
 3843SOL    HW112428   5.033   3.095   1.120
 3843SOL    HW212429   5.136   3.052   1.239
 3844SOL     OW12430   1.327   5.061   0.124
 3844SOL    HW112431   1.262   5.126   0.086
 3844SOL    HW212432   1.420   5.089   0.101
 3845SOL     OW12433   1.935   6.333   0.131
 3845SOL    HW112434   1.903   6.315   0.224
 3845SOL    HW212435   1.999   6.261   0.104
 3846SOL     OW12436   0.295   2.820   4.473
 3846SOL    HW112437   0.285   2.813   4.572
 3846SOL    HW212438   0.206   2.836   4.431
 3847SOL     OW12439   5.422   1.906   4.488
 3847SOL    HW112440   5.356   1.981   4.496
 3847SOL    HW212441   5.386   1.825   4.533
 3848SOL     OW12442   4.767   2.551   2.919
 3848SOL    HW112443   4.744   2.506   3.005
 3848SOL    HW212444   4.716   2.507   2.844
 3849SOL     OW12445   0.660   6.835   6.492
 3849SOL    HW112446   0.579   6.866   6.542
 3849SOL    HW212447   0.713   6.913   6.462
 3850SOL     OW12448   2.957   2.787   1.173
 3850SOL    HW112449   2.979   2.743   1.260
 3850SOL    HW212450   3.009   2.872   1.165
 3851SOL     OW12451   0.015   4.759   3.731
 3851SOL    HW112452   0.009   4.829   3.803
 3851SOL    HW212453   0.067   4.795   3.654
 3852SOL     OW12454   3.509   0.048   4.175
 3852SOL    HW112455   3.506   0.145   4.196
 3852SOL    HW212456   3.603   0.015   4.182
 3853SOL     OW12457   1.897   1.524   3.585
 3853SOL    HW112458   1.882   1.460   3.660
 3853SOL    HW212459   1.969   1.588   3.608
 3854SOL     OW12460   1.342   3.160   2.810
 3854SOL    HW112461   1.373   3.218   2.735
 3854SOL    HW212462   1.324   3.068   2.775
 3855SOL     OW12463   4.152   6.420   0.768
 3855SOL    HW112464   4.183   6.446   0.677
 3855SOL    HW212465   4.225   6.368   0.815
 3856SOL     OW12466   0.994   1.998   6.278
 3856SOL    HW112467   1.007   1.899   6.273
 3856SOL    HW212468   0.918   2.018   6.340
 3857SOL     OW12469   2.062   6.265   5.676
 3857SOL    HW112470   2.016   6.231   5.594
 3857SOL    HW212471   2.156   6.292   5.653
 3858SOL     OW12472   3.512   1.765   5.885
 3858SOL    HW112473   3.431   1.816   5.913
 3858SOL    HW212474   3.593   1.823   5.895
 3859SOL     OW12475   5.894   1.040   1.120
 3859SOL    HW112476   5.970   1.034   1.054
 3859SOL    HW212477   5.924   1.089   1.201
 3860SOL     OW12478   1.936   0.486   4.466
 3860SOL    HW112479   2.007   0.489   4.395
 3860SOL    HW212480   1.868   0.557   4.448
 3861SOL     OW12481   4.311   6.088   2.494
 3861SOL    HW112482   4.398   6.047   2.466
 3861SOL    HW212483   4.295   6.171   2.441
 3862SOL     OW12484   0.517   0.441   4.237
 3862SOL    HW112485   0.448   0.455   4.166
 3862SOL    HW212486   0.568   0.358   4.217
 3863SOL     OW12487   5.679   0.942   0.324
 3863SOL    HW112488   5.647   0.977   0.236
 3863SOL    HW212489   5.648   0.847   0.335
 3864SOL     OW12490   2.622   0.471   4.811
 3864SOL    HW112491   2.528   0.478   4.842
 3864SOL    HW212492   2.634   0.524   4.727
 3865SOL     OW12493   4.522   0.980   0.577
 3865SOL    HW112494   4.452   1.051   0.582
 3865SOL    HW212495   4.485   0.894   0.613
 3866SOL     OW12496   3.931   1.161   0.133
 3866SOL    HW112497   4.022   1.152   0.094
 3866SOL    HW212498   3.926   1.109   0.219
 3867SOL     OW12499   1.377   4.391   3.288
 3867SOL    HW112500   1.372   4.451   3.368
 3867SOL    HW212501   1.422   4.440   3.213
 3868SOL     OW12502   3.976   0.407   6.624
 3868SOL    HW112503   4.019   0.319   6.603
 3868SOL    HW212504   3.881   0.406   6.594
 3869SOL     OW12505   6.632   3.238   4.058
 3869SOL    HW112506   6.553   3.257   4.000
 3869SOL    HW212507   6.684   3.323   4.071
 3870SOL     OW12508   6.781   6.633   2.266
 3870SOL    HW112509   6.683   6.651   2.262
 3870SOL    HW212510   6.797   6.549   2.318
 3871SOL     OW12511   3.595   6.872   3.677
 3871SOL    HW112512   3.585   6.944   3.746
 3871SOL    HW212513   3.508   6.825   3.665
 3872SOL     OW12514   3.274   2.897   4.077
 3872SOL    HW112515   3.361   2.896   4.127
 3872SOL    HW212516   3.237   2.804   4.072
 3873SOL     OW12517   4.994   3.830   1.166
 3873SOL    HW112518   5.029   3.787   1.083
 3873SOL    HW212519   4.998   3.766   1.242
 3874SOL     OW12520   4.232   0.575   0.503
 3874SOL    HW112521   4.137   0.602   0.516
 3874SOL    HW212522   4.260   0.594   0.409
 3875SOL     OW12523   1.808   3.175   4.006
 3875SOL    HW112524   1.748   3.226   3.945
 3875SOL    HW212525   1.896   3.221   4.014
 3876SOL     OW12526   3.256   5.407   1.012
 3876SOL    HW112527   3.175   5.426   1.068
 3876SOL    HW212528   3.233   5.416   0.915
 3877SOL     OW12529   6.690   2.358   0.911
 3877SOL    HW112530   6.682   2.369   1.010
 3877SOL    HW212531   6.632   2.282   0.882
 3878SOL     OW12532   4.776   6.442   4.663
 3878SOL    HW112533   4.832   6.523   4.680
 3878SOL    HW212534   4.834   6.361   4.662
 3879SOL     OW12535   6.045   5.265   0.546
 3879SOL    HW112536   6.018   5.352   0.505
 3879SOL    HW212537   6.067   5.199   0.475
 3880SOL     OW12538   4.925   3.779   4.625
 3880SOL    HW112539   4.985   3.796   4.547
 3880SOL    HW212540   4.901   3.866   4.668
 3881SOL     OW12541   1.930   3.770   1.672
 3881SOL    HW112542   1.966   3.689   1.717
 3881SOL    HW212543   1.845   3.798   1.717
 3882SOL     OW12544   1.155   1.547   0.259
 3882SOL    HW112545   1.163   1.640   0.223
 3882SOL    HW212546   1.218   1.535   0.336
 3883SOL     OW12547   4.451   1.003   2.504
 3883SOL    HW112548   4.400   1.069   2.559
 3883SOL    HW212549   4.526   1.049   2.457
 3884SOL     OW12550   0.541   5.554   2.476
 3884SOL    HW112551   0.587   5.474   2.439
 3884SOL    HW212552   0.607   5.612   2.523
 3885SOL     OW12553   6.254   6.120   3.679
 3885SOL    HW112554   6.287   6.083   3.766
 3885SOL    HW212555   6.160   6.152   3.691
 3886SOL     OW12556   4.562   5.548   5.347
 3886SOL    HW112557   4.482   5.598   5.315
 3886SOL    HW212558   4.542   5.505   5.435
 3887SOL     OW12559   0.800   6.810   0.185
 3887SOL    HW112560   0.783   6.802   0.087
 3887SOL    HW212561   0.871   6.745   0.211
 3888SOL     OW12562   6.521   6.558   5.074
 3888SOL    HW112563   6.464   6.624   5.024
 3888SOL    HW212564   6.616   6.590   5.074
 3889SOL     OW12565   6.897   2.625   0.222
 3889SOL    HW112566   6.799   2.615   0.208
 3889SOL    HW212567   6.914   2.662   0.313
 3890SOL     OW12568   5.893   5.045   3.459
 3890SOL    HW112569   5.967   5.021   3.522
 3890SOL    HW212570   5.806   5.012   3.496
 3891SOL     OW12571   4.885   3.798   3.810
 3891SOL    HW112572   4.887   3.777   3.712
 3891SOL    HW212573   4.876   3.897   3.823
 3892SOL     OW12574   1.133   3.056   1.100
 3892SOL    HW112575   1.065   2.983   1.092
 3892SOL    HW212576   1.224   3.020   1.078
 3893SOL     OW12577   4.215   3.942   0.648
 3893SOL    HW112578   4.242   4.036   0.628
 3893SOL    HW212579   4.133   3.942   0.705
 3894SOL     OW12580   5.081   0.763   6.766
 3894SOL    HW112581   5.014   0.835   6.751
 3894SOL    HW212582   5.039   0.674   6.745
 3895SOL     OW12583   1.182   6.839   5.530
 3895SOL    HW112584   1.262   6.830   5.471
 3895SOL    HW212585   1.210   6.882   5.616
 3896SOL     OW12586   0.971   1.218   6.488
 3896SOL    HW112587   1.022   1.132   6.492
 3896SOL    HW212588   0.884   1.207   6.536
 3897SOL     OW12589   4.123   5.881   2.496
 3897SOL    HW112590   4.032   5.910   2.468
 3897SOL    HW212591   4.177   5.961   2.521
 3898SOL     OW12592   2.792   2.303   6.767
 3898SOL    HW112593   2.709   2.347   6.802
 3898SOL    HW212594   2.775   2.205   6.754
 3899SOL     OW12595   4.548   6.586   6.173
 3899SOL    HW112596   4.564   6.634   6.259
 3899SOL    HW212597   4.450   6.575   6.158
 3900SOL     OW12598   4.647   2.530   3.843
 3900SOL    HW112599   4.570   2.546   3.905
 3900SOL    HW212600   4.732   2.559   3.886
 3901SOL     OW12601   3.351   0.803   6.081
 3901SOL    HW112602   3.396   0.893   6.078
 3901SOL    HW212603   3.368   0.755   5.996
 3902SOL     OW12604   6.424   2.974   2.488
 3902SOL    HW112605   6.430   2.960   2.389
 3902SOL    HW212606   6.334   3.012   2.510
 3903SOL     OW12607   3.787   6.829   0.295
 3903SOL    HW112608   3.721   6.889   0.339
 3903SOL    HW212609   3.879   6.870   0.302
 3904SOL     OW12610   2.035   0.852   6.287
 3904SOL    HW112611   1.970   0.777   6.297
 3904SOL    HW212612   2.037   0.881   6.191
 3905SOL     OW12613   6.446   6.660   5.858
 3905SOL    HW112614   6.368   6.721   5.866
 3905SOL    HW212615   6.454   6.628   5.763
 3906SOL     OW12616   6.014   6.368   5.337
 3906SOL    HW112617   5.940   6.410   5.284
 3906SOL    HW212618   5.978   6.336   5.424
 3907SOL     OW12619   6.102   0.773   4.149
 3907SOL    HW112620   6.080   0.689   4.197
 3907SOL    HW212621   6.096   0.850   4.212
 3908SOL     OW12622   0.384   2.523   6.609
 3908SOL    HW112623   0.371   2.441   6.665
 3908SOL    HW212624   0.391   2.496   6.513
 3909SOL     OW12625   5.928   6.097   4.843
 3909SOL    HW112626   5.975   6.161   4.903
 3909SOL    HW212627   5.994   6.055   4.781
 3910SOL     OW12628   3.478   3.780   2.609
 3910SOL    HW112629   3.499   3.870   2.572
 3910SOL    HW212630   3.423   3.729   2.543
 3911SOL     OW12631   5.739   1.720   5.713
 3911SOL    HW112632   5.752   1.745   5.617
 3911SOL    HW212633   5.674   1.644   5.719
 3912SOL     OW12634   5.205   0.614   5.133
 3912SOL    HW112635   5.221   0.698   5.185
 3912SOL    HW212636   5.286   0.591   5.079
 3913SOL     OW12637   2.374   6.572   5.919
 3913SOL    HW112638   2.427   6.637   5.975
 3913SOL    HW212639   2.292   6.618   5.884
 3914SOL     OW12640   2.839   0.795   1.512
 3914SOL    HW112641   2.937   0.787   1.528
 3914SOL    HW212642   2.800   0.705   1.495
 3915SOL     OW12643   5.180   6.225   0.898
 3915SOL    HW112644   5.222   6.280   0.826
 3915SOL    HW212645   5.083   6.244   0.903
 3916SOL     OW12646   1.126   6.823   3.812
 3916SOL    HW112647   1.027   6.837   3.812
 3916SOL    HW212648   1.172   6.909   3.790
 3917SOL     OW12649   6.548   6.019   6.940
 3917SOL    HW112650   6.482   6.018   7.014
 3917SOL    HW212651   6.502   5.999   6.853
 3918SOL     OW12652   5.468   5.525   1.348
 3918SOL    HW112653   5.377   5.555   1.375
 3918SOL    HW212654   5.533   5.600   1.361
 3919SOL     OW12655   4.353   6.736   0.343
 3919SOL    HW112656   4.419   6.661   0.350
 3919SOL    HW212657   4.391   6.808   0.284
 3920SOL     OW12658   3.052   3.403   0.611
 3920SOL    HW112659   3.063   3.452   0.698
 3920SOL    HW212660   3.049   3.470   0.536
 3921SOL     OW12661   0.077   3.219   1.644
 3921SOL    HW112662   0.057   3.222   1.546
 3921SOL    HW212663   0.103   3.126   1.670
 3922SOL     OW12664   6.773   3.883   2.196
 3922SOL    HW112665   6.729   3.846   2.114
 3922SOL    HW212666   6.705   3.887   2.270
 3923SOL     OW12667   0.362   1.320   0.337
 3923SOL    HW112668   0.442   1.365   0.297
 3923SOL    HW212669   0.287   1.386   0.345
 3924SOL     OW12670   6.069   4.651   3.895
 3924SOL    HW112671   6.137   4.615   3.958
 3924SOL    HW212672   6.083   4.611   3.804
 3925SOL     OW12673   2.378   5.667   1.115
 3925SOL    HW112674   2.447   5.666   1.043
 3925SOL    HW212675   2.324   5.751   1.108
 3926SOL     OW12676   6.181   4.936   2.555
 3926SOL    HW112677   6.123   4.912   2.477
 3926SOL    HW212678   6.200   5.034   2.553
 3927SOL     OW12679   6.119   2.381   4.867
 3927SOL    HW112680   6.037   2.327   4.884
 3927SOL    HW212681   6.099   2.478   4.884
 3928SOL     OW12682   3.957   5.959   6.451
 3928SOL    HW112683   3.952   5.861   6.429
 3928SOL    HW212684   4.048   5.993   6.427
 3929SOL     OW12685   0.542   0.519   4.737
 3929SOL    HW112686   0.545   0.460   4.817
 3929SOL    HW212687   0.459   0.501   4.685
 3930SOL     OW12688   2.966   1.977   4.004
 3930SOL    HW112689   2.888   1.924   3.970
 3930SOL    HW212690   2.992   2.044   3.935
 3931SOL     OW12691   1.243   1.306   1.102
 3931SOL    HW112692   1.221   1.311   1.004
 3931SOL    HW212693   1.262   1.211   1.126
 3932SOL     OW12694   1.878   3.958   3.800
 3932SOL    HW112695   1.832   3.889   3.855
 3932SOL    HW212696   1.952   3.916   3.747
 3933SOL     OW12697   1.703   6.112   0.142
 3933SOL    HW112698   1.789   6.111   0.090
 3933SOL    HW212699   1.718   6.067   0.230
 3934SOL     OW12700   0.286   1.010   6.751
 3934SOL    HW112701   0.299   1.101   6.790
 3934SOL    HW212702   0.192   0.981   6.764
 3935SOL     OW12703   2.879   6.904   6.867
 3935SOL    HW112704   2.818   6.827   6.886
 3935SOL    HW212705   2.945   6.878   6.796
 3936SOL     OW12706   0.007   5.033   5.536
 3936SOL    HW112707   0.060   5.116   5.557
 3936SOL    HW212708   0.019   5.009   5.440
 3937SOL     OW12709   0.041   1.668   3.257
 3937SOL    HW112710   0.123   1.726   3.250
 3937SOL    HW212711   0.039   1.625   3.347
 3938SOL     OW12712   0.377   2.157   3.839
 3938SOL    HW112713   0.417   2.079   3.887
 3938SOL    HW212714   0.450   2.215   3.803
 3939SOL     OW12715   1.634   2.970   2.906
 3939SOL    HW112716   1.727   2.936   2.889
 3939SOL    HW212717   1.569   2.895   2.897
 3940SOL     OW12718   5.503   4.192   1.291
 3940SOL    HW112719   5.458   4.187   1.380
 3940SOL    HW212720   5.452   4.255   1.232
 3941SOL     OW12721   5.310   3.483   5.348
 3941SOL    HW112722   5.354   3.431   5.420
 3941SOL    HW212723   5.346   3.455   5.259
 3942SOL     OW12724   0.670   6.641   6.283
 3942SOL    HW112725   0.647   6.695   6.365
 3942SOL    HW212726   0.624   6.680   6.204
 3943SOL     OW12727   6.653   2.910   2.929
 3943SOL    HW112728   6.743   2.917   2.972
 3943SOL    HW212729   6.602   2.834   2.970
 3944SOL     OW12730   4.545   2.554   4.767
 3944SOL    HW112731   4.571   2.624   4.700
 3944SOL    HW212732   4.498   2.480   4.720
 3945SOL     OW12733   0.847   1.914   0.273
 3945SOL    HW112734   0.877   2.007   0.255
 3945SOL    HW212735   0.907   1.850   0.224
 3946SOL     OW12736   5.324   4.827   4.599
 3946SOL    HW112737   5.372   4.858   4.517
 3946SOL    HW212738   5.386   4.826   4.677
 3947SOL     OW12739   5.375   6.572   6.937
 3947SOL    HW112740   5.345   6.507   7.008
 3947SOL    HW212741   5.463   6.611   6.964
 3948SOL     OW12742   0.419   4.919   2.461
 3948SOL    HW112743   0.430   4.945   2.365
 3948SOL    HW212744   0.469   4.834   2.478
 3949SOL     OW12745   4.953   0.486   3.436
 3949SOL    HW112746   4.941   0.389   3.417
 3949SOL    HW212747   5.050   0.507   3.448
 3950SOL     OW12748   1.915   4.532   0.431
 3950SOL    HW112749   1.902   4.447   0.380
 3950SOL    HW212750   1.993   4.521   0.492
 3951SOL     OW12751   4.912   0.121   1.512
 3951SOL    HW112752   4.851   0.050   1.476
 3951SOL    HW212753   4.868   0.164   1.591
 3952SOL     OW12754   6.711   2.175   2.322
 3952SOL    HW112755   6.795   2.202   2.273
 3952SOL    HW212756   6.655   2.256   2.338
 3953SOL     OW12757   3.757   5.120   1.400
 3953SOL    HW112758   3.761   5.034   1.451
 3953SOL    HW212759   3.661   5.148   1.390
 3954SOL     OW12760   4.110   5.343   4.874
 3954SOL    HW112761   4.021   5.323   4.834
 3954SOL    HW212762   4.170   5.264   4.863
 3955SOL     OW12763   2.942   6.872   6.210
 3955SOL    HW112764   2.916   6.800   6.145
 3955SOL    HW212765   2.891   6.955   6.191
 3956SOL     OW12766   0.985   0.817   2.714
 3956SOL    HW112767   0.908   0.785   2.770
 3956SOL    HW212768   0.955   0.893   2.657
 3957SOL     OW12769   4.965   6.568   4.213
 3957SOL    HW112770   5.023   6.649   4.200
 3957SOL    HW212771   4.941   6.529   4.124
 3958SOL     OW12772   5.644   1.364   4.757
 3958SOL    HW112773   5.645   1.410   4.846
 3958SOL    HW212774   5.676   1.426   4.686
 3959SOL     OW12775   4.117   6.612   0.438
 3959SOL    HW112776   4.189   6.669   0.400
 3959SOL    HW212777   4.075   6.660   0.516
 3960SOL     OW12778   4.848   1.271   6.298
 3960SOL    HW112779   4.754   1.296   6.320
 3960SOL    HW212780   4.911   1.313   6.363
 3961SOL     OW12781   5.488   1.383   2.395
 3961SOL    HW112782   5.557   1.452   2.417
 3961SOL    HW212783   5.500   1.304   2.454
 3962SOL     OW12784   2.168   4.400   6.678
 3962SOL    HW112785   2.249   4.377   6.732
 3962SOL    HW212786   2.090   4.412   6.740
 3963SOL     OW12787   4.752   5.382   2.813
 3963SOL    HW112788   4.799   5.314   2.870
 3963SOL    HW212789   4.727   5.339   2.726
 3964SOL     OW12790   4.315   5.183   3.658
 3964SOL    HW112791   4.397   5.239   3.645
 3964SOL    HW212792   4.313   5.146   3.750
 3965SOL     OW12793   5.088   2.824   4.394
 3965SOL    HW112794   4.994   2.812   4.361
 3965SOL    HW212795   5.124   2.911   4.361
 3966SOL     OW12796   4.671   6.182   6.083
 3966SOL    HW112797   4.715   6.261   6.039
 3966SOL    HW212798   4.740   6.114   6.105
 3967SOL     OW12799   2.114   3.768   2.403
 3967SOL    HW112800   2.156   3.854   2.430
 3967SOL    HW212801   2.099   3.710   2.483
 3968SOL     OW12802   4.624   0.532   1.048
 3968SOL    HW112803   4.720   0.513   1.066
 3968SOL    HW212804   4.569   0.453   1.076
 3969SOL     OW12805   1.273   4.157   2.330
 3969SOL    HW112806   1.240   4.199   2.246
 3969SOL    HW212807   1.230   4.067   2.341
 3970SOL     OW12808   5.777   6.102   3.388
 3970SOL    HW112809   5.726   6.155   3.456
 3970SOL    HW212810   5.875   6.122   3.396
 3971SOL     OW12811   3.454   5.357   3.526
 3971SOL    HW112812   3.390   5.433   3.524
 3971SOL    HW212813   3.468   5.327   3.620
 3972SOL     OW12814   1.179   3.905   0.727
 3972SOL    HW112815   1.217   3.830   0.673
 3972SOL    HW212816   1.086   3.881   0.756
 3973SOL     OW12817   1.456   5.907   6.132
 3973SOL    HW112818   1.521   5.831   6.132
 3973SOL    HW212819   1.494   5.982   6.078
 3974SOL     OW12820   2.256   0.261   5.324
 3974SOL    HW112821   2.309   0.177   5.333
 3974SOL    HW212822   2.242   0.301   5.415
 3975SOL     OW12823   5.181   1.904   6.039
 3975SOL    HW112824   5.227   1.951   5.964
 3975SOL    HW212825   5.148   1.815   6.007
 3976SOL     OW12826   1.496   6.375   1.862
 3976SOL    HW112827   1.504   6.379   1.962
 3976SOL    HW212828   1.512   6.466   1.824
 3977SOL     OW12829   2.101   3.224   5.912
 3977SOL    HW112830   2.060   3.283   5.982
 3977SOL    HW212831   2.143   3.280   5.841
 3978SOL     OW12832   5.840   5.425   3.839
 3978SOL    HW112833   5.925   5.440   3.889
 3978SOL    HW212834   5.807   5.332   3.858
 3979SOL     OW12835   3.626   0.623   0.096
 3979SOL    HW112836   3.629   0.607   7.021
 3979SOL    HW212837   3.655   0.716   0.116
 3980SOL     OW12838   5.516   5.988   6.802
 3980SOL    HW112839   5.441   6.051   6.782
 3980SOL    HW212840   5.505   5.904   6.748
 3981SOL     OW12841   3.193   0.138   0.534
 3981SOL    HW112842   3.178   0.063   0.469
 3981SOL    HW212843   3.248   0.209   0.490
 3982SOL     OW12844   2.424   6.496   3.444
 3982SOL    HW112845   2.420   6.523   3.348
 3982SOL    HW212846   2.492   6.551   3.491
 3983SOL     OW12847   4.873   4.731   4.237
 3983SOL    HW112848   4.927   4.779   4.168
 3983SOL    HW212849   4.805   4.794   4.275
 3984SOL     OW12850   6.644   0.930   2.288
 3984SOL    HW112851   6.635   0.937   2.189
 3984SOL    HW212852   6.692   1.010   2.324
 3985SOL     OW12853   2.546   4.917   6.553
 3985SOL    HW112854   2.546   4.840   6.615
 3985SOL    HW212855   2.453   4.932   6.518
 3986SOL     OW12856   5.089   1.600   2.890
 3986SOL    HW112857   5.070   1.643   2.801
 3986SOL    HW212858   5.084   1.501   2.880
 3987SOL     OW12859   3.912   4.831   3.222
 3987SOL    HW112860   3.855   4.827   3.304
 3987SOL    HW212861   3.864   4.883   3.151
 3988SOL     OW12862   3.073   5.166   6.843
 3988SOL    HW112863   3.146   5.183   6.909
 3988SOL    HW212864   3.089   5.079   6.797
 3989SOL     OW12865   6.841   2.608   6.867
 3989SOL    HW112866   6.771   2.539   6.852
 3989SOL    HW212867   6.879   2.598   6.959
 3990SOL     OW12868   4.539   2.014   2.597
 3990SOL    HW112869   4.479   2.069   2.539
 3990SOL    HW212870   4.540   2.052   2.690
 3991SOL     OW12871   6.363   0.911   2.385
 3991SOL    HW112872   6.326   1.004   2.391
 3991SOL    HW212873   6.450   0.913   2.336
 3992SOL     OW12874   3.453   1.451   0.227
 3992SOL    HW112875   3.424   1.437   0.322
 3992SOL    HW212876   3.489   1.365   0.190
 3993SOL     OW12877   1.218   2.577   2.192
 3993SOL    HW112878   1.179   2.575   2.284
 3993SOL    HW212879   1.300   2.521   2.188
 3994SOL     OW12880   1.816   6.887   6.567
 3994SOL    HW112881   1.890   6.939   6.611
 3994SOL    HW212882   1.787   6.934   6.484
 3995SOL     OW12883   1.975   3.574   6.257
 3995SOL    HW112884   2.073   3.582   6.237
 3995SOL    HW212885   1.950   3.641   6.328
 3996SOL     OW12886   0.445   6.476   4.980
 3996SOL    HW112887   0.543   6.470   5.000
 3996SOL    HW212888   0.425   6.566   4.940
 3997SOL     OW12889   5.816   1.151   2.935
 3997SOL    HW112890   5.792   1.248   2.934
 3997SOL    HW212891   5.733   1.096   2.940
 3998SOL     OW12892   3.924   1.051   3.728
 3998SOL    HW112893   3.934   1.062   3.827
 3998SOL    HW212894   3.918   1.140   3.684
 3999SOL     OW12895   5.603   2.599   4.117
 3999SOL    HW112896   5.592   2.682   4.062
 3999SOL    HW212897   5.537   2.600   4.192
 4000SOL     OW12898   3.173   0.111   3.696
 4000SOL    HW112899   3.226   0.164   3.762
 4000SOL    HW212900   3.172   0.158   3.607
 4001SOL     OW12901   2.550   1.674   3.860
 4001SOL    HW112902   2.608   1.597   3.885
 4001SOL    HW212903   2.551   1.686   3.760
 4002SOL     OW12904   3.306   4.266   0.712
 4002SOL    HW112905   3.302   4.285   0.810
 4002SOL    HW212906   3.237   4.322   0.664
 4003SOL     OW12907   3.382   0.256   3.846
 4003SOL    HW112908   3.347   0.327   3.785
 4003SOL    HW212909   3.465   0.289   3.891
 4004SOL     OW12910   5.287   2.126   4.010
 4004SOL    HW112911   5.282   2.084   3.920
 4004SOL    HW212912   5.319   2.220   4.002
 4005SOL     OW12913   5.028   5.766   6.753
 4005SOL    HW112914   5.115   5.802   6.789
 4005SOL    HW212915   4.953   5.797   6.810
 4006SOL     OW12916   4.576   5.292   2.333
 4006SOL    HW112917   4.562   5.312   2.429
 4006SOL    HW212918   4.665   5.329   2.303
 4007SOL     OW12919   7.020   2.316   6.443
 4007SOL    HW112920   0.009   2.399   6.497
 4007SOL    HW212921   6.995   2.340   6.349
 4008SOL     OW12922   2.728   2.063   4.759
 4008SOL    HW112923   2.796   2.136   4.750
 4008SOL    HW212924   2.639   2.103   4.782
 4009SOL     OW12925   4.620   3.246   1.541
 4009SOL    HW112926   4.608   3.165   1.598
 4009SOL    HW212927   4.633   3.326   1.599
 4010SOL     OW12928   2.338   2.702   1.413
 4010SOL    HW112929   2.344   2.799   1.389
 4010SOL    HW212930   2.429   2.666   1.428
 4011SOL     OW12931   0.870   1.262   2.191
 4011SOL    HW112932   0.873   1.240   2.094
 4011SOL    HW212933   0.893   1.358   2.205
 4012SOL     OW12934   6.654   4.501   1.838
 4012SOL    HW112935   6.568   4.545   1.864
 4012SOL    HW212936   6.731   4.549   1.882
 4013SOL     OW12937   3.422   1.393   4.918
 4013SOL    HW112938   3.351   1.347   4.972
 4013SOL    HW212939   3.512   1.373   4.957
 4014SOL     OW12940   5.564   6.595   2.466
 4014SOL    HW112941   5.640   6.660   2.460
 4014SOL    HW212942   5.538   6.583   2.561
 4015SOL     OW12943   4.721   4.741   6.541
 4015SOL    HW112944   4.813   4.779   6.532
 4015SOL    HW212945   4.727   4.646   6.570
 4016SOL     OW12946   2.070   6.290   6.179
 4016SOL    HW112947   2.006   6.246   6.116
 4016SOL    HW212948   2.021   6.360   6.231
 4017SOL     OW12949   6.858   6.065   0.564
 4017SOL    HW112950   6.803   5.989   0.597
 4017SOL    HW212951   6.955   6.042   0.570
 4018SOL     OW12952   3.786   5.912   2.314
 4018SOL    HW112953   3.716   5.847   2.341
 4018SOL    HW212954   3.876   5.867   2.315
 4019SOL     OW12955   4.988   4.379   3.395
 4019SOL    HW112956   4.992   4.479   3.395
 4019SOL    HW212957   4.999   4.345   3.301
 4020SOL     OW12958   4.719   2.049   5.248
 4020SOL    HW112959   4.728   1.964   5.298
 4020SOL    HW212960   4.767   2.042   5.160
 4021SOL     OW12961   3.904   4.998   6.421
 4021SOL    HW112962   4.001   4.975   6.421
 4021SOL    HW212963   3.878   5.037   6.509
 4022SOL     OW12964   4.818   1.603   6.895
 4022SOL    HW112965   4.785   1.663   6.967
 4022SOL    HW212966   4.902   1.558   6.924
 4023SOL     OW12967   6.244   1.850   4.881
 4023SOL    HW112968   6.291   1.921   4.828
 4023SOL    HW212969   6.309   1.778   4.906
 4024SOL     OW12970   3.595   6.334   4.528
 4024SOL    HW112971   3.584   6.258   4.464
 4024SOL    HW212972   3.533   6.408   4.502
 4025SOL     OW12973   0.785   3.622   3.144
 4025SOL    HW112974   0.760   3.663   3.056
 4025SOL    HW212975   0.811   3.527   3.131
 4026SOL     OW12976   5.655   5.651   4.495
 4026SOL    HW112977   5.629   5.747   4.500
 4026SOL    HW212978   5.726   5.631   4.562
 4027SOL     OW12979   3.555   4.089   1.748
 4027SOL    HW112980   3.519   4.058   1.836
 4027SOL    HW212981   3.525   4.182   1.731
 4028SOL     OW12982   1.896   2.128   4.340
 4028SOL    HW112983   1.989   2.106   4.309
 4028SOL    HW212984   1.843   2.044   4.346
 4029SOL     OW12985   2.016   3.947   5.702
 4029SOL    HW112986   2.096   3.963   5.644
 4029SOL    HW212987   1.941   4.007   5.673
 4030SOL     OW12988   0.659   1.971   5.713
 4030SOL    HW112989   0.723   1.922   5.654
 4030SOL    HW212990   0.681   2.068   5.714
 4031SOL     OW12991   4.455   5.645   3.752
 4031SOL    HW112992   4.403   5.697   3.819
 4031SOL    HW212993   4.455   5.694   3.664
 4032SOL     OW12994   5.882   6.585   4.061
 4032SOL    HW112995   5.904   6.678   4.032
 4032SOL    HW212996   5.783   6.576   4.071
 4033SOL     OW12997   2.974   3.783   4.436
 4033SOL    HW112998   2.941   3.699   4.393
 4033SOL    HW212999   3.016   3.841   4.368
 4034SOL     OW13000   6.494   1.563   4.670
 4034SOL    HW113001   6.543   1.482   4.640
 4034SOL    HW213002   6.532   1.644   4.625
 4035SOL     OW13003   0.438   4.376   6.795
 4035SOL    HW113004   0.534   4.352   6.780
 4035SOL    HW213005   0.388   4.370   6.708
 4036SOL     OW13006   6.014   5.924   2.656
 4036SOL    HW113007   6.094   5.923   2.716
 4036SOL    HW213008   5.946   5.858   2.688
 4037SOL     OW13009   0.907   3.632   6.473
 4037SOL    HW113010   1.005   3.650   6.479
 4037SOL    HW213011   0.872   3.606   6.563
 4038SOL     OW13012   5.441   4.361   2.925
 4038SOL    HW113013   5.441   4.411   2.838
 4038SOL    HW213014   5.482   4.419   2.996
 4039SOL     OW13015   5.453   6.297   0.343
 4039SOL    HW113016   5.527   6.364   0.344
 4039SOL    HW213017   5.426   6.276   0.437
 4040SOL     OW13018   3.119   6.737   1.336
 4040SOL    HW113019   3.175   6.812   1.371
 4040SOL    HW213020   3.090   6.680   1.413
 4041SOL     OW13021   1.104   6.454   3.352
 4041SOL    HW113022   1.087   6.549   3.381
 4041SOL    HW213023   1.040   6.393   3.399
 4042SOL     OW13024   5.782   5.303   2.093
 4042SOL    HW113025   5.759   5.400   2.096
 4042SOL    HW213026   5.699   5.249   2.092
 4043SOL     OW13027   5.233   2.122   2.546
 4043SOL    HW113028   5.137   2.147   2.554
 4043SOL    HW213029   5.252   2.093   2.452
 4044SOL     OW13030   5.765   0.059   3.404
 4044SOL    HW113031   5.830   7.008   3.418
 4044SOL    HW213032   5.675   0.032   3.436
 4045SOL     OW13033   2.057   5.084   6.798
 4045SOL    HW113034   2.011   5.085   6.709
 4045SOL    HW213035   2.156   5.083   6.784
 4046SOL     OW13036   1.090   2.552   1.539
 4046SOL    HW113037   1.028   2.574   1.464
 4046SOL    HW213038   1.092   2.628   1.604
 4047SOL     OW13039   3.194   3.589   1.869
 4047SOL    HW113040   3.124   3.639   1.921
 4047SOL    HW213041   3.206   3.498   1.908
 4048SOL     OW13042   5.530   0.454   0.428
 4048SOL    HW113043   5.455   0.456   0.362
 4048SOL    HW213044   5.617   0.456   0.381
 4049SOL     OW13045   5.759   6.784   5.724
 4049SOL    HW113046   5.794   6.751   5.811
 4049SOL    HW213047   5.685   6.850   5.739
 4050SOL     OW13048   1.690   6.208   0.589
 4050SOL    HW113049   1.637   6.287   0.561
 4050SOL    HW213050   1.630   6.139   0.630
 4051SOL     OW13051   3.076   4.770   0.769
 4051SOL    HW113052   3.090   4.851   0.827
 4051SOL    HW213053   3.085   4.687   0.825
 4052SOL     OW13054   0.805   0.625   6.907
 4052SOL    HW113055   0.784   0.547   6.848
 4052SOL    HW213056   0.902   0.625   6.930
 4053SOL     OW13057   3.365   4.944   3.840
 4053SOL    HW113058   3.459   4.925   3.811
 4053SOL    HW213059   3.354   5.042   3.858
 4054SOL     OW13060   3.857   2.187   1.106
 4054SOL    HW113061   3.949   2.224   1.101
 4054SOL    HW213062   3.826   2.163   1.014
 4055SOL     OW13063   3.466   2.023   5.959
 4055SOL    HW113064   3.387   2.035   6.019
 4055SOL    HW213065   3.547   2.061   6.002
 4056SOL     OW13066   3.636   2.776   6.777
 4056SOL    HW113067   3.628   2.874   6.759
 4056SOL    HW213068   3.731   2.748   6.766
 4057SOL     OW13069   4.408   2.942   6.590
 4057SOL    HW113070   4.328   2.963   6.533
 4057SOL    HW213071   4.388   2.965   6.685
 4058SOL     OW13072   2.167   1.240   5.437
 4058SOL    HW113073   2.097   1.179   5.475
 4058SOL    HW213074   2.251   1.232   5.491
 4059SOL     OW13075   1.301   2.062   5.369
 4059SOL    HW113076   1.273   1.973   5.403
 4059SOL    HW213077   1.353   2.051   5.285
 4060SOL     OW13078   3.940   4.924   4.229
 4060SOL    HW113079   3.998   4.878   4.296
 4060SOL    HW213080   3.937   5.022   4.249
 4061SOL     OW13081   3.206   3.896   2.254
 4061SOL    HW113082   3.180   3.977   2.202
 4061SOL    HW213083   3.304   3.879   2.243
 4062SOL     OW13084   3.354   0.944   2.869
 4062SOL    HW113085   3.298   0.874   2.824
 4062SOL    HW213086   3.305   1.032   2.867
 4063SOL     OW13087   3.079   5.051   6.089
 4063SOL    HW113088   3.080   5.105   6.005
 4063SOL    HW213089   3.085   4.953   6.066
 4064SOL     OW13090   0.051   0.728   3.586
 4064SOL    HW113091   7.012   0.725   3.508
 4064SOL    HW213092   0.027   0.655   3.650
 4065SOL     OW13093   6.887   7.007   0.613
 4065SOL    HW113094   6.808   6.945   0.612
 4065SOL    HW213095   6.969   6.958   0.585
 4066SOL     OW13096   5.918   4.248   1.636
 4066SOL    HW113097   5.969   4.163   1.621
 4066SOL    HW213098   5.971   4.308   1.695
 4067SOL     OW13099   6.210   1.376   2.551
 4067SOL    HW113100   6.180   1.310   2.483
 4067SOL    HW213101   6.161   1.462   2.539
 4068SOL     OW13102   5.757   0.221   3.910
 4068SOL    HW113103   5.795   0.153   3.973
 4068SOL    HW213104   5.773   0.312   3.946
 4069SOL     OW13105   5.586   5.748   0.781
 4069SOL    HW113106   5.608   5.698   0.865
 4069SOL    HW213107   5.565   5.844   0.803
 4070SOL     OW13108   2.076   3.846   3.351
 4070SOL    HW113109   1.994   3.889   3.312
 4070SOL    HW213110   2.156   3.902   3.331
 4071SOL     OW13111   1.842   0.312   3.838
 4071SOL    HW113112   1.905   0.367   3.783
 4071SOL    HW213113   1.893   0.241   3.886
 4072SOL     OW13114   1.413   0.233   5.014
 4072SOL    HW113115   1.317   0.219   5.039
 4072SOL    HW213116   1.472   0.193   5.084
 4073SOL     OW13117   2.653   6.290   0.090
 4073SOL    HW113118   2.715   6.362   0.057
 4073SOL    HW213119   2.628   6.310   0.185
 4074SOL     OW13120   1.620   2.427   0.928
 4074SOL    HW113121   1.690   2.367   0.966
 4074SOL    HW213122   1.534   2.377   0.918
 4075SOL     OW13123   5.257   1.788   3.027
 4075SOL    HW113124   5.350   1.755   3.012
 4075SOL    HW213125   5.192   1.726   2.983
 4076SOL     OW13126   1.838   3.478   4.344
 4076SOL    HW113127   1.819   3.571   4.312
 4076SOL    HW213128   1.762   3.418   4.316
 4077SOL     OW13129   3.440   1.032   1.071
 4077SOL    HW113130   3.457   0.962   1.141
 4077SOL    HW213131   3.371   1.096   1.104
 4078SOL     OW13132   6.244   3.673   1.381
 4078SOL    HW113133   6.178   3.748   1.381
 4078SOL    HW213134   6.329   3.703   1.423
 4079SOL     OW13135   0.266   0.557   3.786
 4079SOL    HW113136   0.258   0.522   3.879
 4079SOL    HW213137   0.328   0.635   3.785
 4080SOL     OW13138   3.461   3.927   1.530
 4080SOL    HW113139   3.368   3.906   1.561
 4080SOL    HW213140   3.501   3.997   1.589
 4081SOL     OW13141   1.859   2.279   5.576
 4081SOL    HW113142   1.809   2.315   5.497
 4081SOL    HW213143   1.957   2.274   5.555
 4082SOL     OW13144   0.981   2.833   4.549
 4082SOL    HW113145   0.940   2.760   4.495
 4082SOL    HW213146   1.011   2.797   4.637
 4083SOL     OW13147   5.621   4.987   3.206
 4083SOL    HW113148   5.524   5.011   3.193
 4083SOL    HW213149   5.673   5.069   3.228
 4084SOL     OW13150   4.319   1.041   3.160
 4084SOL    HW113151   4.283   0.951   3.136
 4084SOL    HW213152   4.284   1.109   3.096
 4085SOL     OW13153   3.142   5.010   2.256
 4085SOL    HW113154   3.065   4.946   2.250
 4085SOL    HW213155   3.141   5.070   2.177
 4086SOL     OW13156   6.290   5.504   6.230
 4086SOL    HW113157   6.205   5.452   6.236
 4086SOL    HW213158   6.367   5.441   6.221
 4087SOL     OW13159   2.614   0.035   2.501
 4087SOL    HW113160   2.658   0.053   2.589
 4087SOL    HW213161   2.684   0.015   2.432
 4088SOL     OW13162   0.365   1.202   5.364
 4088SOL    HW113163   0.431   1.255   5.310
 4088SOL    HW213164   0.290   1.261   5.392
 4089SOL     OW13165   0.490   0.236   3.745
 4089SOL    HW113166   0.421   0.260   3.678
 4089SOL    HW213167   0.455   0.165   3.806
 4090SOL     OW13168   2.851   0.219   5.420
 4090SOL    HW113169   2.912   0.154   5.467
 4090SOL    HW213170   2.889   0.311   5.426
 4091SOL     OW13171   2.186   5.372   1.236
 4091SOL    HW113172   2.097   5.418   1.243
 4091SOL    HW213173   2.237   5.410   1.159
 4092SOL     OW13174   4.956   3.108   4.188
 4092SOL    HW113175   4.943   3.204   4.162
 4092SOL    HW213176   4.938   3.097   4.285
 4093SOL     OW13177   4.953   5.877   3.017
 4093SOL    HW113178   4.957   5.877   3.117
 4093SOL    HW213179   5.041   5.846   2.980
 4094SOL     OW13180   7.010   5.619   6.735
 4094SOL    HW113181   0.012   5.668   6.652
 4094SOL    HW213182   7.012   5.521   6.719
 4095SOL     OW13183   0.022   4.997   6.775
 4095SOL    HW113184   0.072   5.079   6.746
 4095SOL    HW213185   6.978   4.972   6.706
 4096SOL     OW13186   1.684   2.235   7.000
 4096SOL    HW113187   1.618   2.257   6.928
 4096SOL    HW213188   1.727   2.319   0.009
 4097SOL     OW13189   0.090   4.695   5.015
 4097SOL    HW113190   0.072   4.719   4.919
 4097SOL    HW213191   0.170   4.635   5.020
 4098SOL     OW13192   2.323   4.914   3.329
 4098SOL    HW113193   2.281   4.844   3.386
 4098SOL    HW213194   2.341   4.877   3.238
 4099SOL     OW13195   4.384   4.862   6.030
 4099SOL    HW113196   4.440   4.892   5.952
 4099SOL    HW213197   4.401   4.765   6.048
 4100SOL     OW13198   1.322   0.664   3.565
 4100SOL    HW113199   1.279   0.610   3.637
 4100SOL    HW213200   1.253   0.692   3.498
 4101SOL     OW13201   6.420   0.539   0.276
 4101SOL    HW113202   6.426   0.495   0.186
 4101SOL    HW213203   6.330   0.579   0.287
 4102SOL     OW13204   1.720   0.898   6.905
 4102SOL    HW113205   1.763   0.901   6.815
 4102SOL    HW213206   1.623   0.919   6.896
 4103SOL     OW13207   1.508   6.486   2.552
 4103SOL    HW113208   1.540   6.492   2.458
 4103SOL    HW213209   1.472   6.394   2.570
 4104SOL     OW13210   0.326   5.806   4.058
 4104SOL    HW113211   0.365   5.790   3.967
 4104SOL    HW213212   0.226   5.798   4.053
 4105SOL     OW13213   4.897   1.179   0.961
 4105SOL    HW113214   4.908   1.105   1.026
 4105SOL    HW213215   4.845   1.147   0.882
 4106SOL     OW13216   6.759   2.392   3.511
 4106SOL    HW113217   6.791   2.352   3.597
 4106SOL    HW213218   6.797   2.340   3.434
 4107SOL     OW13219   0.139   6.532   6.460
 4107SOL    HW113220   0.203   6.455   6.455
 4107SOL    HW213221   0.062   6.515   6.398
 4108SOL     OW13222   6.596   5.155   3.902
 4108SOL    HW113223   6.607   5.237   3.846
 4108SOL    HW213224   6.672   5.093   3.884
 4109SOL     OW13225   5.972   6.549   3.313
 4109SOL    HW113226   5.953   6.482   3.241
 4109SOL    HW213227   5.995   6.502   3.398
 4110SOL     OW13228   4.805   4.092   0.296
 4110SOL    HW113229   4.777   4.130   0.384
 4110SOL    HW213230   4.874   4.021   0.310
 4111SOL     OW13231   6.836   4.045   4.017
 4111SOL    HW113232   6.764   4.085   3.960
 4111SOL    HW213233   6.870   4.115   4.080
 4112SOL     OW13234   4.916   6.986   5.083
 4112SOL    HW113235   4.944   6.891   5.092
 4112SOL    HW213236   4.897   7.007   4.987
 4113SOL     OW13237   4.383   4.701   4.683
 4113SOL    HW113238   4.426   4.629   4.628
 4113SOL    HW213239   4.364   4.666   4.775
 4114SOL     OW13240   6.904   1.372   2.519
 4114SOL    HW113241   6.879   1.285   2.477
 4114SOL    HW213242   6.910   1.442   2.448
 4115SOL     OW13243   3.444   4.969   4.130
 4115SOL    HW113244   3.543   4.978   4.125
 4115SOL    HW213245   3.415   4.891   4.075
 4116SOL     OW13246   5.209   2.639   3.449
 4116SOL    HW113247   5.119   2.599   3.429
 4116SOL    HW213248   5.267   2.631   3.368
 4117SOL     OW13249   1.068   2.394   2.814
 4117SOL    HW113250   1.129   2.335   2.866
 4117SOL    HW213251   1.120   2.440   2.742
 4118SOL     OW13252   6.852   6.808   6.215
 4118SOL    HW113253   6.773   6.843   6.165
 4118SOL    HW213254   6.826   6.727   6.267
 4119SOL     OW13255   2.294   1.394   3.401
 4119SOL    HW113256   2.290   1.326   3.328
 4119SOL    HW213257   2.353   1.360   3.475
 4120SOL     OW13258   2.045   1.210   6.170
 4120SOL    HW113259   2.033   1.112   6.182
 4120SOL    HW213260   2.057   1.230   6.073
 4121SOL     OW13261   6.733   6.689   1.818
 4121SOL    HW113262   6.735   6.698   1.718
 4121SOL    HW213263   6.639   6.704   1.850
 4122SOL     OW13264   6.760   4.625   4.070
 4122SOL    HW113265   6.857   4.606   4.057
 4122SOL    HW213266   6.735   4.706   4.016
 4123SOL     OW13267   3.915   4.934   2.502
 4123SOL    HW113268   4.007   4.963   2.528
 4123SOL    HW213269   3.913   4.911   2.405
 4124SOL     OW13270   6.640   5.981   0.369
 4124SOL    HW113271   6.652   5.938   0.458
 4124SOL    HW213272   6.704   6.057   0.359
 4125SOL     OW13273   5.650   2.103   2.127
 4125SOL    HW113274   5.730   2.054   2.093
 4125SOL    HW213275   5.617   2.059   2.210
 4126SOL     OW13276   0.949   3.345   1.935
 4126SOL    HW113277   0.981   3.285   1.862
 4126SOL    HW213278   0.997   3.323   2.020
 4127SOL     OW13279   3.855   1.919   4.166
 4127SOL    HW113280   3.892   1.863   4.091
 4127SOL    HW213281   3.927   1.980   4.200
 4128SOL     OW13282   0.144   3.222   0.934
 4128SOL    HW113283   0.045   3.212   0.945
 4128SOL    HW213284   0.163   3.305   0.882
 4129SOL     OW13285   2.650   2.944   0.707
 4129SOL    HW113286   2.593   2.862   0.697
 4129SOL    HW213287   2.697   2.962   0.620
 4130SOL     OW13288   6.093   2.829   1.217
 4130SOL    HW113289   6.051   2.750   1.172
 4130SOL    HW213290   6.184   2.845   1.178
 4131SOL     OW13291   4.546   0.732   2.482
 4131SOL    HW113292   4.524   0.828   2.500
 4131SOL    HW213293   4.623   0.704   2.540
 4132SOL     OW13294   6.800   4.063   4.345
 4132SOL    HW113295   6.847   4.151   4.330
 4132SOL    HW213296   6.865   3.988   4.334
 4133SOL     OW13297   5.738   0.070   2.150
 4133SOL    HW113298   5.771   0.114   2.233
 4133SOL    HW213299   5.784   7.006   2.138
 4134SOL     OW13300   2.394   3.202   1.196
 4134SOL    HW113301   2.397   3.172   1.100
 4134SOL    HW213302   2.455   3.143   1.250
 4135SOL     OW13303   0.069   1.083   2.297
 4135SOL    HW113304   0.057   1.166   2.244
 4135SOL    HW213305   0.163   1.050   2.287
 4136SOL     OW13306   1.429   4.943   2.133
 4136SOL    HW113307   1.488   4.867   2.160
 4136SOL    HW213308   1.362   4.911   2.066
 4137SOL     OW13309   1.416   2.979   0.232
 4137SOL    HW113310   1.422   2.963   0.133
 4137SOL    HW213311   1.509   2.988   0.270
 4138SOL     OW13312   4.874   6.580   0.755
 4138SOL    HW113313   4.784   6.543   0.777
 4138SOL    HW213314   4.926   6.595   0.839
 4139SOL     OW13315   2.312   2.420   3.021
 4139SOL    HW113316   2.306   2.520   3.011
 4139SOL    HW213317   2.265   2.392   3.105
 4140SOL     OW13318   2.463   2.127   4.933
 4140SOL    HW113319   2.470   2.183   5.015
 4140SOL    HW213320   2.399   2.168   4.868
 4141SOL     OW13321   4.349   0.004   6.972
 4141SOL    HW113322   4.281   0.076   6.986
 4141SOL    HW213323   4.411   0.030   6.898
 4142SOL     OW13324   0.171   4.562   2.966
 4142SOL    HW113325   0.107   4.593   3.036
 4142SOL    HW213326   0.119   4.534   2.884
 4143SOL     OW13327   5.776   3.013   0.685
 4143SOL    HW113328   5.698   2.955   0.711
 4143SOL    HW213329   5.849   3.002   0.752
 4144SOL     OW13330   5.792   1.887   0.654
 4144SOL    HW113331   5.712   1.849   0.702
 4144SOL    HW213332   5.825   1.968   0.704
 4145SOL     OW13333   0.270   6.697   1.593
 4145SOL    HW113334   0.192   6.687   1.655
 4145SOL    HW213335   0.237   6.716   1.501
 4146SOL     OW13336   5.183   7.017   3.712
 4146SOL    HW113337   5.277   0.012   3.740
 4146SOL    HW213338   5.130   6.985   3.791
 4147SOL     OW13339   5.051   4.425   5.512
 4147SOL    HW113340   5.079   4.384   5.425
 4147SOL    HW213341   5.132   4.463   5.558
 4148SOL     OW13342   3.040   1.481   5.943
 4148SOL    HW113343   2.965   1.442   5.996
 4148SOL    HW213344   3.071   1.414   5.875
 4149SOL     OW13345   1.824   2.767   0.261
 4149SOL    HW113346   1.871   2.812   0.337
 4149SOL    HW213347   1.725   2.766   0.278
 4150SOL     OW13348   5.715   2.514   6.298
 4150SOL    HW113349   5.617   2.495   6.303
 4150SOL    HW213350   5.767   2.438   6.337
 4151SOL     OW13351   2.377   6.586   4.622
 4151SOL    HW113352   2.286   6.620   4.647
 4151SOL    HW213353   2.442   6.662   4.623
 4152SOL     OW13354   2.990   5.452   1.711
 4152SOL    HW113355   3.061   5.467   1.641
 4152SOL    HW213356   2.917   5.520   1.699
 4153SOL     OW13357   0.133   4.940   1.809
 4153SOL    HW113358   0.128   5.039   1.797
 4153SOL    HW213359   0.081   4.895   1.737
 4154SOL     OW13360   1.156   5.910   4.821
 4154SOL    HW113361   1.185   5.994   4.775
 4154SOL    HW213362   1.056   5.909   4.829
 4155SOL     OW13363   0.831   2.392   1.738
 4155SOL    HW113364   0.928   2.391   1.713
 4155SOL    HW213365   0.813   2.472   1.796
 4156SOL     OW13366   0.034   5.308   5.121
 4156SOL    HW113367   0.118   5.261   5.097
 4156SOL    HW213368   0.002   5.362   5.043
 4157SOL     OW13369   6.832   5.969   1.877
 4157SOL    HW113370   6.891   5.889   1.878
 4157SOL    HW213371   6.795   5.985   1.969
 4158SOL     OW13372   1.506   2.491   2.145
 4158SOL    HW113373   1.534   2.504   2.050
 4158SOL    HW213374   1.560   2.418   2.186
 4159SOL     OW13375   3.049   1.538   3.613
 4159SOL    HW113376   3.036   1.572   3.706
 4159SOL    HW213377   3.077   1.442   3.617
 4160SOL     OW13378   6.563   0.115   6.363
 4160SOL    HW113379   6.471   0.078   6.350
 4160SOL    HW213380   6.588   0.172   6.285
 4161SOL     OW13381   2.882   2.554   1.372
 4161SOL    HW113382   2.863   2.495   1.450
 4161SOL    HW213383   2.909   2.498   1.294
 4162SOL     OW13384   6.496   6.538   1.517
 4162SOL    HW113385   6.592   6.567   1.514
 4162SOL    HW213386   6.459   6.536   1.424
 4163SOL     OW13387   3.980   6.313   1.196
 4163SOL    HW113388   3.986   6.339   1.100
 4163SOL    HW213389   3.897   6.352   1.235
 4164SOL     OW13390   0.001   6.938   5.090
 4164SOL    HW113391   0.038   6.910   5.178
 4164SOL    HW213392   6.944   6.883   5.068
 4165SOL     OW13393   4.574   1.248   5.788
 4165SOL    HW113394   4.646   1.299   5.743
 4165SOL    HW213395   4.601   1.152   5.796
 4166SOL     OW13396   5.999   0.668   2.776
 4166SOL    HW113397   5.963   0.575   2.762
 4166SOL    HW213398   5.923   0.730   2.796
 4167SOL     OW13399   4.004   4.922   5.508
 4167SOL    HW113400   3.946   4.890   5.434
 4167SOL    HW213401   3.955   4.993   5.560
 4168SOL     OW13402   5.991   4.337   0.455
 4168SOL    HW113403   6.007   4.258   0.514
 4168SOL    HW213404   6.078   4.381   0.433
 4169SOL     OW13405   4.938   3.859   5.021
 4169SOL    HW113406   4.868   3.788   5.013
 4169SOL    HW213407   4.959   3.896   4.931
 4170SOL     OW13408   5.712   3.154   4.351
 4170SOL    HW113409   5.806   3.185   4.336
 4170SOL    HW213410   5.688   3.167   4.447
 4171SOL     OW13411   1.384   3.841   0.914
 4171SOL    HW113412   1.306   3.868   0.857
 4171SOL    HW213413   1.450   3.916   0.918
 4172SOL     OW13414   2.829   3.765   0.669
 4172SOL    HW113415   2.906   3.773   0.605
 4172SOL    HW213416   2.743   3.775   0.618
 4173SOL     OW13417   4.519   2.959   5.284
 4173SOL    HW113418   4.589   2.983   5.217
 4173SOL    HW213419   4.493   2.863   5.273
 4174SOL     OW13420   4.500   0.749   4.495
 4174SOL    HW113421   4.537   0.736   4.587
 4174SOL    HW213422   4.478   0.660   4.455
 4175SOL     OW13423   1.793   4.397   6.790
 4175SOL    HW113424   1.705   4.427   6.826
 4175SOL    HW213425   1.866   4.452   6.832
 4176SOL     OW13426   4.805   6.622   6.622
 4176SOL    HW113427   4.794   6.547   6.688
 4176SOL    HW213428   4.902   6.636   6.604
 4177SOL     OW13429   4.689   4.933   4.271
 4177SOL    HW113430   4.712   5.009   4.210
 4177SOL    HW213431   4.592   4.938   4.296
 4178SOL     OW13432   3.190   5.736   2.251
 4178SOL    HW113433   3.242   5.735   2.165
 4178SOL    HW213434   3.152   5.644   2.267
 4179SOL     OW13435   5.120   2.904   4.031
 4179SOL    HW113436   5.062   2.959   4.091
 4179SOL    HW213437   5.100   2.928   3.936
 4180SOL     OW13438   5.387   3.104   0.400
 4180SOL    HW113439   5.404   3.163   0.479
 4180SOL    HW213440   5.398   3.009   0.427
 4181SOL     OW13441   5.258   0.245   5.377
 4181SOL    HW113442   5.261   0.240   5.477
 4181SOL    HW213443   5.351   0.239   5.341
 4182SOL     OW13444   0.247   6.155   4.164
 4182SOL    HW113445   0.252   6.072   4.220
 4182SOL    HW213446   0.205   6.229   4.217
 4183SOL     OW13447   2.692   1.486   2.196
 4183SOL    HW113448   2.690   1.562   2.131
 4183SOL    HW213449   2.625   1.417   2.168
 4184SOL     OW13450   3.201   6.210   3.098
 4184SOL    HW113451   3.136   6.172   3.032
 4184SOL    HW213452   3.196   6.159   3.184
 4185SOL     OW13453   6.944   3.704   3.212
 4185SOL    HW113454   6.865   3.653   3.181
 4185SOL    HW213455   6.914   3.786   3.261
 4186SOL     OW13456   1.590   5.818   6.878
 4186SOL    HW113457   1.630   5.728   6.858
 4186SOL    HW213458   1.633   5.886   6.819
 4187SOL     OW13459   1.626   3.485   6.625
 4187SOL    HW113460   1.715   3.443   6.607
 4187SOL    HW213461   1.565   3.417   6.664
 4188SOL     OW13462   4.884   0.362   6.747
 4188SOL    HW113463   4.858   0.278   6.700
 4188SOL    HW213464   4.946   0.415   6.690
 4189SOL     OW13465   4.852   6.014   2.761
 4189SOL    HW113466   4.860   5.931   2.706
 4189SOL    HW213467   4.872   5.993   2.856
 4190SOL     OW13468   0.470   0.033   0.852
 4190SOL    HW113469   0.438   6.979   0.798
 4190SOL    HW213470   0.492   0.109   0.791
 4191SOL     OW13471   4.922   4.264   6.015
 4191SOL    HW113472   4.824   4.277   5.999
 4191SOL    HW213473   4.942   4.166   6.019
 4192SOL     OW13474   1.219   2.097   2.331
 4192SOL    HW113475   1.249   2.128   2.241
 4192SOL    HW213476   1.297   2.093   2.392
 4193SOL     OW13477   6.048   0.698   1.118
 4193SOL    HW113478   6.094   0.707   1.206
 4193SOL    HW213479   6.111   0.722   1.044
 4194SOL     OW13480   4.531   0.953   5.409
 4194SOL    HW113481   4.570   0.906   5.488
 4194SOL    HW213482   4.605   0.989   5.352
 4195SOL     OW13483   4.441   6.196   1.705
 4195SOL    HW113484   4.370   6.126   1.705
 4195SOL    HW213485   4.501   6.182   1.784
 4196SOL     OW13486   6.502   2.081   3.487
 4196SOL    HW113487   6.567   2.045   3.420
 4196SOL    HW213488   6.415   2.101   3.442
 4197SOL     OW13489   3.643   6.325   6.347
 4197SOL    HW113490   3.628   6.418   6.381
 4197SOL    HW213491   3.567   6.267   6.376
 4198SOL     OW13492   6.649   0.375   2.357
 4198SOL    HW113493   6.550   0.362   2.356
 4198SOL    HW213494   6.672   0.465   2.321
 4199SOL     OW13495   1.328   4.288   6.260
 4199SOL    HW113496   1.241   4.288   6.210
 4199SOL    HW213497   1.317   4.240   6.347
 4200SOL     OW13498   4.343   0.604   5.344
 4200SOL    HW113499   4.332   0.682   5.405
 4200SOL    HW213500   4.339   0.636   5.249
 4201SOL     OW13501   6.244   6.834   4.086
 4201SOL    HW113502   6.226   6.850   4.184
 4201SOL    HW213503   6.338   6.862   4.065
 4202SOL     OW13504   3.700   6.001   0.348
 4202SOL    HW113505   3.673   5.946   0.427
 4202SOL    HW213506   3.753   5.946   0.284
 4203SOL     OW13507   5.746   5.202   0.306
 4203SOL    HW113508   5.656   5.215   0.346
 4203SOL    HW213509   5.787   5.118   0.342
 4204SOL     OW13510   3.345   3.661   5.727
 4204SOL    HW113511   3.330   3.563   5.737
 4204SOL    HW213512   3.435   3.685   5.763
 4205SOL     OW13513   3.664   5.770   5.063
 4205SOL    HW113514   3.762   5.763   5.083
 4205SOL    HW213515   3.618   5.684   5.086
 4206SOL     OW13516   1.804   1.906   4.853
 4206SOL    HW113517   1.774   1.996   4.822
 4206SOL    HW213518   1.856   1.916   4.938
 4207SOL     OW13519   2.379   2.345   1.183
 4207SOL    HW113520   2.280   2.333   1.177
 4207SOL    HW213521   2.402   2.394   1.267
 4208SOL     OW13522   1.909   3.991   5.093
 4208SOL    HW113523   2.006   3.987   5.119
 4208SOL    HW213524   1.893   3.930   5.015
 4209SOL     OW13525   0.174   5.778   2.573
 4209SOL    HW113526   0.146   5.715   2.646
 4209SOL    HW213527   0.274   5.779   2.567
 4210SOL     OW13528   4.057   3.557   4.925
 4210SOL    HW113529   3.977   3.601   4.884
 4210SOL    HW213530   4.115   3.519   4.852
 4211SOL     OW13531   3.544   2.107   5.255
 4211SOL    HW113532   3.587   2.017   5.268
 4211SOL    HW213533   3.480   2.102   5.179
 4212SOL     OW13534   0.060   1.230   3.660
 4212SOL    HW113535   0.096   1.137   3.647
 4212SOL    HW213536   0.002   1.254   3.582
 4213SOL     OW13537   3.007   1.085   2.882
 4213SOL    HW113538   2.924   1.089   2.938
 4213SOL    HW213539   2.994   1.018   2.809
 4214SOL     OW13540   0.752   5.269   4.011
 4214SOL    HW113541   0.659   5.237   4.027
 4214SOL    HW213542   0.797   5.208   3.945
 4215SOL     OW13543   4.945   6.286   4.916
 4215SOL    HW113544   4.905   6.257   4.829
 4215SOL    HW213545   5.043   6.301   4.904
 4216SOL     OW13546   1.620   0.589   3.102
 4216SOL    HW113547   1.521   0.593   3.110
 4216SOL    HW213548   1.649   0.494   3.086
 4217SOL     OW13549   1.143   6.955   1.898
 4217SOL    HW113550   1.169   6.879   1.840
 4217SOL    HW213551   1.103   0.004   1.843
 4218SOL     OW13552   3.457   1.417   1.167
 4218SOL    HW113553   3.375   1.392   1.115
 4218SOL    HW213554   3.535   1.367   1.131
 4219SOL     OW13555   4.410   6.189   4.339
 4219SOL    HW113556   4.433   6.093   4.358
 4219SOL    HW213557   4.415   6.241   4.424
 4220SOL     OW13558   5.122   2.099   1.763
 4220SOL    HW113559   5.035   2.060   1.734
 4220SOL    HW213560   5.106   2.186   1.810
 4221SOL     OW13561   6.484   5.291   6.676
 4221SOL    HW113562   6.547   5.363   6.646
 4221SOL    HW213563   6.403   5.291   6.617
 4222SOL     OW13564   5.257   2.007   3.733
 4222SOL    HW113565   5.283   1.916   3.765
 4222SOL    HW213566   5.313   2.033   3.654
 4223SOL     OW13567   4.134   3.894   1.279
 4223SOL    HW113568   4.200   3.889   1.354
 4223SOL    HW213569   4.056   3.834   1.300
 4224SOL     OW13570   5.099   3.949   4.801
 4224SOL    HW113571   5.198   3.957   4.795
 4224SOL    HW213572   5.057   4.036   4.773
 4225SOL     OW13573   0.742   2.248   5.432
 4225SOL    HW113574   0.743   2.254   5.532
 4225SOL    HW213575   0.835   2.250   5.398
 4226SOL     OW13576   0.401   5.646   4.813
 4226SOL    HW113577   0.439   5.721   4.867
 4226SOL    HW213578   0.454   5.563   4.829
 4227SOL     OW13579   4.977   5.836   1.686
 4227SOL    HW113580   4.971   5.934   1.704
 4227SOL    HW213581   5.024   5.790   1.762
 4228SOL     OW13582   0.864   5.954   4.758
 4228SOL    HW113583   0.812   5.871   4.738
 4228SOL    HW213584   0.894   5.996   4.672
 4229SOL     OW13585   5.683   5.733   5.732
 4229SOL    HW113586   5.764   5.674   5.726
 4229SOL    HW213587   5.601   5.677   5.744
 4230SOL     OW13588   1.353   6.960   2.696
 4230SOL    HW113589   1.418   7.019   2.649
 4230SOL    HW213590   1.277   7.014   2.731
 4231SOL     OW13591   5.291   0.797   5.396
 4231SOL    HW113592   5.385   0.771   5.373
 4231SOL    HW213593   5.280   0.797   5.495
 4232SOL     OW13594   2.376   5.252   3.225
 4232SOL    HW113595   2.345   5.239   3.130
 4232SOL    HW213596   2.298   5.240   3.287
 4233SOL     OW13597   6.651   6.585   4.393
 4233SOL    HW113598   6.719   6.650   4.359
 4233SOL    HW213599   6.640   6.511   4.326
 4234SOL     OW13600   1.978   5.530   5.480
 4234SOL    HW113601   1.997   5.452   5.420
 4234SOL    HW213602   2.062   5.554   5.530
 4235SOL     OW13603   6.757   4.618   5.649
 4235SOL    HW113604   6.808   4.607   5.735
 4235SOL    HW213605   6.740   4.715   5.633
 4236SOL     OW13606   0.290   5.478   2.511
 4236SOL    HW113607   0.376   5.529   2.502
 4236SOL    HW213608   0.311   5.383   2.536
 4237SOL     OW13609   6.717   3.810   4.113
 4237SOL    HW113610   6.730   3.739   4.045
 4237SOL    HW213611   6.761   3.894   4.082
 4238SOL     OW13612   1.414   0.848   3.299
 4238SOL    HW113613   1.372   0.758   3.297
 4238SOL    HW213614   1.413   0.887   3.207
 4239SOL     OW13615   4.543   0.898   2.977
 4239SOL    HW113616   4.479   0.862   2.909
 4239SOL    HW213617   4.581   0.984   2.944
 4240SOL     OW13618   1.639   5.293   0.091
 4240SOL    HW113619   1.673   5.200   0.083
 4240SOL    HW213620   1.583   5.301   0.174
 4241SOL     OW13621   6.959   1.583   0.772
 4241SOL    HW113622   6.977   1.488   0.796
 4241SOL    HW213623   6.925   1.587   0.678
 4242SOL     OW13624   2.496   2.535   4.143
 4242SOL    HW113625   2.417   2.474   4.146
 4242SOL    HW213626   2.579   2.482   4.160
 4243SOL     OW13627   5.202   0.962   2.691
 4243SOL    HW113628   5.217   0.935   2.596
 4243SOL    HW213629   5.106   0.948   2.716
 4244SOL     OW13630   3.598   3.677   1.752
 4244SOL    HW113631   3.587   3.691   1.654
 4244SOL    HW213632   3.542   3.743   1.802
 4245SOL     OW13633   6.882   1.852   6.142
 4245SOL    HW113634   6.880   1.918   6.217
 4245SOL    HW213635   6.838   1.892   6.061
 4246SOL     OW13636   6.522   4.059   3.089
 4246SOL    HW113637   6.605   4.010   3.063
 4246SOL    HW213638   6.511   4.139   3.030
 4247SOL     OW13639   0.162   6.375   4.643
 4247SOL    HW113640   0.191   6.441   4.574
 4247SOL    HW213641   0.165   6.418   4.734
 4248SOL     OW13642   1.528   2.364   5.181
 4248SOL    HW113643   1.565   2.271   5.193
 4248SOL    HW213644   1.553   2.398   5.091
 4249SOL     OW13645   6.692   2.954   5.692
 4249SOL    HW113646   6.607   2.918   5.731
 4249SOL    HW213647   6.674   2.990   5.600
 4250SOL     OW13648   0.245   4.497   3.601
 4250SOL    HW113649   0.200   4.478   3.689
 4250SOL    HW213650   0.248   4.596   3.586
 4251SOL     OW13651   5.968   4.090   0.600
 4251SOL    HW113652   6.014   4.153   0.663
 4251SOL    HW213653   5.885   4.055   0.643
 4252SOL     OW13654   6.354   6.059   4.928
 4252SOL    HW113655   6.404   6.125   4.872
 4252SOL    HW213656   6.391   5.968   4.913
 4253SOL     OW13657   3.832   0.625   1.981
 4253SOL    HW113658   3.847   0.535   1.940
 4253SOL    HW213659   3.778   0.682   1.918
 4254SOL     OW13660   1.686   3.112   1.750
 4254SOL    HW113661   1.609   3.097   1.812
 4254SOL    HW213662   1.653   3.159   1.668
 4255SOL     OW13663   6.282   2.466   3.697
 4255SOL    HW113664   6.288   2.366   3.709
 4255SOL    HW213665   6.369   2.507   3.725
 4256SOL     OW13666   1.584   6.651   1.370
 4256SOL    HW113667   1.596   6.574   1.433
 4256SOL    HW213668   1.487   6.659   1.346
 4257SOL     OW13669   3.356   1.660   5.654
 4257SOL    HW113670   3.432   1.620   5.706
 4257SOL    HW213671   3.370   1.758   5.645
 4258SOL     OW13672   5.957   6.606   2.299
 4258SOL    HW113673   5.973   6.550   2.380
 4258SOL    HW213674   5.998   6.563   2.219
 4259SOL     OW13675   2.229   1.277   6.578
 4259SOL    HW113676   2.314   1.276   6.630
 4259SOL    HW213677   2.250   1.293   6.481
 4260SOL     OW13678   4.285   5.839   3.894
 4260SOL    HW113679   4.359   5.905   3.909
 4260SOL    HW213680   4.200   5.888   3.876
 4261SOL     OW13681   2.654   0.070   1.510
 4261SOL    HW113682   2.598   0.025   1.579
 4261SOL    HW213683   2.743   0.092   1.550
 4262SOL     OW13684   1.528   5.215   5.581
 4262SOL    HW113685   1.459   5.204   5.653
 4262SOL    HW213686   1.572   5.304   5.591
 4263SOL     OW13687   2.792   6.429   4.571
 4263SOL    HW113688   2.745   6.502   4.620
 4263SOL    HW213689   2.889   6.427   4.598
 4264SOL     OW13690   0.172   1.716   0.675
 4264SOL    HW113691   0.202   1.810   0.691
 4264SOL    HW213692   0.089   1.698   0.727
 4265SOL     OW13693   6.530   1.883   7.004
 4265SOL    HW113694   6.577   1.885   6.916
 4265SOL    HW213695   6.592   1.847   0.050
 4266SOL     OW13696   2.955   5.359   0.133
 4266SOL    HW113697   2.927   5.385   0.041
 4266SOL    HW213698   2.874   5.345   0.191
 4267SOL     OW13699   2.112   3.803   4.925
 4267SOL    HW113700   2.184   3.854   4.973
 4267SOL    HW213701   2.124   3.813   4.827
 4268SOL     OW13702   1.382   6.591   0.246
 4268SOL    HW113703   1.439   6.658   0.293
 4268SOL    HW213704   1.439   6.518   0.210
 4269SOL     OW13705   2.120   2.156   0.367
 4269SOL    HW113706   2.215   2.127   0.378
 4269SOL    HW213707   2.060   2.099   0.423
 4270SOL     OW13708   3.937   3.223   4.670
 4270SOL    HW113709   3.910   3.165   4.747
 4270SOL    HW213710   3.875   3.209   4.593
 4271SOL     OW13711   0.126   0.129   5.537
 4271SOL    HW113712   0.158   0.165   5.625
 4271SOL    HW213713   0.084   0.203   5.484
 4272SOL     OW13714   6.899   5.067   4.687
 4272SOL    HW113715   6.823   5.072   4.753
 4272SOL    HW213716   6.889   5.139   4.618
 4273SOL     OW13717   4.470   6.346   4.583
 4273SOL    HW113718   4.547   6.410   4.591
 4273SOL    HW213719   4.478   6.276   4.653
 4274SOL     OW13720   0.642   0.086   3.360
 4274SOL    HW113721   0.627   0.119   3.266
 4274SOL    HW213722   0.561   0.037   3.391
 4275SOL     OW13723   6.869   0.719   5.743
 4275SOL    HW113724   6.810   0.651   5.700
 4275SOL    HW213725   6.850   0.723   5.841
 4276SOL     OW13726   1.603   5.413   2.582
 4276SOL    HW113727   1.626   5.510   2.575
 4276SOL    HW213728   1.506   5.400   2.559
 4277SOL     OW13729   6.929   4.340   3.855
 4277SOL    HW113730   6.934   4.274   3.779
 4277SOL    HW213731   6.842   4.390   3.848
 4278SOL     OW13732   6.798   6.787   5.069
 4278SOL    HW113733   6.786   6.780   4.970
 4278SOL    HW213734   6.734   6.854   5.106
 4279SOL     OW13735   3.482   6.445   5.689
 4279SOL    HW113736   3.391   6.404   5.685
 4279SOL    HW213737   3.501   6.474   5.783
 4280SOL     OW13738   5.763   1.355   5.406
 4280SOL    HW113739   5.680   1.367   5.460
 4280SOL    HW213740   5.841   1.396   5.454
 4281SOL     OW13741   1.833   4.912   4.505
 4281SOL    HW113742   1.879   4.823   4.503
 4281SOL    HW213743   1.735   4.898   4.493
 4282SOL     OW13744   2.584   2.179   6.979
 4282SOL    HW113745   2.569   2.082   7.001
 4282SOL    HW213746   2.522   2.206   6.906
 4283SOL     OW13747   1.584   0.407   3.737
 4283SOL    HW113748   1.502   0.377   3.786
 4283SOL    HW213749   1.665   0.364   3.777
 4284SOL     OW13750   5.451   0.058   2.562
 4284SOL    HW113751   5.450   0.130   2.492
 4284SOL    HW213752   5.364   0.008   2.559
 4285SOL     OW13753   0.297   0.170   6.122
 4285SOL    HW113754   0.205   0.194   6.150
 4285SOL    HW213755   0.317   0.076   6.151
 4286SOL     OW13756   5.059   5.370   6.361
 4286SOL    HW113757   5.054   5.334   6.267
 4286SOL    HW213758   5.154   5.363   6.393
 4287SOL     OW13759   5.857   0.672   4.979
 4287SOL    HW113760   5.887   0.739   5.048
 4287SOL    HW213761   5.925   0.666   4.906
 4288SOL     OW13762   0.707   6.625   3.353
 4288SOL    HW113763   0.755   6.538   3.362
 4288SOL    HW213764   0.758   6.696   3.402
 4289SOL     OW13765   5.567   2.603   2.076
 4289SOL    HW113766   5.492   2.648   2.028
 4289SOL    HW213767   5.646   2.665   2.078
 4290SOL     OW13768   2.333   6.760   1.211
 4290SOL    HW113769   2.284   6.747   1.125
 4290SOL    HW213770   2.415   6.815   1.194
 4291SOL     OW13771   4.951   3.338   1.419
 4291SOL    HW113772   4.947   3.362   1.515
 4291SOL    HW213773   4.931   3.240   1.408
 4292SOL     OW13774   5.964   4.726   5.410
 4292SOL    HW113775   6.006   4.749   5.498
 4292SOL    HW213776   5.900   4.798   5.385
 4293SOL     OW13777   6.499   4.004   6.454
 4293SOL    HW113778   6.549   3.932   6.502
 4293SOL    HW213779   6.531   4.009   6.359
 4294SOL     OW13780   4.416   3.029   6.850
 4294SOL    HW113781   4.327   3.049   6.891
 4294SOL    HW213782   4.477   2.991   6.919
 4295SOL     OW13783   4.039   0.321   4.608
 4295SOL    HW113784   4.101   0.391   4.643
 4295SOL    HW213785   3.996   0.274   4.684
 4296SOL     OW13786   2.368   2.044   0.408
 4296SOL    HW113787   2.369   1.954   0.450
 4296SOL    HW213788   2.385   2.035   0.310
 4297SOL     OW13789   4.890   6.843   5.423
 4297SOL    HW113790   4.950   6.909   5.379
 4297SOL    HW213791   4.882   6.761   5.366
 4298SOL     OW13792   1.523   5.301   0.326
 4298SOL    HW113793   1.496   5.395   0.307
 4298SOL    HW213794   1.451   5.254   0.377
 4299SOL     OW13795   1.321   3.157   6.165
 4299SOL    HW113796   1.307   3.067   6.124
 4299SOL    HW213797   1.331   3.148   6.264
 4300SOL     OW13798   2.892   1.084   5.991
 4300SOL    HW113799   2.930   1.131   5.912
 4300SOL    HW213800   2.814   1.135   6.026
 4301SOL     OW13801   2.884   1.457   0.345
 4301SOL    HW113802   2.839   1.545   0.329
 4301SOL    HW213803   2.824   1.383   0.315
 4302SOL     OW13804   1.421   6.340   5.978
 4302SOL    HW113805   1.341   6.311   5.925
 4302SOL    HW213806   1.419   6.439   5.989
 4303SOL     OW13807   6.374   4.460   2.781
 4303SOL    HW113808   6.435   4.422   2.711
 4303SOL    HW213809   6.337   4.386   2.837
 4304SOL     OW13810   3.214   3.437   4.352
 4304SOL    HW113811   3.246   3.525   4.317
 4304SOL    HW213812   3.125   3.415   4.313
 4305SOL     OW13813   6.066   1.579   3.545
 4305SOL    HW113814   6.127   1.499   3.542
 4305SOL    HW213815   6.011   1.581   3.461
 4306SOL     OW13816   0.262   3.511   6.538
 4306SOL    HW113817   0.186   3.530   6.600
 4306SOL    HW213818   0.296   3.419   6.555
 4307SOL     OW13819   4.742   4.346   5.391
 4307SOL    HW113820   4.782   4.254   5.384
 4307SOL    HW213821   4.713   4.363   5.486
 4308SOL     OW13822   4.921   6.056   5.883
 4308SOL    HW113823   4.834   6.081   5.841
 4308SOL    HW213824   4.906   6.036   5.980
 4309SOL     OW13825   0.990   0.183   0.272
 4309SOL    HW113826   0.966   0.277   0.294
 4309SOL    HW213827   0.908   0.131   0.250
 4310SOL     OW13828   1.603   2.468   4.134
 4310SOL    HW113829   1.617   2.527   4.055
 4310SOL    HW213830   1.531   2.507   4.192
 4311SOL     OW13831   1.278   6.362   3.186
 4311SOL    HW113832   1.223   6.405   3.258
 4311SOL    HW213833   1.220   6.301   3.132
 4312SOL     OW13834   1.054   5.831   1.506
 4312SOL    HW113835   1.025   5.747   1.461
 4312SOL    HW213836   1.152   5.826   1.525
 4313SOL     OW13837   5.567   1.265   1.629
 4313SOL    HW113838   5.578   1.174   1.669
 4313SOL    HW213839   5.638   1.326   1.664
 4314SOL     OW13840   4.686   2.750   3.130
 4314SOL    HW113841   4.643   2.757   3.041
 4314SOL    HW213842   4.628   2.698   3.192
 4315SOL     OW13843   2.558   0.445   2.248
 4315SOL    HW113844   2.507   0.530   2.254
 4315SOL    HW213845   2.502   0.375   2.203
 4316SOL     OW13846   5.009   0.182   0.986
 4316SOL    HW113847   5.021   0.177   1.085
 4316SOL    HW213848   5.096   0.163   0.941
 4317SOL     OW13849   3.240   1.126   5.380
 4317SOL    HW113850   3.277   1.048   5.330
 4317SOL    HW213851   3.156   1.099   5.428
 4318SOL     OW13852   0.911   3.534   3.783
 4318SOL    HW113853   0.873   3.485   3.705
 4318SOL    HW213854   0.870   3.500   3.867
 4319SOL     OW13855   2.319   3.512   6.771
 4319SOL    HW113856   2.287   3.445   6.704
 4319SOL    HW213857   2.406   3.550   6.742
 4320SOL     OW13858   1.501   6.329   2.148
 4320SOL    HW113859   1.446   6.291   2.222
 4320SOL    HW213860   1.560   6.401   2.184
 4321SOL     OW13861   6.117   1.004   4.733
 4321SOL    HW113862   6.030   1.054   4.738
 4321SOL    HW213863   6.099   0.907   4.717
 4322SOL     OW13864   6.570   1.324   6.391
 4322SOL    HW113865   6.604   1.382   6.465
 4322SOL    HW213866   6.470   1.324   6.392
 4323SOL     OW13867   5.491   3.331   2.208
 4323SOL    HW113868   5.457   3.399   2.143
 4323SOL    HW213869   5.505   3.244   2.161
 4324SOL     OW13870   5.694   4.403   6.927
 4324SOL    HW113871   5.679   4.484   6.983
 4324SOL    HW213872   5.728   4.329   6.984
 4325SOL     OW13873   1.477   0.992   0.468
 4325SOL    HW113874   1.561   0.952   0.504
 4325SOL    HW213875   1.440   1.058   0.533
 4326SOL     OW13876   6.596   2.882   5.289
 4326SOL    HW113877   6.653   2.952   5.246
 4326SOL    HW213878   6.652   2.821   5.344
 4327SOL     OW13879   5.845   5.393   2.430
 4327SOL    HW113880   5.788   5.315   2.455
 4327SOL    HW213881   5.804   5.477   2.468
 4328SOL     OW13882   4.437   4.863   5.508
 4328SOL    HW113883   4.503   4.806   5.557
 4328SOL    HW213884   4.349   4.859   5.555
 4329SOL     OW13885   3.262   1.650   6.220
 4329SOL    HW113886   3.183   1.658   6.281
 4329SOL    HW213887   3.260   1.723   6.152
 4330SOL     OW13888   2.568   0.310   5.540
 4330SOL    HW113889   2.541   0.338   5.447
 4330SOL    HW213890   2.638   0.240   5.534
 4331SOL     OW13891   5.166   3.360   1.250
 4331SOL    HW113892   5.086   3.342   1.308
 4331SOL    HW213893   5.191   3.276   1.202
 4332SOL     OW13894   5.106   3.831   2.031
 4332SOL    HW113895   5.183   3.861   2.087
 4332SOL    HW213896   5.038   3.786   2.090
 4333SOL     OW13897   5.186   1.530   5.401
 4333SOL    HW113898   5.151   1.469   5.330
 4333SOL    HW213899   5.207   1.620   5.361
 4334SOL     OW13900   2.747   2.132   1.928
 4334SOL    HW113901   2.683   2.149   1.853
 4334SOL    HW213902   2.808   2.211   1.939
 4335SOL     OW13903   2.888   3.326   3.628
 4335SOL    HW113904   2.902   3.424   3.641
 4335SOL    HW213905   2.890   3.305   3.530
 4336SOL     OW13906   1.414   6.738   5.362
 4336SOL    HW113907   1.413   6.653   5.414
 4336SOL    HW213908   1.425   6.717   5.265
 4337SOL     OW13909   0.840   4.825   0.195
 4337SOL    HW113910   0.874   4.876   0.116
 4337SOL    HW213911   0.789   4.887   0.255
 4338SOL     OW13912   5.221   5.391   4.820
 4338SOL    HW113913   5.148   5.448   4.782
 4338SOL    HW213914   5.208   5.381   4.918
 4339SOL     OW13915   5.805   2.544   5.084
 4339SOL    HW113916   5.785   2.613   5.015
 4339SOL    HW213917   5.721   2.524   5.135
 4340SOL     OW13918   6.302   3.556   2.354
 4340SOL    HW113919   6.204   3.552   2.335
 4340SOL    HW213920   6.353   3.531   2.272
 4341SOL     OW13921   1.281   3.830   2.157
 4341SOL    HW113922   1.272   3.862   2.063
 4341SOL    HW213923   1.370   3.857   2.193
 4342SOL     OW13924   6.528   2.885   3.494
 4342SOL    HW113925   6.472   2.802   3.496
 4342SOL    HW213926   6.597   2.877   3.422
 4343SOL     OW13927   3.407   0.361   7.015
 4343SOL    HW113928   3.462   0.436   0.029
 4343SOL    HW213929   3.468   0.287   6.986
 4344SOL     OW13930   1.582   5.132   3.304
 4344SOL    HW113931   1.492   5.090   3.293
 4344SOL    HW213932   1.595   5.158   3.399
 4345SOL     OW13933   1.489   3.204   5.466
 4345SOL    HW113934   1.539   3.174   5.547
 4345SOL    HW213935   1.554   3.240   5.398
 4346SOL     OW13936   2.303   3.038   1.539
 4346SOL    HW113937   2.331   3.133   1.549
 4346SOL    HW213938   2.260   3.024   1.450
 4347SOL     OW13939   0.044   0.886   1.664
 4347SOL    HW113940   0.084   0.939   1.589
 4347SOL    HW213941   6.981   0.846   1.633
 4348SOL     OW13942   7.023   3.253   2.565
 4348SOL    HW113943   0.098   3.238   2.558
 4348SOL    HW213944   6.976   3.166   2.559
 4349SOL     OW13945   0.401   1.655   2.817
 4349SOL    HW113946   0.368   1.625   2.727
 4349SOL    HW213947   0.404   1.576   2.879
 4350SOL     OW13948   4.502   2.224   4.342
 4350SOL    HW113949   4.455   2.310   4.323
 4350SOL    HW213950   4.576   2.241   4.407
 4351SOL     OW13951   2.292   6.637   1.719
 4351SOL    HW113952   2.247   6.548   1.723
 4351SOL    HW213953   2.352   6.641   1.639
 4352SOL     OW13954   0.479   2.243   1.713
 4352SOL    HW113955   0.511   2.334   1.737
 4352SOL    HW213956   0.380   2.237   1.731
 4353SOL     OW13957   2.762   5.555   1.109
 4353SOL    HW113958   2.739   5.646   1.143
 4353SOL    HW213959   2.696   5.488   1.144
 4354SOL     OW13960   1.909   6.478   6.668
 4354SOL    HW113961   1.865   6.560   6.704
 4354SOL    HW213962   1.854   6.398   6.691
 4355SOL     OW13963   3.781   0.347   1.909
 4355SOL    HW113964   3.855   0.323   1.846
 4355SOL    HW213965   3.694   0.315   1.873
 4356SOL     OW13966   4.636   4.293   1.629
 4356SOL    HW113967   4.671   4.211   1.583
 4356SOL    HW213968   4.567   4.265   1.696
 4357SOL     OW13969   5.923   0.472   0.084
 4357SOL    HW113970   5.936   0.512   7.017
 4357SOL    HW213971   5.849   0.520   0.132
 4358SOL     OW13972   6.883   6.334   0.531
 4358SOL    HW113973   6.882   6.234   0.529
 4358SOL    HW213974   6.799   6.369   0.490
 4359SOL     OW13975   1.486   2.208   4.483
 4359SOL    HW113976   1.526   2.174   4.568
 4359SOL    HW213977   1.546   2.278   4.443
 4360SOL     OW13978   1.112   3.890   2.463
 4360SOL    HW113979   1.084   3.963   2.525
 4360SOL    HW213980   1.211   3.879   2.468
 4361SOL     OW13981   3.384   2.967   1.491
 4361SOL    HW113982   3.307   2.911   1.461
 4361SOL    HW213983   3.469   2.928   1.455
 4362SOL     OW13984   6.009   3.864   5.613
 4362SOL    HW113985   5.924   3.828   5.575
 4362SOL    HW213986   6.000   3.963   5.624
 4363SOL     OW13987   4.708   2.076   5.963
 4363SOL    HW113988   4.734   2.011   6.034
 4363SOL    HW213989   4.608   2.076   5.953
 4364SOL     OW13990   2.908   3.695   5.499
 4364SOL    HW113991   2.911   3.787   5.537
 4364SOL    HW213992   3.001   3.663   5.480
 4365SOL     OW13993   2.973   1.432   2.461
 4365SOL    HW113994   2.969   1.493   2.383
 4365SOL    HW213995   2.942   1.341   2.434
 4366SOL     OW13996   6.035   6.593   1.089
 4366SOL    HW113997   6.132   6.608   1.067
 4366SOL    HW213998   5.999   6.520   1.031
 4367SOL     OW13999   0.919   4.841   4.970
 4367SOL    HW114000   0.925   4.742   4.978
 4367SOL    HW214001   1.008   4.882   4.991
 4368SOL     OW14002   4.563   5.131   1.148
 4368SOL    HW114003   4.636   5.186   1.105
 4368SOL    HW214004   4.478   5.183   1.148
 4369SOL     OW14005   5.087   5.667   2.464
 4369SOL    HW114006   5.146   5.614   2.403
 4369SOL    HW214007   5.021   5.719   2.410
 4370SOL     OW14008   5.715   4.797   3.006
 4370SOL    HW114009   5.804   4.753   3.017
 4370SOL    HW214010   5.691   4.845   3.091
 4371SOL     OW14011   6.279   0.477   1.772
 4371SOL    HW114012   6.292   0.451   1.676
 4371SOL    HW214013   6.368   0.499   1.813
 4372SOL     OW14014   4.748   1.126   2.842
 4372SOL    HW114015   4.702   1.152   2.927
 4372SOL    HW214016   4.732   1.195   2.772
 4373SOL     OW14017   6.811   2.928   6.777
 4373SOL    HW114018   6.772   2.887   6.859
 4373SOL    HW214019   6.815   2.860   6.704
 4374SOL     OW14020   1.472   2.091   1.705
 4374SOL    HW114021   1.447   2.179   1.744
 4374SOL    HW214022   1.562   2.064   1.739
 4375SOL     OW14023   2.609   6.891   4.140
 4375SOL    HW114024   2.676   6.897   4.214
 4375SOL    HW214025   2.528   6.843   4.172
 4376SOL     OW14026   6.498   0.011   2.214
 4376SOL    HW114027   6.543   7.013   2.127
 4376SOL    HW214028   6.568   0.025   2.284
 4377SOL     OW14029   5.453   3.862   0.287
 4377SOL    HW114030   5.531   3.817   0.244
 4377SOL    HW214031   5.368   3.831   0.244
 4378SOL     OW14032   2.299   0.706   3.202
 4378SOL    HW114033   2.211   0.752   3.216
 4378SOL    HW214034   2.323   0.708   3.105
 4379SOL     OW14035   2.572   1.159   4.312
 4379SOL    HW114036   2.525   1.119   4.390
 4379SOL    HW214037   2.643   1.221   4.344
 4380SOL     OW14038   1.401   1.087   1.620
 4380SOL    HW114039   1.426   1.024   1.693
 4380SOL    HW214040   1.357   1.036   1.546
 4381SOL     OW14041   1.483   5.782   5.136
 4381SOL    HW114042   1.419   5.705   5.130
 4381SOL    HW214043   1.493   5.823   5.045
 4382SOL     OW14044   6.746   3.134   6.025
 4382SOL    HW114045   6.733   3.219   6.075
 4382SOL    HW214046   6.839   3.101   6.038
 4383SOL     OW14047   5.777   3.409   6.240
 4383SOL    HW114048   5.751   3.460   6.322
 4383SOL    HW214049   5.744   3.457   6.159
 4384SOL     OW14050   6.570   0.882   3.477
 4384SOL    HW114051   6.646   0.933   3.517
 4384SOL    HW214052   6.536   0.929   3.396
 4385SOL     OW14053   4.492   2.062   4.734
 4385SOL    HW114054   4.434   2.064   4.652
 4385SOL    HW214055   4.465   2.135   4.796
 4386SOL     OW14056   1.011   4.059   6.086
 4386SOL    HW114057   1.076   4.030   6.016
 4386SOL    HW214058   1.039   4.023   6.175
 4387SOL     OW14059   6.171   2.890   1.476
 4387SOL    HW114060   6.145   2.984   1.495
 4387SOL    HW214061   6.138   2.864   1.385
 4388SOL     OW14062   5.708   2.120   6.231
 4388SOL    HW114063   5.718   2.021   6.223
 4388SOL    HW214064   5.677   2.158   6.144
 4389SOL     OW14065   6.710   3.623   1.660
 4389SOL    HW114066   6.765   3.707   1.656
 4389SOL    HW214067   6.768   3.544   1.641
 4390SOL     OW14068   5.589   6.828   0.570
 4390SOL    HW114069   5.547   6.917   0.550
 4390SOL    HW214070   5.688   6.835   0.556
 4391SOL     OW14071   1.977   5.097   6.516
 4391SOL    HW114072   2.007   5.013   6.471
 4391SOL    HW214073   1.889   5.126   6.477
 4392SOL     OW14074   0.776   1.809   4.271
 4392SOL    HW114075   0.838   1.735   4.244
 4392SOL    HW214076   0.682   1.784   4.247
 4393SOL     OW14077   6.295   0.318   2.050
 4393SOL    HW114078   6.220   0.350   1.993
 4393SOL    HW214079   6.280   0.222   2.073
 4394SOL     OW14080   1.168   0.386   1.167
 4394SOL    HW114081   1.198   0.327   1.092
 4394SOL    HW214082   1.145   0.477   1.132
 4395SOL     OW14083   1.863   0.230   1.780
 4395SOL    HW114084   1.771   0.243   1.743
 4395SOL    HW214085   1.928   0.221   1.704
 4396SOL     OW14086   1.487   1.536   3.858
 4396SOL    HW114087   1.390   1.512   3.858
 4396SOL    HW214088   1.530   1.501   3.775
 4397SOL     OW14089   2.192   2.961   3.754
 4397SOL    HW114090   2.127   2.961   3.678
 4397SOL    HW214091   2.171   3.037   3.816
 4398SOL     OW14092   1.715   3.592   6.207
 4398SOL    HW114093   1.676   3.654   6.139
 4398SOL    HW214094   1.815   3.597   6.204
 4399SOL     OW14095   1.952   5.888   1.569
 4399SOL    HW114096   2.035   5.875   1.514
 4399SOL    HW214097   1.976   5.935   1.654
 4400SOL     OW14098   1.463   6.509   3.780
 4400SOL    HW114099   1.387   6.537   3.722
 4400SOL    HW214100   1.516   6.438   3.733
 4401SOL     OW14101   3.648   6.489   5.386
 4401SOL    HW114102   3.656   6.583   5.354
 4401SOL    HW214103   3.686   6.426   5.319
 4402SOL     OW14104   1.293   0.371   2.104
 4402SOL    HW114105   1.286   0.444   2.171
 4402SOL    HW214106   1.350   0.297   2.140
 4403SOL     OW14107   0.652   5.600   0.968
 4403SOL    HW114108   0.570   5.634   1.014
 4403SOL    HW214109   0.689   5.523   1.019
 4404SOL     OW14110   1.029   5.502   5.308
 4404SOL    HW114111   1.098   5.503   5.380
 4404SOL    HW214112   1.009   5.407   5.283
 4405SOL     OW14113   2.695   4.955   3.157
 4405SOL    HW114114   2.601   4.933   3.128
 4405SOL    HW214115   2.749   4.871   3.162
 4406SOL     OW14116   6.827   3.360   1.416
 4406SOL    HW114117   6.768   3.369   1.335
 4406SOL    HW214118   6.870   3.447   1.436
 4407SOL     OW14119   0.393   5.803   1.633
 4407SOL    HW114120   0.425   5.829   1.542
 4407SOL    HW214121   0.349   5.882   1.676
 4408SOL     OW14122   3.427   6.102   6.923
 4408SOL    HW114123   3.371   6.176   6.961
 4408SOL    HW214124   3.494   6.073   6.992
 4409SOL     OW14125   4.002   0.764   2.272
 4409SOL    HW114126   3.933   0.693   2.284
 4409SOL    HW214127   3.984   0.814   2.188
 4410SOL     OW14128   0.207   6.296   0.910
 4410SOL    HW114129   0.125   6.243   0.929
 4410SOL    HW214130   0.287   6.237   0.914
 4411SOL     OW14131   3.372   4.869   5.538
 4411SOL    HW114132   3.440   4.823   5.596
 4411SOL    HW214133   3.351   4.811   5.460
 4412SOL     OW14134   5.323   0.041   4.091
 4412SOL    HW114135   5.282   0.121   4.048
 4412SOL    HW214136   5.253   6.993   4.101
 4413SOL     OW14137   3.919   6.752   4.235
 4413SOL    HW114138   4.004   6.701   4.224
 4413SOL    HW214139   3.875   6.764   4.146
 4414SOL     OW14140   4.777   5.277   1.474
 4414SOL    HW114141   4.776   5.288   1.574
 4414SOL    HW214142   4.690   5.310   1.437
 4415SOL     OW14143   3.498   4.129   1.330
 4415SOL    HW114144   3.414   4.146   1.278
 4415SOL    HW214145   3.487   4.046   1.384
 4416SOL     OW14146   3.812   1.489   4.319
 4416SOL    HW114147   3.840   1.440   4.236
 4416SOL    HW214148   3.738   1.552   4.297
 4417SOL     OW14149   6.414   2.586   4.154
 4417SOL    HW114150   6.496   2.529   4.167
 4417SOL    HW214151   6.417   2.664   4.216
 4418SOL     OW14152   6.345   1.488   1.489
 4418SOL    HW114153   6.420   1.536   1.536
 4418SOL    HW214154   6.260   1.501   1.540
 4419SOL     OW14155   6.166   6.027   6.191
 4419SOL    HW114156   6.138   6.020   6.287
 4419SOL    HW214157   6.096   5.984   6.133
 4420SOL     OW14158   3.952   2.192   1.491
 4420SOL    HW114159   3.871   2.163   1.541
 4420SOL    HW214160   4.007   2.112   1.467
 4421SOL     OW14161   0.805   3.224   5.017
 4421SOL    HW114162   0.856   3.272   4.945
 4421SOL    HW214163   0.869   3.179   5.079
 4422SOL     OW14164   1.188   5.052   6.676
 4422SOL    HW114165   1.142   5.035   6.589
 4422SOL    HW214166   1.271   4.997   6.681
 4423SOL     OW14167   6.226   4.574   5.666
 4423SOL    HW114168   6.203   4.528   5.580
 4423SOL    HW214169   6.324   4.566   5.684
 4424SOL     OW14170   4.890   5.716   4.217
 4424SOL    HW114171   4.896   5.712   4.118
 4424SOL    HW214172   4.938   5.797   4.251
 4425SOL     OW14173   2.022   5.194   1.038
 4425SOL    HW114174   1.964   5.244   1.102
 4425SOL    HW214175   2.092   5.256   1.001
 4426SOL     OW14176   0.663   0.595   3.758
 4426SOL    HW114177   0.583   0.650   3.784
 4426SOL    HW214178   0.653   0.503   3.795
 4427SOL     OW14179   3.610   6.568   2.767
 4427SOL    HW114180   3.655   6.557   2.678
 4427SOL    HW214181   3.564   6.483   2.792
 4428SOL     OW14182   5.034   0.737   4.564
 4428SOL    HW114183   5.046   0.670   4.491
 4428SOL    HW214184   5.117   0.793   4.572
 4429SOL     OW14185   3.349   6.783   3.545
 4429SOL    HW114186   3.278   6.745   3.604
 4429SOL    HW214187   3.308   6.817   3.461
 4430SOL     OW14188   5.905   4.547   4.153
 4430SOL    HW114189   5.999   4.536   4.187
 4430SOL    HW214190   5.906   4.602   4.070
 4431SOL     OW14191   3.267   0.440   3.671
 4431SOL    HW114192   3.246   0.367   3.607
 4431SOL    HW214193   3.232   0.527   3.636
 4432SOL     OW14194   1.966   3.673   6.530
 4432SOL    HW114195   1.892   3.714   6.584
 4432SOL    HW214196   2.016   3.744   6.481
 4433SOL     OW14197   0.933   1.798   5.005
 4433SOL    HW114198   0.858   1.763   4.948
 4433SOL    HW214199   1.017   1.802   4.950
 4434SOL     OW14200   0.041   1.313   1.687
 4434SOL    HW114201   0.061   1.317   1.589
 4434SOL    HW214202   6.966   1.325   1.701
 4435SOL     OW14203   3.227   3.769   0.644
 4435SOL    HW114204   3.168   3.702   0.599
 4435SOL    HW214205   3.316   3.771   0.598
 4436SOL     OW14206   4.537   2.509   1.596
 4436SOL    HW114207   4.572   2.424   1.637
 4436SOL    HW214208   4.527   2.497   1.497
 4437SOL     OW14209   0.370   3.677   2.645
 4437SOL    HW114210   0.464   3.669   2.677
 4437SOL    HW214211   0.317   3.731   2.710
 4438SOL     OW14212   4.450   6.376   5.521
 4438SOL    HW114213   4.488   6.436   5.590
 4438SOL    HW214214   4.434   6.428   5.437
 4439SOL     OW14215   1.083   6.799   3.143
 4439SOL    HW114216   1.098   6.766   3.236
 4439SOL    HW214217   1.168   6.791   3.090
 4440SOL     OW14218   2.035   4.758   1.155
 4440SOL    HW114219   1.948   4.717   1.127
 4440SOL    HW214220   2.054   4.837   1.097
 4441SOL     OW14221   1.228   1.713   1.115
 4441SOL    HW114222   1.249   1.753   1.204
 4441SOL    HW214223   1.161   1.639   1.127
 4442SOL     OW14224   1.324   5.135   5.738
 4442SOL    HW114225   1.330   5.039   5.709
 4442SOL    HW214226   1.228   5.159   5.752
 4443SOL     OW14227   0.609   4.705   6.715
 4443SOL    HW114228   0.669   4.636   6.756
 4443SOL    HW214229   0.530   4.719   6.775
 4444SOL     OW14230   4.554   4.161   0.934
 4444SOL    HW114231   4.471   4.124   0.976
 4444SOL    HW214232   4.626   4.170   1.004
 4445SOL     OW14233   0.189   5.126   6.425
 4445SOL    HW114234   0.103   5.075   6.429
 4445SOL    HW214235   0.189   5.186   6.345
 4446SOL     OW14236   5.229   1.631   0.252
 4446SOL    HW114237   5.271   1.548   0.217
 4446SOL    HW214238   5.184   1.611   0.339
 4447SOL     OW14239   5.351   4.646   5.144
 4447SOL    HW114240   5.371   4.552   5.171
 4447SOL    HW214241   5.252   4.657   5.134
 4448SOL     OW14242   2.843   6.411   1.116
 4448SOL    HW114243   2.747   6.438   1.115
 4448SOL    HW214244   2.901   6.492   1.126
 4449SOL     OW14245   4.233   1.476   6.454
 4449SOL    HW114246   4.254   1.524   6.539
 4449SOL    HW214247   4.277   1.523   6.377
 4450SOL     OW14248   3.721   0.885   0.111
 4450SOL    HW114249   3.672   0.957   0.062
 4450SOL    HW214250   3.762   0.924   0.194
 4451SOL     OW14251   4.796   4.882   3.644
 4451SOL    HW114252   4.703   4.853   3.621
 4451SOL    HW214253   4.817   4.969   3.599
 4452SOL     OW14254   5.281   5.819   4.544
 4452SOL    HW114255   5.229   5.736   4.522
 4452SOL    HW214256   5.336   5.845   4.465
 4453SOL     OW14257   0.400   3.388   1.602
 4453SOL    HW114258   0.425   3.313   1.663
 4453SOL    HW214259   0.361   3.351   1.517
 4454SOL     OW14260   0.799   1.671   7.004
 4454SOL    HW114261   0.819   1.737   6.932
 4454SOL    HW214262   0.712   1.694   0.023
 4455SOL     OW14263   6.095   5.925   5.069
 4455SOL    HW114264   6.017   5.963   5.021
 4455SOL    HW214265   6.180   5.959   5.029
 4456SOL     OW14266   2.149   6.446   3.384
 4456SOL    HW114267   2.206   6.431   3.464
 4456SOL    HW214268   2.155   6.542   3.356
 4457SOL     OW14269   1.418   2.059   4.748
 4457SOL    HW114270   1.499   2.099   4.791
 4457SOL    HW214271   1.337   2.081   4.803
 4458SOL     OW14272   2.127   3.584   1.741
 4458SOL    HW114273   2.207   3.638   1.717
 4458SOL    HW214274   2.149   3.525   1.820
 4459SOL     OW14275   1.590   2.223   4.896
 4459SOL    HW114276   1.668   2.189   4.843
 4459SOL    HW214277   1.581   2.321   4.883
 4460SOL     OW14278   6.845   2.744   4.102
 4460SOL    HW114279   6.944   2.746   4.089
 4460SOL    HW214280   6.803   2.822   4.055
 4461SOL     OW14281   2.492   0.645   1.695
 4461SOL    HW114282   2.394   0.649   1.716
 4461SOL    HW214283   2.536   0.729   1.727
 4462SOL     OW14284   6.052   3.626   2.187
 4462SOL    HW114285   6.018   3.720   2.183
 4462SOL    HW214286   6.007   3.577   2.261
 4463SOL     OW14287   5.557   0.909   0.757
 4463SOL    HW114288   5.628   0.952   0.702
 4463SOL    HW214289   5.592   0.895   0.850
 4464SOL     OW14290   0.524   5.133   0.511
 4464SOL    HW114291   0.508   5.095   0.602
 4464SOL    HW214292   0.436   5.151   0.467
 4465SOL     OW14293   2.352   5.929   0.172
 4465SOL    HW114294   2.282   5.860   0.159
 4465SOL    HW214295   2.350   5.961   0.267
 4466SOL     OW14296   2.347   2.181   3.940
 4466SOL    HW114297   2.293   2.105   3.974
 4466SOL    HW214298   2.320   2.265   3.986
 4467SOL     OW14299   2.726   6.074   3.823
 4467SOL    HW114300   2.732   6.145   3.893
 4467SOL    HW214301   2.817   6.040   3.802
 4468SOL     OW14302   0.751   3.156   0.719
 4468SOL    HW114303   0.815   3.160   0.643
 4468SOL    HW214304   0.739   3.061   0.748
 4469SOL     OW14305   3.047   0.021   1.658
 4469SOL    HW114306   3.073   0.023   1.562
 4469SOL    HW214307   3.014   6.954   1.682
 4470SOL     OW14308   1.147   0.636   2.482
 4470SOL    HW114309   1.230   0.590   2.513
 4470SOL    HW214310   1.135   0.722   2.533
 4471SOL     OW14311   2.176   2.468   6.251
 4471SOL    HW114312   2.122   2.464   6.334
 4471SOL    HW214313   2.194   2.564   6.227
 4472SOL     OW14314   1.592   2.798   1.315
 4472SOL    HW114315   1.635   2.888   1.303
 4472SOL    HW214316   1.493   2.809   1.321
 4473SOL     OW14317   6.679   2.503   4.202
 4473SOL    HW114318   6.721   2.544   4.121
 4473SOL    HW214319   6.749   2.455   4.255
 4474SOL     OW14320   3.156   0.796   2.164
 4474SOL    HW114321   3.192   0.764   2.076
 4474SOL    HW214322   3.077   0.856   2.148
 4475SOL     OW14323   0.996   3.636   2.549
 4475SOL    HW114324   1.023   3.732   2.542
 4475SOL    HW214325   0.996   3.595   2.458
 4476SOL     OW14326   5.656   1.315   4.259
 4476SOL    HW114327   5.616   1.370   4.332
 4476SOL    HW214328   5.652   1.218   4.284
 4477SOL     OW14329   2.666   0.061   5.307
 4477SOL    HW114330   2.742   0.125   5.319
 4477SOL    HW214331   2.640   0.059   5.210
 4478SOL     OW14332   1.031   0.060   0.897
 4478SOL    HW114333   1.043   0.017   0.808
 4478SOL    HW214334   1.114   0.110   0.921
 4479SOL     OW14335   0.971   2.332   7.024
 4479SOL    HW114336   0.949   2.289   0.088
 4479SOL    HW214337   0.969   2.431   0.010
 4480SOL     OW14338   0.179   4.644   4.690
 4480SOL    HW114339   0.163   4.547   4.674
 4480SOL    HW214340   0.092   4.693   4.692
 4481SOL     OW14341   2.480   4.839   5.622
 4481SOL    HW114342   2.541   4.888   5.683
 4481SOL    HW214343   2.416   4.784   5.675
 4482SOL     OW14344   2.877   4.596   6.337
 4482SOL    HW114345   2.783   4.590   6.304
 4482SOL    HW214346   2.880   4.582   6.436
 4483SOL     OW14347   0.697   2.961   1.934
 4483SOL    HW114348   0.706   3.055   1.966
 4483SOL    HW214349   0.692   2.960   1.834
 4484SOL     OW14350   2.330   3.364   0.379
 4484SOL    HW114351   2.388   3.289   0.345
 4484SOL    HW214352   2.234   3.337   0.371
 4485SOL     OW14353   4.674   2.732   4.580
 4485SOL    HW114354   4.752   2.688   4.535
 4485SOL    HW214355   4.702   2.820   4.617
 4486SOL     OW14356   5.365   4.799   5.624
 4486SOL    HW114357   5.316   4.882   5.650
 4486SOL    HW214358   5.420   4.817   5.542
 4487SOL     OW14359   1.794   3.014   0.124
 4487SOL    HW114360   1.779   2.920   0.156
 4487SOL    HW214361   1.706   3.059   0.112
 4488SOL     OW14362   0.981   4.067   3.736
 4488SOL    HW114363   1.007   3.983   3.782
 4488SOL    HW214364   1.061   4.108   3.692
 4489SOL     OW14365   4.874   5.351   5.307
 4489SOL    HW114366   4.889   5.426   5.243
 4489SOL    HW214367   4.782   5.315   5.296
 4490SOL     OW14368   5.278   1.689   0.888
 4490SOL    HW114369   5.229   1.773   0.866
 4490SOL    HW214370   5.332   1.703   0.971
 4491SOL     OW14371   0.937   2.978   2.951
 4491SOL    HW114372   0.964   2.909   2.884
 4491SOL    HW214373   1.014   2.996   3.013
 4492SOL     OW14374   5.484   0.939   1.667
 4492SOL    HW114375   5.577   0.905   1.683
 4492SOL    HW214376   5.455   0.993   1.746
 4493SOL     OW14377   5.278   6.695   4.985
 4493SOL    HW114378   5.301   6.790   4.965
 4493SOL    HW214379   5.359   6.648   5.019
 4494SOL     OW14380   1.051   0.740   6.096
 4494SOL    HW114381   1.083   0.754   6.190
 4494SOL    HW214382   0.988   0.663   6.093
 4495SOL     OW14383   3.651   5.870   1.985
 4495SOL    HW114384   3.636   5.943   2.051
 4495SOL    HW214385   3.675   5.786   2.034
 4496SOL     OW14386   4.473   6.196   6.378
 4496SOL    HW114387   4.435   6.280   6.417
 4496SOL    HW214388   4.473   6.204   6.278
 4497SOL     OW14389   3.668   2.367   7.014
 4497SOL    HW114390   3.708   2.334   0.075
 4497SOL    HW214391   3.696   2.307   6.939
 4498SOL     OW14392   6.791   5.062   6.004
 4498SOL    HW114393   6.849   5.133   6.046
 4498SOL    HW214394   6.784   5.079   5.906
 4499SOL     OW14395   6.780   1.737   2.844
 4499SOL    HW114396   6.761   1.663   2.780
 4499SOL    HW214397   6.876   1.735   2.871
 4500SOL     OW14398   3.996   5.208   0.077
 4500SOL    HW114399   4.079   5.179   0.030
 4500SOL    HW214400   3.923   5.224   0.010
 4501SOL     OW14401   6.174   1.800   1.988
 4501SOL    HW114402   6.175   1.792   1.889
 4501SOL    HW214403   6.081   1.782   2.022
 4502SOL     OW14404   1.012   3.357   6.901
 4502SOL    HW114405   1.003   3.395   6.993
 4502SOL    HW214406   0.941   3.289   6.886
 4503SOL     OW14407   2.819   7.013   2.353
 4503SOL    HW114408   2.816   6.914   2.335
 4503SOL    HW214409   2.906   0.026   2.321
 4504SOL     OW14410   6.917   1.815   3.597
 4504SOL    HW114411   6.869   1.796   3.512
 4504SOL    HW214412   6.882   1.755   3.670
 4505SOL     OW14413   6.604   4.526   2.519
 4505SOL    HW114414   6.692   4.568   2.539
 4505SOL    HW214415   6.597   4.438   2.567
 4506SOL     OW14416   4.780   2.918   4.073
 4506SOL    HW114417   4.779   2.921   3.973
 4506SOL    HW214418   4.825   3.001   4.108
 4507SOL     OW14419   6.444   3.143   3.431
 4507SOL    HW114420   6.473   3.065   3.488
 4507SOL    HW214421   6.374   3.195   3.479
 4508SOL     OW14422   0.294   4.180   0.676
 4508SOL    HW114423   0.304   4.102   0.615
 4508SOL    HW214424   0.357   4.253   0.648
 4509SOL     OW14425   4.456   1.780   2.480
 4509SOL    HW114426   4.479   1.862   2.533
 4509SOL    HW214427   4.383   1.802   2.416
 4510SOL     OW14428   4.623   1.416   3.928
 4510SOL    HW114429   4.613   1.512   3.954
 4510SOL    HW214430   4.569   1.359   3.990
 4511SOL     OW14431   6.971   4.359   1.263
 4511SOL    HW114432   6.897   4.302   1.229
 4511SOL    HW214433   6.974   4.444   1.209
 4512SOL     OW14434   3.891   2.127   5.779
 4512SOL    HW114435   3.875   2.213   5.827
 4512SOL    HW214436   3.842   2.053   5.825
 4513SOL     OW14437   0.970   6.148   6.536
 4513SOL    HW114438   0.937   6.058   6.566
 4513SOL    HW214439   0.978   6.149   6.436
 4514SOL     OW14440   3.230   3.242   6.526
 4514SOL    HW114441   3.316   3.193   6.535
 4514SOL    HW214442   3.182   3.212   6.443
 4515SOL     OW14443   5.557   0.169   4.955
 4515SOL    HW114444   5.541   0.098   5.023
 4515SOL    HW214445   5.501   0.249   4.977
 4516SOL     OW14446   2.890   1.870   5.990
 4516SOL    HW114447   2.954   1.816   5.936
 4516SOL    HW214448   2.930   1.959   6.010
 4517SOL     OW14449   4.103   0.561   6.412
 4517SOL    HW114450   4.189   0.603   6.439
 4517SOL    HW214451   4.067   0.507   6.488
 4518SOL     OW14452   1.803   6.589   1.210
 4518SOL    HW114453   1.720   6.623   1.254
 4518SOL    HW214454   1.874   6.575   1.279
 4519SOL     OW14455   5.380   6.621   0.393
 4519SOL    HW114456   5.431   6.702   0.424
 4519SOL    HW214457   5.442   6.544   0.382
 4520SOL     OW14458   3.965   6.451   5.196
 4520SOL    HW114459   3.897   6.514   5.233
 4520SOL    HW214460   4.043   6.503   5.161
 4521SOL     OW14461   4.999   2.342   5.238
 4521SOL    HW114462   4.977   2.364   5.333
 4521SOL    HW214463   5.056   2.260   5.234
 4522SOL     OW14464   4.984   3.466   3.517
 4522SOL    HW114465   5.063   3.417   3.555
 4522SOL    HW214466   4.900   3.415   3.536
 4523SOL     OW14467   0.413   3.796   6.563
 4523SOL    HW114468   0.505   3.831   6.584
 4523SOL    HW214469   0.420   3.699   6.540
 4524SOL     OW14470   0.582   3.220   3.178
 4524SOL    HW114471   0.566   3.123   3.161
 4524SOL    HW214472   0.539   3.274   3.106
 4525SOL     OW14473   2.107   2.800   5.973
 4525SOL    HW114474   2.166   2.781   5.895
 4525SOL    HW214475   2.011   2.792   5.946
 4526SOL     OW14476   0.850   0.522   6.482
 4526SOL    HW114477   0.900   0.436   6.472
 4526SOL    HW214478   0.896   0.579   6.551
 4527SOL     OW14479   6.764   0.092   2.754
 4527SOL    HW114480   6.713   0.040   2.685
 4527SOL    HW214481   6.847   0.129   2.714
 4528SOL     OW14482   4.075   0.737   5.381
 4528SOL    HW114483   4.007   0.720   5.453
 4528SOL    HW214484   4.031   0.730   5.291
 4529SOL     OW14485   3.018   1.067   5.541
 4529SOL    HW114486   3.033   0.968   5.545
 4529SOL    HW214487   2.928   1.089   5.579
 4530SOL     OW14488   1.945   6.481   4.970
 4530SOL    HW114489   1.984   6.573   4.981
 4530SOL    HW214490   1.994   6.433   4.897
 4531SOL     OW14491   1.414   4.945   6.508
 4531SOL    HW114492   1.326   4.971   6.467
 4531SOL    HW214493   1.457   4.874   6.451
 4532SOL     OW14494   5.187   0.660   3.028
 4532SOL    HW114495   5.101   0.703   3.054
 4532SOL    HW214496   5.216   0.596   3.099
 4533SOL     OW14497   1.887   0.456   2.653
 4533SOL    HW114498   1.791   0.476   2.635
 4533SOL    HW214499   1.942   0.485   2.574
 4534SOL     OW14500   4.407   1.848   4.521
 4534SOL    HW114501   4.338   1.910   4.557
 4534SOL    HW214502   4.379   1.753   4.537
 4535SOL     OW14503   3.481   1.908   0.941
 4535SOL    HW114504   3.437   1.975   1.001
 4535SOL    HW214505   3.533   1.956   0.871
 4536SOL     OW14506   2.453   2.105   5.930
 4536SOL    HW114507   2.505   2.074   5.850
 4536SOL    HW214508   2.454   2.205   5.934
 4537SOL     OW14509   3.295   3.615   3.900
 4537SOL    HW114510   3.201   3.585   3.914
 4537SOL    HW214511   3.312   3.698   3.953
 4538SOL     OW14512   6.945   2.712   1.716
 4538SOL    HW114513   6.850   2.708   1.686
 4538SOL    HW214514   6.953   2.774   1.794
 4539SOL     OW14515   1.817   4.977   5.139
 4539SOL    HW114516   1.904   5.009   5.100
 4539SOL    HW214517   1.776   5.050   5.194
 4540SOL     OW14518   0.333   1.099   0.570
 4540SOL    HW114519   0.264   1.027   0.579
 4540SOL    HW214520   0.313   1.156   0.490
 4541SOL     OW14521   3.999   1.520   6.381
 4541SOL    HW114522   4.088   1.503   6.423
 4541SOL    HW214523   3.952   1.433   6.368
 4542SOL     OW14524   0.003   2.093   0.707
 4542SOL    HW114525   0.048   2.113   0.619
 4542SOL    HW214526   0.068   2.104   0.781
 4543SOL     OW14527   4.336   2.458   0.605
 4543SOL    HW114528   4.321   2.414   0.517
 4543SOL    HW214529   4.393   2.540   0.593
 4544SOL     OW14530   4.986   5.113   0.461
 4544SOL    HW114531   4.892   5.097   0.491
 4544SOL    HW214532   5.036   5.161   0.533
 4545SOL     OW14533   0.718   4.217   4.809
 4545SOL    HW114534   0.692   4.212   4.713
 4545SOL    HW214535   0.815   4.240   4.816
 4546SOL     OW14536   2.761   1.412   5.533
 4546SOL    HW114537   2.842   1.380   5.484
 4546SOL    HW214538   2.782   1.497   5.580
 4547SOL     OW14539   6.371   0.748   0.532
 4547SOL    HW114540   6.282   0.792   0.528
 4547SOL    HW214541   6.373   0.668   0.472
 4548SOL     OW14542   1.962   2.964   2.797
 4548SOL    HW114543   1.937   2.968   2.700
 4548SOL    HW214544   1.995   3.053   2.827
 4549SOL     OW14545   5.581   4.519   2.442
 4549SOL    HW114546   5.509   4.541   2.508
 4549SOL    HW214547   5.540   4.498   2.353
 4550SOL     OW14548   0.948   4.675   3.074
 4550SOL    HW114549   1.011   4.701   3.148
 4550SOL    HW214550   1.000   4.637   2.997
 4551SOL     OW14551   1.646   3.582   5.010
 4551SOL    HW114552   1.738   3.602   4.976
 4551SOL    HW214553   1.578   3.608   4.942
 4552SOL     OW14554   5.951   1.437   1.275
 4552SOL    HW114555   6.004   1.352   1.271
 4552SOL    HW214556   5.874   1.432   1.212
 4553SOL     OW14557   5.106   4.671   6.337
 4553SOL    HW114558   5.181   4.732   6.364
 4553SOL    HW214559   5.142   4.580   6.318
 4554SOL     OW14560   0.434   6.047   1.132
 4554SOL    HW114561   0.495   6.003   1.066
 4554SOL    HW214562   0.339   6.033   1.104
 4555SOL     OW14563   1.532   1.531   7.007
 4555SOL    HW114564   1.505   1.503   6.915
 4555SOL    HW214565   1.555   1.450   0.037
 4556SOL     OW14566   6.400   3.228   5.844
 4556SOL    HW114567   6.478   3.290   5.850
 4556SOL    HW214568   6.315   3.281   5.847
 4557SOL     OW14569   6.252   4.996   4.122
 4557SOL    HW114570   6.295   4.906   4.128
 4557SOL    HW214571   6.204   5.016   4.207
 4558SOL     OW14572   6.053   2.916   5.479
 4558SOL    HW114573   6.030   2.954   5.389
 4558SOL    HW214574   5.981   2.854   5.509
 4559SOL     OW14575   0.705   2.915   3.148
 4559SOL    HW114576   0.636   2.899   3.077
 4559SOL    HW214577   0.782   2.967   3.109
 4560SOL     OW14578   0.107   4.530   1.747
 4560SOL    HW114579   0.153   4.502   1.662
 4560SOL    HW214580   0.023   4.579   1.725
 4561SOL     OW14581   3.124   2.066   4.198
 4561SOL    HW114582   3.209   2.077   4.148
 4561SOL    HW214583   3.054   2.028   4.138
 4562SOL     OW14584   2.146   6.726   0.525
 4562SOL    HW114585   2.110   6.802   0.579
 4562SOL    HW214586   2.188   6.659   0.587
 4563SOL     OW14587   0.125   2.740   1.482
 4563SOL    HW114588   0.078   2.724   1.568
 4563SOL    HW214589   0.222   2.760   1.500
 4564SOL     OW14590   0.380   4.366   2.115
 4564SOL    HW114591   0.306   4.381   2.050
 4564SOL    HW214592   0.433   4.286   2.088
 4565SOL     OW14593   1.862   0.418   5.133
 4565SOL    HW114594   1.888   0.372   5.049
 4565SOL    HW214595   1.940   0.467   5.171
 4566SOL     OW14596   0.267   4.146   1.455
 4566SOL    HW114597   0.258   4.171   1.359
 4566SOL    HW214598   0.269   4.047   1.464
 4567SOL     OW14599   6.879   0.054   6.244
 4567SOL    HW114600   6.954   0.050   6.311
 4567SOL    HW214601   6.817   7.002   6.259
 4568SOL     OW14602   0.967   4.278   4.052
 4568SOL    HW114603   0.882   4.277   4.000
 4568SOL    HW214604   0.996   4.373   4.067
 4569SOL     OW14605   3.123   0.915   3.207
 4569SOL    HW114606   3.197   0.981   3.218
 4569SOL    HW214607   3.134   0.867   3.120
 4570SOL     OW14608   6.334   5.534   1.261
 4570SOL    HW114609   6.283   5.498   1.339
 4570SOL    HW214610   6.392   5.461   1.224
 4571SOL     OW14611   4.136   2.785   6.552
 4571SOL    HW114612   4.125   2.871   6.502
 4571SOL    HW214613   4.188   2.721   6.496
 4572SOL     OW14614   2.543   2.453   6.516
 4572SOL    HW114615   2.607   2.522   6.548
 4572SOL    HW214616   2.591   2.388   6.457
 4573SOL     OW14617   1.049   6.442   0.992
 4573SOL    HW114618   1.094   6.354   1.005
 4573SOL    HW214619   0.971   6.449   1.055
 4574SOL     OW14620   6.047   3.472   6.852
 4574SOL    HW114621   6.026   3.424   6.937
 4574SOL    HW214622   5.973   3.459   6.786
 4575SOL     OW14623   6.326   1.010   4.472
 4575SOL    HW114624   6.356   1.082   4.535
 4575SOL    HW214625   6.266   1.050   4.402
 4576SOL     OW14626   3.174   4.914   5.146
 4576SOL    HW114627   3.085   4.897   5.190
 4576SOL    HW214628   3.166   4.894   5.048
 4577SOL     OW14629   1.659   1.966   2.993
 4577SOL    HW114630   1.608   1.909   3.058
 4577SOL    HW214631   1.604   2.045   2.967
 4578SOL     OW14632   1.597   0.467   2.683
 4578SOL    HW114633   1.498   0.471   2.693
 4578SOL    HW214634   1.621   0.461   2.586
 4579SOL     OW14635   4.589   0.104   1.870
 4579SOL    HW114636   4.616   0.136   1.961
 4579SOL    HW214637   4.601   0.179   1.804
 4580SOL     OW14638   5.645   3.348   0.180
 4580SOL    HW114639   5.545   3.346   0.175
 4580SOL    HW214640   5.680   3.256   0.194
 4581SOL     OW14641   3.183   6.670   2.128
 4581SOL    HW114642   3.144   6.604   2.192
 4581SOL    HW214643   3.281   6.655   2.121
 4582SOL     OW14644   5.248   0.944   2.987
 4582SOL    HW114645   5.253   0.962   2.888
 4582SOL    HW214646   5.293   0.858   3.008
 4583SOL     OW14647   1.819   0.304   6.632
 4583SOL    HW114648   1.824   0.245   6.552
 4583SOL    HW214649   1.901   0.293   6.688
 4584SOL     OW14650   1.622   0.114   5.894
 4584SOL    HW114651   1.631   0.213   5.882
 4584SOL    HW214652   1.542   0.095   5.950
 4585SOL     OW14653   1.737   4.183   3.695
 4585SOL    HW114654   1.788   4.103   3.727
 4585SOL    HW214655   1.719   4.173   3.597
 4586SOL     OW14656   5.077   4.441   0.378
 4586SOL    HW114657   5.118   4.350   0.377
 4586SOL    HW214658   5.112   4.492   0.457
 4587SOL     OW14659   3.123   3.573   5.039
 4587SOL    HW114660   3.157   3.667   5.045
 4587SOL    HW214661   3.056   3.557   5.111
 4588SOL     OW14662   3.029   3.901   6.143
 4588SOL    HW114663   3.029   3.995   6.177
 4588SOL    HW214664   3.096   3.847   6.195
 4589SOL     OW14665   5.435   5.753   2.057
 4589SOL    HW114666   5.445   5.739   1.958
 4589SOL    HW214667   5.470   5.843   2.081
 4590SOL     OW14668   3.536   5.510   1.647
 4590SOL    HW114669   3.458   5.501   1.710
 4590SOL    HW214670   3.506   5.558   1.565
 4591SOL     OW14671   2.461   6.680   5.470
 4591SOL    HW114672   2.447   6.583   5.454
 4591SOL    HW214673   2.425   6.733   5.393
 4592SOL     OW14674   2.497   1.299   4.664
 4592SOL    HW114675   2.522   1.219   4.720
 4592SOL    HW214676   2.473   1.268   4.572
 4593SOL     OW14677   0.096   5.753   3.239
 4593SOL    HW114678   0.095   5.654   3.250
 4593SOL    HW214679   0.049   5.777   3.154
 4594SOL     OW14680   2.681   0.198   3.262
 4594SOL    HW114681   2.666   0.182   3.164
 4594SOL    HW214682   2.776   0.224   3.278
 4595SOL     OW14683   4.974   1.748   6.291
 4595SOL    HW114684   4.927   1.820   6.241
 4595SOL    HW214685   4.952   1.659   6.250
 4596SOL     OW14686   0.887   0.785   2.137
 4596SOL    HW114687   0.959   0.838   2.182
 4596SOL    HW214688   0.913   0.766   2.043
 4597SOL     OW14689   2.707   5.204   6.692
 4597SOL    HW114690   2.726   5.118   6.740
 4597SOL    HW214691   2.772   5.274   6.722
 4598SOL     OW14692   2.425   5.312   7.018
 4598SOL    HW114693   2.477   5.342   6.938
 4598SOL    HW214694   2.476   5.241   0.042
 4599SOL     OW14695   1.706   4.210   2.823
 4599SOL    HW114696   1.775   4.141   2.845
 4599SOL    HW214697   1.703   4.223   2.724
 4600SOL     OW14698   6.839   6.417   5.961
 4600SOL    HW114699   6.838   6.412   5.861
 4600SOL    HW214700   6.933   6.414   5.993
 4601SOL     OW14701   0.796   1.063   4.582
 4601SOL    HW114702   0.878   1.029   4.628
 4601SOL    HW214703   0.812   1.157   4.551
 4602SOL     OW14704   2.589   0.532   6.516
 4602SOL    HW114705   2.621   0.562   6.606
 4602SOL    HW214706   2.580   0.611   6.455
 4603SOL     OW14707   4.559   6.021   1.173
 4603SOL    HW114708   4.492   5.947   1.168
 4603SOL    HW214709   4.515   6.103   1.210
 4604SOL     OW14710   5.025   0.202   6.020
 4604SOL    HW114711   4.945   0.239   5.972
 4604SOL    HW214712   5.080   0.148   5.957
 4605SOL     OW14713   2.316   6.906   1.812
 4605SOL    HW114714   2.229   6.953   1.805
 4605SOL    HW214715   2.305   6.810   1.788
 4606SOL     OW14716   6.968   6.537   2.688
 4606SOL    HW114717   6.932   6.626   2.717
 4606SOL    HW214718   0.043   6.543   2.676
 4607SOL     OW14719   2.245   4.019   3.217
 4607SOL    HW114720   2.182   4.054   3.148
 4607SOL    HW214721   2.291   4.095   3.263
 4608SOL     OW14722   6.990   3.268   5.090
 4608SOL    HW114723   7.010   3.297   5.183
 4608SOL    HW214724   0.041   3.212   5.055
 4609SOL     OW14725   4.044   6.308   6.452
 4609SOL    HW114726   4.114   6.239   6.432
 4609SOL    HW214727   3.966   6.264   6.496
 4610SOL     OW14728   5.573   2.112   6.815
 4610SOL    HW114729   5.559   2.209   6.798
 4610SOL    HW214730   5.574   2.095   6.913
 4611SOL     OW14731   0.483   0.831   5.859
 4611SOL    HW114732   0.469   0.735   5.836
 4611SOL    HW214733   0.442   0.889   5.788
 4612SOL     OW14734   2.301   6.220   2.368
 4612SOL    HW114735   2.286   6.285   2.443
 4612SOL    HW214736   2.235   6.146   2.375
 4613SOL     OW14737   2.059   4.679   2.312
 4613SOL    HW114738   2.128   4.656   2.381
 4613SOL    HW214739   2.098   4.665   2.220
 4614SOL     OW14740   6.100   2.935   3.801
 4614SOL    HW114741   6.160   2.877   3.857
 4614SOL    HW214742   6.007   2.932   3.839
 4615SOL     OW14743   0.757   1.084   1.128
 4615SOL    HW114744   0.742   1.155   1.196
 4615SOL    HW214745   0.825   1.116   1.061
 4616SOL     OW14746   6.243   2.520   5.121
 4616SOL    HW114747   6.212   2.595   5.064
 4616SOL    HW214748   6.343   2.514   5.116
 4617SOL     OW14749   0.239   2.767   2.180
 4617SOL    HW114750   0.290   2.843   2.141
 4617SOL    HW214751   0.142   2.776   2.157
 4618SOL     OW14752   2.302   3.944   5.622
 4618SOL    HW114753   2.287   3.848   5.597
 4618SOL    HW214754   2.360   3.949   5.703
 4619SOL     OW14755   3.255   6.269   4.286
 4619SOL    HW114756   3.185   6.335   4.257
 4619SOL    HW214757   3.229   6.229   4.374
 4620SOL     OW14758   0.618   5.360   1.307
 4620SOL    HW114759   0.595   5.356   1.210
 4620SOL    HW214760   0.709   5.321   1.321
 4621SOL     OW14761   5.063   0.448   2.317
 4621SOL    HW114762   5.102   0.358   2.337
 4621SOL    HW214763   4.977   0.459   2.367
 4622SOL     OW14764   4.209   5.528   0.981
 4622SOL    HW114765   4.255   5.443   0.954
 4622SOL    HW214766   4.277   5.595   1.011
 4623SOL     OW14767   3.365   5.052   0.890
 4623SOL    HW114768   3.449   5.065   0.943
 4623SOL    HW214769   3.385   5.065   0.793
 4624SOL     OW14770   3.961   1.265   3.545
 4624SOL    HW114771   3.907   1.218   3.475
 4624SOL    HW214772   3.944   1.364   3.539
 4625SOL     OW14773   2.009   5.319   1.775
 4625SOL    HW114774   1.936   5.294   1.712
 4625SOL    HW214775   1.973   5.323   1.868
 4626SOL     OW14776   4.117   3.962   1.674
 4626SOL    HW114777   4.024   3.988   1.699
 4626SOL    HW214778   4.175   4.044   1.672
 4627SOL     OW14779   0.193   5.927   4.703
 4627SOL    HW114780   0.197   5.854   4.635
 4627SOL    HW214781   0.207   6.015   4.657
 4628SOL     OW14782   4.589   4.865   3.374
 4628SOL    HW114783   4.659   4.935   3.389
 4628SOL    HW214784   4.514   4.880   3.438
 4629SOL     OW14785   1.956   5.653   6.664
 4629SOL    HW114786   1.965   5.752   6.654
 4629SOL    HW214787   1.996   5.607   6.585
 4630SOL     OW14788   1.434   5.286   2.345
 4630SOL    HW114789   1.530   5.286   2.373
 4630SOL    HW214790   1.386   5.211   2.392
 4631SOL     OW14791   6.964   0.321   3.860
 4631SOL    HW114792   6.901   0.277   3.795
 4631SOL    HW214793   0.010   0.255   3.888
 4632SOL     OW14794   3.255   5.285   2.655
 4632SOL    HW114795   3.203   5.260   2.573
 4632SOL    HW214796   3.239   5.218   2.727
 4633SOL     OW14797   5.355   1.453   4.464
 4633SOL    HW114798   5.440   1.488   4.424
 4633SOL    HW214799   5.280   1.514   4.441
 4634SOL     OW14800   2.899   3.736   4.871
 4634SOL    HW114801   2.957   3.798   4.818
 4634SOL    HW214802   2.873   3.780   4.957
 4635SOL     OW14803   4.882   5.114   0.912
 4635SOL    HW114804   4.819   5.177   0.957
 4635SOL    HW214805   4.969   5.113   0.961
 4636SOL     OW14806   2.153   5.314   0.576
 4636SOL    HW114807   2.167   5.399   0.524
 4636SOL    HW214808   2.202   5.239   0.531
 4637SOL     OW14809   1.433   7.020   1.703
 4637SOL    HW114810   1.435   6.959   1.625
 4637SOL    HW214811   1.403   6.970   1.784
 4638SOL     OW14812   3.914   5.104   0.600
 4638SOL    HW114813   3.847   5.139   0.667
 4638SOL    HW214814   3.944   5.013   0.628
 4639SOL     OW14815   2.376   2.724   0.341
 4639SOL    HW114816   2.354   2.627   0.351
 4639SOL    HW214817   2.369   2.750   0.245
 4640SOL     OW14818   5.893   3.363   5.834
 4640SOL    HW114819   5.871   3.368   5.737
 4640SOL    HW214820   5.864   3.448   5.879
 4641SOL     OW14821   0.735   6.233   3.960
 4641SOL    HW114822   0.721   6.264   4.054
 4641SOL    HW214823   0.788   6.148   3.961
 4642SOL     OW14824   1.547   1.824   3.889
 4642SOL    HW114825   1.467   1.856   3.940
 4642SOL    HW214826   1.547   1.724   3.887
 4643SOL     OW14827   6.938   2.216   7.014
 4643SOL    HW114828   6.851   2.184   6.978
 4643SOL    HW214829   6.938   2.316   7.019
 4644SOL     OW14830   1.459   1.432   6.742
 4644SOL    HW114831   1.505   1.398   6.660
 4644SOL    HW214832   1.467   1.365   6.815
 4645SOL     OW14833   1.456   0.786   3.793
 4645SOL    HW114834   1.425   0.723   3.723
 4645SOL    HW214835   1.383   0.799   3.861
 4646SOL     OW14836   2.654   5.305   4.183
 4646SOL    HW114837   2.712   5.359   4.243
 4646SOL    HW214838   2.662   5.339   4.089
 4647SOL     OW14839   2.052   6.596   3.153
 4647SOL    HW114840   2.111   6.666   3.113
 4647SOL    HW214841   2.054   6.514   3.096
 4648SOL     OW14842   3.008   1.162   3.988
 4648SOL    HW114843   3.051   1.131   3.904
 4648SOL    HW214844   2.976   1.083   4.041
 4649SOL     OW14845   6.215   0.755   0.924
 4649SOL    HW114846   6.222   0.660   0.894
 4649SOL    HW214847   6.303   0.787   0.958
 4650SOL     OW14848   5.306   6.063   1.718
 4650SOL    HW114849   5.319   5.964   1.720
 4650SOL    HW214850   5.360   6.105   1.791
 4651SOL     OW14851   6.826   3.937   6.211
 4651SOL    HW114852   6.796   3.854   6.258
 4651SOL    HW214853   6.750   4.001   6.205
 4652SOL     OW14854   0.292   5.946   4.370
 4652SOL    HW114855   0.265   6.015   4.438
 4652SOL    HW214856   0.361   5.886   4.410
 4653SOL     OW14857   4.798   5.975   0.405
 4653SOL    HW114858   4.735   6.009   0.476
 4653SOL    HW214859   4.768   6.007   0.315
 4654SOL     OW14860   6.500   6.696   4.628
 4654SOL    HW114861   6.530   6.660   4.539
 4654SOL    HW214862   6.425   6.640   4.663
 4655SOL     OW14863   5.473   2.774   1.419
 4655SOL    HW114864   5.493   2.677   1.431
 4655SOL    HW214865   5.497   2.824   1.503
 4656SOL     OW14866   0.759   0.543   1.807
 4656SOL    HW114867   0.665   0.549   1.772
 4656SOL    HW214868   0.796   0.635   1.818
 4657SOL     OW14869   4.984   6.752   2.057
 4657SOL    HW114870   5.003   6.805   2.140
 4657SOL    HW214871   4.965   6.814   1.981
 4658SOL     OW14872   2.534   2.692   5.461
 4658SOL    HW114873   2.491   2.625   5.521
 4658SOL    HW214874   2.463   2.744   5.412
 4659SOL     OW14875   3.648   4.530   0.978
 4659SOL    HW114876   3.637   4.516   0.879
 4659SOL    HW214877   3.569   4.580   1.013
 4660SOL     OW14878   1.247   6.590   3.625
 4660SOL    HW114879   1.206   6.653   3.691
 4660SOL    HW214880   1.178   6.522   3.598
 4661SOL     OW14881   1.826   4.104   5.615
 4661SOL    HW114882   1.838   4.190   5.566
 4661SOL    HW214883   1.734   4.069   5.599
 4662SOL     OW14884   2.957   6.617   4.998
 4662SOL    HW114885   3.014   6.575   4.928
 4662SOL    HW214886   2.864   6.580   4.992
 4663SOL     OW14887   1.249   0.308   0.237
 4663SOL    HW114888   1.246   0.397   0.283
 4663SOL    HW214889   1.166   0.257   0.257
 4664SOL     OW14890   6.564   0.098   0.706
 4664SOL    HW114891   6.534   0.095   0.801
 4664SOL    HW214892   6.578   0.005   0.672
 4665SOL     OW14893   2.133   0.730   5.483
 4665SOL    HW114894   2.094   0.816   5.516
 4665SOL    HW214895   2.196   0.748   5.407
 4666SOL     OW14896   1.953   2.690   6.782
 4666SOL    HW114897   1.864   2.647   6.796
 4666SOL    HW214898   2.023   2.636   6.828
 4667SOL     OW14899   6.724   3.490   2.030
 4667SOL    HW114900   6.805   3.434   2.013
 4667SOL    HW214901   6.749   3.587   2.021
 4668SOL     OW14902   3.957   2.190   4.871
 4668SOL    HW114903   3.994   2.202   4.778
 4668SOL    HW214904   3.864   2.154   4.866
 4669SOL     OW14905   5.062   0.128   0.319
 4669SOL    HW114906   5.033   0.221   0.298
 4669SOL    HW214907   5.161   0.121   0.312
 4670SOL     OW14908   1.636   3.592   6.994
 4670SOL    HW114909   1.584   3.651   6.932
 4670SOL    HW214910   1.708   3.645   0.014
 4671SOL     OW14911   0.617   3.248   0.047
 4671SOL    HW114912   0.598   3.155   0.016
 4671SOL    HW214913   0.703   3.249   0.098
 4672SOL     OW14914   3.642   4.403   5.619
 4672SOL    HW114915   3.622   4.348   5.700
 4672SOL    HW214916   3.706   4.354   5.560
 4673SOL     OW14917   4.731   0.510   6.929
 4673SOL    HW114918   4.664   0.437   6.920
 4673SOL    HW214919   4.792   0.509   6.850
 4674SOL     OW14920   0.113   1.479   0.360
 4674SOL    HW114921   0.065   1.565   0.375
 4674SOL    HW214922   0.121   1.430   0.447
 4675SOL     OW14923   3.795   6.082   6.782
 4675SOL    HW114924   3.822   6.076   6.686
 4675SOL    HW214925   3.753   6.171   6.800
 4676SOL     OW14926   0.913   6.294   5.033
 4676SOL    HW114927   1.013   6.299   5.028
 4676SOL    HW214928   0.882   6.212   4.986
 4677SOL     OW14929   3.118   0.328   6.837
 4677SOL    HW114930   3.215   0.347   6.849
 4677SOL    HW214931   3.095   0.243   6.885
 4678SOL     OW14932   1.913   4.943   1.465
 4678SOL    HW114933   1.955   5.025   1.425
 4678SOL    HW214934   1.985   4.879   1.493
 4679SOL     OW14935   2.688   1.175   6.157
 4679SOL    HW114936   2.707   1.268   6.124
 4679SOL    HW214937   2.614   1.178   6.224
 4680SOL     OW14938   2.024   5.192   1.368
 4680SOL    HW114939   2.094   5.249   1.326
 4680SOL    HW214940   2.000   5.229   1.458
 4681SOL     OW14941   0.575   5.406   5.223
 4681SOL    HW114942   0.478   5.429   5.218
 4681SOL    HW214943   0.625   5.483   5.263
 4682SOL     OW14944   3.958   6.383   0.438
 4682SOL    HW114945   3.990   6.319   0.508
 4682SOL    HW214946   4.016   6.465   0.438
 4683SOL     OW14947   6.545   3.941   2.372
 4683SOL    HW114948   6.559   4.040   2.370
 4683SOL    HW214949   6.470   3.917   2.310
 4684SOL     OW14950   1.515   2.852   4.776
 4684SOL    HW114951   1.523   2.911   4.696
 4684SOL    HW214952   1.497   2.907   4.857
 4685SOL     OW14953   6.083   5.298   4.096
 4685SOL    HW114954   6.006   5.242   4.064
 4685SOL    HW214955   6.167   5.246   4.090
 4686SOL     OW14956   4.941   6.256   6.759
 4686SOL    HW114957   4.927   6.241   6.661
 4686SOL    HW214958   5.005   6.332   6.772
 4687SOL     OW14959   6.440   4.032   4.426
 4687SOL    HW114960   6.464   4.087   4.507
 4687SOL    HW214961   6.428   4.093   4.348
 4688SOL     OW14962   0.490   3.306   6.571
 4688SOL    HW114963   0.463   3.211   6.589
 4688SOL    HW214964   0.501   3.354   6.658
 4689SOL     OW14965   0.154   0.230   5.802
 4689SOL    HW114966   0.114   0.158   5.859
 4689SOL    HW214967   0.246   0.250   5.834
 4690SOL     OW14968   1.699   1.287   0.208
 4690SOL    HW114969   1.641   1.262   0.131
 4690SOL    HW214970   1.750   1.207   0.239
 4691SOL     OW14971   2.665   4.266   0.933
 4691SOL    HW114972   2.616   4.190   0.890
 4691SOL    HW214973   2.715   4.232   1.013
 4692SOL     OW14974   0.140   5.141   2.919
 4692SOL    HW114975   0.059   5.097   2.956
 4692SOL    HW214976   0.222   5.092   2.949
 4693SOL     OW14977   0.565   1.274   4.488
 4693SOL    HW114978   0.655   1.316   4.501
 4693SOL    HW214979   0.538   1.226   4.571
 4694SOL     OW14980   2.407   1.122   6.920
 4694SOL    HW114981   2.474   1.168   6.862
 4694SOL    HW214982   2.319   1.116   6.872
 4695SOL     OW14983   3.681   2.804   1.842
 4695SOL    HW114984   3.778   2.826   1.829
 4695SOL    HW214985   3.626   2.861   1.781
 4696SOL     OW14986   0.356   3.571   6.254
 4696SOL    HW114987   0.311   3.513   6.185
 4696SOL    HW214988   0.305   3.566   6.340
 4697SOL     OW14989   1.697   3.930   0.187
 4697SOL    HW114990   1.761   3.854   0.186
 4697SOL    HW214991   1.622   3.912   0.124
 4698SOL     OW14992   5.693   4.791   1.245
 4698SOL    HW114993   5.697   4.847   1.162
 4698SOL    HW214994   5.635   4.837   1.312
 4699SOL     OW14995   0.204   0.082   2.144
 4699SOL    HW114996   0.139   0.153   2.172
 4699SOL    HW214997   0.237   0.102   2.052
 4700SOL     OW14998   5.183   1.480   1.106
 4700SOL    HW114999   5.155   1.574   1.127
 4700SOL    HW215000   5.251   1.480   1.033
 4701SOL     OW15001   1.192   1.667   0.658
 4701SOL    HW115002   1.210   1.607   0.735
 4701SOL    HW215003   1.273   1.672   0.599
 4702SOL     OW15004   3.913   3.630   6.494
 4702SOL    HW115005   3.925   3.619   6.592
 4702SOL    HW215006   3.953   3.717   6.465
 4703SOL     OW15007   1.674   1.286   3.178
 4703SOL    HW115008   1.694   1.188   3.180
 4703SOL    HW215009   1.722   1.331   3.253
 4704SOL     OW15010   0.452   6.664   0.945
 4704SOL    HW115011   0.544   6.650   0.980
 4704SOL    HW215012   0.391   6.593   0.982
 4705SOL     OW15013   3.857   2.952   4.401
 4705SOL    HW115014   3.871   2.857   4.430
 4705SOL    HW215015   3.798   2.998   4.467
 4706SOL     OW15016   3.451   5.969   6.702
 4706SOL    HW115017   3.453   6.019   6.789
 4706SOL    HW215018   3.371   5.909   6.701
 4707SOL     OW15019   1.635   5.595   1.183
 4707SOL    HW115020   1.593   5.566   1.269
 4707SOL    HW215021   1.566   5.590   1.110
 4708SOL     OW15022   3.132   2.298   0.561
 4708SOL    HW115023   3.210   2.241   0.534
 4708SOL    HW215024   3.123   2.374   0.497
 4709SOL     OW15025   3.796   4.813   5.336
 4709SOL    HW115026   3.782   4.845   5.243
 4709SOL    HW215027   3.839   4.723   5.335
 4710SOL     OW15028   4.551   1.484   6.912
 4710SOL    HW115029   4.545   1.422   6.835
 4710SOL    HW215030   4.639   1.532   6.910
 4711SOL     OW15031   3.132   0.215   2.528
 4711SOL    HW115032   3.133   0.303   2.481
 4711SOL    HW215033   3.120   0.141   2.461
 4712SOL     OW15034   1.773   4.689   1.144
 4712SOL    HW115035   1.720   4.757   1.093
 4712SOL    HW215036   1.740   4.685   1.238
 4713SOL     OW15037   2.816   5.313   1.388
 4713SOL    HW115038   2.744   5.259   1.433
 4713SOL    HW215039   2.784   5.343   1.298
 4714SOL     OW15040   2.899   1.275   1.668
 4714SOL    HW115041   2.903   1.375   1.663
 4714SOL    HW215042   2.969   1.236   1.607
 4715SOL     OW15043   6.900   3.016   2.526
 4715SOL    HW115044   6.810   3.015   2.571
 4715SOL    HW215045   6.945   2.928   2.542
 4716SOL     OW15046   3.797   5.221   6.652
 4716SOL    HW115047   3.852   5.298   6.619
 4716SOL    HW215048   3.769   5.238   6.746
 4717SOL     OW15049   1.045   5.879   2.593
 4717SOL    HW115050   1.136   5.860   2.630
 4717SOL    HW215051   0.994   5.793   2.586
 4718SOL     OW15052   5.108   1.701   6.517
 4718SOL    HW115053   5.050   1.643   6.574
 4718SOL    HW215054   5.055   1.733   6.438
 4719SOL     OW15055   5.906   3.618   2.657
 4719SOL    HW115056   5.924   3.579   2.567
 4719SOL    HW215057   5.884   3.546   2.722
 4720SOL     OW15058   2.622   6.387   5.819
 4720SOL    HW115059   2.604   6.484   5.831
 4720SOL    HW215060   2.562   6.350   5.748
 4721SOL     OW15061   1.364   2.265   0.900
 4721SOL    HW115062   1.374   2.280   0.998
 4721SOL    HW215063   1.270   2.235   0.880
 4722SOL     OW15064   1.806   6.778   0.353
 4722SOL    HW115065   1.811   6.799   0.255
 4722SOL    HW215066   1.711   6.767   0.380
 4723SOL     OW15067   2.710   6.551   6.669
 4723SOL    HW115068   2.749   6.569   6.578
 4723SOL    HW215069   2.708   6.453   6.685
 4724SOL     OW15070   3.856   6.463   2.386
 4724SOL    HW115071   3.903   6.502   2.306
 4724SOL    HW215072   3.908   6.384   2.419
 4725SOL     OW15073   4.902   6.479   3.179
 4725SOL    HW115074   4.954   6.401   3.213
 4725SOL    HW215075   4.824   6.497   3.240
 4726SOL     OW15076   1.328   3.935   6.471
 4726SOL    HW115077   1.423   3.919   6.445
 4726SOL    HW215078   1.302   3.870   6.543
 4727SOL     OW15079   6.670   5.631   0.242
 4727SOL    HW115080   6.595   5.688   0.207
 4727SOL    HW215081   6.755   5.682   0.238
 4728SOL     OW15082   6.335   1.434   0.076
 4728SOL    HW115083   6.290   1.367   0.017
 4728SOL    HW215084   6.281   1.518   0.079
 4729SOL     OW15085   2.379   6.968   2.360
 4729SOL    HW115086   2.450   7.007   2.418
 4729SOL    HW215087   2.374   7.020   2.274
 4730SOL     OW15088   2.459   6.149   5.702
 4730SOL    HW115089   2.409   6.101   5.775
 4730SOL    HW215090   2.511   6.082   5.648
 4731SOL     OW15091   5.574   1.106   4.856
 4731SOL    HW115092   5.589   1.191   4.806
 4731SOL    HW215093   5.482   1.106   4.895
 4732SOL     OW15094   0.066   3.297   6.782
 4732SOL    HW115095   0.147   3.242   6.802
 4732SOL    HW215096   0.081   3.391   6.812
 4733SOL     OW15097   0.228   3.357   2.809
 4733SOL    HW115098   0.317   3.389   2.842
 4733SOL    HW215099   0.165   3.435   2.803
 4734SOL     OW15100   4.765   3.283   6.980
 4734SOL    HW115101   4.684   3.265   0.011
 4734SOL    HW215102   4.776   3.382   6.968
 4735SOL     OW15103   0.646   4.106   4.249
 4735SOL    HW115104   0.640   4.204   4.230
 4735SOL    HW215105   0.563   4.061   4.215
 4736SOL     OW15106   0.773   1.274   6.971
 4736SOL    HW115107   0.681   1.245   6.997
 4736SOL    HW215108   0.804   1.345   0.010
 4737SOL     OW15109   2.685   4.840   1.979
 4737SOL    HW115110   2.726   4.751   1.964
 4737SOL    HW215111   2.688   4.862   2.077
 4738SOL     OW15112   6.883   6.229   1.725
 4738SOL    HW115113   6.893   6.142   1.774
 4738SOL    HW215114   6.896   6.305   1.788
 4739SOL     OW15115   4.096   0.521   2.594
 4739SOL    HW115116   4.055   0.612   2.582
 4739SOL    HW215117   4.027   0.451   2.574
 4740SOL     OW15118   0.863   2.116   2.519
 4740SOL    HW115119   0.943   2.058   2.533
 4740SOL    HW215120   0.867   2.193   2.582
 4741SOL     OW15121   3.936   2.922   1.817
 4741SOL    HW115122   4.006   2.902   1.749
 4741SOL    HW215123   3.979   2.935   1.907
 4742SOL     OW15124   2.736   0.046   0.296
 4742SOL    HW115125   2.707   0.116   0.232
 4742SOL    HW215126   2.835   0.032   0.288
 4743SOL     OW15127   2.007   4.246   1.726
 4743SOL    HW115128   2.100   4.253   1.690
 4743SOL    HW215129   1.945   4.301   1.670
 4744SOL     OW15130   1.902   6.411   0.996
 4744SOL    HW115131   1.826   6.433   1.058
 4744SOL    HW215132   1.871   6.416   0.902
 4745SOL     OW15133   2.101   4.384   0.610
 4745SOL    HW115134   2.103   4.440   0.693
 4745SOL    HW215135   2.191   4.387   0.567
 4746SOL     OW15136   4.592   5.295   4.036
 4746SOL    HW115137   4.647   5.274   4.117
 4746SOL    HW215138   4.521   5.361   4.061
 4747SOL     OW15139   1.662   3.131   0.740
 4747SOL    HW115140   1.645   3.033   0.746
 4747SOL    HW215141   1.602   3.172   0.670
 4748SOL     OW15142   1.885   6.414   2.963
 4748SOL    HW115143   1.805   6.470   2.985
 4748SOL    HW215144   1.907   6.355   3.041
 4749SOL     OW15145   1.928   0.341   0.472
 4749SOL    HW115146   1.988   0.370   0.399
 4749SOL    HW215147   1.966   0.261   0.518
 4750SOL     OW15148   5.574   3.321   4.844
 4750SOL    HW115149   5.527   3.409   4.850
 4750SOL    HW215150   5.673   3.337   4.842
 4751SOL     OW15151   4.875   0.920   2.425
 4751SOL    HW115152   4.888   0.924   2.524
 4751SOL    HW215153   4.799   0.980   2.399
 4752SOL     OW15154   4.395   2.223   0.014
 4752SOL    HW115155   4.409   2.255   0.108
 4752SOL    HW215156   4.350   2.295   6.985
 4753SOL     OW15157   2.291   6.474   5.345
 4753SOL    HW115158   2.234   6.496   5.267
 4753SOL    HW215159   2.273   6.381   5.376
 4754SOL     OW15160   4.258   4.265   6.865
 4754SOL    HW115161   4.163   4.294   6.856
 4754SOL    HW215162   4.267   4.208   6.947
 4755SOL     OW15163   1.696   0.544   1.863
 4755SOL    HW115164   1.748   0.468   1.901
 4755SOL    HW215165   1.598   0.524   1.868
 4756SOL     OW15166   6.032   4.258   6.702
 4756SOL    HW115167   6.061   4.306   6.784
 4756SOL    HW215168   6.112   4.226   6.651
 4757SOL     OW15169   1.887   2.988   1.485
 4757SOL    HW115170   1.807   3.010   1.429
 4757SOL    HW215171   1.968   2.985   1.426
 4758SOL     OW15172   1.737   0.304   3.165
 4758SOL    HW115173   1.718   0.282   3.069
 4758SOL    HW215174   1.829   0.343   3.173
 4759SOL     OW15175   0.903   4.956   0.993
 4759SOL    HW115176   0.977   5.015   0.961
 4759SOL    HW215177   0.885   4.975   1.090
 4760SOL     OW15178   1.707   6.832   0.790
 4760SOL    HW115179   1.712   6.927   0.759
 4760SOL    HW215180   1.611   6.802   0.788
 4761SOL     OW15181   0.429   6.630   0.560
 4761SOL    HW115182   0.424   6.533   0.586
 4761SOL    HW215183   0.383   6.686   0.629
 4762SOL     OW15184   2.049   5.594   2.257
 4762SOL    HW115185   2.003   5.527   2.315
 4762SOL    HW215186   2.110   5.651   2.313
 4763SOL     OW15187   4.718   5.624   1.792
 4763SOL    HW115188   4.711   5.680   1.709
 4763SOL    HW215189   4.746   5.532   1.766
 4764SOL     OW15190   4.572   4.074   5.890
 4764SOL    HW115191   4.608   4.055   5.799
 4764SOL    HW215192   4.476   4.047   5.895
 4765SOL     OW15193   3.783   1.600   5.313
 4765SOL    HW115194   3.876   1.597   5.278
 4765SOL    HW215195   3.728   1.531   5.266
 4766SOL     OW15196   6.756   6.924   4.062
 4766SOL    HW115197   6.802   6.862   4.126
 4766SOL    HW215198   6.811   6.934   3.979
 4767SOL     OW15199   2.171   5.264   4.650
 4767SOL    HW115200   2.166   5.357   4.685
 4767SOL    HW215201   2.260   5.250   4.605
 4768SOL     OW15202   4.551   2.440   6.684
 4768SOL    HW115203   4.544   2.478   6.592
 4768SOL    HW215204   4.594   2.349   6.680
 4769SOL     OW15205   3.411   5.585   1.390
 4769SOL    HW115206   3.364   5.651   1.331
 4769SOL    HW215207   3.353   5.505   1.404
 4770SOL     OW15208   0.048   1.799   5.304
 4770SOL    HW115209   0.096   1.826   5.220
 4770SOL    HW215210   0.093   1.720   5.345
 4771SOL     OW15211   2.619   0.025   5.047
 4771SOL    HW115212   2.567   0.109   5.031
 4771SOL    HW215213   2.710   0.034   5.006
 4772SOL     OW15214   2.586   5.612   0.931
 4772SOL    HW115215   2.619   5.700   0.897
 4772SOL    HW215216   2.660   5.566   0.981
 4773SOL     OW15217   2.273   5.821   4.740
 4773SOL    HW115218   2.305   5.735   4.699
 4773SOL    HW215219   2.351   5.880   4.759
 4774SOL     OW15220   1.498   3.859   0.013
 4774SOL    HW115221   1.407   3.863   0.055
 4774SOL    HW215222   1.488   3.854   6.938
 4775SOL     OW15223   5.550   6.559   4.979
 4775SOL    HW115224   5.499   6.484   5.023
 4775SOL    HW215225   5.575   6.627   5.048
 4776SOL     OW15226   1.431   0.683   6.145
 4776SOL    HW115227   1.375   0.765   6.156
 4776SOL    HW215228   1.377   0.612   6.100
 4777SOL     OW15229   0.914   5.794   0.624
 4777SOL    HW115230   0.843   5.775   0.556
 4777SOL    HW215231   0.988   5.847   0.581
 4778SOL     OW15232   1.006   2.227   5.088
 4778SOL    HW115233   0.935   2.296   5.078
 4778SOL    HW215234   1.000   2.185   5.178
 4779SOL     OW15235   5.539   1.311   3.828
 4779SOL    HW115236   5.588   1.223   3.825
 4779SOL    HW215237   5.598   1.383   3.793
 4780SOL     OW15238   5.787   2.575   5.420
 4780SOL    HW115239   5.869   2.600   5.369
 4780SOL    HW215240   5.805   2.493   5.474
 4781SOL     OW15241   1.855   5.801   2.218
 4781SOL    HW115242   1.874   5.826   2.123
 4781SOL    HW215243   1.915   5.727   2.247
 4782SOL     OW15244   5.480   4.797   4.824
 4782SOL    HW115245   5.555   4.825   4.884
 4782SOL    HW215246   5.466   4.698   4.833
 4783SOL     OW15247   5.961   3.007   0.885
 4783SOL    HW115248   6.003   2.918   0.904
 4783SOL    HW215249   6.030   3.079   0.896
 4784SOL     OW15250   5.450   2.473   6.308
 4784SOL    HW115251   5.406   2.533   6.241
 4784SOL    HW215252   5.417   2.496   6.400
 4785SOL     OW15253   1.116   6.047   3.544
 4785SOL    HW115254   1.153   5.988   3.615
 4785SOL    HW215255   1.018   6.030   3.534
 4786SOL     OW15256   2.950   6.654   0.404
 4786SOL    HW115257   2.866   6.660   0.458
 4786SOL    HW215258   2.993   6.565   0.418
 4787SOL     OW15259   4.129   1.715   4.695
 4787SOL    HW115260   4.108   1.757   4.783
 4787SOL    HW215261   4.072   1.757   4.624
 4788SOL     OW15262   6.313   6.003   6.751
 4788SOL    HW115263   6.273   6.046   6.832
 4788SOL    HW215264   6.303   6.065   6.673
 4789SOL     OW15265   4.865   0.704   2.259
 4789SOL    HW115266   4.918   0.625   2.289
 4789SOL    HW215267   4.864   0.773   2.331
 4790SOL     OW15268   5.937   1.863   5.205
 4790SOL    HW115269   5.953   1.768   5.178
 4790SOL    HW215270   5.973   1.924   5.134
 4791SOL     OW15271   6.966   2.728   0.490
 4791SOL    HW115272   6.976   2.649   0.551
 4791SOL    HW215273   0.032   2.752   0.452
 4792SOL     OW15274   2.109   3.592   4.128
 4792SOL    HW115275   2.170   3.621   4.054
 4792SOL    HW215276   2.058   3.670   4.162
 4793SOL     OW15277   1.255   3.727   6.105
 4793SOL    HW115278   1.253   3.629   6.123
 4793SOL    HW215279   1.179   3.771   6.153
 4794SOL     OW15280   4.704   0.589   4.341
 4794SOL    HW115281   4.662   0.606   4.430
 4794SOL    HW215282   4.643   0.530   4.287
 4795SOL     OW15283   0.560   0.397   4.978
 4795SOL    HW115284   0.561   0.469   5.048
 4795SOL    HW215285   0.556   0.307   5.022
 4796SOL     OW15286   3.746   1.233   5.764
 4796SOL    HW115287   3.820   1.265   5.704
 4796SOL    HW215288   3.701   1.311   5.806
 4797SOL     OW15289   1.027   5.355   4.788
 4797SOL    HW115290   1.097   5.343   4.717
 4797SOL    HW215291   1.004   5.453   4.794
 4798SOL     OW15292   4.986   4.845   6.517
 4798SOL    HW115293   4.962   4.937   6.486
 4798SOL    HW215294   5.009   4.788   6.438
 4799SOL     OW15295   3.441   2.735   6.531
 4799SOL    HW115296   3.463   2.728   6.628
 4799SOL    HW215297   3.363   2.797   6.519
 4800SOL     OW15298   1.623   4.993   0.019
 4800SOL    HW115299   1.580   4.944   6.967
 4800SOL    HW215300   1.721   5.002   0.000
 4801SOL     OW15301   4.896   2.476   1.758
 4801SOL    HW115302   4.811   2.528   1.755
 4801SOL    HW215303   4.919   2.443   1.667
 4802SOL     OW15304   0.154   6.187   2.397
 4802SOL    HW115305   0.124   6.166   2.490
 4802SOL    HW215306   0.208   6.110   2.361
 4803SOL     OW15307   5.369   4.285   6.551
 4803SOL    HW115308   5.411   4.203   6.512
 4803SOL    HW215309   5.438   4.341   6.596
 4804SOL     OW15310   5.393   1.891   0.312
 4804SOL    HW115311   5.404   1.973   0.256
 4804SOL    HW215312   5.297   1.882   0.339
 4805SOL     OW15313   5.926   1.973   1.082
 4805SOL    HW115314   5.912   1.941   1.176
 4805SOL    HW215315   6.006   2.033   1.079
 4806SOL     OW15316   1.259   2.817   2.925
 4806SOL    HW115317   1.169   2.773   2.922
 4806SOL    HW215318   1.267   2.882   2.849
 4807SOL     OW15319   1.371   2.818   6.632
 4807SOL    HW115320   1.384   2.859   6.542
 4807SOL    HW215321   1.457   2.823   6.683
 4808SOL     OW15322   3.574   5.845   0.577
 4808SOL    HW115323   3.512   5.836   0.655
 4808SOL    HW215324   3.663   5.806   0.600
 4809SOL     OW15325   3.508   5.092   1.635
 4809SOL    HW115326   3.414   5.114   1.661
 4809SOL    HW215327   3.508   5.022   1.563
 4810SOL     OW15328   1.316   3.914   3.740
 4810SOL    HW115329   1.283   3.975   3.667
 4810SOL    HW215330   1.238   3.880   3.792
 4811SOL     OW15331   3.054   3.859   4.697
 4811SOL    HW115332   3.133   3.920   4.697
 4811SOL    HW215333   3.024   3.843   4.603
 4812SOL     OW15334   0.298   6.665   2.342
 4812SOL    HW115335   0.254   6.626   2.261
 4812SOL    HW215336   0.396   6.649   2.338
 4813SOL     OW15337   6.160   1.645   0.009
 4813SOL    HW115338   6.107   1.571   6.992
 4813SOL    HW215339   6.213   1.691   6.963
 4814SOL     OW15340   6.963   3.842   1.540
 4814SOL    HW115341   6.943   3.883   1.629
 4814SOL    HW215342   6.984   3.745   1.552
 4815SOL     OW15343   5.824   4.658   2.426
 4815SOL    HW115344   5.818   4.654   2.525
 4815SOL    HW215345   5.732   4.656   2.387
 4816SOL     OW15346   1.364   6.949   2.047
 4816SOL    HW115347   1.388   6.853   2.029
 4816SOL    HW215348   1.269   6.965   2.021
 4817SOL     OW15349   3.812   1.568   1.618
 4817SOL    HW115350   3.732   1.625   1.637
 4817SOL    HW215351   3.844   1.586   1.525
 4818SOL     OW15352   2.963   0.525   4.657
 4818SOL    HW115353   2.943   0.623   4.649
 4818SOL    HW215354   2.937   0.494   4.748
 4819SOL     OW15355   3.276   0.968   1.615
 4819SOL    HW115356   3.321   0.926   1.693
 4819SOL    HW215357   3.345   1.009   1.554
 4820SOL     OW15358   6.965   4.432   2.396
 4820SOL    HW115359   0.033   4.400   2.375
 4820SOL    HW215360   6.910   4.355   2.431
 4821SOL     OW15361   6.511   5.285   1.700
 4821SOL    HW115362   6.604   5.324   1.700
 4821SOL    HW215363   6.491   5.247   1.609
 4822SOL     OW15364   2.054   3.905   4.073
 4822SOL    HW115365   2.016   3.895   3.981
 4822SOL    HW215366   2.079   4.000   4.089
 4823SOL     OW15367   0.899   0.087   4.109
 4823SOL    HW115368   0.980   0.110   4.163
 4823SOL    HW215369   0.859   0.002   4.145
 4824SOL     OW15370   5.424   2.354   2.574
 4824SOL    HW115371   5.417   2.387   2.479
 4824SOL    HW215372   5.352   2.287   2.591
 4825SOL     OW15373   1.825   3.409   3.643
 4825SOL    HW115374   1.833   3.437   3.548
 4825SOL    HW215375   1.858   3.483   3.702
 4826SOL     OW15376   0.340   6.381   0.674
 4826SOL    HW115377   0.429   6.340   0.694
 4826SOL    HW215378   0.275   6.357   0.746
 4827SOL     OW15379   4.375   0.996   1.176
 4827SOL    HW115380   4.325   0.920   1.217
 4827SOL    HW215381   4.450   0.960   1.120
 4828SOL     OW15382   5.064   3.222   1.888
 4828SOL    HW115383   5.117   3.306   1.875
 4828SOL    HW215384   5.024   3.222   1.980
 4829SOL     OW15385   3.095   0.384   5.978
 4829SOL    HW115386   3.031   0.311   5.953
 4829SOL    HW215387   3.049   0.450   6.038
 4830SOL     OW15388   4.902   6.126   3.574
 4830SOL    HW115389   4.907   6.065   3.653
 4830SOL    HW215390   4.901   6.221   3.606
 4831SOL     OW15391   6.498   4.659   5.229
 4831SOL    HW115392   6.580   4.640   5.283
 4831SOL    HW215393   6.419   4.667   5.290
 4832SOL     OW15394   3.256   3.117   5.912
 4832SOL    HW115395   3.169   3.158   5.885
 4832SOL    HW215396   3.264   3.026   5.872
 4833SOL     OW15397   4.212   1.165   3.442
 4833SOL    HW115398   4.123   1.193   3.478
 4833SOL    HW215399   4.199   1.113   3.358
 4834SOL     OW15400   4.145   1.220   1.205
 4834SOL    HW115401   4.188   1.293   1.257
 4834SOL    HW215402   4.203   1.139   1.207
 4835SOL     OW15403   2.077   0.097   6.474
 4835SOL    HW115404   2.064   0.069   6.569
 4835SOL    HW215405   2.170   0.132   6.462
 4836SOL     OW15406   5.144   1.938   4.170
 4836SOL    HW115407   5.182   2.006   4.106
 4836SOL    HW215408   5.211   1.865   4.185
 4837SOL     OW15409   2.912   2.454   1.114
 4837SOL    HW115410   2.853   2.495   1.044
 4837SOL    HW215411   2.935   2.360   1.086
 4838SOL     OW15412   3.770   4.892   2.241
 4838SOL    HW115413   3.738   4.834   2.166
 4838SOL    HW215414   3.700   4.897   2.312
 4839SOL     OW15415   0.180   5.488   5.734
 4839SOL    HW115416   0.089   5.528   5.731
 4839SOL    HW215417   0.228   5.519   5.816
 4840SOL     OW15418   6.170   6.746   0.364
 4840SOL    HW115419   6.116   6.830   0.357
 4840SOL    HW215420   6.165   6.696   0.278
 4841SOL     OW15421   3.359   5.982   1.686
 4841SOL    HW115422   3.454   5.955   1.671
 4841SOL    HW215423   3.347   6.008   1.782
 4842SOL     OW15424   3.842   5.801   1.559
 4842SOL    HW115425   3.928   5.759   1.588
 4842SOL    HW215426   3.801   5.746   1.486
 4843SOL     OW15427   0.012   3.640   0.340
 4843SOL    HW115428   0.088   3.704   0.338
 4843SOL    HW215429   6.951   3.690   0.357
 4844SOL     OW15430   6.704   2.827   0.007
 4844SOL    HW115431   6.727   2.731   7.017
 4844SOL    HW215432   6.617   2.848   6.986
 4845SOL     OW15433   6.122   5.550   3.971
 4845SOL    HW115434   6.112   5.464   4.023
 4845SOL    HW215435   6.195   5.539   3.904
 4846SOL     OW15436   1.422   3.005   1.056
 4846SOL    HW115437   1.450   2.912   1.082
 4846SOL    HW215438   1.503   3.060   1.035
 4847SOL     OW15439   3.668   1.852   5.245
 4847SOL    HW115440   3.680   1.775   5.307
 4847SOL    HW215441   3.636   1.819   5.156
 4848SOL     OW15442   1.781   1.340   3.430
 4848SOL    HW115443   1.817   1.249   3.448
 4848SOL    HW215444   1.838   1.408   3.476
 4849SOL     OW15445   1.523   0.239   0.236
 4849SOL    HW115446   1.585   0.317   0.228
 4849SOL    HW215447   1.429   0.269   0.217
 4850SOL     OW15448   3.979   0.297   1.755
 4850SOL    HW115449   3.965   0.226   1.687
 4850SOL    HW215450   4.069   0.285   1.797
 4851SOL     OW15451   4.054   6.144   5.618
 4851SOL    HW115452   4.128   6.077   5.623
 4851SOL    HW215453   4.084   6.223   5.565
 4852SOL     OW15454   1.948   0.953   0.048
 4852SOL    HW115455   1.965   1.051   0.048
 4852SOL    HW215456   1.865   0.934   7.020
 4853SOL     OW15457   3.537   1.503   2.950
 4853SOL    HW115458   3.461   1.486   2.888
 4853SOL    HW215459   3.509   1.566   3.022
 4854SOL     OW15460   4.811   5.444   2.321
 4854SOL    HW115461   4.853   5.440   2.412
 4854SOL    HW215462   4.871   5.493   2.258
 4855SOL     OW15463   5.908   1.817   2.106
 4855SOL    HW115464   5.860   1.732   2.126
 4855SOL    HW215465   5.923   1.867   2.191
 4856SOL     OW15466   2.847   4.790   3.665
 4856SOL    HW115467   2.934   4.831   3.691
 4856SOL    HW215468   2.839   4.699   3.706
 4857SOL     OW15469   1.059   2.034   6.012
 4857SOL    HW115470   1.040   2.010   6.107
 4857SOL    HW215471   1.097   1.955   5.965
 4858SOL     OW15472   1.791   2.144   4.729
 4858SOL    HW115473   1.851   2.096   4.665
 4858SOL    HW215474   1.811   2.242   4.726
 4859SOL     OW15475   1.838   5.724   4.812
 4859SOL    HW115476   1.890   5.807   4.835
 4859SOL    HW215477   1.790   5.691   4.894
 4860SOL     OW15478   4.560   5.429   1.423
 4860SOL    HW115479   4.511   5.506   1.464
 4860SOL    HW215480   4.498   5.351   1.414
 4861SOL     OW15481   5.152   5.081   6.782
 4861SOL    HW115482   5.081   5.053   6.847
 4861SOL    HW215483   5.133   5.042   6.692
 4862SOL     OW15484   1.282   5.219   2.938
 4862SOL    HW115485   1.267   5.212   3.037
 4862SOL    HW215486   1.213   5.166   2.890
 4863SOL     OW15487   5.598   4.121   0.695
 4863SOL    HW115488   5.657   4.052   0.736
 4863SOL    HW215489   5.594   4.108   0.596
 4864SOL     OW15490   2.851   0.906   3.305
 4864SOL    HW115491   2.803   0.856   3.233
 4864SOL    HW215492   2.942   0.933   3.271
 4865SOL     OW15493   2.345   6.331   4.138
 4865SOL    HW115494   2.349   6.376   4.228
 4865SOL    HW215495   2.257   6.353   4.094
 4866SOL     OW15496   6.988   3.579   1.555
 4866SOL    HW115497   7.006   3.586   1.653
 4866SOL    HW215498   0.048   3.553   1.508
 4867SOL     OW15499   4.618   5.603   2.425
 4867SOL    HW115500   4.582   5.661   2.352
 4867SOL    HW215501   4.664   5.524   2.384
 4868SOL     OW15502   6.328   4.218   1.752
 4868SOL    HW115503   6.350   4.294   1.813
 4868SOL    HW215504   6.400   4.210   1.682
 4869SOL     OW15505   1.696   1.737   0.310
 4869SOL    HW115506   1.743   1.815   0.351
 4869SOL    HW215507   1.616   1.768   0.260
 4870SOL     OW15508   0.619   6.476   2.117
 4870SOL    HW115509   0.578   6.567   2.120
 4870SOL    HW215510   0.566   6.413   2.174
 4871SOL     OW15511   1.550   0.690   4.273
 4871SOL    HW115512   1.494   0.769   4.300
 4871SOL    HW215513   1.646   0.713   4.282
 4872SOL     OW15514   6.968   6.664   3.170
 4872SOL    HW115515   7.011   6.737   3.117
 4872SOL    HW215516   6.873   6.654   3.142
 4873SOL     OW15517   6.821   5.782   4.496
 4873SOL    HW115518   6.911   5.777   4.452
 4873SOL    HW215519   6.833   5.783   4.595
 4874SOL     OW15520   4.904   2.341   3.199
 4874SOL    HW115521   4.896   2.328   3.297
 4874SOL    HW215522   4.813   2.340   3.158
 4875SOL     OW15523   4.968   6.859   6.927
 4875SOL    HW115524   4.945   6.762   6.933
 4875SOL    HW215525   5.032   6.873   6.851
 4876SOL     OW15526   1.017   1.531   3.082
 4876SOL    HW115527   1.065   1.535   2.994
 4876SOL    HW215528   1.077   1.490   3.150
 4877SOL     OW15529   0.607   2.012   5.161
 4877SOL    HW115530   0.586   1.931   5.217
 4877SOL    HW215531   0.532   2.078   5.169
 4878SOL     OW15532   6.907   1.730   1.775
 4878SOL    HW115533   6.842   1.803   1.757
 4878SOL    HW215534   6.935   1.687   1.689
 4879SOL     OW15535   4.713   1.739   2.432
 4879SOL    HW115536   4.616   1.756   2.450
 4879SOL    HW215537   4.767   1.817   2.461
 4880SOL     OW15538   6.481   2.909   6.903
 4880SOL    HW115539   6.430   2.823   6.915
 4880SOL    HW215540   6.434   2.966   6.836
 4881SOL     OW15541   1.617   2.486   1.354
 4881SOL    HW115542   1.712   2.458   1.336
 4881SOL    HW215543   1.611   2.585   1.356
 4882SOL     OW15544   4.207   2.054   5.062
 4882SOL    HW115545   4.290   2.109   5.054
 4882SOL    HW215546   4.225   1.974   5.120
 4883SOL     OW15547   5.066   4.104   1.869
 4883SOL    HW115548   5.027   4.052   1.793
 4883SOL    HW215549   5.166   4.105   1.861
 4884SOL     OW15550   2.141   5.730   0.808
 4884SOL    HW115551   2.138   5.825   0.841
 4884SOL    HW215552   2.213   5.720   0.740
 4885SOL     OW15553   2.374   4.842   1.972
 4885SOL    HW115554   2.429   4.881   2.046
 4885SOL    HW215555   2.426   4.771   1.926
 4886SOL     OW15556   3.463   0.072   1.948
 4886SOL    HW115557   3.447   0.095   2.044
 4886SOL    HW215558   3.388   0.108   1.892
 4887SOL     OW15559   1.210   6.753   1.725
 4887SOL    HW115560   1.201   6.656   1.700
 4887SOL    HW215561   1.198   6.809   1.643
 4888SOL     OW15562   3.009   6.798   3.012
 4888SOL    HW115563   3.107   6.811   2.993
 4888SOL    HW215564   2.987   6.840   3.100
 4889SOL     OW15565   6.575   1.800   4.527
 4889SOL    HW115566   6.557   1.833   4.434
 4889SOL    HW215567   6.656   1.846   4.563
 4890SOL     OW15568   0.868   0.694   5.293
 4890SOL    HW115569   0.939   0.727   5.355
 4890SOL    HW215570   0.861   0.754   5.214
 4891SOL     OW15571   2.277   4.886   6.201
 4891SOL    HW115572   2.220   4.805   6.195
 4891SOL    HW215573   2.269   4.926   6.293
 4892SOL     OW15574   5.997   6.406   2.483
 4892SOL    HW115575   5.954   6.337   2.424
 4892SOL    HW215576   6.096   6.392   2.483
 4893SOL     OW15577   0.210   3.156   2.074
 4893SOL    HW115578   0.202   3.236   2.015
 4893SOL    HW215579   0.289   3.101   2.046
 4894SOL     OW15580   3.713   0.013   2.013
 4894SOL    HW115581   3.705   6.940   2.036
 4894SOL    HW215582   3.625   0.046   1.979
 4895SOL     OW15583   0.178   4.824   3.164
 4895SOL    HW115584   0.237   4.897   3.129
 4895SOL    HW215585   0.230   4.739   3.168
 4896SOL     OW15586   2.202   5.156   3.772
 4896SOL    HW115587   2.200   5.228   3.702
 4896SOL    HW215588   2.288   5.105   3.763
 4897SOL     OW15589   1.780   5.811   5.341
 4897SOL    HW115590   1.842   5.814   5.263
 4897SOL    HW215591   1.832   5.821   5.425
 4898SOL     OW15592   4.165   1.023   5.044
 4898SOL    HW115593   4.190   1.120   5.043
 4898SOL    HW215594   4.075   1.012   5.002
 4899SOL     OW15595   6.239   5.558   2.247
 4899SOL    HW115596   6.250   5.619   2.326
 4899SOL    HW215597   6.201   5.471   2.278
 4900SOL     OW15598   4.269   5.926   5.589
 4900SOL    HW115599   4.210   5.893   5.515
 4900SOL    HW215600   4.364   5.927   5.557
 4901SOL     OW15601   0.946   2.689   5.198
 4901SOL    HW115602   0.903   2.648   5.279
 4901SOL    HW215603   1.045   2.676   5.203
 4902SOL     OW15604   2.278   0.545   6.208
 4902SOL    HW115605   2.192   0.506   6.175
 4902SOL    HW215606   2.330   0.475   6.257
 4903SOL     OW15607   4.507   5.819   0.889
 4903SOL    HW115608   4.606   5.807   0.901
 4903SOL    HW215609   4.459   5.763   0.957
 4904SOL     OW15610   2.369   0.767   5.682
 4904SOL    HW115611   2.462   0.735   5.700
 4904SOL    HW215612   2.304   0.709   5.731
 4905SOL     OW15613   2.930   0.100   2.994
 4905SOL    HW115614   2.947   0.077   2.899
 4905SOL    HW215615   2.943   0.198   3.007
 4906SOL     OW15616   4.812   3.339   5.278
 4906SOL    HW115617   4.853   3.297   5.198
 4906SOL    HW215618   4.739   3.402   5.250
 4907SOL     OW15619   4.906   1.260   0.625
 4907SOL    HW115620   4.968   1.308   0.563
 4907SOL    HW215621   4.814   1.300   0.617
 4908SOL     OW15622   4.706   0.451   0.504
 4908SOL    HW115623   4.741   0.364   0.538
 4908SOL    HW215624   4.606   0.451   0.509
 4909SOL     OW15625   6.299   4.046   3.274
 4909SOL    HW115626   6.363   4.077   3.204
 4909SOL    HW215627   6.340   3.970   3.326
 4910SOL     OW15628   5.692   0.881   4.718
 4910SOL    HW115629   5.650   0.955   4.771
 4910SOL    HW215630   5.624   0.809   4.701
 4911SOL     OW15631   1.941   2.302   2.865
 4911SOL    HW115632   1.902   2.389   2.897
 4911SOL    HW215633   1.977   2.251   2.943
 4912SOL     OW15634   5.270   1.860   5.493
 4912SOL    HW115635   5.319   1.806   5.561
 4912SOL    HW215636   5.300   1.833   5.401
 4913SOL     OW15637   5.284   2.814   5.948
 4913SOL    HW115638   5.243   2.840   6.035
 4913SOL    HW215639   5.236   2.860   5.873
 4914SOL     OW15640   4.366   0.334   5.252
 4914SOL    HW115641   4.456   0.319   5.291
 4914SOL    HW215642   4.317   0.403   5.305
 4915SOL     OW15643   2.967   6.186   5.470
 4915SOL    HW115644   2.922   6.243   5.401
 4915SOL    HW215645   2.944   6.220   5.561
 4916SOL     OW15646   6.598   0.595   4.267
 4916SOL    HW115647   6.500   0.586   4.255
 4916SOL    HW215648   6.643   0.509   4.243
 4917SOL     OW15649   3.391   5.854   0.795
 4917SOL    HW115650   3.399   5.762   0.756
 4917SOL    HW215651   3.311   5.859   0.854
 4918SOL     OW15652   6.332   5.511   1.999
 4918SOL    HW115653   6.426   5.482   2.015
 4918SOL    HW215654   6.298   5.557   2.081
 4919SOL     OW15655   3.881   3.091   2.133
 4919SOL    HW115656   3.822   3.120   2.058
 4919SOL    HW215657   3.841   3.012   2.179
 4920SOL     OW15658   5.687   0.444   5.260
 4920SOL    HW115659   5.728   0.466   5.348
 4920SOL    HW215660   5.741   0.373   5.214
 4921SOL     OW15661   1.121   5.924   0.530
 4921SOL    HW115662   1.134   5.955   0.436
 4921SOL    HW215663   1.207   5.887   0.565
 4922SOL     OW15664   3.309   2.076   5.125
 4922SOL    HW115665   3.264   2.166   5.129
 4922SOL    HW215666   3.241   2.005   5.109
 4923SOL     OW15667   3.251   1.995   2.872
 4923SOL    HW115668   3.260   1.973   2.969
 4923SOL    HW215669   3.163   2.040   2.855
 4924SOL     OW15670   2.601   1.572   5.892
 4924SOL    HW115671   2.660   1.584   5.812
 4924SOL    HW215672   2.587   1.660   5.937
 4925SOL     OW15673   4.385   6.966   3.302
 4925SOL    HW115674   4.447   6.987   3.226
 4925SOL    HW215675   4.293   6.950   3.267
 4926SOL     OW15676   5.556   1.731   1.558
 4926SOL    HW115677   5.466   1.767   1.534
 4926SOL    HW215678   5.620   1.748   1.482
 4927SOL     OW15679   3.099   2.372   6.372
 4927SOL    HW115680   3.022   2.429   6.343
 4927SOL    HW215681   3.141   2.330   6.291
 4928SOL     OW15682   1.054   1.484   1.173
 4928SOL    HW115683   1.035   1.484   1.272
 4928SOL    HW215684   1.124   1.415   1.153
 4929SOL     OW15685   0.058   0.328   3.552
 4929SOL    HW115686   0.155   0.351   3.564
 4929SOL    HW215687   0.043   0.293   3.460
 4930SOL     OW15688   6.045   6.886   2.226
 4930SOL    HW115689   5.965   6.882   2.166
 4930SOL    HW215690   6.018   6.865   2.320
 4931SOL     OW15691   6.107   6.486   1.676
 4931SOL    HW115692   6.200   6.518   1.657
 4931SOL    HW215693   6.110   6.399   1.725
 4932SOL     OW15694   3.561   4.058   3.287
 4932SOL    HW115695   3.596   4.071   3.380
 4932SOL    HW215696   3.503   4.137   3.262
 4933SOL     OW15697   2.395   6.454   4.388
 4933SOL    HW115698   2.479   6.399   4.392
 4933SOL    HW215699   2.379   6.497   4.476
 4934SOL     OW15700   3.437   5.996   2.539
 4934SOL    HW115701   3.533   6.013   2.562
 4934SOL    HW215702   3.421   5.898   2.533
 4935SOL     OW15703   1.332   2.084   6.936
 4935SOL    HW115704   1.323   2.053   0.007
 4935SOL    HW215705   1.420   2.129   6.924
 4936SOL     OW15706   2.460   4.474   1.116
 4936SOL    HW115707   2.387   4.450   1.052
 4936SOL    HW215708   2.541   4.419   1.096
 4937SOL     OW15709   4.752   2.882   4.959
 4937SOL    HW115710   4.711   2.798   4.995
 4937SOL    HW215711   4.836   2.903   5.010
 4938SOL     OW15712   3.668   5.588   5.542
 4938SOL    HW115713   3.610   5.670   5.540
 4938SOL    HW215714   3.699   5.567   5.450
 4939SOL     OW15715   4.716   3.440   5.682
 4939SOL    HW115716   4.708   3.534   5.650
 4939SOL    HW215717   4.625   3.401   5.698
 4940SOL     OW15718   2.065   0.107   5.192
 4940SOL    HW115719   1.975   0.091   5.232
 4940SOL    HW215720   2.112   0.179   5.242
 4941SOL     OW15721   4.267   1.524   0.031
 4941SOL    HW115722   4.296   1.556   0.121
 4941SOL    HW215723   4.325   1.565   6.984
 4942SOL     OW15724   5.166   3.723   5.472
 4942SOL    HW115725   5.088   3.726   5.534
 4942SOL    HW215726   5.168   3.634   5.425
 4943SOL     OW15727   4.548   2.268   0.736
 4943SOL    HW115728   4.475   2.300   0.676
 4943SOL    HW215729   4.610   2.344   0.756
 4944SOL     OW15730   2.192   4.366   3.007
 4944SOL    HW115731   2.173   4.268   2.999
 4944SOL    HW215732   2.222   4.386   3.101
 4945SOL     OW15733   0.808   6.788   3.956
 4945SOL    HW115734   0.819   6.693   3.926
 4945SOL    HW215735   0.860   6.848   3.895
 4946SOL     OW15736   1.541   3.171   2.013
 4946SOL    HW115737   1.453   3.213   1.991
 4946SOL    HW215738   1.564   3.189   2.109
 4947SOL     OW15739   0.845   6.938   0.667
 4947SOL    HW115740   0.790   6.882   0.604
 4947SOL    HW215741   0.804   6.935   0.758
 4948SOL     OW15742   2.264   1.093   2.732
 4948SOL    HW115743   2.230   1.154   2.804
 4948SOL    HW215744   2.325   1.025   2.772
 4949SOL     OW15745   5.068   0.422   5.299
 4949SOL    HW115746   5.123   0.488   5.248
 4949SOL    HW215747   5.129   0.355   5.342
 4950SOL     OW15748   2.336   6.172   4.838
 4950SOL    HW115749   2.424   6.129   4.856
 4950SOL    HW215750   2.293   6.127   4.759
 4951SOL     OW15751   4.345   1.464   4.357
 4951SOL    HW115752   4.334   1.365   4.369
 4951SOL    HW215753   4.300   1.512   4.432
 4952SOL     OW15754   0.198   6.567   5.167
 4952SOL    HW115755   0.182   6.569   5.068
 4952SOL    HW215756   0.287   6.609   5.187
 4953SOL     OW15757   2.263   5.391   0.968
 4953SOL    HW115758   2.177   5.402   0.919
 4953SOL    HW215759   2.329   5.458   0.934
 4954SOL     OW15760   5.423   5.028   0.221
 4954SOL    HW115761   5.420   5.035   0.321
 4954SOL    HW215762   5.488   4.957   0.195
 4955SOL     OW15763   1.892   6.771   0.998
 4955SOL    HW115764   1.820   6.775   0.929
 4955SOL    HW215765   1.875   6.693   1.058
 4956SOL     OW15766   4.280   6.937   5.532
 4956SOL    HW115767   4.283   7.004   5.457
 4956SOL    HW215768   4.371   6.929   5.572
 4957SOL     OW15769   0.444   1.119   4.287
 4957SOL    HW115770   0.467   1.026   4.255
 4957SOL    HW215771   0.513   1.149   4.352
 4958SOL     OW15772   0.299   6.315   6.427
 4958SOL    HW115773   0.366   6.348   6.360
 4958SOL    HW215774   0.263   6.226   6.398
 4959SOL     OW15775   0.899   1.263   0.289
 4959SOL    HW115776   0.925   1.336   0.227
 4959SOL    HW215777   0.981   1.211   0.316
 4960SOL     OW15778   3.799   6.793   3.985
 4960SOL    HW115779   3.712   6.744   3.983
 4960SOL    HW215780   3.787   6.885   3.946
 4961SOL     OW15781   5.301   6.994   4.886
 4961SOL    HW115782   5.297   0.060   4.843
 4961SOL    HW215783   5.353   6.999   4.971
 4962SOL     OW15784   5.788   2.755   2.083
 4962SOL    HW115785   5.818   2.809   2.162
 4962SOL    HW215786   5.808   2.805   1.999
 4963SOL     OW15787   0.530   5.301   1.053
 4963SOL    HW115788   0.446   5.339   1.014
 4963SOL    HW215789   0.561   5.224   0.997
 4964SOL     OW15790   3.438   6.426   3.382
 4964SOL    HW115791   3.524   6.378   3.400
 4964SOL    HW215792   3.445   6.477   3.297
 4965SOL     OW15793   0.368   6.704   4.824
 4965SOL    HW115794   0.368   6.717   4.724
 4965SOL    HW215795   0.418   6.779   4.867
 4966SOL     OW15796   2.919   6.319   5.210
 4966SOL    HW115797   2.998   6.371   5.179
 4966SOL    HW215798   2.929   6.223   5.182
 4967SOL     OW15799   3.826   2.770   0.113
 4967SOL    HW115800   3.801   2.847   0.172
 4967SOL    HW215801   3.742   2.722   0.084
 4968SOL     OW15802   4.723   2.749   3.536
 4968SOL    HW115803   4.696   2.769   3.630
 4968SOL    HW215804   4.647   2.704   3.488
 4969SOL     OW15805   1.740   1.338   1.516
 4969SOL    HW115806   1.816   1.401   1.500
 4969SOL    HW215807   1.756   1.253   1.466
 4970SOL     OW15808   1.192   2.066   4.924
 4970SOL    HW115809   1.146   1.981   4.900
 4970SOL    HW215810   1.134   2.119   4.987
 4971SOL     OW15811   5.820   6.172   2.961
 4971SOL    HW115812   5.799   6.074   2.958
 4971SOL    HW215813   5.831   6.207   2.868
 4972SOL     OW15814   1.754   3.554   0.987
 4972SOL    HW115815   1.852   3.535   0.976
 4972SOL    HW215816   1.702   3.501   0.920
 4973SOL     OW15817   6.218   6.023   2.280
 4973SOL    HW115818   6.226   6.044   2.183
 4973SOL    HW215819   6.125   5.991   2.298
 4974SOL     OW15820   5.208   6.041   2.751
 4974SOL    HW115821   5.141   6.048   2.826
 4974SOL    HW215822   5.218   5.945   2.725
 4975SOL     OW15823   6.213   6.449   0.543
 4975SOL    HW115824   6.217   6.530   0.485
 4975SOL    HW215825   6.120   6.412   0.543
 4976SOL     OW15826   3.267   0.568   5.007
 4976SOL    HW115827   3.283   0.536   5.101
 4976SOL    HW215828   3.180   0.616   5.003
 4977SOL     OW15829   4.353   3.631   0.356
 4977SOL    HW115830   4.324   3.569   0.429
 4977SOL    HW215831   4.442   3.671   0.379
 4978SOL     OW15832   5.790   3.706   5.405
 4978SOL    HW115833   5.723   3.653   5.354
 4978SOL    HW215834   5.743   3.763   5.473
 4979SOL     OW15835   0.354   0.541   5.793
 4979SOL    HW115836   0.372   0.445   5.770
 4979SOL    HW215837   0.281   0.577   5.735
 4980SOL     OW15838   3.845   5.249   2.426
 4980SOL    HW115839   3.804   5.162   2.453
 4980SOL    HW215840   3.808   5.322   2.483
 4981SOL     OW15841   4.506   6.855   5.653
 4981SOL    HW115842   4.562   6.771   5.658
 4981SOL    HW215843   4.561   6.933   5.683
 4982SOL     OW15844   1.887   2.294   0.220
 4982SOL    HW115845   1.936   2.304   0.133
 4982SOL    HW215846   1.944   2.243   0.284
 4983SOL     OW15847   5.490   2.609   3.784
 4983SOL    HW115848   5.547   2.691   3.793
 4983SOL    HW215849   5.421   2.608   3.857
 4984SOL     OW15850   5.081   3.882   4.387
 4984SOL    HW115851   5.056   3.875   4.291
 4984SOL    HW215852   5.179   3.863   4.398
 4985SOL     OW15853   5.052   5.414   2.906
 4985SOL    HW115854   5.150   5.429   2.920
 4985SOL    HW215855   5.001   5.497   2.928
 4986SOL     OW15856   5.555   4.490   3.135
 4986SOL    HW115857   5.635   4.434   3.117
 4986SOL    HW215858   5.584   4.575   3.180
 4987SOL     OW15859   0.091   2.924   1.134
 4987SOL    HW115860   0.119   2.870   1.054
 4987SOL    HW215861   0.089   3.021   1.110
 4988SOL     OW15862   0.445   1.475   4.324
 4988SOL    HW115863   0.347   1.473   4.308
 4988SOL    HW215864   0.472   1.397   4.380
 4989SOL     OW15865   0.100   1.338   0.607
 4989SOL    HW115866   0.069   1.260   0.553
 4989SOL    HW215867   0.058   1.334   0.698
 4990SOL     OW15868   0.616   2.588   5.190
 4990SOL    HW115869   0.602   2.681   5.222
 4990SOL    HW215870   0.606   2.524   5.267
 4991SOL     OW15871   0.093   2.804   4.161
 4991SOL    HW115872   0.102   2.880   4.096
 4991SOL    HW215873   0.095   2.839   4.254
 4992SOL     OW15874   3.306   0.862   5.254
 4992SOL    HW115875   3.381   0.882   5.191
 4992SOL    HW215876   3.219   0.869   5.206
 4993SOL     OW15877   3.139   6.085   3.864
 4993SOL    HW115878   3.129   6.165   3.805
 4993SOL    HW215879   3.058   6.028   3.857
 4994SOL     OW15880   0.590   0.148   3.096
 4994SOL    HW115881   0.562   0.120   3.004
 4994SOL    HW215882   0.532   0.223   3.127
 4995SOL     OW15883   6.878   2.565   6.333
 4995SOL    HW115884   6.877   2.616   6.247
 4995SOL    HW215885   6.872   2.629   6.409
 4996SOL     OW15886   0.324   2.258   2.166
 4996SOL    HW115887   0.278   2.225   2.084
 4996SOL    HW215888   0.417   2.222   2.169
 4997SOL     OW15889   6.785   1.992   2.737
 4997SOL    HW115890   6.766   1.897   2.762
 4997SOL    HW215891   6.746   2.053   2.806
 4998SOL     OW15892   1.288   5.331   4.672
 4998SOL    HW115893   1.303   5.428   4.689
 4998SOL    HW215894   1.288   5.313   4.574
 4999SOL     OW15895   5.648   6.029   0.911
 4999SOL    HW115896   5.739   6.038   0.871
 4999SOL    HW215897   5.646   5.949   0.970
 5000SOL     OW15898   0.907   0.358   4.576
 5000SOL    HW115899   0.880   0.399   4.663
 5000SOL    HW215900   0.930   0.430   4.511
 5001SOL     OW15901   2.726   4.052   5.467
 5001SOL    HW115902   2.696   3.975   5.410
 5001SOL    HW215903   2.783   4.114   5.413
 5002SOL     OW15904   2.134   0.866   2.283
 5002SOL    HW115905   2.139   0.914   2.195
 5002SOL    HW215906   2.131   0.933   2.357
 5003SOL     OW15907   6.647   6.302   2.637
 5003SOL    HW115908   6.676   6.305   2.732
 5003SOL    HW215909   6.553   6.337   2.630
 5004SOL     OW15910   2.314   5.745   6.583
 5004SOL    HW115911   2.402   5.769   6.543
 5004SOL    HW215912   2.249   5.726   6.509
 5005SOL     OW15913   4.477   3.067   0.716
 5005SOL    HW115914   4.454   2.987   0.772
 5005SOL    HW215915   4.394   3.107   0.679
 5006SOL     OW15916   5.439   6.350   5.086
 5006SOL    HW115917   5.483   6.290   5.020
 5006SOL    HW215918   5.388   6.295   5.153
 5007SOL     OW15919   4.249   0.989   5.904
 5007SOL    HW115920   4.320   1.034   5.959
 5007SOL    HW215921   4.159   1.014   5.939
 5008SOL     OW15922   5.546   1.179   3.543
 5008SOL    HW115923   5.526   1.267   3.585
 5008SOL    HW215924   5.645   1.166   3.539
 5009SOL     OW15925   0.880   6.438   2.131
 5009SOL    HW115926   0.782   6.454   2.142
 5009SOL    HW215927   0.928   6.467   2.214
 5010SOL     OW15928   3.859   3.954   3.526
 5010SOL    HW115929   3.884   3.950   3.623
 5010SOL    HW215930   3.917   3.892   3.474
 5011SOL     OW15931   0.561   3.090   2.265
 5011SOL    HW115932   0.557   3.160   2.336
 5011SOL    HW215933   0.629   3.116   2.196
 5012SOL     OW15934   0.104   2.713   5.926
 5012SOL    HW115935   0.098   2.807   5.893
 5012SOL    HW215936   0.012   2.676   5.940
 5013SOL     OW15937   4.036   0.909   6.266
 5013SOL    HW115938   4.135   0.906   6.278
 5013SOL    HW215939   3.992   0.917   6.356
 5014SOL     OW15940   6.163   6.557   0.799
 5014SOL    HW115941   6.071   6.572   0.763
 5014SOL    HW215942   6.222   6.523   0.726
 5015SOL     OW15943   4.330   2.196   3.821
 5015SOL    HW115944   4.429   2.200   3.813
 5015SOL    HW215945   4.304   2.125   3.887
 5016SOL     OW15946   1.925   0.415   2.910
 5016SOL    HW115947   1.925   0.464   2.823
 5016SOL    HW215948   1.858   0.341   2.907
 5017SOL     OW15949   2.299   1.824   0.919
 5017SOL    HW115950   2.382   1.789   0.875
 5017SOL    HW215951   2.296   1.924   0.908
 5018SOL     OW15952   6.990   4.611   3.130
 5018SOL    HW115953   6.929   4.534   3.146
 5018SOL    HW215954   7.001   4.664   3.214
 5019SOL     OW15955   2.322   4.327   0.844
 5019SOL    HW115956   2.375   4.295   0.766
 5019SOL    HW215957   2.318   4.255   0.913
 5020SOL     OW15958   4.512   5.380   6.272
 5020SOL    HW115959   4.571   5.300   6.275
 5020SOL    HW215960   4.470   5.387   6.182
 5021SOL     OW15961   1.838   4.687   5.783
 5021SOL    HW115962   1.910   4.648   5.840
 5021SOL    HW215963   1.876   4.718   5.696
 5022SOL     OW15964   1.828   6.416   0.736
 5022SOL    HW115965   1.879   6.464   0.664
 5022SOL    HW215966   1.792   6.330   0.701
 5023SOL     OW15967   6.133   2.788   0.903
 5023SOL    HW115968   6.067   2.723   0.939
 5023SOL    HW215969   6.216   2.787   0.959
 5024SOL     OW15970   6.699   3.728   3.491
 5024SOL    HW115971   6.767   3.794   3.458
 5024SOL    HW215972   6.717   3.639   3.450
 5025SOL     OW15973   4.994   1.887   2.922
 5025SOL    HW115974   4.962   1.838   3.004
 5025SOL    HW215975   5.013   1.982   2.947
 5026SOL     OW15976   6.140   5.442   4.410
 5026SOL    HW115977   6.086   5.421   4.491
 5026SOL    HW215978   6.109   5.385   4.334
 5027SOL     OW15979   0.288   6.981   3.368
 5027SOL    HW115980   0.363   6.941   3.315
 5027SOL    HW215981   0.259   0.042   3.324
 5028SOL     OW15982   0.338   6.443   2.817
 5028SOL    HW115983   0.322   6.346   2.798
 5028SOL    HW215984   0.298   6.498   2.744
 5029SOL     OW15985   0.297   2.379   1.511
 5029SOL    HW115986   0.363   2.305   1.500
 5029SOL    HW215987   0.240   2.362   1.591
 5030SOL     OW15988   6.736   0.373   6.657
 5030SOL    HW115989   6.764   0.286   6.700
 5030SOL    HW215990   6.698   0.433   6.727
 5031SOL     OW15991   5.586   0.524   4.300
 5031SOL    HW115992   5.649   0.499   4.226
 5031SOL    HW215993   5.526   0.597   4.269
 5032SOL     OW15994   1.483   5.211   0.675
 5032SOL    HW115995   1.541   5.292   0.683
 5032SOL    HW215996   1.530   5.132   0.715
 5033SOL     OW15997   2.378   4.470   5.576
 5033SOL    HW115998   2.285   4.439   5.555
 5033SOL    HW215999   2.410   4.531   5.503
 5034SOL     OW16000   6.063   2.194   2.106
 5034SOL    HW116001   5.995   2.247   2.055
 5034SOL    HW216002   6.125   2.148   2.041
 5035SOL     OW16003   4.943   5.489   0.582
 5035SOL    HW116004   5.036   5.456   0.566
 5035SOL    HW216005   4.894   5.424   0.640
 5036SOL     OW16006   0.861   6.058   0.707
 5036SOL    HW116007   0.866   5.967   0.665
 5036SOL    HW216008   0.904   6.125   0.646
 5037SOL     OW16009   4.350   1.589   3.661
 5037SOL    HW116010   4.399   1.658   3.714
 5037SOL    HW216011   4.407   1.507   3.652
 5038SOL     OW16012   1.124   5.541   5.714
 5038SOL    HW116013   1.108   5.508   5.808
 5038SOL    HW216014   1.220   5.525   5.689
 5039SOL     OW16015   2.359   2.843   5.307
 5039SOL    HW116016   2.273   2.848   5.256
 5039SOL    HW216017   2.418   2.919   5.281
 5040SOL     OW16018   3.311   3.896   6.163
 5040SOL    HW116019   3.362   3.964   6.216
 5040SOL    HW216020   3.270   3.940   6.084
 5041SOL     OW16021   1.096   3.445   1.540
 5041SOL    HW116022   1.053   3.493   1.616
 5041SOL    HW216023   1.181   3.492   1.515
 5042SOL     OW16024   5.796   3.113   6.297
 5042SOL    HW116025   5.703   3.145   6.281
 5042SOL    HW216026   5.854   3.190   6.322
 5043SOL     OW16027   4.039   0.608   3.224
 5043SOL    HW116028   4.114   0.571   3.169
 5043SOL    HW216029   4.032   0.555   3.309
 5044SOL     OW16030   5.658   5.681   3.442
 5044SOL    HW116031   5.668   5.673   3.542
 5044SOL    HW216032   5.749   5.680   3.400
 5045SOL     OW16033   6.161   3.111   0.076
 5045SOL    HW116034   6.261   3.103   0.072
 5045SOL    HW216035   6.128   3.149   7.014
 5046SOL     OW16036   3.603   3.277   5.088
 5046SOL    HW116037   3.617   3.284   4.989
 5046SOL    HW216038   3.668   3.212   5.127
 5047SOL     OW16039   6.122   0.291   2.673
 5047SOL    HW116040   6.207   0.296   2.726
 5047SOL    HW216041   6.135   0.228   2.596
 5048SOL     OW16042   0.090   2.276   1.355
 5048SOL    HW116043   0.019   2.345   1.341
 5048SOL    HW216044   0.168   2.317   1.404
 5049SOL     OW16045   0.762   2.355   2.081
 5049SOL    HW116046   0.727   2.443   2.113
 5049SOL    HW216047   0.772   2.358   1.981
 5050SOL     OW16048   0.756   2.630   1.875
 5050SOL    HW116049   0.745   2.720   1.833
 5050SOL    HW216050   0.770   2.642   1.974
 5051SOL     OW16051   2.714   4.543   0.828
 5051SOL    HW116052   2.759   4.616   0.879
 5051SOL    HW216053   2.662   4.485   0.891
 5052SOL     OW16054   4.547   5.304   0.736
 5052SOL    HW116055   4.592   5.383   0.779
 5052SOL    HW216056   4.576   5.297   0.641
 5053SOL     OW16057   2.552   4.076   1.389
 5053SOL    HW116058   2.480   4.023   1.345
 5053SOL    HW216059   2.537   4.077   1.488
 5054SOL     OW16060   3.339   5.917   4.699
 5054SOL    HW116061   3.273   5.848   4.670
 5054SOL    HW216062   3.339   5.923   4.799
 5055SOL     OW16063   1.205   1.536   5.386
 5055SOL    HW116064   1.202   1.443   5.423
 5055SOL    HW216065   1.111   1.568   5.368
 5056SOL     OW16066   0.075   3.813   5.860
 5056SOL    HW116067   7.014   3.798   5.910
 5056SOL    HW216068   0.082   3.910   5.834
 5057SOL     OW16069   0.452   5.708   3.836
 5057SOL    HW116070   0.440   5.625   3.781
 5057SOL    HW216071   0.542   5.748   3.816
 5058SOL     OW16072   4.403   4.315   6.639
 5058SOL    HW116073   4.359   4.296   6.727
 5058SOL    HW216074   4.489   4.264   6.633
 5059SOL     OW16075   3.461   2.075   4.844
 5059SOL    HW116076   3.414   1.995   4.806
 5059SOL    HW216077   3.422   2.097   4.933
 5060SOL     OW16078   0.380   3.302   4.998
 5060SOL    HW116079   0.433   3.382   4.970
 5060SOL    HW216080   0.315   3.278   4.925
 5061SOL     OW16081   3.718   3.458   4.636
 5061SOL    HW116082   3.633   3.443   4.585
 5061SOL    HW216083   3.745   3.374   4.682
 5062SOL     OW16084   5.206   1.064   3.235
 5062SOL    HW116085   5.224   1.000   3.161
 5062SOL    HW216086   5.111   1.094   3.231
 5063SOL     OW16087   1.440   6.928   2.322
 5063SOL    HW116088   1.394   6.941   2.233
 5063SOL    HW216089   1.393   6.982   2.391
 5064SOL     OW16090   4.671   5.735   0.355
 5064SOL    HW116091   4.683   5.669   0.430
 5064SOL    HW216092   4.711   5.823   0.382
 5065SOL     OW16093   2.433   0.232   3.522
 5065SOL    HW116094   2.457   0.156   3.463
 5065SOL    HW216095   2.341   0.264   3.500
 5066SOL     OW16096   2.158   4.893   1.611
 5066SOL    HW116097   2.220   4.951   1.558
 5066SOL    HW216098   2.194   4.800   1.615
 5067SOL     OW16099   4.055   2.418   1.629
 5067SOL    HW116100   4.021   2.344   1.572
 5067SOL    HW216101   4.029   2.506   1.590
 5068SOL     OW16102   3.878   6.398   0.862
 5068SOL    HW116103   3.837   6.485   0.833
 5068SOL    HW216104   3.966   6.387   0.817
 5069SOL     OW16105   3.490   4.505   6.092
 5069SOL    HW116106   3.468   4.561   6.012
 5069SOL    HW216107   3.490   4.561   6.174
 5070SOL     OW16108   5.578   3.501   4.215
 5070SOL    HW116109   5.620   3.563   4.149
 5070SOL    HW216110   5.640   3.426   4.235
 5071SOL     OW16111   3.623   1.100   3.385
 5071SOL    HW116112   3.554   1.054   3.441
 5071SOL    HW216113   3.610   1.199   3.389
 5072SOL     OW16114   1.924   1.247   0.740
 5072SOL    HW116115   1.993   1.293   0.684
 5072SOL    HW216116   1.969   1.194   0.812
 5073SOL     OW16117   2.794   6.507   2.401
 5073SOL    HW116118   2.792   6.520   2.501
 5073SOL    HW216119   2.728   6.436   2.376
 5074SOL     OW16120   3.765   2.120   1.708
 5074SOL    HW116121   3.695   2.108   1.637
 5074SOL    HW216122   3.738   2.194   1.769
 5075SOL     OW16123   1.788   3.343   6.962
 5075SOL    HW116124   1.738   3.257   6.953
 5075SOL    HW216125   1.724   3.419   6.952
 5076SOL     OW16126   5.359   0.954   0.550
 5076SOL    HW116127   5.426   0.970   0.623
 5076SOL    HW216128   5.268   0.948   0.589
 5077SOL     OW16129   1.339   4.930   3.789
 5077SOL    HW116130   1.252   4.911   3.836
 5077SOL    HW216131   1.342   5.025   3.760
 5078SOL     OW16132   0.440   0.960   3.971
 5078SOL    HW116133   0.517   1.018   3.943
 5078SOL    HW216134   0.453   0.933   4.066
 5079SOL     OW16135   2.080   2.463   5.794
 5079SOL    HW116136   2.053   2.529   5.723
 5079SOL    HW216137   2.116   2.380   5.751
 5080SOL     OW16138   6.414   5.268   5.938
 5080SOL    HW116139   6.450   5.187   5.891
 5080SOL    HW216140   6.486   5.337   5.944
 5081SOL     OW16141   3.811   5.921   5.823
 5081SOL    HW116142   3.742   5.985   5.787
 5081SOL    HW216143   3.837   5.950   5.915
 5082SOL     OW16144   4.877   6.557   1.421
 5082SOL    HW116145   4.904   6.637   1.475
 5082SOL    HW216146   4.806   6.583   1.356
 5083SOL     OW16147   2.469   0.597   2.680
 5083SOL    HW116148   2.445   0.681   2.631
 5083SOL    HW216149   2.418   0.520   2.643
 5084SOL     OW16150   0.707   5.049   4.993
 5084SOL    HW116151   0.716   5.121   4.925
 5084SOL    HW216152   0.794   4.999   5.001
 5085SOL     OW16153   1.176   3.597   6.492
 5085SOL    HW116154   1.273   3.606   6.470
 5085SOL    HW216155   1.159   3.507   6.531
 5086SOL     OW16156   1.226   4.535   2.295
 5086SOL    HW116157   1.326   4.537   2.290
 5086SOL    HW216158   1.189   4.484   2.218
 5087SOL     OW16159   6.774   5.158   2.792
 5087SOL    HW116160   6.819   5.185   2.877
 5087SOL    HW216161   6.830   5.088   2.747
 5088SOL     OW16162   4.479   5.796   2.261
 5088SOL    HW116163   4.381   5.808   2.276
 5088SOL    HW216164   4.517   5.878   2.218
 5089SOL     OW16165   5.060   4.439   4.788
 5089SOL    HW116166   5.137   4.395   4.740
 5089SOL    HW216167   5.076   4.538   4.792
 5090SOL     OW16168   2.266   0.246   3.783
 5090SOL    HW116169   2.309   0.279   3.867
 5090SOL    HW216170   2.332   0.249   3.708
 5091SOL     OW16171   6.666   0.233   0.243
 5091SOL    HW116172   6.622   0.259   0.329
 5091SOL    HW216173   6.755   0.192   0.262
 5092SOL     OW16174   3.591   3.971   4.343
 5092SOL    HW116175   3.604   3.880   4.383
 5092SOL    HW216176   3.584   4.039   4.417
 5093SOL     OW16177   1.712   1.470   2.968
 5093SOL    HW116178   1.648   1.438   2.899
 5093SOL    HW216179   1.703   1.415   3.051
 5094SOL     OW16180   2.546   5.800   6.448
 5094SOL    HW116181   2.594   5.764   6.368
 5094SOL    HW216182   2.588   5.763   6.531
 5095SOL     OW16183   0.266   1.241   3.317
 5095SOL    HW116184   0.242   1.248   3.220
 5095SOL    HW216185   0.274   1.145   3.342
 5096SOL     OW16186   5.173   3.819   6.463
 5096SOL    HW116187   5.135   3.729   6.441
 5096SOL    HW216188   5.106   3.890   6.440
 5097SOL     OW16189   6.441   0.031   5.932
 5097SOL    HW116190   6.478   0.121   5.953
 5097SOL    HW216191   6.427   0.022   5.833
 5098SOL     OW16192   3.559   1.999   1.917
 5098SOL    HW116193   3.624   1.935   1.875
 5098SOL    HW216194   3.609   2.067   1.971
 5099SOL     OW16195   0.476   5.580   1.792
 5099SOL    HW116196   0.437   5.652   1.735
 5099SOL    HW216197   0.452   5.490   1.754
 5100SOL     OW16198   5.106   4.538   2.818
 5100SOL    HW116199   5.167   4.473   2.863
 5100SOL    HW216200   5.014   4.530   2.856
 5101SOL     OW16201   4.160   0.209   5.595
 5101SOL    HW116202   4.145   0.273   5.669
 5101SOL    HW216203   4.180   0.259   5.511
 5102SOL     OW16204   5.043   5.417   4.025
 5102SOL    HW116205   5.090   5.421   4.113
 5102SOL    HW216206   4.959   5.471   4.029
 5103SOL     OW16207   0.950   0.814   5.585
 5103SOL    HW116208   0.936   0.715   5.591
 5103SOL    HW216209   1.046   0.832   5.564
 5104SOL     OW16210   3.714   5.292   1.674
 5104SOL    HW116211   3.679   5.386   1.672
 5104SOL    HW216212   3.642   5.229   1.647
 5105SOL     OW16213   3.396   3.515   6.828
 5105SOL    HW116214   3.382   3.466   6.915
 5105SOL    HW216215   3.366   3.610   6.839
 5106SOL     OW16216   4.224   2.614   0.949
 5106SOL    HW116217   4.166   2.534   0.960
 5106SOL    HW216218   4.173   2.696   0.975
 5107SOL     OW16219   5.250   2.291   1.215
 5107SOL    HW116220   5.274   2.197   1.240
 5107SOL    HW216221   5.177   2.289   1.146
 5108SOL     OW16222   4.456   3.934   6.514
 5108SOL    HW116223   4.494   3.875   6.443
 5108SOL    HW216224   4.422   3.878   6.589
 5109SOL     OW16225   2.072   3.201   1.044
 5109SOL    HW116226   2.107   3.109   1.024
 5109SOL    HW216227   1.996   3.221   0.983
 5110SOL     OW16228   5.670   6.949   6.413
 5110SOL    HW116229   5.718   6.963   6.500
 5110SOL    HW216230   5.573   6.972   6.425
 5111SOL     OW16231   1.228   5.726   5.030
 5111SOL    HW116232   1.223   5.801   4.964
 5111SOL    HW216233   1.154   5.662   5.013
 5112SOL     OW16234   6.986   0.575   3.789
 5112SOL    HW116235   0.059   0.596   3.804
 5112SOL    HW216236   6.971   0.477   3.803
 5113SOL     OW16237   2.098   4.946   0.924
 5113SOL    HW116238   2.197   4.947   0.908
 5113SOL    HW216239   2.070   5.034   0.964
 5114SOL     OW16240   4.022   6.969   0.490
 5114SOL    HW116241   4.094   0.001   0.532
 5114SOL    HW216242   3.993   6.898   0.555
 5115SOL     OW16243   2.191   3.828   2.036
 5115SOL    HW116244   2.133   3.909   2.040
 5115SOL    HW216245   2.143   3.755   1.987
 5116SOL     OW16246   2.650   0.022   6.697
 5116SOL    HW116247   2.727   7.016   6.641
 5116SOL    HW216248   2.582   6.973   6.703
 5117SOL     OW16249   1.234   2.641   4.593
 5117SOL    HW116250   1.286   2.713   4.549
 5117SOL    HW216251   1.257   2.553   4.552
 5118SOL     OW16252   6.305   0.065   0.095
 5118SOL    HW116253   6.317   0.039   7.024
 5118SOL    HW216254   6.208   0.065   0.118
 5119SOL     OW16255   5.556   2.022   0.041
 5119SOL    HW116256   5.496   1.944   0.021
 5119SOL    HW216257   5.644   1.989   0.074
 5120SOL     OW16258   5.303   0.831   4.917
 5120SOL    HW116259   5.291   0.764   4.844
 5120SOL    HW216260   5.372   0.799   4.982
 5121SOL     OW16261   3.001   3.594   0.094
 5121SOL    HW116262   2.974   3.681   0.136
 5121SOL    HW216263   2.920   3.539   0.076
 5122SOL     OW16264   4.403   5.564   2.973
 5122SOL    HW116265   4.462   5.595   2.899
 5122SOL    HW216266   4.426   5.470   2.997
 5123SOL     OW16267   5.094   1.747   1.979
 5123SOL    HW116268   5.095   1.791   2.069
 5123SOL    HW216269   5.005   1.703   1.964
 5124SOL     OW16270   1.863   6.247   3.883
 5124SOL    HW116271   1.846   6.321   3.948
 5124SOL    HW216272   1.957   6.253   3.849
 5125SOL     OW16273   0.613   2.072   4.096
 5125SOL    HW116274   0.645   2.167   4.089
 5125SOL    HW216275   0.613   2.031   4.005
 5126SOL     OW16276   1.899   6.924   0.592
 5126SOL    HW116277   1.888   6.881   0.503
 5126SOL    HW216278   1.856   6.867   0.662
 5127SOL     OW16279   2.084   5.578   0.549
 5127SOL    HW116280   2.008   5.598   0.487
 5127SOL    HW216281   2.054   5.512   0.618
 5128SOL     OW16282   6.930   6.072   1.460
 5128SOL    HW116283   6.952   6.149   1.398
 5128SOL    HW216284   6.909   6.108   1.551
 5129SOL     OW16285   4.826   6.196   1.434
 5129SOL    HW116286   4.876   6.198   1.521
 5129SOL    HW216287   4.887   6.226   1.361
 5130SOL     OW16288   6.710   4.450   3.024
 5130SOL    HW116289   6.710   4.483   2.930
 5130SOL    HW216290   6.760   4.364   3.029
 5131SOL     OW16291   0.639   2.727   3.365
 5131SOL    HW116292   0.636   2.633   3.330
 5131SOL    HW216293   0.682   2.786   3.297
 5132SOL     OW16294   3.936   4.313   6.841
 5132SOL    HW116295   3.927   4.382   6.769
 5132SOL    HW216296   3.912   4.354   6.929
 5133SOL     OW16297   3.715   5.803   6.628
 5133SOL    HW116298   3.807   5.809   6.668
 5133SOL    HW216299   3.655   5.870   6.671
 5134SOL     OW16300   0.586   3.617   1.597
 5134SOL    HW116301   0.671   3.592   1.550
 5134SOL    HW216302   0.523   3.540   1.597
 5135SOL     OW16303   6.989   2.131   5.100
 5135SOL    HW116304   0.023   2.133   5.181
 5135SOL    HW216305   0.006   2.185   5.027
 5136SOL     OW16306   5.080   0.457   4.583
 5136SOL    HW116307   5.019   0.504   4.646
 5136SOL    HW216308   5.091   0.361   4.611
 5137SOL     OW16309   4.937   3.927   6.832
 5137SOL    HW116310   4.945   3.991   6.755
 5137SOL    HW216311   4.869   3.857   6.810
 5138SOL     OW16312   2.938   3.429   6.306
 5138SOL    HW116313   2.905   3.482   6.228
 5138SOL    HW216314   3.021   3.380   6.280
 5139SOL     OW16315   1.801   6.776   4.139
 5139SOL    HW116316   1.897   6.775   4.112
 5139SOL    HW216317   1.743   6.776   4.058
 5140SOL     OW16318   3.395   2.230   0.743
 5140SOL    HW116319   3.323   2.165   0.718
 5140SOL    HW216320   3.371   2.322   0.712
 5141SOL     OW16321   5.460   3.498   1.055
 5141SOL    HW116322   5.437   3.585   1.098
 5141SOL    HW216323   5.547   3.464   1.092
 5142SOL     OW16324   5.954   2.800   4.256
 5142SOL    HW116325   6.044   2.842   4.268
 5142SOL    HW216326   5.945   2.722   4.319
 5143SOL     OW16327   0.436   4.897   4.256
 5143SOL    HW116328   0.505   4.863   4.320
 5143SOL    HW216329   0.474   4.896   4.163
 5144SOL     OW16330   1.670   6.994   6.358
 5144SOL    HW116331   1.570   6.995   6.347
 5144SOL    HW216332   1.710   6.935   6.287
 5145SOL     OW16333   2.118   5.418   5.875
 5145SOL    HW116334   2.131   5.493   5.810
 5145SOL    HW216335   2.197   5.412   5.935
 5146SOL     OW16336   3.340   4.157   0.024
 5146SOL    HW116337   3.405   4.217   0.071
 5146SOL    HW216338   3.326   4.188   6.954
 5147SOL     OW16339   6.875   4.346   0.467
 5147SOL    HW116340   6.929   4.358   0.550
 5147SOL    HW216341   6.930   4.373   0.388
 5148SOL     OW16342   0.057   5.893   1.315
 5148SOL    HW116343   0.005   5.962   1.364
 5148SOL    HW216344   0.097   5.933   1.233
 5149SOL     OW16345   6.327   0.819   3.069
 5149SOL    HW116346   6.373   0.735   3.041
 5149SOL    HW216347   6.248   0.797   3.126
 5150SOL     OW16348   1.609   6.143   3.813
 5150SOL    HW116349   1.689   6.166   3.869
 5150SOL    HW216350   1.597   6.211   3.741
 5151SOL     OW16351   5.275   1.360   6.556
 5151SOL    HW116352   5.368   1.389   6.532
 5151SOL    HW216353   5.260   1.374   6.654
 5152SOL     OW16354   1.495   4.621   0.079
 5152SOL    HW116355   1.588   4.657   0.085
 5152SOL    HW216356   1.434   4.690   0.039
 5153SOL     OW16357   2.428   2.351   0.524
 5153SOL    HW116358   2.389   2.417   0.588
 5153SOL    HW216359   2.394   2.259   0.547
 5154SOL     OW16360   1.577   3.345   6.239
 5154SOL    HW116361   1.640   3.275   6.205
 5154SOL    HW216362   1.624   3.432   6.245
 5155SOL     OW16363   4.250   6.195   1.996
 5155SOL    HW116364   4.257   6.295   1.994
 5155SOL    HW216365   4.309   6.158   2.067
 5156SOL     OW16366   6.731   2.076   5.856
 5156SOL    HW116367   6.641   2.099   5.894
 5156SOL    HW216368   6.776   2.160   5.827
 5157SOL     OW16369   4.987   2.676   3.709
 5157SOL    HW116370   5.058   2.609   3.688
 5157SOL    HW216371   4.929   2.690   3.629
 5158SOL     OW16372   3.498   1.619   1.336
 5158SOL    HW116373   3.487   1.576   1.426
 5158SOL    HW216374   3.474   1.553   1.265
 5159SOL     OW16375   0.564   2.518   4.277
 5159SOL    HW116376   0.562   2.617   4.293
 5159SOL    HW216377   0.567   2.470   4.365
 5160SOL     OW16378   1.339   3.649   4.333
 5160SOL    HW116379   1.303   3.584   4.400
 5160SOL    HW216380   1.266   3.711   4.304
 5161SOL     OW16381   1.217   3.852   5.637
 5161SOL    HW116382   1.226   3.881   5.542
 5161SOL    HW216383   1.306   3.859   5.683
 5162SOL     OW16384   6.679   5.439   3.810
 5162SOL    HW116385   6.665   5.515   3.747
 5162SOL    HW216386   6.655   5.467   3.903
 5163SOL     OW16387   5.375   5.387   0.647
 5163SOL    HW116388   5.461   5.346   0.676
 5163SOL    HW216389   5.300   5.350   0.701
 5164SOL     OW16390   5.374   2.773   5.330
 5164SOL    HW116391   5.303   2.828   5.374
 5164SOL    HW216392   5.428   2.726   5.399
 5165SOL     OW16393   6.430   4.521   4.835
 5165SOL    HW116394   6.439   4.605   4.889
 5165SOL    HW216395   6.506   4.460   4.855
 5166SOL     OW16396   1.286   4.828   1.513
 5166SOL    HW116397   1.386   4.831   1.506
 5166SOL    HW216398   1.255   4.733   1.510
 5167SOL     OW16399   6.052   6.570   5.644
 5167SOL    HW116400   6.050   6.668   5.624
 5167SOL    HW216401   5.967   6.545   5.691
 5168SOL     OW16402   4.049   2.226   3.117
 5168SOL    HW116403   4.094   2.291   3.177
 5168SOL    HW216404   4.104   2.213   3.035
 5169SOL     OW16405   3.444   4.101   6.313
 5169SOL    HW116406   3.353   4.141   6.328
 5169SOL    HW216407   3.513   4.173   6.320
 5170SOL     OW16408   6.505   4.377   5.107
 5170SOL    HW116409   6.472   4.465   5.073
 5170SOL    HW216410   6.571   4.393   5.181
 5171SOL     OW16411   2.640   5.063   4.414
 5171SOL    HW116412   2.614   4.983   4.467
 5171SOL    HW216413   2.593   5.061   4.326
 5172SOL     OW16414   0.309   3.767   1.835
 5172SOL    HW116415   0.291   3.827   1.913
 5172SOL    HW216416   0.386   3.803   1.783
 5173SOL     OW16417   5.986   4.034   5.954
 5173SOL    HW116418   6.026   4.120   5.922
 5173SOL    HW216419   5.887   4.037   5.942
 5174SOL     OW16420   1.413   5.031   5.083
 5174SOL    HW116421   1.451   5.064   4.997
 5174SOL    HW216422   1.487   5.014   5.148
 5175SOL     OW16423   1.763   4.696   0.203
 5175SOL    HW116424   1.825   4.760   0.156
 5175SOL    HW216425   1.791   4.687   0.298
 5176SOL     OW16426   4.325   3.738   0.800
 5176SOL    HW116427   4.265   3.669   0.759
 5176SOL    HW216428   4.322   3.822   0.746
 5177SOL     OW16429   4.657   6.604   5.646
 5177SOL    HW116430   4.749   6.587   5.611
 5177SOL    HW216431   4.651   6.571   5.740
 5178SOL     OW16432   2.840   2.892   1.500
 5178SOL    HW116433   2.807   2.871   1.408
 5178SOL    HW216434   2.854   2.807   1.551
 5179SOL     OW16435   4.304   6.662   5.714
 5179SOL    HW116436   4.376   6.727   5.689
 5179SOL    HW216437   4.227   6.712   5.754
 5180SOL     OW16438   3.582   1.766   0.030
 5180SOL    HW116439   3.619   1.821   0.105
 5180SOL    HW216440   3.638   1.684   0.018
 5181SOL     OW16441   3.988   0.059   2.350
 5181SOL    HW116442   4.072   0.080   2.399
 5181SOL    HW216443   3.921   0.133   2.364
 5182SOL     OW16444   5.786   4.804   1.654
 5182SOL    HW116445   5.872   4.843   1.687
 5182SOL    HW216446   5.721   4.798   1.730
 5183SOL     OW16447   4.410   6.900   2.113
 5183SOL    HW116448   4.507   6.882   2.098
 5183SOL    HW216449   4.391   6.997   2.095
 5184SOL     OW16450   0.776   1.405   3.056
 5184SOL    HW116451   0.861   1.456   3.067
 5184SOL    HW216452   0.743   1.414   2.962
 5185SOL     OW16453   3.524   6.783   2.316
 5185SOL    HW116454   3.578   6.800   2.398
 5185SOL    HW216455   3.559   6.702   2.270
 5186SOL     OW16456   6.827   3.900   1.057
 5186SOL    HW116457   6.925   3.914   1.042
 5186SOL    HW216458   6.783   3.879   0.969
 5187SOL     OW16459   6.376   1.773   3.304
 5187SOL    HW116460   6.308   1.808   3.369
 5187SOL    HW216461   6.400   1.844   3.238
 5188SOL     OW16462   0.503   5.103   6.788
 5188SOL    HW116463   0.580   5.077   6.846
 5188SOL    HW216464   0.438   5.027   6.781
 5189SOL     OW16465   5.032   4.771   6.767
 5189SOL    HW116466   5.002   4.786   6.672
 5189SOL    HW216467   5.131   4.762   6.769
 5190SOL     OW16468   0.702   2.121   4.371
 5190SOL    HW116469   0.721   2.070   4.287
 5190SOL    HW216470   0.603   2.125   4.386
 5191SOL     OW16471   3.388   1.449   2.230
 5191SOL    HW116472   3.487   1.463   2.222
 5191SOL    HW216473   3.344   1.537   2.250
 5192SOL     OW16474   5.709   5.721   2.509
 5192SOL    HW116475   5.640   5.675   2.453
 5192SOL    HW216476   5.721   5.815   2.476
 5193SOL     OW16477   4.992   4.488   3.852
 5193SOL    HW116478   4.905   4.486   3.803
 5193SOL    HW216479   5.005   4.402   3.901
 5194SOL     OW16480   5.285   0.792   5.658
 5194SOL    HW116481   5.307   0.762   5.750
 5194SOL    HW216482   5.301   0.891   5.650
 5195SOL     OW16483   6.376   6.786   4.968
 5195SOL    HW116484   6.338   6.751   4.882
 5195SOL    HW216485   6.305   6.836   5.018
 5196SOL     OW16486   0.709   4.285   1.761
 5196SOL    HW116487   0.644   4.252   1.692
 5196SOL    HW216488   0.683   4.377   1.790
 5197SOL     OW16489   2.001   6.255   4.555
 5197SOL    HW116490   1.902   6.245   4.560
 5197SOL    HW216491   2.027   6.289   4.465
 5198SOL     OW16492   3.251   6.169   5.388
 5198SOL    HW116493   3.152   6.178   5.391
 5198SOL    HW216494   3.293   6.258   5.407
 5199SOL     OW16495   2.461   5.944   1.555
 5199SOL    HW116496   2.507   5.934   1.643
 5199SOL    HW216497   2.482   5.865   1.497
 5200SOL     OW16498   0.742   1.739   4.813
 5200SOL    HW116499   0.756   1.640   4.811
 5200SOL    HW216500   0.745   1.775   4.719
 5201SOL     OW16501   5.647   4.682   3.816
 5201SOL    HW116502   5.632   4.626   3.898
 5201SOL    HW216503   5.563   4.683   3.761
 5202SOL     OW16504   4.482   3.312   6.532
 5202SOL    HW116505   4.536   3.255   6.594
 5202SOL    HW216506   4.526   3.401   6.520
 5203SOL     OW16507   1.970   0.573   0.246
 5203SOL    HW116508   2.002   0.635   0.175
 5203SOL    HW216509   2.037   0.500   0.261
 5204SOL     OW16510   3.131   0.377   6.562
 5204SOL    HW116511   3.102   0.304   6.625
 5204SOL    HW216512   3.225   0.404   6.584
 5205SOL     OW16513   0.168   6.005   1.068
 5205SOL    HW116514   0.182   5.947   0.987
 5205SOL    HW216515   0.092   6.067   1.050
 5206SOL     OW16516   0.292   4.485   4.988
 5206SOL    HW116517   0.363   4.444   4.930
 5206SOL    HW216518   0.245   4.412   5.038
 5207SOL     OW16519   6.948   0.189   4.792
 5207SOL    HW116520   6.971   0.204   4.888
 5207SOL    HW216521   6.856   0.151   4.785
 5208SOL     OW16522   4.915   2.398   0.216
 5208SOL    HW116523   5.006   2.389   0.256
 5208SOL    HW216524   4.908   2.339   0.135
 5209SOL     OW16525   4.755   6.719   3.342
 5209SOL    HW116526   4.800   6.722   3.431
 5209SOL    HW216527   4.820   6.746   3.271
 5210SOL     OW16528   5.180   4.194   0.914
 5210SOL    HW116529   5.165   4.107   0.867
 5210SOL    HW216530   5.103   4.255   0.896
 5211SOL     OW16531   4.666   2.268   4.114
 5211SOL    HW116532   4.591   2.241   4.174
 5211SOL    HW216533   4.736   2.196   4.114
 5212SOL     OW16534   1.425   3.064   0.596
 5212SOL    HW116535   1.390   3.127   0.665
 5212SOL    HW216536   1.467   2.985   0.641
 5213SOL     OW16537   3.801   2.878   2.302
 5213SOL    HW116538   3.854   2.794   2.317
 5213SOL    HW216539   3.820   2.943   2.375
 5214SOL     OW16540   5.502   4.005   6.526
 5214SOL    HW116541   5.579   4.038   6.581
 5214SOL    HW216542   5.461   3.925   6.569
 5215SOL     OW16543   6.477   3.571   4.784
 5215SOL    HW116544   6.516   3.529   4.702
 5215SOL    HW216545   6.402   3.513   4.819
 5216SOL     OW16546   5.538   4.706   0.773
 5216SOL    HW116547   5.541   4.773   0.848
 5216SOL    HW216548   5.464   4.641   0.789
 5217SOL     OW16549   4.039   5.710   4.074
 5217SOL    HW116550   4.106   5.764   4.125
 5217SOL    HW216551   4.009   5.762   3.993
 5218SOL     OW16552   0.756   0.774   0.868
 5218SOL    HW116553   0.667   0.786   0.824
 5218SOL    HW216554   0.754   0.815   0.959
 5219SOL     OW16555   2.127   2.179   4.985
 5219SOL    HW116556   2.030   2.196   4.998
 5219SOL    HW216557   2.140   2.111   4.913
 5220SOL     OW16558   2.123   4.703   3.046
 5220SOL    HW116559   2.222   4.692   3.055
 5220SOL    HW216560   2.092   4.776   3.107
 5221SOL     OW16561   6.792   0.298   1.684
 5221SOL    HW116562   6.871   0.251   1.645
 5221SOL    HW216563   6.818   0.337   1.773
 5222SOL     OW16564   4.493   4.729   1.526
 5222SOL    HW116565   4.455   4.636   1.530
 5222SOL    HW216566   4.591   4.724   1.507
 5223SOL     OW16567   0.594   3.069   0.981
 5223SOL    HW116568   0.642   3.148   0.941
 5223SOL    HW216569   0.622   2.986   0.933
 5224SOL     OW16570   0.637   1.920   3.861
 5224SOL    HW116571   0.735   1.913   3.842
 5224SOL    HW216572   0.607   1.840   3.912
 5225SOL     OW16573   0.144   1.402   4.928
 5225SOL    HW116574   0.095   1.351   4.857
 5225SOL    HW216575   0.240   1.373   4.929
 5226SOL     OW16576   0.473   6.015   4.127
 5226SOL    HW116577   0.400   6.083   4.129
 5226SOL    HW216578   0.433   5.925   4.110
 5227SOL     OW16579   6.785   3.110   5.213
 5227SOL    HW116580   6.847   3.159   5.151
 5227SOL    HW216581   6.800   3.141   5.307
 5228SOL     OW16582   1.873   3.192   5.540
 5228SOL    HW116583   1.900   3.145   5.624
 5228SOL    HW216584   1.802   3.139   5.493
 5229SOL     OW16585   3.370   0.412   6.646
 5229SOL    HW116586   3.429   0.331   6.645
 5229SOL    HW216587   3.420   0.489   6.684
 5230SOL     OW16588   6.788   7.004   1.386
 5230SOL    HW116589   6.724   0.057   1.390
 5230SOL    HW216590   6.830   7.001   1.295
 5231SOL     OW16591   5.890   1.410   2.589
 5231SOL    HW116592   5.953   1.487   2.585
 5231SOL    HW216593   5.812   1.433   2.647
 5232SOL     OW16594   1.761   3.539   5.808
 5232SOL    HW116595   1.813   3.528   5.723
 5232SOL    HW216596   1.743   3.636   5.823
 5233SOL     OW16597   2.954   0.257   2.751
 5233SOL    HW116598   3.034   0.221   2.702
 5233SOL    HW216599   2.951   0.356   2.742
 5234SOL     OW16600   2.177   2.111   1.091
 5234SOL    HW116601   2.114   2.172   1.139
 5234SOL    HW216602   2.203   2.035   1.150
 5235SOL     OW16603   2.590   1.905   1.139
 5235SOL    HW116604   2.553   1.978   1.195
 5235SOL    HW216605   2.557   1.915   1.045
 5236SOL     OW16606   3.460   5.239   2.062
 5236SOL    HW116607   3.431   5.281   2.148
 5236SOL    HW216608   3.444   5.141   2.065
 5237SOL     OW16609   2.146   2.429   4.434
 5237SOL    HW116610   2.162   2.459   4.339
 5237SOL    HW216611   2.126   2.331   4.435
 5238SOL     OW16612   1.100   5.596   3.000
 5238SOL    HW116613   1.074   5.513   2.950
 5238SOL    HW216614   1.077   5.676   2.945
 5239SOL     OW16615   2.987   3.558   1.333
 5239SOL    HW116616   2.918   3.531   1.401
 5239SOL    HW216617   3.072   3.509   1.350
 5240SOL     OW16618   2.526   2.609   6.165
 5240SOL    HW116619   2.436   2.652   6.179
 5240SOL    HW216620   2.586   2.633   6.241
 5241SOL     OW16621   1.007   6.217   2.721
 5241SOL    HW116622   1.003   6.167   2.634
 5241SOL    HW216623   1.035   6.311   2.705
 5242SOL     OW16624   4.950   0.799   0.268
 5242SOL    HW116625   4.965   0.875   0.332
 5242SOL    HW216626   4.965   0.712   0.314
 5243SOL     OW16627   1.589   6.154   1.706
 5243SOL    HW116628   1.682   6.117   1.717
 5243SOL    HW216629   1.580   6.238   1.759
 5244SOL     OW16630   5.003   3.653   0.438
 5244SOL    HW116631   5.027   3.729   0.497
 5244SOL    HW216632   5.087   3.610   0.404
 5245SOL     OW16633   4.181   3.820   0.347
 5245SOL    HW116634   4.230   3.905   0.367
 5245SOL    HW216635   4.247   3.746   0.334
 5246SOL     OW16636   6.378   2.717   1.557
 5246SOL    HW116637   6.464   2.725   1.505
 5246SOL    HW216638   6.326   2.802   1.548
 5247SOL     OW16639   4.133   2.239   5.938
 5247SOL    HW116640   4.141   2.190   6.024
 5247SOL    HW216641   4.159   2.179   5.863
 5248SOL     OW16642   6.464   1.843   2.451
 5248SOL    HW116643   6.501   1.911   2.514
 5248SOL    HW216644   6.502   1.858   2.360
 5249SOL     OW16645   0.355   4.863   6.744
 5249SOL    HW116646   0.273   4.861   6.687
 5249SOL    HW216647   0.357   4.782   6.803
 5250SOL     OW16648   2.034   5.874   0.470
 5250SOL    HW116649   2.132   5.894   0.464
 5250SOL    HW216650   2.015   5.785   0.429
 5251SOL     OW16651   0.722   4.100   0.996
 5251SOL    HW116652   0.729   4.159   0.916
 5251SOL    HW216653   0.804   4.110   1.052
 5252SOL     OW16654   3.364   6.995   2.272
 5252SOL    HW116655   3.283   6.955   2.315
 5252SOL    HW216656   3.433   6.925   2.258
 5253SOL     OW16657   5.739   4.941   4.561
 5253SOL    HW116658   5.795   4.881   4.503
 5253SOL    HW216659   5.798   4.990   4.624
 5254SOL     OW16660   6.002   6.954   3.288
 5254SOL    HW116661   6.005   6.895   3.207
 5254SOL    HW216662   5.951   0.014   3.265
 5255SOL     OW16663   6.011   1.566   5.152
 5255SOL    HW116664   6.111   1.560   5.153
 5255SOL    HW216665   5.977   1.533   5.064
 5256SOL     OW16666   5.509   0.668   3.115
 5256SOL    HW116667   5.606   0.655   3.135
 5256SOL    HW216668   5.483   0.762   3.137
 5257SOL     OW16669   4.016   0.793   6.559
 5257SOL    HW116670   3.923   0.806   6.593
 5257SOL    HW216671   4.025   0.701   6.520
 5258SOL     OW16672   5.251   1.558   2.368
 5258SOL    HW116673   5.278   1.463   2.354
 5258SOL    HW216674   5.315   1.618   2.319
 5259SOL     OW16675   4.876   5.130   3.211
 5259SOL    HW116676   4.848   5.226   3.215
 5259SOL    HW216677   4.831   5.085   3.133
 5260SOL     OW16678   2.238   0.153   0.043
 5260SOL    HW116679   2.291   0.129   0.124
 5260SOL    HW216680   2.178   0.077   0.018
 5261SOL     OW16681   6.542   4.657   0.374
 5261SOL    HW116682   6.515   4.698   0.287
 5261SOL    HW216683   6.544   4.557   0.364
 5262SOL     OW16684   2.090   0.492   2.486
 5262SOL    HW116685   2.102   0.485   2.387
 5262SOL    HW216686   2.154   0.429   2.532
 5263SOL     OW16687   1.832   1.343   3.766
 5263SOL    HW116688   1.796   1.274   3.704
 5263SOL    HW216689   1.764   1.365   3.835
 5264SOL     OW16690   6.670   1.921   1.469
 5264SOL    HW116691   6.716   1.967   1.393
 5264SOL    HW216692   6.724   1.933   1.552
 5265SOL     OW16693   5.559   3.001   4.918
 5265SOL    HW116694   5.503   2.918   4.918
 5265SOL    HW216695   5.500   3.081   4.926
 5266SOL     OW16696   2.402   6.782   0.263
 5266SOL    HW116697   2.442   6.840   0.334
 5266SOL    HW216698   2.388   6.690   0.301
 5267SOL     OW16699   4.288   2.316   4.666
 5267SOL    HW116700   4.302   2.393   4.603
 5267SOL    HW216701   4.275   2.351   4.758
 5268SOL     OW16702   5.484   0.837   6.320
 5268SOL    HW116703   5.575   0.877   6.301
 5268SOL    HW216704   5.418   0.911   6.333
 5269SOL     OW16705   0.243   6.520   2.574
 5269SOL    HW116706   0.254   6.568   2.487
 5269SOL    HW216707   0.272   6.425   2.565
 5270SOL     OW16708   6.994   1.665   6.683
 5270SOL    HW116709   0.044   1.702   6.627
 5270SOL    HW216710   6.927   1.737   6.701
 5271SOL     OW16711   6.119   5.743   4.420
 5271SOL    HW116712   6.155   5.655   4.389
 5271SOL    HW216713   6.193   5.799   4.457
 5272SOL     OW16714   4.102   6.962   0.234
 5272SOL    HW116715   4.067   6.976   0.326
 5272SOL    HW216716   4.190   6.914   0.238
 5273SOL     OW16717   0.946   3.226   2.426
 5273SOL    HW116718   0.933   3.278   2.510
 5273SOL    HW216719   0.894   3.140   2.431
 5274SOL     OW16720   4.777   6.108   2.328
 5274SOL    HW116721   4.875   6.093   2.337
 5274SOL    HW216722   4.741   6.143   2.415
 5275SOL     OW16723   3.138   0.760   0.582
 5275SOL    HW116724   3.073   0.706   0.528
 5275SOL    HW216725   3.157   0.846   0.535
 5276SOL     OW16726   2.672   6.317   1.638
 5276SOL    HW116727   2.732   6.252   1.591
 5276SOL    HW216728   2.645   6.280   1.726
 5277SOL     OW16729   1.748   1.206   2.280
 5277SOL    HW116730   1.754   1.171   2.373
 5277SOL    HW216731   1.691   1.287   2.278
 5278SOL     OW16732   4.503   5.072   2.177
 5278SOL    HW116733   4.519   5.136   2.252
 5278SOL    HW216734   4.419   5.020   2.194
 5279SOL     OW16735   2.609   5.352   1.188
 5279SOL    HW116736   2.565   5.329   1.275
 5279SOL    HW216737   2.546   5.335   1.112
 5280SOL     OW16738   3.673   5.906   4.821
 5280SOL    HW116739   3.630   5.830   4.772
 5280SOL    HW216740   3.675   5.886   4.918
 5281SOL     OW16741   0.594   2.163   2.168
 5281SOL    HW116742   0.658   2.234   2.140
 5281SOL    HW216743   0.579   2.099   2.092
 5282SOL     OW16744   3.060   1.907   3.707
 5282SOL    HW116745   3.060   2.006   3.721
 5282SOL    HW216746   3.145   1.868   3.744
 5283SOL     OW16747   5.010   6.001   0.142
 5283SOL    HW116748   5.051   5.918   0.179
 5283SOL    HW216749   5.034   6.079   0.200
 5284SOL     OW16750   5.834   3.427   2.854
 5284SOL    HW116751   5.749   3.375   2.841
 5284SOL    HW216752   5.873   3.403   2.943
 5285SOL     OW16753   3.306   5.261   3.813
 5285SOL    HW116754   3.222   5.209   3.818
 5285SOL    HW216755   3.286   5.355   3.786
 5286SOL     OW16756   1.501   4.443   1.515
 5286SOL    HW116757   1.521   4.489   1.428
 5286SOL    HW216758   1.415   4.479   1.552
 5287SOL     OW16759   2.589   1.861   0.592
 5287SOL    HW116760   2.603   1.833   0.687
 5287SOL    HW216761   2.502   1.823   0.559
 5288SOL     OW16762   3.353   0.405   1.228
 5288SOL    HW116763   3.339   0.330   1.163
 5288SOL    HW216764   3.289   0.395   1.305
 5289SOL     OW16765   0.658   5.112   0.863
 5289SOL    HW116766   0.672   5.060   0.947
 5289SOL    HW216767   0.747   5.134   0.823
 5290SOL     OW16768   3.822   5.719   0.639
 5290SOL    HW116769   3.914   5.685   0.656
 5290SOL    HW216770   3.766   5.646   0.600
 5291SOL     OW16771   2.070   5.311   5.324
 5291SOL    HW116772   2.006   5.271   5.390
 5291SOL    HW216773   2.066   5.261   5.238
 5292SOL     OW16774   4.690   3.092   6.020
 5292SOL    HW116775   4.743   3.118   6.100
 5292SOL    HW216776   4.655   3.000   6.032
 5293SOL     OW16777   0.337   0.233   4.453
 5293SOL    HW116778   0.435   0.220   4.466
 5293SOL    HW216779   0.305   0.309   4.510
 5294SOL     OW16780   6.420   2.827   6.155
 5294SOL    HW116781   6.504   2.779   6.129
 5294SOL    HW216782   6.430   2.924   6.135
 5295SOL     OW16783   6.311   0.624   2.784
 5295SOL    HW116784   6.325   0.633   2.685
 5295SOL    HW216785   6.230   0.676   2.811
 5296SOL     OW16786   0.478   4.501   1.072
 5296SOL    HW116787   0.502   4.597   1.087
 5296SOL    HW216788   0.499   4.475   0.978
 5297SOL     OW16789   2.296   1.532   1.382
 5297SOL    HW116790   2.286   1.535   1.282
 5297SOL    HW216791   2.364   1.600   1.410
 5298SOL     OW16792   0.037   5.411   1.179
 5298SOL    HW116793   0.045   5.436   1.276
 5298SOL    HW216794   0.061   5.490   1.122
 5299SOL     OW16795   3.015   0.533   1.861
 5299SOL    HW116796   2.965   0.560   1.943
 5299SOL    HW216797   3.100   0.586   1.853
 5300SOL     OW16798   6.743   6.039   3.774
 5300SOL    HW116799   6.836   6.029   3.808
 5300SOL    HW216800   6.743   6.036   3.674
 5301SOL     OW16801   4.203   1.148   0.066
 5301SOL    HW116802   4.225   1.184   7.000
 5301SOL    HW216803   4.232   1.052   0.071
 5302SOL     OW16804   5.939   4.110   2.791
 5302SOL    HW116805   5.949   4.073   2.699
 5302SOL    HW216806   5.897   4.201   2.787
 5303SOL     OW16807   6.186   4.116   3.535
 5303SOL    HW116808   6.155   4.022   3.550
 5303SOL    HW216809   6.229   4.124   3.445
 5304SOL     OW16810   5.364   1.912   6.242
 5304SOL    HW116811   5.285   1.927   6.182
 5304SOL    HW216812   5.363   1.979   6.316
 5305SOL     OW16813   2.538   1.101   3.352
 5305SOL    HW116814   2.614   1.103   3.417
 5305SOL    HW216815   2.520   1.194   3.319
 5306SOL     OW16816   3.339   0.065   5.623
 5306SOL    HW116817   3.354   7.013   5.560
 5306SOL    HW216818   3.275   0.037   5.695
 5307SOL     OW16819   4.530   6.717   7.002
 5307SOL    HW116820   4.430   6.718   7.006
 5307SOL    HW216821   4.566   6.798   0.025
 5308SOL     OW16822   7.017   1.451   2.994
 5308SOL    HW116823   0.025   1.441   3.089
 5308SOL    HW216824   7.023   1.362   2.948
 5309SOL     OW16825   3.661   3.911   3.830
 5309SOL    HW116826   3.675   3.824   3.877
 5309SOL    HW216827   3.750   3.951   3.807
 5310SOL     OW16828   5.140   2.190   0.937
 5310SOL    HW116829   5.064   2.236   0.891
 5310SOL    HW216830   5.222   2.247   0.932
 5311SOL     OW16831   1.976   5.552   6.942
 5311SOL    HW116832   1.999   5.455   6.951
 5311SOL    HW216833   1.983   5.579   6.846
 5312SOL     OW16834   0.526   3.999   3.232
 5312SOL    HW116835   0.562   3.981   3.324
 5312SOL    HW216836   0.528   4.097   3.215
 5313SOL     OW16837   1.346   5.722   6.906
 5313SOL    HW116838   1.434   5.766   6.920
 5313SOL    HW216839   1.305   5.754   6.820
 5314SOL     OW16840   3.518   5.339   0.639
 5314SOL    HW116841   3.495   5.347   0.542
 5314SOL    HW216842   3.485   5.252   0.675
 5315SOL     OW16843   5.720   3.033   2.340
 5315SOL    HW116844   5.650   3.079   2.396
 5315SOL    HW216845   5.746   2.947   2.385
 5316SOL     OW16846   6.904   4.132   3.691
 5316SOL    HW116847   6.847   4.069   3.743
 5316SOL    HW216848   6.988   4.086   3.662
 5317SOL     OW16849   5.462   6.765   3.087
 5317SOL    HW116850   5.556   6.795   3.068
 5317SOL    HW216851   5.465   6.680   3.140
 5318SOL     OW16852   0.546   2.572   4.576
 5318SOL    HW116853   0.451   2.570   4.607
 5318SOL    HW216854   0.602   2.515   4.637
 5319SOL     OW16855   5.282   0.457   0.330
 5319SOL    HW116856   5.290   0.555   0.348
 5319SOL    HW216857   5.196   0.438   0.282
 5320SOL     OW16858   5.939   2.893   6.281
 5320SOL    HW116859   6.000   2.894   6.202
 5320SOL    HW216860   5.886   2.978   6.283
 5321SOL     OW16861   1.864   5.317   5.888
 5321SOL    HW116862   1.964   5.322   5.884
 5321SOL    HW216863   1.826   5.339   5.798
 5322SOL     OW16864   3.180   5.959   6.466
 5322SOL    HW116865   3.206   5.920   6.555
 5322SOL    HW216866   3.088   5.997   6.473
 5323SOL     OW16867   5.175   2.669   1.057
 5323SOL    HW116868   5.198   2.754   1.011
 5323SOL    HW216869   5.227   2.664   1.143
 5324SOL     OW16870   3.657   3.327   1.308
 5324SOL    HW116871   3.705   3.306   1.393
 5324SOL    HW216872   3.639   3.425   1.302
 5325SOL     OW16873   5.314   6.291   2.689
 5325SOL    HW116874   5.258   6.327   2.615
 5325SOL    HW216875   5.281   6.200   2.715
 5326SOL     OW16876   0.034   6.261   1.285
 5326SOL    HW116877   0.131   6.237   1.290
 5326SOL    HW216878   0.019   6.351   1.325
 5327SOL     OW16879   6.088   0.461   3.949
 5327SOL    HW116880   6.174   0.510   3.960
 5327SOL    HW216881   6.106   0.364   3.936
 5328SOL     OW16882   3.943   4.143   0.336
 5328SOL    HW116883   3.930   4.047   0.358
 5328SOL    HW216884   3.980   4.191   0.415
 5329SOL     OW16885   0.050   4.799   6.951
 5329SOL    HW116886   0.029   4.706   6.920
 5329SOL    HW216887   0.058   4.859   6.872
 5330SOL     OW16888   4.462   4.081   1.438
 5330SOL    HW116889   4.418   3.991   1.437
 5330SOL    HW216890   4.423   4.137   1.365
 5331SOL     OW16891   4.584   3.418   0.223
 5331SOL    HW116892   4.647   3.460   0.287
 5331SOL    HW216893   4.522   3.487   0.185
 5332SOL     OW16894   6.031   3.993   0.306
 5332SOL    HW116895   6.013   3.981   0.403
 5332SOL    HW216896   6.030   4.090   0.283
 5333SOL     OW16897   2.275   1.245   3.842
 5333SOL    HW116898   2.251   1.176   3.910
 5333SOL    HW216899   2.286   1.334   3.888
 5334SOL     OW16900   4.753   4.884   2.122
 5334SOL    HW116901   4.705   4.969   2.144
 5334SOL    HW216902   4.693   4.806   2.139
 5335SOL     OW16903   0.402   4.623   1.747
 5335SOL    HW116904   0.455   4.677   1.681
 5335SOL    HW216905   0.328   4.576   1.699
 5336SOL     OW16906   1.068   2.986   3.902
 5336SOL    HW116907   1.097   2.951   3.991
 5336SOL    HW216908   0.975   2.954   3.882
 5337SOL     OW16909   0.032   4.221   0.753
 5337SOL    HW116910   0.121   4.190   0.721
 5337SOL    HW216911   6.989   4.147   0.743
 5338SOL     OW16912   6.486   3.432   0.894
 5338SOL    HW116913   6.474   3.528   0.919
 5338SOL    HW216914   6.457   3.374   0.970
 5339SOL     OW16915   5.649   2.304   2.894
 5339SOL    HW116916   5.671   2.376   2.960
 5339SOL    HW216917   5.553   2.311   2.867
 5340SOL     OW16918   5.376   2.702   2.511
 5340SOL    HW116919   5.298   2.739   2.562
 5340SOL    HW216920   5.349   2.618   2.465
 5341SOL     OW16921   4.396   5.820   3.537
 5341SOL    HW116922   4.316   5.871   3.567
 5341SOL    HW216923   4.440   5.867   3.461
 5342SOL     OW16924   5.898   6.696   4.500
 5342SOL    HW116925   5.810   6.743   4.498
 5342SOL    HW216926   5.921   6.664   4.408
 5343SOL     OW16927   3.876   3.639   5.876
 5343SOL    HW116928   3.859   3.715   5.939
 5343SOL    HW216929   3.961   3.655   5.826
 5344SOL     OW16930   1.177   1.769   5.861
 5344SOL    HW116931   1.214   1.749   5.951
 5344SOL    HW216932   1.187   1.688   5.802
 5345SOL     OW16933   5.466   2.200   0.220
 5345SOL    HW116934   5.390   2.235   0.164
 5345SOL    HW216935   5.517   2.133   0.167
 5346SOL     OW16936   3.159   5.662   3.743
 5346SOL    HW116937   3.154   5.565   3.722
 5346SOL    HW216938   3.200   5.710   3.665
 5347SOL     OW16939   5.614   1.733   3.831
 5347SOL    HW116940   5.647   1.711   3.923
 5347SOL    HW216941   5.520   1.767   3.837
 5348SOL     OW16942   5.074   1.683   3.274
 5348SOL    HW116943   5.074   1.735   3.360
 5348SOL    HW216944   5.134   1.727   3.208
 5349SOL     OW16945   0.159   3.879   2.513
 5349SOL    HW116946   0.148   3.858   2.610
 5349SOL    HW216947   0.211   3.805   2.469
 5350SOL     OW16948   1.574   6.540   6.900
 5350SOL    HW116949   1.639   6.598   6.851
 5350SOL    HW216950   1.612   6.513   6.988
 5351SOL     OW16951   0.138   5.687   1.644
 5351SOL    HW116952   0.144   5.613   1.710
 5351SOL    HW216953   0.231   5.716   1.618
 5352SOL     OW16954   1.614   3.302   4.270
 5352SOL    HW116955   1.567   3.364   4.207
 5352SOL    HW216956   1.605   3.208   4.238
 5353SOL     OW16957   4.266   5.665   3.373
 5353SOL    HW116958   4.275   5.572   3.408
 5353SOL    HW216959   4.321   5.727   3.430
 5354SOL     OW16960   3.917   6.069   0.745
 5354SOL    HW116961   3.879   5.984   0.706
 5354SOL    HW216962   3.845   6.118   0.794
 5355SOL     OW16963   4.870   4.768   5.346
 5355SOL    HW116964   4.834   4.861   5.357
 5355SOL    HW216965   4.969   4.768   5.359
 5356SOL     OW16966   0.282   4.943   1.389
 5356SOL    HW116967   0.200   4.968   1.441
 5356SOL    HW216968   0.339   5.024   1.374
 5357SOL     OW16969   5.778   4.357   2.503
 5357SOL    HW116970   5.855   4.409   2.467
 5357SOL    HW216971   5.694   4.411   2.495
 5358SOL     OW16972   4.660   2.115   0.540
 5358SOL    HW116973   4.653   2.019   0.568
 5358SOL    HW216974   4.609   2.173   0.604
 5359SOL     OW16975   2.650   1.918   6.422
 5359SOL    HW116976   2.681   1.824   6.403
 5359SOL    HW216977   2.703   1.982   6.367
 5360SOL     OW16978   5.389   4.461   3.367
 5360SOL    HW116979   5.431   4.442   3.278
 5360SOL    HW216980   5.456   4.504   3.427
 5361SOL     OW16981   2.829   5.991   2.112
 5361SOL    HW116982   2.736   5.955   2.117
 5361SOL    HW216983   2.880   5.963   2.193
 5362SOL     OW16984   5.837   0.248   1.975
 5362SOL    HW116985   5.816   0.164   2.025
 5362SOL    HW216986   5.861   0.320   2.039
 5363SOL     OW16987   5.884   5.127   4.042
 5363SOL    HW116988   5.814   5.143   4.112
 5363SOL    HW216989   5.916   5.032   4.048
 5364SOL     OW16990   4.665   1.287   2.634
 5364SOL    HW116991   4.686   1.377   2.597
 5364SOL    HW216992   4.650   1.222   2.559
 5365SOL     OW16993   3.943   3.056   3.833
 5365SOL    HW116994   3.943   3.055   3.733
 5365SOL    HW216995   3.961   2.964   3.867
 5366SOL     OW16996   6.558   6.362   2.313
 5366SOL    HW116997   6.657   6.355   2.329
 5366SOL    HW216998   6.529   6.288   2.253
 5367SOL     OW16999   6.255   6.126   1.537
 5367SOL    HW117000   6.253   6.051   1.602
 5367SOL    HW217001   6.321   6.195   1.567
 5368SOL     OW17002   6.616   5.844   3.892
 5368SOL    HW117003   6.548   5.790   3.842
 5368SOL    HW217004   6.672   5.895   3.827
 5369SOL     OW17005   2.321   6.064   1.899
 5369SOL    HW117006   2.297   6.131   1.969
 5369SOL    HW217007   2.302   5.972   1.933
 5370SOL     OW17008   2.532   3.763   1.459
 5370SOL    HW117009   2.589   3.841   1.482
 5370SOL    HW217010   2.561   3.725   1.371
 5371SOL     OW17011   5.557   5.490   4.819
 5371SOL    HW117012   5.562   5.425   4.744
 5371SOL    HW217013   5.493   5.564   4.796
 5372SOL     OW17014   0.742   0.589   3.031
 5372SOL    HW117015   0.678   0.520   2.997
 5372SOL    HW217016   0.807   0.546   3.093
 5373SOL     OW17017   3.344   0.707   6.890
 5373SOL    HW117018   3.252   0.670   6.872
 5373SOL    HW217019   3.336   0.791   6.944
 5374SOL     OW17020   2.508   4.995   2.154
 5374SOL    HW117021   2.519   5.064   2.083
 5374SOL    HW217022   2.557   5.023   2.236
 5375SOL     OW17023   1.358   5.139   3.998
 5375SOL    HW117024   1.360   5.107   4.093
 5375SOL    HW217025   1.353   5.060   3.937
 5376SOL     OW17026   0.060   0.896   6.001
 5376SOL    HW117027   0.042   0.810   5.954
 5376SOL    HW217028   6.998   0.946   6.014
 5377SOL     OW17029   2.386   0.924   2.964
 5377SOL    HW117030   2.458   0.957   3.025
 5377SOL    HW217031   2.296   0.943   3.005
 5378SOL     OW17032   5.461   1.071   1.908
 5378SOL    HW117033   5.522   1.122   1.968
 5378SOL    HW217034   5.368   1.076   1.943
 5379SOL     OW17035   1.466   2.397   6.348
 5379SOL    HW117036   1.548   2.397   6.406
 5379SOL    HW217037   1.462   2.312   6.297
 5380SOL     OW17038   4.761   6.903   1.482
 5380SOL    HW117039   4.833   6.841   1.514
 5380SOL    HW217040   4.691   6.851   1.434
 5381SOL     OW17041   4.839   6.443   3.998
 5381SOL    HW117042   4.768   6.402   3.941
 5381SOL    HW217043   4.928   6.402   3.974
 5382SOL     OW17044   4.363   1.979   1.695
 5382SOL    HW117045   4.397   1.894   1.735
 5382SOL    HW217046   4.388   2.056   1.753
 5383SOL     OW17047   1.977   2.916   4.535
 5383SOL    HW117048   2.018   2.903   4.625
 5383SOL    HW217049   1.978   3.014   4.512
 5384SOL     OW17050   5.417   5.343   4.618
 5384SOL    HW117051   5.367   5.400   4.683
 5384SOL    HW217052   5.353   5.297   4.557
 5385SOL     OW17053   4.262   2.412   5.603
 5385SOL    HW117054   4.193   2.417   5.531
 5385SOL    HW217055   4.297   2.319   5.610
 5386SOL     OW17056   6.177   4.467   4.129
 5386SOL    HW117057   6.200   4.406   4.053
 5386SOL    HW217058   6.157   4.414   4.211
 5387SOL     OW17059   1.175   1.056   3.228
 5387SOL    HW117060   1.138   1.108   3.152
 5387SOL    HW217061   1.275   1.049   3.218
 5388SOL     OW17062   1.250   6.514   2.321
 5388SOL    HW117063   1.199   6.551   2.243
 5388SOL    HW217064   1.286   6.589   2.376
 5389SOL     OW17065   4.253   1.530   4.095
 5389SOL    HW117066   4.238   1.451   4.036
 5389SOL    HW217067   4.307   1.503   4.175
 5390SOL     OW17068   7.009   2.715   3.370
 5390SOL    HW117069   7.019   2.812   3.351
 5390SOL    HW217070   0.071   2.678   3.405
 5391SOL     OW17071   2.443   3.638   0.816
 5391SOL    HW117072   2.501   3.580   0.873
 5391SOL    HW217073   2.400   3.583   0.745
 5392SOL     OW17074   5.859   2.086   3.557
 5392SOL    HW117075   5.854   2.106   3.459
 5392SOL    HW217076   5.955   2.075   3.584
 5393SOL     OW17077   3.999   2.085   5.529
 5393SOL    HW117078   3.945   2.101   5.612
 5393SOL    HW217079   4.008   2.170   5.478
 5394SOL     OW17080   1.355   1.051   1.183
 5394SOL    HW117081   1.385   1.004   1.266
 5394SOL    HW217082   1.309   0.987   1.122
 5395SOL     OW17083   6.411   1.333   0.976
 5395SOL    HW117084   6.455   1.245   0.995
 5395SOL    HW217085   6.376   1.372   1.062
 5396SOL     OW17086   5.509   5.200   2.265
 5396SOL    HW117087   5.484   5.265   2.194
 5396SOL    HW217088   5.437   5.131   2.275
 5397SOL     OW17089   0.240   0.880   2.432
 5397SOL    HW117090   0.332   0.876   2.393
 5397SOL    HW217091   0.231   0.812   2.504
 5398SOL     OW17092   5.080   2.145   3.132
 5398SOL    HW117093   5.028   2.224   3.161
 5398SOL    HW217094   5.131   2.108   3.210
 5399SOL     OW17095   2.487   0.631   5.976
 5399SOL    HW117096   2.404   0.667   6.019
 5399SOL    HW217097   2.567   0.678   6.013
 5400SOL     OW17098   4.490   3.036   1.682
 5400SOL    HW117099   4.409   3.084   1.718
 5400SOL    HW217100   4.545   3.003   1.758
 5401SOL     OW17101   5.854   3.579   1.752
 5401SOL    HW117102   5.875   3.485   1.724
 5401SOL    HW217103   5.832   3.634   1.672
 5402SOL     OW17104   0.930   6.281   1.440
 5402SOL    HW117105   0.866   6.228   1.497
 5402SOL    HW217106   1.023   6.263   1.471
 5403SOL     OW17107   5.291   2.566   7.006
 5403SOL    HW117108   5.377   2.554   0.032
 5403SOL    HW217109   5.219   2.593   0.046
 5404SOL     OW17110   6.701   1.273   0.678
 5404SOL    HW117111   6.690   1.341   0.750
 5404SOL    HW217112   6.733   1.318   0.594
 5405SOL     OW17113   5.514   5.582   0.041
 5405SOL    HW117114   5.516   5.488   0.075
 5405SOL    HW217115   5.475   5.583   6.973
 5406SOL     OW17116   2.773   0.560   4.348
 5406SOL    HW117117   2.864   0.571   4.309
 5406SOL    HW217118   2.765   0.469   4.389
 5407SOL     OW17119   1.538   6.798   2.847
 5407SOL    HW117120   1.469   6.837   2.786
 5407SOL    HW217121   1.608   6.753   2.793
 5408SOL     OW17122   3.539   2.115   4.213
 5408SOL    HW117123   3.556   2.097   4.116
 5408SOL    HW217124   3.480   2.043   4.250
 5409SOL     OW17125   1.201   2.656   0.842
 5409SOL    HW117126   1.114   2.654   0.891
 5409SOL    HW217127   1.187   2.623   0.749
 5410SOL     OW17128   1.212   2.583   0.536
 5410SOL    HW117129   1.304   2.623   0.527
 5410SOL    HW217130   1.214   2.489   0.504
 5411SOL     OW17131   3.405   4.821   6.904
 5411SOL    HW117132   3.455   4.743   6.866
 5411SOL    HW217133   3.430   4.904   6.854
 5412SOL     OW17134   0.253   2.092   6.203
 5412SOL    HW117135   0.349   2.112   6.181
 5412SOL    HW217136   0.196   2.170   6.179
 5413SOL     OW17137   6.952   6.566   4.744
 5413SOL    HW117138   6.868   6.606   4.781
 5413SOL    HW217139   6.949   6.466   4.753
 5414SOL     OW17140   5.539   3.765   4.897
 5414SOL    HW117141   5.636   3.761   4.922
 5414SOL    HW217142   5.508   3.674   4.871
 5415SOL     OW17143   3.803   0.418   6.959
 5415SOL    HW117144   3.724   0.468   6.924
 5415SOL    HW217145   3.854   0.478   7.022
 5416SOL     OW17146   3.130   5.595   6.306
 5416SOL    HW117147   3.216   5.632   6.272
 5416SOL    HW217148   3.146   5.504   6.344
 5417SOL     OW17149   4.770   6.115   4.066
 5417SOL    HW117150   4.727   6.193   4.020
 5417SOL    HW217151   4.765   6.128   4.165
 5418SOL     OW17152   6.395   3.574   4.371
 5418SOL    HW117153   6.449   3.658   4.371
 5418SOL    HW217154   6.441   3.504   4.425
 5419SOL     OW17155   4.690   0.015   6.456
 5419SOL    HW117156   4.715   7.021   6.551
 5419SOL    HW217157   4.710   6.958   6.401
 5420SOL     OW17158   1.268   0.667   1.850
 5420SOL    HW117159   1.297   0.574   1.830
 5420SOL    HW217160   1.231   0.672   1.943
 5421SOL     OW17161   4.105   4.735   2.043
 5421SOL    HW117162   4.175   4.691   1.986
 5421SOL    HW217163   4.109   4.696   2.135
 5422SOL     OW17164   2.581   5.928   3.644
 5422SOL    HW117165   2.648   5.865   3.606
 5422SOL    HW217166   2.625   5.988   3.710
 5423SOL     OW17167   5.730   5.584   1.727
 5423SOL    HW117168   5.756   5.489   1.744
 5423SOL    HW217169   5.665   5.588   1.651
 5424SOL     OW17170   4.242   3.882   5.531
 5424SOL    HW117171   4.322   3.866   5.588
 5424SOL    HW217172   4.217   3.979   5.533
 5425SOL     OW17173   1.187   4.007   5.876
 5425SOL    HW117174   1.193   4.078   5.807
 5425SOL    HW217175   1.204   3.917   5.834
 5426SOL     OW17176   5.280   5.262   1.515
 5426SOL    HW117177   5.378   5.257   1.495
 5426SOL    HW217178   5.239   5.171   1.505
 5427SOL     OW17179   4.529   2.289   6.325
 5427SOL    HW117180   4.567   2.204   6.362
 5427SOL    HW217181   4.603   2.351   6.302
 5428SOL     OW17182   6.218   6.217   3.267
 5428SOL    HW117183   6.165   6.155   3.325
 5428SOL    HW217184   6.249   6.295   3.321
 5429SOL     OW17185   3.350   0.241   4.442
 5429SOL    HW117186   3.263   0.282   4.470
 5429SOL    HW217187   3.381   0.177   4.512
 5430SOL     OW17188   2.549   3.737   5.959
 5430SOL    HW117189   2.647   3.757   5.953
 5430SOL    HW217190   2.530   3.649   5.918
 5431SOL     OW17191   3.165   4.502   6.622
 5431SOL    HW117192   3.114   4.447   6.688
 5431SOL    HW217193   3.191   4.445   6.544
 5432SOL     OW17194   5.794   5.621   0.111
 5432SOL    HW117195   5.703   5.598   0.077
 5432SOL    HW217196   5.842   5.537   0.137
 5433SOL     OW17197   1.630   0.635   1.615
 5433SOL    HW117198   1.637   0.726   1.574
 5433SOL    HW217199   1.651   0.641   1.713
 5434SOL     OW17200   5.462   0.447   5.050
 5434SOL    HW117201   5.525   0.469   5.126
 5434SOL    HW217202   5.505   0.472   4.964
 5435SOL     OW17203   6.869   4.072   0.665
 5435SOL    HW117204   6.842   4.000   0.729
 5435SOL    HW217205   6.787   4.119   0.632
 5436SOL     OW17206   1.105   5.117   2.767
 5436SOL    HW117207   1.134   5.024   2.744
 5436SOL    HW217208   1.073   5.163   2.685
 5437SOL     OW17209   3.715   5.673   1.360
 5437SOL    HW117210   3.616   5.680   1.356
 5437SOL    HW217211   3.741   5.579   1.381
 5438SOL     OW17212   4.849   4.925   2.486
 5438SOL    HW117213   4.900   5.010   2.471
 5438SOL    HW217214   4.754   4.948   2.507
 5439SOL     OW17215   1.030   4.959   1.353
 5439SOL    HW117216   1.074   5.016   1.422
 5439SOL    HW217217   0.970   4.893   1.397
 5440SOL     OW17218   6.371   6.502   3.715
 5440SOL    HW117219   6.370   6.405   3.692
 5440SOL    HW217220   6.306   6.519   3.789
 5441SOL     OW17221   5.332   2.414   3.591
 5441SOL    HW117222   5.404   2.429   3.659
 5441SOL    HW217223   5.305   2.502   3.552
 5442SOL     OW17224   4.124   6.793   5.911
 5442SOL    HW117225   4.196   6.752   5.966
 5442SOL    HW217226   4.109   6.888   5.938
 5443SOL     OW17227   4.500   0.700   4.071
 5443SOL    HW117228   4.458   0.688   3.981
 5443SOL    HW217229   4.581   0.641   4.078
 5444SOL     OW17230   6.252   1.212   5.136
 5444SOL    HW117231   6.156   1.197   5.115
 5444SOL    HW217232   6.276   1.163   5.220
 5445SOL     OW17233   5.714   5.226   5.281
 5445SOL    HW117234   5.792   5.283   5.257
 5445SOL    HW217235   5.636   5.283   5.304
 5446SOL     OW17236   0.535   4.257   6.258
 5446SOL    HW117237   0.463   4.198   6.294
 5446SOL    HW217238   0.500   4.310   6.181
 5447SOL     OW17239   1.429   2.087   0.676
 5447SOL    HW117240   1.409   2.168   0.731
 5447SOL    HW217241   1.456   2.012   0.735
 5448SOL     OW17242   4.452   5.066   2.878
 5448SOL    HW117243   4.528   5.029   2.825
 5448SOL    HW217244   4.440   5.011   2.961
 5449SOL     OW17245   3.077   1.416   1.877
 5449SOL    HW117246   2.988   1.455   1.854
 5449SOL    HW217247   3.077   1.389   1.974
 5450SOL     OW17248   4.267   5.574   1.651
 5450SOL    HW117249   4.353   5.615   1.621
 5450SOL    HW217250   4.213   5.547   1.572
 5451SOL     OW17251   0.032   6.890   3.087
 5451SOL    HW117252   6.999   6.945   3.149
 5451SOL    HW217253   0.113   6.943   3.061
 5452SOL     OW17254   2.411   4.323   1.874
 5452SOL    HW117255   2.466   4.263   1.816
 5452SOL    HW217256   2.453   4.414   1.877
 5453SOL     OW17257   5.744   4.046   3.241
 5453SOL    HW117258   5.705   4.047   3.149
 5453SOL    HW217259   5.844   4.035   3.235
 5454SOL     OW17260   5.235   5.553   2.297
 5454SOL    HW117261   5.331   5.580   2.294
 5454SOL    HW217262   5.216   5.492   2.220
 5455SOL     OW17263   1.539   1.325   3.637
 5455SOL    HW117264   1.480   1.245   3.640
 5455SOL    HW217265   1.592   1.325   3.552
 5456SOL     OW17266   6.279   0.937   0.202
 5456SOL    HW117267   6.363   0.965   0.249
 5456SOL    HW217268   6.221   0.885   0.264
 5457SOL     OW17269   5.987   2.162   6.586
 5457SOL    HW117270   5.926   2.084   6.600
 5457SOL    HW217271   6.082   2.130   6.590
 5458SOL     OW17272   5.811   3.905   6.958
 5458SOL    HW117273   5.822   3.855   0.020
 5458SOL    HW217274   5.872   3.867   6.889
 5459SOL     OW17275   1.717   3.892   5.289
 5459SOL    HW117276   1.631   3.892   5.238
 5459SOL    HW217277   1.792   3.918   5.227
 5460SOL     OW17278   1.724   0.328   0.929
 5460SOL    HW117279   1.709   0.336   0.830
 5460SOL    HW217280   1.807   0.275   0.945
 5461SOL     OW17281   6.467   0.927   5.644
 5461SOL    HW117282   6.428   0.853   5.699
 5461SOL    HW217283   6.531   0.888   5.577
 5462SOL     OW17284   4.659   5.445   6.708
 5462SOL    HW117285   4.736   5.433   6.645
 5462SOL    HW217286   4.692   5.483   6.795
 5463SOL     OW17287   0.821   3.184   6.679
 5463SOL    HW117288   0.783   3.093   6.696
 5463SOL    HW217289   0.857   3.188   6.586
 5464SOL     OW17290   0.150   6.272   5.489
 5464SOL    HW117291   0.079   6.291   5.421
 5464SOL    HW217292   0.107   6.256   5.578
 5465SOL     OW17293   6.592   6.258   3.819
 5465SOL    HW117294   6.647   6.176   3.805
 5465SOL    HW217295   6.647   6.339   3.800
 5466SOL     OW17296   5.930   2.695   5.939
 5466SOL    HW117297   6.007   2.724   5.996
 5466SOL    HW217298   5.845   2.718   5.985
 5467SOL     OW17299   5.346   3.512   3.878
 5467SOL    HW117300   5.426   3.567   3.903
 5467SOL    HW217301   5.273   3.572   3.844
 5468SOL     OW17302   0.332   1.693   1.365
 5468SOL    HW117303   0.334   1.735   1.275
 5468SOL    HW217304   0.398   1.739   1.425
 5469SOL     OW17305   2.875   0.504   4.931
 5469SOL    HW117306   2.884   0.443   5.009
 5469SOL    HW217307   2.780   0.507   4.901
 5470SOL     OW17308   3.672   5.379   4.278
 5470SOL    HW117309   3.696   5.412   4.187
 5470SOL    HW217310   3.613   5.446   4.323
 5471SOL     OW17311   4.921   0.721   3.115
 5471SOL    HW117312   4.885   0.814   3.110
 5471SOL    HW217313   4.952   0.702   3.208
 5472SOL     OW17314   2.401   2.195   6.756
 5472SOL    HW117315   2.435   2.102   6.774
 5472SOL    HW217316   2.326   2.190   6.690
 5473SOL     OW17317   2.869   3.943   1.131
 5473SOL    HW117318   2.940   3.872   1.133
 5473SOL    HW217319   2.844   3.968   1.224
 5474SOL     OW17320   0.145   5.187   3.615
 5474SOL    HW117321   0.237   5.187   3.577
 5474SOL    HW217322   0.129   5.273   3.663
 5475SOL     OW17323   6.671   1.708   5.434
 5475SOL    HW117324   6.760   1.686   5.475
 5475SOL    HW217325   6.634   1.789   5.478
 5476SOL     OW17326   2.572   6.722   6.160
 5476SOL    HW117327   2.534   6.726   6.252
 5476SOL    HW217328   2.526   6.789   6.102
 5477SOL     OW17329   2.057   4.731   3.683
 5477SOL    HW117330   2.035   4.816   3.731
 5477SOL    HW217331   1.974   4.679   3.667
 5478SOL     OW17332   5.595   5.058   5.856
 5478SOL    HW117333   5.584   5.046   5.954
 5478SOL    HW217334   5.686   5.025   5.829
 5479SOL     OW17335   3.327   1.866   4.754
 5479SOL    HW117336   3.233   1.887   4.726
 5479SOL    HW217337   3.337   1.767   4.764
 5480SOL     OW17338   6.755   3.575   4.388
 5480SOL    HW117339   6.690   3.650   4.400
 5480SOL    HW217340   6.794   3.550   4.476
 5481SOL     OW17341   4.506   1.278   6.692
 5481SOL    HW117342   4.555   1.221   6.757
 5481SOL    HW217343   4.488   1.226   6.609
 5482SOL     OW17344   4.897   3.080   1.423
 5482SOL    HW117345   4.837   3.047   1.495
 5482SOL    HW217346   4.915   3.007   1.357
 5483SOL     OW17347   6.833   3.499   5.894
 5483SOL    HW117348   6.932   3.486   5.888
 5483SOL    HW217349   6.794   3.428   5.953
 5484SOL     OW17350   6.368   6.331   4.015
 5484SOL    HW117351   6.429   6.374   3.948
 5484SOL    HW217352   6.281   6.380   4.017
 5485SOL     OW17353   3.726   6.979   5.358
 5485SOL    HW117354   3.782   6.967   5.439
 5485SOL    HW217355   3.671   0.038   5.367
 5486SOL     OW17356   0.981   0.883   3.207
 5486SOL    HW117357   0.921   0.932   3.144
 5486SOL    HW217358   1.054   0.943   3.238
 5487SOL     OW17359   6.235   4.463   0.371
 5487SOL    HW117360   6.304   4.425   0.433
 5487SOL    HW217361   6.276   4.478   0.281
 5488SOL     OW17362   5.481   2.107   6.403
 5488SOL    HW117363   5.437   2.168   6.337
 5488SOL    HW217364   5.580   2.118   6.398
 5489SOL     OW17365   1.464   4.342   2.895
 5489SOL    HW117366   1.559   4.327   2.868
 5489SOL    HW217367   1.414   4.255   2.891
 5490SOL     OW17368   2.716   1.525   0.621
 5490SOL    HW117369   2.815   1.540   0.610
 5490SOL    HW217370   2.700   1.436   0.664
 5491SOL     OW17371   1.626   4.957   0.689
 5491SOL    HW117372   1.660   4.953   0.595
 5491SOL    HW217373   1.696   4.999   0.747
 5492SOL     OW17374   0.820   1.558   6.421
 5492SOL    HW117375   0.875   1.517   6.348
 5492SOL    HW217376   0.858   1.531   6.510
 5493SOL     OW17377   3.694   3.192   6.536
 5493SOL    HW117378   3.674   3.218   6.441
 5493SOL    HW217379   3.690   3.273   6.595
 5494SOL     OW17380   5.926   3.326   1.629
 5494SOL    HW117381   5.890   3.284   1.545
 5494SOL    HW217382   5.929   3.258   1.702
 5495SOL     OW17383   4.124   3.321   2.775
 5495SOL    HW117384   4.074   3.257   2.834
 5495SOL    HW217385   4.222   3.315   2.794
 5496SOL     OW17386   3.612   5.886   1.703
 5496SOL    HW117387   3.620   5.882   1.802
 5496SOL    HW217388   3.695   5.850   1.661
 5497SOL     OW17389   6.817   1.101   2.416
 5497SOL    HW117390   6.817   1.032   2.488
 5497SOL    HW217391   6.902   1.095   2.364
 5498SOL     OW17392   4.674   1.647   6.129
 5498SOL    HW117393   4.646   1.733   6.172
 5498SOL    HW217394   4.679   1.660   6.030
 5499SOL     OW17395   6.747   1.527   3.088
 5499SOL    HW117396   6.818   1.511   3.019
 5499SOL    HW217397   6.761   1.616   3.131
 5500SOL     OW17398   2.123   6.165   0.345
 5500SOL    HW117399   2.201   6.224   0.364
 5500SOL    HW217400   2.039   6.214   0.368
 5501SOL     OW17401   2.755   0.227   2.195
 5501SOL    HW117402   2.746   0.137   2.237
 5501SOL    HW217403   2.717   0.225   2.103
 5502SOL     OW17404   6.240   4.142   5.543
 5502SOL    HW117405   6.290   4.094   5.615
 5502SOL    HW217406   6.269   4.107   5.454
 5503SOL     OW17407   1.097   4.449   3.347
 5503SOL    HW117408   1.047   4.396   3.415
 5503SOL    HW217409   1.163   4.390   3.300
 5504SOL     OW17410   3.547   1.908   4.554
 5504SOL    HW117411   3.495   1.872   4.631
 5504SOL    HW217412   3.509   1.997   4.528
 5505SOL     OW17413   3.441   5.713   5.410
 5505SOL    HW117414   3.489   5.793   5.374
 5505SOL    HW217415   3.409   5.732   5.503
 5506SOL     OW17416   6.265   0.792   5.480
 5506SOL    HW117417   6.180   0.809   5.432
 5506SOL    HW217418   6.342   0.821   5.423
 5507SOL     OW17419   2.783   6.603   4.081
 5507SOL    HW117420   2.818   6.622   3.989
 5507SOL    HW217421   2.772   6.690   4.131
 5508SOL     OW17422   2.719   0.458   6.267
 5508SOL    HW117423   2.759   0.501   6.348
 5508SOL    HW217424   2.699   0.528   6.198
 5509SOL     OW17425   5.802   6.665   0.228
 5509SOL    HW117426   5.761   6.752   0.255
 5509SOL    HW217427   5.899   6.679   0.209
 5510SOL     OW17428   5.121   0.611   5.541
 5510SOL    HW117429   5.184   0.651   5.607
 5510SOL    HW217430   5.157   0.626   5.448
 5511SOL     OW17431   0.765   0.655   2.527
 5511SOL    HW117432   0.738   0.639   2.622
 5511SOL    HW217433   0.832   0.586   2.499
 5512SOL     OW17434   1.468   0.998   6.900
 5512SOL    HW117435   1.398   1.048   6.850
 5512SOL    HW217436   1.445   0.995   6.997
 5513SOL     OW17437   4.820   4.074   4.565
 5513SOL    HW117438   4.792   4.168   4.586
 5513SOL    HW217439   4.738   4.017   4.553
 5514SOL     OW17440   4.988   4.820   1.974
 5514SOL    HW117441   4.937   4.862   1.899
 5514SOL    HW217442   4.933   4.821   2.057
 5515SOL     OW17443   6.456   2.233   2.040
 5515SOL    HW117444   6.417   2.142   2.027
 5515SOL    HW217445   6.400   2.285   2.105
 5516SOL     OW17446   1.218   3.780   6.667
 5516SOL    HW117447   1.183   3.708   6.607
 5516SOL    HW217448   1.146   3.809   6.730
 5517SOL     OW17449   2.815   1.882   1.289
 5517SOL    HW117450   2.730   1.891   1.238
 5517SOL    HW217451   2.877   1.821   1.239
 5518SOL     OW17452   5.844   4.983   5.744
 5518SOL    HW117453   5.865   4.889   5.717
 5518SOL    HW217454   5.883   5.046   5.677
 5519SOL     OW17455   5.929   3.642   3.693
 5519SOL    HW117456   6.001   3.601   3.750
 5519SOL    HW217457   5.842   3.596   3.711
 5520SOL     OW17458   1.060   4.054   2.027
 5520SOL    HW117459   1.002   3.974   2.036
 5520SOL    HW217460   1.147   4.027   1.986
 5521SOL     OW17461   5.769   6.235   1.295
 5521SOL    HW117462   5.869   6.223   1.299
 5521SOL    HW217463   5.744   6.321   1.338
 5522SOL     OW17464   2.581   3.565   1.663
 5522SOL    HW117465   2.542   3.624   1.592
 5522SOL    HW217466   2.509   3.532   1.724
 5523SOL     OW17467   3.320   0.147   2.689
 5523SOL    HW117468   3.256   0.170   2.616
 5523SOL    HW217469   3.340   0.049   2.688
 5524SOL     OW17470   0.824   5.065   5.637
 5524SOL    HW117471   0.801   5.111   5.552
 5524SOL    HW217472   0.749   5.005   5.664
 5525SOL     OW17473   6.595   5.020   6.474
 5525SOL    HW117474   6.634   5.111   6.464
 5525SOL    HW217475   6.515   5.024   6.534
 5526SOL     OW17476   6.258   3.163   3.692
 5526SOL    HW117477   6.199   3.089   3.723
 5526SOL    HW217478   6.314   3.195   3.768
 5527SOL     OW17479   1.787   2.783   1.827
 5527SOL    HW117480   1.845   2.724   1.883
 5527SOL    HW217481   1.710   2.815   1.881
 5528SOL     OW17482   0.257   2.361   4.566
 5528SOL    HW117483   0.228   2.275   4.607
 5528SOL    HW217484   0.235   2.437   4.627
 5529SOL     OW17485   2.545   0.893   4.601
 5529SOL    HW117486   2.475   0.936   4.659
 5529SOL    HW217487   2.632   0.941   4.612
 5530SOL     OW17488   0.348   2.072   0.324
 5530SOL    HW117489   0.295   2.105   0.246
 5530SOL    HW217490   0.381   1.980   0.305
 5531SOL     OW17491   4.101   3.029   5.336
 5531SOL    HW117492   4.039   3.100   5.303
 5531SOL    HW217493   4.101   2.952   5.273
 5532SOL     OW17494   2.348   1.783   0.463
 5532SOL    HW117495   2.285   1.777   0.540
 5532SOL    HW217496   2.337   1.703   0.405
 5533SOL     OW17497   3.514   0.795   2.046
 5533SOL    HW117498   3.560   0.841   2.122
 5533SOL    HW217499   3.580   0.738   1.996
 5534SOL     OW17500   1.064   3.880   6.843
 5534SOL    HW117501   0.980   3.927   6.873
 5534SOL    HW217502   1.131   3.881   6.917
 5535SOL     OW17503   6.415   3.391   3.056
 5535SOL    HW117504   6.329   3.347   3.028
 5535SOL    HW217505   6.469   3.327   3.111
 5536SOL     OW17506   2.330   0.776   4.458
 5536SOL    HW117507   2.402   0.827   4.505
 5536SOL    HW217508   2.336   0.680   4.483
 5537SOL     OW17509   3.867   0.508   5.125
 5537SOL    HW117510   3.940   0.491   5.059
 5537SOL    HW217511   3.810   0.427   5.134
 5538SOL     OW17512   3.504   1.302   6.006
 5538SOL    HW117513   3.543   1.381   5.959
 5538SOL    HW217514   3.442   1.334   6.078
 5539SOL     OW17515   1.716   0.857   2.171
 5539SOL    HW117516   1.752   0.946   2.199
 5539SOL    HW217517   1.619   0.852   2.194
 5540SOL     OW17518   5.423   2.909   0.127
 5540SOL    HW117519   5.501   2.903   0.189
 5540SOL    HW217520   5.339   2.888   0.177
 5541SOL     OW17521   4.977   3.748   6.086
 5541SOL    HW117522   4.919   3.702   6.153
 5541SOL    HW217523   5.059   3.694   6.070
 5542SOL     OW17524   5.298   4.651   6.759
 5542SOL    HW117525   5.378   4.662   6.700
 5542SOL    HW217526   5.267   4.556   6.758
 5543SOL     OW17527   1.918   6.569   0.488
 5543SOL    HW117528   2.006   6.613   0.507
 5543SOL    HW217529   1.860   6.632   0.437
 5544SOL     OW17530   4.708   5.155   6.366
 5544SOL    HW117531   4.758   5.136   6.281
 5544SOL    HW217532   4.645   5.080   6.384
 5545SOL     OW17533   4.295   1.166   2.673
 5545SOL    HW117534   4.318   1.220   2.754
 5545SOL    HW217535   4.312   1.220   2.591
 5546SOL     OW17536   0.651   6.172   5.185
 5546SOL    HW117537   0.673   6.123   5.269
 5546SOL    HW217538   0.713   6.144   5.113
 5547SOL     OW17539   4.982   1.851   5.753
 5547SOL    HW117540   4.971   1.820   5.847
 5547SOL    HW217541   5.080   1.859   5.732
 5548SOL     OW17542   6.851   3.785   5.967
 5548SOL    HW117543   6.833   3.811   6.062
 5548SOL    HW217544   6.833   3.688   5.955
 5549SOL     OW17545   4.117   3.436   1.945
 5549SOL    HW117546   4.099   3.534   1.953
 5549SOL    HW217547   4.157   3.418   1.855
 5550SOL     OW17548   2.156   4.543   2.825
 5550SOL    HW117549   2.178   4.462   2.879
 5550SOL    HW217550   2.140   4.621   2.886
 5551SOL     OW17551   2.022   5.507   2.726
 5551SOL    HW117552   2.066   5.596   2.724
 5551SOL    HW217553   2.020   5.473   2.820
 5552SOL     OW17554   6.632   6.957   6.111
 5552SOL    HW117555   6.541   6.931   6.078
 5552SOL    HW217556   6.663   0.015   6.064
 5553SOL     OW17557   4.101   0.500   6.854
 5553SOL    HW117558   4.042   0.573   6.890
 5553SOL    HW217559   4.055   0.454   6.778
 5554SOL     OW17560   4.991   2.785   1.250
 5554SOL    HW117561   5.010   2.746   1.160
 5554SOL    HW217562   4.893   2.804   1.258
 5555SOL     OW17563   0.948   3.783   3.285
 5555SOL    HW117564   0.968   3.740   3.373
 5555SOL    HW217565   0.886   3.725   3.233
 5556SOL     OW17566   5.961   0.952   4.288
 5556SOL    HW117567   5.929   1.030   4.234
 5556SOL    HW217568   5.886   0.889   4.303
 5557SOL     OW17569   3.247   5.911   1.437
 5557SOL    HW117570   3.312   5.895   1.363
 5557SOL    HW217571   3.296   5.933   1.521
 5558SOL     OW17572   3.437   4.681   0.507
 5558SOL    HW117573   3.490   4.635   0.436
 5558SOL    HW217574   3.341   4.683   0.481
 5559SOL     OW17575   0.942   0.208   2.641
 5559SOL    HW117576   0.951   0.291   2.586
 5559SOL    HW217577   0.868   0.151   2.605
 5560SOL     OW17578   6.618   5.848   2.828
 5560SOL    HW117579   6.563   5.783   2.881
 5560SOL    HW217580   6.598   5.838   2.731
 5561SOL     OW17581   2.952   0.803   4.640
 5561SOL    HW117582   3.039   0.842   4.612
 5561SOL    HW217583   2.877   0.861   4.607
 5562SOL     OW17584   4.787   4.488   0.332
 5562SOL    HW117585   4.720   4.444   0.392
 5562SOL    HW217586   4.878   4.449   0.349
 5563SOL     OW17587   3.204   5.120   2.870
 5563SOL    HW117588   3.124   5.061   2.873
 5563SOL    HW217589   3.277   5.080   2.926
 5564SOL     OW17590   4.818   6.812   6.238
 5564SOL    HW117591   4.809   6.727   6.290
 5564SOL    HW217592   4.741   6.822   6.176
 5565SOL     OW17593   4.345   3.312   0.327
 5565SOL    HW117594   4.437   3.329   0.292
 5565SOL    HW217595   4.329   3.366   0.409
 5566SOL     OW17596   1.749   4.273   0.776
 5566SOL    HW117597   1.826   4.221   0.811
 5566SOL    HW217598   1.750   4.271   0.676
 5567SOL     OW17599   6.851   3.329   1.761
 5567SOL    HW117600   6.850   3.400   1.832
 5567SOL    HW217601   6.940   3.327   1.717
 5568SOL     OW17602   4.547   6.879   3.056
 5568SOL    HW117603   4.517   6.788   3.028
 5568SOL    HW217604   4.647   6.881   3.063
 5569SOL     OW17605   2.613   1.711   3.249
 5569SOL    HW117606   2.679   1.641   3.278
 5569SOL    HW217607   2.657   1.801   3.252
 5570SOL     OW17608   6.012   3.641   3.400
 5570SOL    HW117609   6.061   3.560   3.368
 5570SOL    HW217610   5.987   3.628   3.496
 5571SOL     OW17611   6.649   5.117   1.987
 5571SOL    HW117612   6.694   5.098   2.074
 5571SOL    HW217613   6.716   5.112   1.913
 5572SOL     OW17614   1.467   4.395   4.899
 5572SOL    HW117615   1.499   4.328   4.966
 5572SOL    HW217616   1.427   4.348   4.821
 5573SOL     OW17617   1.657   5.392   5.227
 5573SOL    HW117618   1.662   5.437   5.138
 5573SOL    HW217619   1.661   5.461   5.299
 5574SOL     OW17620   0.421   2.829   6.963
 5574SOL    HW117621   0.508   2.879   6.962
 5574SOL    HW217622   0.358   2.874   0.002
 5575SOL     OW17623   0.456   6.994   1.277
 5575SOL    HW117624   0.404   6.914   1.249
 5575SOL    HW217625   0.517   7.022   1.203
 5576SOL     OW17626   1.810   4.271   3.126
 5576SOL    HW117627   1.805   4.194   3.064
 5576SOL    HW217628   1.844   4.351   3.077
 5577SOL     OW17629   2.067   3.105   0.627
 5577SOL    HW117630   2.080   3.158   0.543
 5577SOL    HW217631   2.142   3.123   0.690
 5578SOL     OW17632   4.005   3.871   2.472
 5578SOL    HW117633   4.089   3.907   2.512
 5578SOL    HW217634   3.935   3.860   2.543
 5579SOL     OW17635   0.556   3.586   1.180
 5579SOL    HW117636   0.589   3.670   1.137
 5579SOL    HW217637   0.466   3.603   1.221
 5580SOL     OW17638   4.840   1.979   6.209
 5580SOL    HW117639   4.932   2.016   6.226
 5580SOL    HW217640   4.772   2.042   6.244
 5581SOL     OW17641   0.959   1.508   1.462
 5581SOL    HW117642   1.017   1.585   1.488
 5581SOL    HW217643   0.980   1.429   1.520
 5582SOL     OW17644   2.524   4.508   6.637
 5582SOL    HW117645   2.472   4.426   6.611
 5582SOL    HW217646   2.545   4.504   6.735
 5583SOL     OW17647   4.348   0.566   2.637
 5583SOL    HW117648   4.251   0.543   2.627
 5583SOL    HW217649   4.380   0.610   2.553
 5584SOL     OW17650   6.397   3.412   4.088
 5584SOL    HW117651   6.420   3.423   4.185
 5584SOL    HW217652   6.472   3.449   4.033
 5585SOL     OW17653   4.804   5.393   3.189
 5585SOL    HW117654   4.848   5.471   3.145
 5585SOL    HW217655   4.731   5.425   3.248
 5586SOL     OW17656   6.557   3.447   5.792
 5586SOL    HW117657   6.490   3.495   5.734
 5586SOL    HW217658   6.643   3.437   5.742
 5587SOL     OW17659   4.453   0.414   0.620
 5587SOL    HW117660   4.428   0.319   0.605
 5587SOL    HW217661   4.373   0.472   0.602
 5588SOL     OW17662   3.013   6.595   2.804
 5588SOL    HW117663   3.026   6.686   2.844
 5588SOL    HW217664   3.053   6.526   2.865
 5589SOL     OW17665   6.240   4.496   6.731
 5589SOL    HW117666   6.274   4.411   6.770
 5589SOL    HW217667   6.198   4.552   6.803
 5590SOL     OW17668   6.004   6.588   3.805
 5590SOL    HW117669   5.989   6.665   3.743
 5590SOL    HW217670   5.927   6.581   3.869
 5591SOL     OW17671   0.531   1.701   1.062
 5591SOL    HW117672   0.453   1.758   1.090
 5591SOL    HW217673   0.499   1.608   1.042
 5592SOL     OW17674   1.631   5.475   3.932
 5592SOL    HW117675   1.594   5.568   3.939
 5592SOL    HW217676   1.664   5.459   3.839
 5593SOL     OW17677   6.880   2.724   6.585
 5593SOL    HW117678   6.965   2.763   6.550
 5593SOL    HW217679   6.894   2.690   6.677
 5594SOL     OW17680   4.955   0.575   4.824
 5594SOL    HW117681   4.954   0.655   4.764
 5594SOL    HW217682   4.899   0.593   4.905
 5595SOL     OW17683   1.232   1.443   4.951
 5595SOL    HW117684   1.276   1.431   5.040
 5595SOL    HW217685   1.264   1.527   4.908
 5596SOL     OW17686   4.535   6.564   2.460
 5596SOL    HW117687   4.523   6.500   2.384
 5596SOL    HW217688   4.485   6.531   2.540
 5597SOL     OW17689   4.762   2.296   4.480
 5597SOL    HW117690   4.777   2.392   4.455
 5597SOL    HW217691   4.844   2.259   4.523
 5598SOL     OW17692   4.888   3.382   4.172
 5598SOL    HW117693   4.861   3.414   4.081
 5598SOL    HW217694   4.828   3.420   4.241
 5599SOL     OW17695   0.933   0.923   3.943
 5599SOL    HW117696   1.016   0.961   3.982
 5599SOL    HW217697   0.947   0.902   3.846
 5600SOL     OW17698   0.765   1.653   2.431
 5600SOL    HW117699   0.735   1.729   2.489
 5600SOL    HW217700   0.686   1.594   2.411
 5601SOL     OW17701   2.911   0.114   5.841
 5601SOL    HW117702   2.886   0.109   5.937
 5601SOL    HW217703   2.907   0.210   5.810
 5602SOL     OW17704   0.559   1.459   0.653
 5602SOL    HW117705   0.629   1.447   0.724
 5602SOL    HW217706   0.471   1.431   0.689
 5603SOL     OW17707   4.998   2.428   6.650
 5603SOL    HW117708   4.911   2.380   6.650
 5603SOL    HW217709   5.069   2.368   6.613
 5604SOL     OW17710   6.445   2.098   5.634
 5604SOL    HW117711   6.422   2.190   5.666
 5604SOL    HW217712   6.544   2.091   5.624
 5605SOL     OW17713   0.699   0.780   4.530
 5605SOL    HW117714   0.700   0.715   4.455
 5605SOL    HW217715   0.741   0.866   4.501
 5606SOL     OW17716   5.463   0.063   0.866
 5606SOL    HW117717   5.558   0.095   0.860
 5606SOL    HW217718   5.448   0.021   0.955
 5607SOL     OW17719   5.636   0.490   2.611
 5607SOL    HW117720   5.691   0.565   2.574
 5607SOL    HW217721   5.539   0.514   2.608
 5608SOL     OW17722   4.366   6.918   5.069
 5608SOL    HW117723   4.314   6.912   4.984
 5608SOL    HW217724   4.426   6.838   5.077
 5609SOL     OW17725   2.555   4.759   0.588
 5609SOL    HW117726   2.580   4.706   0.669
 5609SOL    HW217727   2.458   4.784   0.594
 5610SOL     OW17728   4.947   6.918   0.646
 5610SOL    HW117729   4.953   6.924   0.746
 5610SOL    HW217730   4.955   7.010   0.607
 5611SOL     OW17731   1.742   5.527   2.246
 5611SOL    HW117732   1.699   5.608   2.287
 5611SOL    HW217733   1.800   5.483   2.314
 5612SOL     OW17734   3.749   2.206   6.828
 5612SOL    HW117735   3.803   2.124   6.811
 5612SOL    HW217736   3.750   2.264   6.746
 5613SOL     OW17737   5.101   3.870   3.178
 5613SOL    HW117738   5.115   3.893   3.081
 5613SOL    HW217739   5.120   3.951   3.234
 5614SOL     OW17740   4.427   2.520   4.489
 5614SOL    HW117741   4.500   2.589   4.492
 5614SOL    HW217742   4.415   2.488   4.395
 5615SOL     OW17743   0.693   0.847   6.030
 5615SOL    HW117744   0.726   0.753   6.037
 5615SOL    HW217745   0.598   0.847   5.998
 5616SOL     OW17746   2.000   1.343   5.239
 5616SOL    HW117747   1.910   1.318   5.274
 5616SOL    HW217748   2.069   1.324   5.308
 5617SOL     OW17749   2.397   6.583   6.364
 5617SOL    HW117750   2.326   6.557   6.299
 5617SOL    HW217751   2.359   6.582   6.457
 5618SOL     OW17752   6.463   3.236   3.850
 5618SOL    HW117753   6.488   3.333   3.857
 5618SOL    HW217754   6.537   3.186   3.806
 5619SOL     OW17755   2.978   4.113   6.480
 5619SOL    HW117756   2.878   4.122   6.476
 5619SOL    HW217757   3.002   4.028   6.526
 5620SOL     OW17758   3.867   3.529   0.949
 5620SOL    HW117759   3.806   3.607   0.936
 5620SOL    HW217760   3.953   3.561   0.989
 5621SOL     OW17761   1.247   2.396   5.776
 5621SOL    HW117762   1.333   2.408   5.826
 5621SOL    HW217763   1.268   2.375   5.680
 5622SOL     OW17764   4.433   0.152   6.045
 5622SOL    HW117765   4.455   0.241   6.084
 5622SOL    HW217766   4.342   0.154   6.004
 5623SOL     OW17767   2.140   5.782   6.349
 5623SOL    HW117768   2.073   5.853   6.370
 5623SOL    HW217769   2.162   5.784   6.251
 5624SOL     OW17770   0.995   4.441   3.650
 5624SOL    HW117771   0.930   4.510   3.682
 5624SOL    HW217772   1.085   4.458   3.690
 5625SOL     OW17773   5.789   1.954   4.350
 5625SOL    HW117774   5.857   2.028   4.348
 5625SOL    HW217775   5.781   1.914   4.258
 5626SOL     OW17776   2.957   6.707   4.662
 5626SOL    HW117777   2.975   6.662   4.749
 5626SOL    HW217778   3.043   6.730   4.617
 5627SOL     OW17779   1.102   5.941   0.223
 5627SOL    HW117780   1.095   5.966   0.127
 5627SOL    HW217781   1.142   5.849   0.231
 5628SOL     OW17782   1.434   2.836   5.569
 5628SOL    HW117783   1.391   2.926   5.576
 5628SOL    HW217784   1.464   2.807   5.660
 5629SOL     OW17785   3.476   3.792   2.310
 5629SOL    HW117786   3.487   3.696   2.287
 5629SOL    HW217787   3.565   3.834   2.327
 5630SOL     OW17788   1.259   4.985   0.391
 5630SOL    HW117789   1.324   4.916   0.421
 5630SOL    HW217790   1.269   4.999   0.292
 5631SOL     OW17791   4.413   1.730   6.833
 5631SOL    HW117792   4.465   1.653   6.872
 5631SOL    HW217793   4.395   1.797   6.904
 5632SOL     OW17794   3.922   2.607   6.020
 5632SOL    HW117795   3.885   2.699   6.024
 5632SOL    HW217796   4.004   2.606   5.962
 5633SOL     OW17797   6.132   2.063   3.614
 5633SOL    HW117798   6.126   1.970   3.577
 5633SOL    HW217799   6.203   2.066   3.684
 5634SOL     OW17800   2.267   6.216   5.448
 5634SOL    HW117801   2.227   6.150   5.384
 5634SOL    HW217802   2.336   6.171   5.505
 5635SOL     OW17803   2.146   3.962   5.203
 5635SOL    HW117804   2.126   4.000   5.294
 5635SOL    HW217805   2.243   3.940   5.197
 5636SOL     OW17806   3.362   6.449   2.302
 5636SOL    HW117807   3.307   6.423   2.381
 5636SOL    HW217808   3.457   6.418   2.315
 5637SOL     OW17809   5.059   0.176   4.165
 5637SOL    HW117810   5.003   0.102   4.203
 5637SOL    HW217811   5.018   0.264   4.187
 5638SOL     OW17812   5.357   3.512   1.414
 5638SOL    HW117813   5.342   3.610   1.426
 5638SOL    HW217814   5.305   3.480   1.335
 5639SOL     OW17815   0.774   0.854   0.177
 5639SOL    HW117816   0.728   0.863   0.089
 5639SOL    HW217817   0.749   0.931   0.236
 5640SOL     OW17818   2.972   0.487   3.901
 5640SOL    HW117819   2.967   0.482   3.801
 5640SOL    HW217820   2.952   0.398   3.940
 5641SOL     OW17821   0.453   4.850   6.204
 5641SOL    HW117822   0.540   4.850   6.155
 5641SOL    HW217823   0.445   4.766   6.258
 5642SOL     OW17824   2.303   6.557   6.617
 5642SOL    HW117825   2.376   6.490   6.601
 5642SOL    HW217826   2.257   6.535   6.703
 5643SOL     OW17827   4.866   1.591   4.872
 5643SOL    HW117828   4.795   1.537   4.827
 5643SOL    HW217829   4.837   1.612   4.965
 5644SOL     OW17830   2.947   6.735   5.504
 5644SOL    HW117831   2.953   6.720   5.603
 5644SOL    HW217832   2.862   6.783   5.482
 5645SOL     OW17833   6.527   3.743   3.763
 5645SOL    HW117834   6.568   3.727   3.674
 5645SOL    HW217835   6.440   3.791   3.752
 5646SOL     OW17836   2.051   5.313   2.908
 5646SOL    HW117837   2.149   5.300   2.926
 5646SOL    HW217838   2.002   5.320   2.994
 5647SOL     OW17839   5.653   6.275   1.738
 5647SOL    HW117840   5.613   6.356   1.696
 5647SOL    HW217841   5.595   6.244   1.813
 5648SOL     OW17842   2.402   5.797   2.658
 5648SOL    HW117843   2.478   5.822   2.719
 5648SOL    HW217844   2.425   5.824   2.564
 5649SOL     OW17845   0.791   6.881   4.196
 5649SOL    HW117846   0.802   6.848   4.103
 5649SOL    HW217847   0.835   6.818   4.260
 5650SOL     OW17848   0.509   4.492   0.436
 5650SOL    HW117849   0.607   4.478   0.419
 5650SOL    HW217850   0.480   4.577   0.393
 5651SOL     OW17851   2.129   0.729   0.543
 5651SOL    HW117852   2.204   0.664   0.532
 5651SOL    HW217853   2.043   0.679   0.555
 5652SOL     OW17854   0.101   5.477   1.802
 5652SOL    HW117855   0.085   5.379   1.790
 5652SOL    HW217856   0.144   5.493   1.891
 5653SOL     OW17857   0.386   6.182   0.212
 5653SOL    HW117858   0.482   6.207   0.214
 5653SOL    HW217859   0.336   6.235   0.280
 5654SOL     OW17860   1.128   5.605   4.523
 5654SOL    HW117861   1.066   5.609   4.445
 5654SOL    HW217862   1.080   5.636   4.605
 5655SOL     OW17863   6.535   2.732   3.964
 5655SOL    HW117864   6.485   2.682   4.035
 5655SOL    HW217865   6.589   2.805   4.006
 5656SOL     OW17866   6.679   3.482   6.416
 5656SOL    HW117867   6.584   3.456   6.429
 5656SOL    HW217868   6.714   3.522   6.501
 5657SOL     OW17869   4.560   4.398   4.862
 5657SOL    HW117870   4.568   4.331   4.936
 5657SOL    HW217871   4.482   4.458   4.880
 5658SOL     OW17872   2.041   3.001   6.386
 5658SOL    HW117873   2.075   2.932   6.449
 5658SOL    HW217874   2.117   3.055   6.351
 5659SOL     OW17875   3.523   3.913   5.943
 5659SOL    HW117876   3.540   3.900   6.041
 5659SOL    HW217877   3.530   3.826   5.896
 5660SOL     OW17878   4.382   0.107   6.359
 5660SOL    HW117879   4.389   0.195   6.312
 5660SOL    HW217880   4.473   0.074   6.383
 5661SOL     OW17881   1.003   5.469   5.939
 5661SOL    HW117882   0.916   5.490   5.982
 5661SOL    HW217883   1.075   5.461   6.008
 5662SOL     OW17884   2.087   6.806   2.709
 5662SOL    HW117885   2.023   6.735   2.736
 5662SOL    HW217886   2.116   6.790   2.614
 5663SOL     OW17887   1.558   2.871   0.745
 5663SOL    HW117888   1.644   2.824   0.762
 5663SOL    HW217889   1.489   2.840   0.811
 5664SOL     OW17890   5.113   4.137   4.487
 5664SOL    HW117891   5.016   4.143   4.507
 5664SOL    HW217892   5.136   4.044   4.459
 5665SOL     OW17893   1.271   6.170   0.303
 5665SOL    HW117894   1.335   6.097   0.329
 5665SOL    HW217895   1.188   6.130   0.266
 5666SOL     OW17896   5.925   0.720   3.925
 5666SOL    HW117897   5.984   0.765   3.991
 5666SOL    HW217898   5.981   0.669   3.859
 5667SOL     OW17899   2.077   4.749   4.096
 5667SOL    HW117900   1.988   4.745   4.051
 5667SOL    HW217901   2.072   4.810   4.175
 5668SOL     OW17902   6.154   2.985   2.659
 5668SOL    HW117903   6.210   2.905   2.682
 5668SOL    HW217904   6.071   2.955   2.613
 5669SOL     OW17905   6.548   4.357   0.055
 5669SOL    HW117906   6.511   4.265   0.071
 5669SOL    HW217907   6.599   4.387   0.135
 5670SOL     OW17908   1.510   3.746   3.058
 5670SOL    HW117909   1.522   3.735   2.959
 5670SOL    HW217910   1.477   3.660   3.097
 5671SOL     OW17911   6.064   5.410   4.682
 5671SOL    HW117912   5.979   5.440   4.726
 5671SOL    HW217913   6.141   5.432   4.740
 5672SOL     OW17914   4.783   3.980   5.641
 5672SOL    HW117915   4.866   3.928   5.621
 5672SOL    HW217916   4.808   4.074   5.664
 5673SOL     OW17917   0.795   6.749   1.454
 5673SOL    HW117918   0.810   6.839   1.414
 5673SOL    HW217919   0.823   6.750   1.550
 5674SOL     OW17920   2.261   4.928   4.459
 5674SOL    HW117921   2.353   4.938   4.496
 5674SOL    HW217922   2.227   4.836   4.479
 5675SOL     OW17923   3.696   1.538   0.328
 5675SOL    HW117924   3.619   1.546   0.265
 5675SOL    HW217925   3.698   1.446   0.367
 5676SOL     OW17926   2.656   2.471   1.851
 5676SOL    HW117927   2.743   2.449   1.895
 5676SOL    HW217928   2.613   2.387   1.820
 5677SOL     OW17929   6.962   0.895   0.901
 5677SOL    HW117930   6.933   0.807   0.864
 5677SOL    HW217931   0.023   0.883   0.952
 5678SOL     OW17932   3.778   1.411   1.936
 5678SOL    HW117933   3.746   1.433   2.029
 5678SOL    HW217934   3.874   1.385   1.939
 5679SOL     OW17935   5.920   1.996   4.647
 5679SOL    HW117936   5.838   1.939   4.648
 5679SOL    HW217937   5.987   1.959   4.583
 5680SOL     OW17938   1.480   4.731   5.547
 5680SOL    HW117939   1.506   4.777   5.462
 5680SOL    HW217940   1.437   4.797   5.609
 5681SOL     OW17941   0.525   3.725   3.223
 5681SOL    HW117942   0.520   3.824   3.230
 5681SOL    HW217943   0.621   3.695   3.226
 5682SOL     OW17944   2.931   5.690   3.143
 5682SOL    HW117945   2.995   5.693   3.066
 5682SOL    HW217946   2.932   5.598   3.183
 5683SOL     OW17947   3.895   2.672   6.681
 5683SOL    HW117948   3.927   2.601   6.744
 5683SOL    HW217949   3.974   2.711   6.632
 5684SOL     OW17950   2.227   3.762   5.875
 5684SOL    HW117951   2.170   3.823   5.821
 5684SOL    HW217952   2.305   3.813   5.912
 5685SOL     OW17953   2.025   2.331   3.986
 5685SOL    HW117954   2.105   2.389   3.974
 5685SOL    HW217955   1.948   2.387   4.017
 5686SOL     OW17956   3.295   1.138   5.930
 5686SOL    HW117957   3.375   1.197   5.938
 5686SOL    HW217958   3.322   1.049   5.893
 5687SOL     OW17959   0.325   6.004   5.251
 5687SOL    HW117960   0.351   6.044   5.339
 5687SOL    HW217961   0.305   5.907   5.263
 5688SOL     OW17962   2.314   2.842   3.284
 5688SOL    HW117963   2.352   2.779   3.352
 5688SOL    HW217964   2.306   2.933   3.324
 5689SOL     OW17965   2.238   0.764   1.793
 5689SOL    HW117966   2.288   0.826   1.732
 5689SOL    HW217967   2.143   0.757   1.761
 5690SOL     OW17968   0.845   5.374   6.651
 5690SOL    HW117969   0.762   5.326   6.621
 5690SOL    HW217970   0.880   5.430   6.576
 5691SOL     OW17971   3.215   1.229   2.303
 5691SOL    HW117972   3.266   1.315   2.295
 5691SOL    HW217973   3.243   1.181   2.386
 5692SOL     OW17974   4.839   5.269   0.692
 5692SOL    HW117975   4.776   5.245   0.619
 5692SOL    HW217976   4.836   5.198   0.763
 5693SOL     OW17977   3.979   1.222   0.977
 5693SOL    HW117978   3.883   1.201   0.996
 5693SOL    HW217979   4.035   1.196   1.056
 5694SOL     OW17980   0.210   0.244   2.551
 5694SOL    HW117981   0.135   0.210   2.608
 5694SOL    HW217982   0.276   0.170   2.535
 5695SOL     OW17983   1.166   0.681   2.098
 5695SOL    HW117984   1.218   0.662   2.181
 5695SOL    HW217985   1.123   0.771   2.105
 5696SOL     OW17986   1.719   0.690   3.890
 5696SOL    HW117987   1.625   0.723   3.891
 5696SOL    HW217988   1.732   0.622   3.961
 5697SOL     OW17989   6.448   2.408   1.818
 5697SOL    HW117990   6.450   2.344   1.895
 5697SOL    HW217991   6.368   2.467   1.826
 5698SOL     OW17992   1.669   3.893   3.537
 5698SOL    HW117993   1.712   3.807   3.511
 5698SOL    HW217994   1.617   3.880   3.621
 5699SOL     OW17995   2.473   2.200   3.487
 5699SOL    HW117996   2.568   2.168   3.482
 5699SOL    HW217997   2.434   2.206   3.395
 5700SOL     OW17998   6.855   0.433   1.948
 5700SOL    HW117999   6.946   0.456   1.983
 5700SOL    HW218000   6.831   0.340   1.977
 5701SOL     OW18001   0.027   1.346   0.888
 5701SOL    HW118002   0.084   1.363   0.969
 5701SOL    HW218003   6.976   1.284   0.913
 5702SOL     OW18004   1.956   6.414   4.329
 5702SOL    HW118005   1.885   6.389   4.396
 5702SOL    HW218006   1.951   6.512   4.310
 5703SOL     OW18007   0.047   3.808   6.302
 5703SOL    HW118008   0.119   3.805   6.232
 5703SOL    HW218009   6.992   3.857   6.266
 5704SOL     OW18010   5.331   3.988   3.694
 5704SOL    HW118011   5.302   3.942   3.610
 5704SOL    HW218012   5.345   4.085   3.676
 5705SOL     OW18013   5.838   6.111   6.456
 5705SOL    HW118014   5.748   6.155   6.457
 5705SOL    HW218015   5.831   6.022   6.412
 5706SOL     OW18016   5.614   2.752   0.741
 5706SOL    HW118017   5.562   2.682   0.693
 5706SOL    HW218018   5.597   2.746   0.839
 5707SOL     OW18019   5.150   7.007   1.184
 5707SOL    HW118020   5.243   7.008   1.219
 5707SOL    HW218021   5.106   0.071   1.203
 5708SOL     OW18022   5.227   5.718   3.431
 5708SOL    HW118023   5.247   5.634   3.381
 5708SOL    HW218024   5.184   5.696   3.518
 5709SOL     OW18025   1.100   0.951   2.219
 5709SOL    HW118026   1.064   1.019   2.283
 5709SOL    HW218027   1.200   0.947   2.227
 5710SOL     OW18028   2.930   2.614   0.730
 5710SOL    HW118029   2.998   2.686   0.719
 5710SOL    HW218030   2.954   2.536   0.673
 5711SOL     OW18031   5.449   0.599   1.889
 5711SOL    HW118032   5.477   0.512   1.849
 5711SOL    HW218033   5.349   0.607   1.882
 5712SOL     OW18034   6.427   6.004   1.202
 5712SOL    HW118035   6.411   6.070   1.129
 5712SOL    HW218036   6.515   6.023   1.245
 5713SOL     OW18037   2.622   5.597   0.307
 5713SOL    HW118038   2.622   5.638   0.216
 5713SOL    HW218039   2.696   5.636   0.361
 5714SOL     OW18040   6.855   6.395   2.033
 5714SOL    HW118041   6.890   6.488   2.023
 5714SOL    HW218042   6.921   6.340   2.086
 5715SOL     OW18043   0.527   6.324   1.461
 5715SOL    HW118044   0.610   6.272   1.481
 5715SOL    HW218045   0.541   6.420   1.488
 5716SOL     OW18046   0.943   4.762   6.644
 5716SOL    HW118047   0.945   4.694   6.572
 5716SOL    HW218048   0.870   4.829   6.626
 5717SOL     OW18049   2.026   4.909   2.624
 5717SOL    HW118050   2.068   4.976   2.685
 5717SOL    HW218051   1.965   4.849   2.676
 5718SOL     OW18052   0.762   2.605   0.449
 5718SOL    HW118053   0.827   2.675   0.419
 5718SOL    HW218054   0.705   2.642   0.522
 5719SOL     OW18055   2.694   3.262   1.059
 5719SOL    HW118056   2.770   3.269   0.994
 5719SOL    HW218057   2.730   3.249   1.151
 5720SOL     OW18058   2.225   5.887   5.678
 5720SOL    HW118059   2.149   5.881   5.742
 5720SOL    HW218060   2.193   5.925   5.591
 5721SOL     OW18061   5.441   4.267   0.904
 5721SOL    HW118062   5.353   4.234   0.938
 5721SOL    HW218063   5.486   4.193   0.854
 5722SOL     OW18064   0.524   1.121   5.097
 5722SOL    HW118065   0.590   1.196   5.101
 5722SOL    HW218066   0.460   1.138   5.022
 5723SOL     OW18067   3.909   3.133   6.829
 5723SOL    HW118068   3.810   3.138   6.819
 5723SOL    HW218069   3.936   3.039   6.846
 5724SOL     OW18070   6.337   2.782   3.219
 5724SOL    HW118071   6.335   2.731   3.306
 5724SOL    HW218072   6.397   2.735   3.155
 5725SOL     OW18073   5.021   5.150   2.822
 5725SOL    HW118074   5.063   5.105   2.901
 5725SOL    HW218075   5.036   5.249   2.828
 5726SOL     OW18076   5.219   3.802   3.528
 5726SOL    HW118077   5.236   3.739   3.452
 5726SOL    HW218078   5.176   3.751   3.603
 5727SOL     OW18079   6.983   2.599   4.647
 5727SOL    HW118080   6.985   2.540   4.566
 5727SOL    HW218081   0.052   2.622   4.673
 5728SOL     OW18082   5.101   5.948   5.047
 5728SOL    HW118083   5.059   5.900   4.970
 5728SOL    HW218084   5.084   6.046   5.040
 5729SOL     OW18085   2.444   2.148   6.223
 5729SOL    HW118086   2.398   2.096   6.151
 5729SOL    HW218087   2.527   2.190   6.186
 5730SOL     OW18088   0.061   4.177   5.916
 5730SOL    HW118089   7.000   4.149   5.871
 5730SOL    HW218090   0.139   4.136   5.868
 5731SOL     OW18091   0.116   6.753   1.337
 5731SOL    HW118092   0.201   6.738   1.287
 5731SOL    HW218093   0.070   6.665   1.352
 5732SOL     OW18094   1.302   6.333   4.521
 5732SOL    HW118095   1.212   6.315   4.480
 5732SOL    HW218096   1.333   6.424   4.495
 5733SOL     OW18097   3.943   6.724   5.272
 5733SOL    HW118098   3.935   6.774   5.186
 5733SOL    HW218099   3.988   6.781   5.340
 5734SOL     OW18100   1.728   6.427   4.512
 5734SOL    HW118101   1.649   6.479   4.480
 5734SOL    HW218102   1.759   6.462   4.600
 5735SOL     OW18103   3.215   1.624   1.501
 5735SOL    HW118104   3.225   1.709   1.551
 5735SOL    HW218105   3.213   1.547   1.565
 5736SOL     OW18106   0.936   5.020   0.018
 5736SOL    HW118107   0.996   5.080   0.070
 5736SOL    HW218108   0.926   5.056   6.949
 5737SOL     OW18109   5.206   5.785   6.143
 5737SOL    HW118110   5.269   5.727   6.194
 5737SOL    HW218111   5.250   5.872   6.121
 5738SOL     OW18112   2.042   3.247   6.853
 5738SOL    HW118113   2.065   3.324   6.793
 5738SOL    HW218114   1.959   3.269   6.905
 5739SOL     OW18115   1.764   1.445   0.626
 5739SOL    HW118116   1.825   1.368   0.645
 5739SOL    HW218117   1.687   1.414   0.570
 5740SOL     OW18118   4.152   5.616   6.549
 5740SOL    HW118119   4.146   5.531   6.602
 5740SOL    HW218120   4.199   5.686   6.603
 5741SOL     OW18121   6.545   5.351   5.189
 5741SOL    HW118122   6.610   5.282   5.158
 5741SOL    HW218123   6.569   5.440   5.150
 5742SOL     OW18124   6.391   6.631   2.707
 5742SOL    HW118125   6.399   6.545   2.656
 5742SOL    HW218126   6.298   6.642   2.740
 5743SOL     OW18127   2.341   6.830   4.844
 5743SOL    HW118128   2.410   6.786   4.902
 5743SOL    HW218129   2.299   6.906   4.893
 5744SOL     OW18130   5.630   1.062   0.058
 5744SOL    HW118131   5.712   1.009   0.035
 5744SOL    HW218132   5.634   1.151   0.013
 5745SOL     OW18133   1.753   1.884   4.511
 5745SOL    HW118134   1.701   1.852   4.590
 5745SOL    HW218135   1.707   1.856   4.427
 5746SOL     OW18136   4.772   1.761   0.081
 5746SOL    HW118137   4.703   1.822   0.119
 5746SOL    HW218138   4.863   1.797   0.101
 5747SOL     OW18139   0.478   5.177   3.240
 5747SOL    HW118140   0.456   5.155   3.145
 5747SOL    HW218141   0.520   5.268   3.245
 5748SOL     OW18142   2.439   5.076   1.772
 5748SOL    HW118143   2.370   5.142   1.743
 5748SOL    HW218144   2.400   4.984   1.769
 5749SOL     OW18145   2.160   1.761   3.206
 5749SOL    HW118146   2.197   1.804   3.123
 5749SOL    HW218147   2.116   1.830   3.263
 5750SOL     OW18148   6.423   5.249   4.100
 5750SOL    HW118149   6.466   5.218   4.015
 5750SOL    HW218150   6.413   5.171   4.162
 5751SOL     OW18151   2.182   3.345   5.500
 5751SOL    HW118152   2.257   3.383   5.446
 5751SOL    HW218153   2.150   3.260   5.458
 5752SOL     OW18154   6.451   6.358   6.221
 5752SOL    HW118155   6.467   6.435   6.159
 5752SOL    HW218156   6.433   6.276   6.168
 5753SOL     OW18157   3.348   3.061   0.082
 5753SOL    HW118158   3.379   2.977   0.127
 5753SOL    HW218159   3.248   3.064   0.081
 5754SOL     OW18160   5.470   5.251   1.818
 5754SOL    HW118161   5.537   5.257   1.745
 5754SOL    HW218162   5.378   5.250   1.778
 5755SOL     OW18163   3.608   3.750   6.618
 5755SOL    HW118164   3.527   3.801   6.589
 5755SOL    HW218165   3.626   3.676   6.553
 5756SOL     OW18166   6.693   4.890   3.741
 5756SOL    HW118167   6.600   4.862   3.765
 5756SOL    HW218168   6.703   4.891   3.641
 5757SOL     OW18169   6.446   5.217   0.862
 5757SOL    HW118170   6.521   5.268   0.819
 5757SOL    HW218171   6.360   5.241   0.817
 5758SOL     OW18172   1.853   2.413   4.722
 5758SOL    HW118173   1.890   2.423   4.815
 5758SOL    HW218174   1.869   2.497   4.671
 5759SOL     OW18175   5.278   1.625   6.270
 5759SOL    HW118176   5.220   1.610   6.350
 5759SOL    HW218177   5.279   1.723   6.248
 5760SOL     OW18178   1.686   5.365   2.047
 5760SOL    HW118179   1.751   5.289   2.038
 5760SOL    HW218180   1.709   5.418   2.129
 5761SOL     OW18181   4.748   6.477   5.013
 5761SOL    HW118182   4.660   6.433   5.029
 5761SOL    HW218183   4.812   6.411   4.974
 5762SOL     OW18184   5.693   6.469   1.396
 5762SOL    HW118185   5.790   6.494   1.399
 5762SOL    HW218186   5.649   6.496   1.482
 5763SOL     OW18187   1.427   0.617   0.987
 5763SOL    HW118188   1.486   0.547   1.027
 5763SOL    HW218189   1.477   0.667   0.916
 5764SOL     OW18190   5.603   4.111   5.262
 5764SOL    HW118191   5.533   4.122   5.333
 5764SOL    HW218192   5.692   4.094   5.305
 5765SOL     OW18193   6.076   4.362   6.965
 5765SOL    HW118194   6.030   4.312   0.014
 5765SOL    HW218195   6.163   4.397   6.999
 5766SOL     OW18196   3.063   1.892   2.271
 5766SOL    HW118197   3.077   1.896   2.369
 5766SOL    HW218198   3.076   1.983   2.231
 5767SOL     OW18199   0.555   6.566   1.204
 5767SOL    HW118200   0.550   6.532   1.298
 5767SOL    HW218201   0.570   6.489   1.142
 5768SOL     OW18202   6.510   1.404   3.107
 5768SOL    HW118203   6.601   1.439   3.087
 5768SOL    HW218204   6.444   1.444   3.045
 5769SOL     OW18205   2.545   6.058   4.463
 5769SOL    HW118206   2.571   6.155   4.459
 5769SOL    HW218207   2.446   6.050   4.464
 5770SOL     OW18208   6.566   0.107   1.679
 5770SOL    HW118209   6.491   0.123   1.614
 5770SOL    HW218210   6.641   0.170   1.659
 5771SOL     OW18211   1.411   0.894   1.409
 5771SOL    HW118212   1.381   0.813   1.359
 5771SOL    HW218213   1.506   0.883   1.437
 5772SOL     OW18214   5.627   3.446   0.686
 5772SOL    HW118215   5.552   3.383   0.664
 5772SOL    HW218216   5.670   3.417   0.772
 5773SOL     OW18217   5.438   6.044   4.202
 5773SOL    HW118218   5.355   6.025   4.149
 5773SOL    HW218219   5.460   6.141   4.195
 5774SOL     OW18220   2.240   5.635   3.588
 5774SOL    HW118221   2.265   5.711   3.528
 5774SOL    HW218222   2.268   5.657   3.682
 5775SOL     OW18223   0.205   6.583   6.067
 5775SOL    HW118224   0.171   6.652   6.132
 5775SOL    HW218225   0.300   6.604   6.044
 5776SOL     OW18226   4.734   0.242   5.959
 5776SOL    HW118227   4.680   0.159   5.947
 5776SOL    HW218228   4.716   0.304   5.882
 5777SOL     OW18229   0.526   1.028   4.677
 5777SOL    HW118230   0.617   1.023   4.637
 5777SOL    HW218231   0.500   0.938   4.712
 5778SOL     OW18232   1.374   6.754   3.352
 5778SOL    HW118233   1.357   6.667   3.399
 5778SOL    HW218234   1.465   6.787   3.376
 5779SOL     OW18235   4.024   1.245   2.017
 5779SOL    HW118236   3.936   1.221   2.058
 5779SOL    HW218237   4.096   1.188   2.057
 5780SOL     OW18238   6.777   4.160   1.461
 5780SOL    HW118239   6.795   4.183   1.365
 5780SOL    HW218240   6.850   4.101   1.496
 5781SOL     OW18241   2.068   5.100   5.112
 5781SOL    HW118242   2.083   5.095   5.013
 5781SOL    HW218243   2.128   5.034   5.158
 5782SOL     OW18244   2.583   1.243   2.062
 5782SOL    HW118245   2.513   1.273   1.997
 5782SOL    HW218246   2.671   1.233   2.014
 5783SOL     OW18247   1.264   0.215   0.953
 5783SOL    HW118248   1.348   0.162   0.940
 5783SOL    HW218249   1.276   0.306   0.914
 5784SOL     OW18250   0.658   6.217   0.225
 5784SOL    HW118251   0.679   6.313   0.242
 5784SOL    HW218252   0.656   6.168   0.312
 5785SOL     OW18253   1.821   1.993   6.929
 5785SOL    HW118254   1.803   2.091   6.937
 5785SOL    HW218255   1.744   1.942   6.966
 5786SOL     OW18256   1.638   3.601   1.911
 5786SOL    HW118257   1.644   3.690   1.864
 5786SOL    HW218258   1.692   3.534   1.861
 5787SOL     OW18259   5.856   2.234   4.536
 5787SOL    HW118260   5.917   2.313   4.546
 5787SOL    HW218261   5.897   2.154   4.580
 5788SOL     OW18262   3.025   1.300   2.119
 5788SOL    HW118263   3.002   1.376   2.180
 5788SOL    HW218264   3.102   1.249   2.158
 5789SOL     OW18265   4.627   4.161   0.087
 5789SOL    HW118266   4.711   4.150   0.141
 5789SOL    HW218267   4.590   4.253   0.101
 5790SOL     OW18268   5.400   5.605   4.341
 5790SOL    HW118269   5.498   5.608   4.361
 5790SOL    HW218270   5.386   5.602   4.242
 5791SOL     OW18271   4.014   1.038   2.602
 5791SOL    HW118272   4.005   1.087   2.515
 5791SOL    HW218273   4.094   1.071   2.650
 5792SOL     OW18274   5.098   3.634   2.923
 5792SOL    HW118275   5.091   3.539   2.953
 5792SOL    HW218276   5.166   3.641   2.849
 5793SOL     OW18277   4.947   2.399   5.525
 5793SOL    HW118278   5.011   2.471   5.551
 5793SOL    HW218279   4.855   2.436   5.519
 5794SOL     OW18280   3.764   6.970   6.461
 5794SOL    HW118281   3.666   6.959   6.443
 5794SOL    HW218282   3.816   6.908   6.402
 5795SOL     OW18283   1.525   5.610   1.416
 5795SOL    HW118284   1.607   5.651   1.457
 5795SOL    HW218285   1.477   5.556   1.485
 5796SOL     OW18286   4.411   2.721   6.886
 5796SOL    HW118287   4.488   2.763   6.934
 5796SOL    HW218288   4.401   2.763   6.796
 5797SOL     OW18289   5.153   2.319   0.345
 5797SOL    HW118290   5.218   2.394   0.341
 5797SOL    HW218291   5.159   2.274   0.434
 5798SOL     OW18292   1.595   4.084   5.442
 5798SOL    HW118293   1.638   4.149   5.381
 5798SOL    HW218294   1.624   3.991   5.419
 5799SOL     OW18295   1.811   6.625   3.297
 5799SOL    HW118296   1.796   6.549   3.360
 5799SOL    HW218297   1.900   6.615   3.252
 5800SOL     OW18298   0.738   6.338   0.806
 5800SOL    HW118299   0.807   6.268   0.821
 5800SOL    HW218300   0.697   6.363   0.894
 5801SOL     OW18301   1.645   1.923   2.713
 5801SOL    HW118302   1.706   1.995   2.680
 5801SOL    HW218303   1.654   1.915   2.812
 5802SOL     OW18304   0.025   1.364   2.175
 5802SOL    HW118305   7.015   1.449   2.215
 5802SOL    HW218306   0.076   1.384   2.092
 5803SOL     OW18307   0.813   4.913   3.562
 5803SOL    HW118308   0.753   4.933   3.485
 5803SOL    HW218309   0.890   4.977   3.562
 5804SOL     OW18310   6.466   0.716   3.656
 5804SOL    HW118311   6.541   0.653   3.677
 5804SOL    HW218312   6.495   0.779   3.583
 5805SOL     OW18313   2.013   2.543   1.302
 5805SOL    HW118314   2.031   2.577   1.395
 5805SOL    HW218315   1.932   2.589   1.265
 5806SOL     OW18316   0.333   3.735   3.021
 5806SOL    HW118317   0.350   3.649   2.973
 5806SOL    HW218318   0.405   3.750   3.089
 5807SOL     OW18319   0.816   0.303   0.853
 5807SOL    HW118320   0.806   0.260   0.763
 5807SOL    HW218321   0.882   0.251   0.908
 5808SOL     OW18322   5.975   0.012   5.251
 5808SOL    HW118323   5.948   0.106   5.273
 5808SOL    HW218324   5.981   6.982   5.335
 5809SOL     OW18325   0.465   2.354   5.723
 5809SOL    HW118326   0.399   2.355   5.649
 5809SOL    HW218327   0.425   2.309   5.803
 5810SOL     OW18328   4.056   0.116   5.172
 5810SOL    HW118329   3.987   0.118   5.244
 5810SOL    HW218330   4.143   0.086   5.211
 5811SOL     OW18331   3.063   3.732   5.822
 5811SOL    HW118332   3.011   3.761   5.903
 5811SOL    HW218333   3.160   3.730   5.844
 5812SOL     OW18334   5.879   2.847   0.474
 5812SOL    HW118335   5.790   2.865   0.433
 5812SOL    HW218336   5.888   2.901   0.558
 5813SOL     OW18337   4.993   6.762   1.583
 5813SOL    HW118338   4.991   6.720   1.674
 5813SOL    HW218339   5.079   6.738   1.537
 5814SOL     OW18340   5.359   1.712   1.880
 5814SOL    HW118341   5.352   1.650   1.802
 5814SOL    HW218342   5.281   1.700   1.941
 5815SOL     OW18343   6.388   1.689   3.845
 5815SOL    HW118344   6.377   1.725   3.937
 5815SOL    HW218345   6.321   1.616   3.829
 5816SOL     OW18346   6.875   4.331   2.766
 5816SOL    HW118347   6.881   4.428   2.790
 5816SOL    HW218348   6.962   4.301   2.727
 5817SOL     OW18349   5.794   4.095   3.626
 5817SOL    HW118350   5.786   4.039   3.543
 5817SOL    HW218351   5.717   4.074   3.687
 5818SOL     OW18352   2.242   0.479   5.533
 5818SOL    HW118353   2.180   0.557   5.533
 5818SOL    HW218354   2.221   0.418   5.609
 5819SOL     OW18355   4.239   4.958   0.270
 5819SOL    HW118356   4.187   4.958   0.185
 5819SOL    HW218357   4.295   5.040   0.276
 5820SOL     OW18358   6.191   5.240   2.559
 5820SOL    HW118359   6.196   5.284   2.470
 5820SOL    HW218360   6.115   5.278   2.612
 5821SOL     OW18361   6.399   0.628   1.445
 5821SOL    HW118362   6.345   0.546   1.465
 5821SOL    HW218363   6.494   0.602   1.428
 5822SOL     OW18364   1.512   2.857   2.545
 5822SOL    HW118365   1.553   2.948   2.550
 5822SOL    HW218366   1.441   2.857   2.474
 5823SOL     OW18367   1.792   6.454   4.048
 5823SOL    HW118368   1.790   6.548   4.081
 5823SOL    HW218369   1.733   6.397   4.105
 5824SOL     OW18370   0.677   6.873   1.938
 5824SOL    HW118371   0.703   6.850   1.844
 5824SOL    HW218372   0.667   6.972   1.946
 5825SOL     OW18373   5.589   0.277   4.485
 5825SOL    HW118374   5.551   0.369   4.476
 5825SOL    HW218375   5.582   0.230   4.397
 5826SOL     OW18376   0.601   0.077   4.890
 5826SOL    HW118377   0.668   0.129   4.943
 5826SOL    HW218378   0.626   0.078   4.794
 5827SOL     OW18379   2.139   4.759   5.095
 5827SOL    HW118380   2.092   4.745   5.008
 5827SOL    HW218381   2.222   4.704   5.097
 5828SOL     OW18382   4.420   6.527   4.330
 5828SOL    HW118383   4.498   6.526   4.268
 5828SOL    HW218384   4.439   6.468   4.409
 5829SOL     OW18385   2.638   0.984   3.718
 5829SOL    HW118386   2.719   0.927   3.734
 5829SOL    HW218387   2.662   1.080   3.732
 5830SOL     OW18388   3.732   5.480   4.648
 5830SOL    HW118389   3.686   5.486   4.560
 5830SOL    HW218390   3.729   5.386   4.681
 5831SOL     OW18391   1.577   2.089   5.130
 5831SOL    HW118392   1.588   2.126   5.038
 5831SOL    HW218393   1.505   2.020   5.130
 5832SOL     OW18394   2.813   5.170   0.754
 5832SOL    HW118395   2.778   5.077   0.746
 5832SOL    HW218396   2.815   5.213   0.665
 5833SOL     OW18397   4.083   3.929   6.607
 5833SOL    HW118398   4.001   3.964   6.651
 5833SOL    HW218399   4.158   3.924   6.674
 5834SOL     OW18400   5.373   3.537   6.683
 5834SOL    HW118401   5.291   3.483   6.703
 5834SOL    HW218402   5.442   3.478   6.641
 5835SOL     OW18403   5.419   0.845   2.092
 5835SOL    HW118404   5.500   0.797   2.127
 5835SOL    HW218405   5.435   0.872   1.997
 5836SOL     OW18406   4.382   0.172   2.682
 5836SOL    HW118407   4.414   0.079   2.698
 5836SOL    HW218408   4.306   0.170   2.616
 5837SOL     OW18409   3.170   4.470   0.006
 5837SOL    HW118410   3.137   4.435   6.943
 5837SOL    HW218411   3.270   4.466   0.009
 5838SOL     OW18412   3.412   2.078   0.158
 5838SOL    HW118413   3.400   2.168   0.115
 5838SOL    HW218414   3.383   2.006   0.095
 5839SOL     OW18415   1.726   1.980   0.618
 5839SOL    HW118416   1.824   1.988   0.633
 5839SOL    HW218417   1.683   1.936   0.697
 5840SOL     OW18418   1.165   3.046   3.086
 5840SOL    HW118419   1.177   3.108   3.163
 5840SOL    HW218420   1.216   2.962   3.103
 5841SOL     OW18421   5.182   2.236   0.607
 5841SOL    HW118422   5.247   2.161   0.614
 5841SOL    HW218423   5.107   2.222   0.672
 5842SOL     OW18424   3.029   1.421   0.603
 5842SOL    HW118425   3.068   1.511   0.586
 5842SOL    HW218426   2.969   1.395   0.527
 5843SOL     OW18427   2.012   3.286   1.300
 5843SOL    HW118428   2.035   3.272   1.203
 5843SOL    HW218429   2.082   3.344   1.342
 5844SOL     OW18430   0.835   0.488   4.808
 5844SOL    HW118431   0.739   0.461   4.802
 5844SOL    HW218432   0.841   0.588   4.808
 5845SOL     OW18433   1.238   6.488   1.825
 5845SOL    HW118434   1.147   6.460   1.856
 5845SOL    HW218435   1.299   6.409   1.825
 5846SOL     OW18436   6.524   4.223   5.722
 5846SOL    HW118437   6.503   4.308   5.674
 5846SOL    HW218438   6.516   4.236   5.820
 5847SOL     OW18439   2.615   3.220   0.636
 5847SOL    HW118440   2.540   3.170   0.679
 5847SOL    HW218441   2.669   3.157   0.580
 5848SOL     OW18442   2.357   4.960   2.862
 5848SOL    HW118443   2.381   4.870   2.825
 5848SOL    HW218444   2.262   4.981   2.839
 5849SOL     OW18445   3.044   5.933   5.401
 5849SOL    HW118446   3.027   6.018   5.451
 5849SOL    HW218447   3.006   5.940   5.309
 5850SOL     OW18448   0.861   2.001   1.947
 5850SOL    HW118449   0.946   1.955   1.924
 5850SOL    HW218450   0.866   2.038   2.040
 5851SOL     OW18451   6.225   3.683   4.641
 5851SOL    HW118452   6.154   3.619   4.669
 5851SOL    HW218453   6.313   3.653   4.676
 5852SOL     OW18454   5.183   4.801   2.929
 5852SOL    HW118455   5.152   4.737   2.859
 5852SOL    HW218456   5.281   4.816   2.920
 5853SOL     OW18457   3.510   4.536   5.363
 5853SOL    HW118458   3.456   4.618   5.347
 5853SOL    HW218459   3.574   4.552   5.438
 5854SOL     OW18460   3.029   5.136   5.828
 5854SOL    HW118461   2.933   5.119   5.846
 5854SOL    HW218462   3.043   5.233   5.808
 5855SOL     OW18463   2.195   3.154   3.960
 5855SOL    HW118464   2.294   3.155   3.974
 5855SOL    HW218465   2.152   3.098   4.031
 5856SOL     OW18466   1.567   6.288   3.594
 5856SOL    HW118467   1.471   6.267   3.575
 5856SOL    HW218468   1.613   6.315   3.510
 5857SOL     OW18469   6.775   4.180   6.392
 5857SOL    HW118470   6.855   4.147   6.442
 5857SOL    HW218471   6.795   4.179   6.294
 5858SOL     OW18472   2.096   0.689   3.488
 5858SOL    HW118473   2.026   0.700   3.558
 5858SOL    HW218474   2.186   0.684   3.531
 5859SOL     OW18475   5.741   0.237   2.384
 5859SOL    HW118476   5.653   0.201   2.414
 5859SOL    HW218477   5.734   0.335   2.369
 5860SOL     OW18478   0.071   2.711   3.833
 5860SOL    HW118479   0.141   2.640   3.834
 5860SOL    HW218480   0.016   2.703   3.750
 5861SOL     OW18481   4.752   1.071   5.162
 5861SOL    HW118482   4.758   1.021   5.076
 5861SOL    HW218483   4.823   1.141   5.165
 5862SOL     OW18484   6.658   5.115   3.503
 5862SOL    HW118485   6.588   5.139   3.436
 5862SOL    HW218486   6.619   5.123   3.595
 5863SOL     OW18487   3.940   0.162   5.412
 5863SOL    HW118488   3.893   0.250   5.422
 5863SOL    HW218489   4.023   0.162   5.467
 5864SOL     OW18490   3.136   3.738   2.467
 5864SOL    HW118491   3.187   3.653   2.459
 5864SOL    HW218492   3.177   3.807   2.407
 5865SOL     OW18493   6.148   0.824   5.784
 5865SOL    HW118494   6.146   0.807   5.686
 5865SOL    HW218495   6.225   0.775   5.825
 5866SOL     OW18496   3.378   3.101   2.523
 5866SOL    HW118497   3.303   3.043   2.491
 5866SOL    HW218498   3.362   3.127   2.618
 5867SOL     OW18499   3.269   1.818   1.709
 5867SOL    HW118500   3.225   1.850   1.793
 5867SOL    HW218501   3.366   1.800   1.727
 5868SOL     OW18502   1.266   1.187   6.798
 5868SOL    HW118503   1.222   1.276   6.787
 5868SOL    HW218504   1.207   1.116   6.759
 5869SOL     OW18505   1.343   5.409   4.385
 5869SOL    HW118506   1.285   5.486   4.410
 5869SOL    HW218507   1.427   5.443   4.342
 5870SOL     OW18508   4.546   4.568   4.410
 5870SOL    HW118509   4.589   4.597   4.496
 5870SOL    HW218510   4.609   4.507   4.361
 5871SOL     OW18511   3.229   3.266   3.698
 5871SOL    HW118512   3.328   3.274   3.683
 5871SOL    HW218513   3.189   3.357   3.706
 5872SOL     OW18514   3.909   5.967   1.845
 5872SOL    HW118515   3.822   5.930   1.878
 5872SOL    HW218516   3.938   5.916   1.764
 5873SOL     OW18517   4.002   4.977   2.111
 5873SOL    HW118518   3.943   4.958   2.190
 5873SOL    HW218519   4.023   4.891   2.064
 5874SOL     OW18520   2.905   4.679   5.987
 5874SOL    HW118521   2.842   4.651   6.059
 5874SOL    HW218522   2.877   4.638   5.900
 5875SOL     OW18523   2.792   1.036   0.685
 5875SOL    HW118524   2.804   1.121   0.737
 5875SOL    HW218525   2.695   1.026   0.661
 5876SOL     OW18526   3.574   3.330   1.730
 5876SOL    HW118527   3.591   3.300   1.824
 5876SOL    HW218528   3.491   3.386   1.728
 5877SOL     OW18529   5.808   4.298   0.786
 5877SOL    HW118530   5.820   4.382   0.733
 5877SOL    HW218531   5.733   4.245   0.747
 5878SOL     OW18532   2.648   5.061   2.381
 5878SOL    HW118533   2.628   5.006   2.462
 5878SOL    HW218534   2.661   5.157   2.409
 5879SOL     OW18535   7.014   4.163   6.503
 5879SOL    HW118536   0.061   4.093   6.496
 5879SOL    HW218537   0.026   4.243   6.550
 5880SOL     OW18538   2.226   5.879   1.154
 5880SOL    HW118539   2.201   5.966   1.114
 5880SOL    HW218540   2.151   5.845   1.211
 5881SOL     OW18541   0.509   5.200   4.105
 5881SOL    HW118542   0.536   5.199   4.201
 5881SOL    HW218543   0.414   5.231   4.097
 5882SOL     OW18544   4.765   0.366   1.332
 5882SOL    HW118545   4.745   0.309   1.411
 5882SOL    HW218546   4.827   0.440   1.358
 5883SOL     OW18547   6.765   3.122   6.554
 5883SOL    HW118548   6.731   3.080   6.638
 5883SOL    HW218549   6.732   3.071   6.475
 5884SOL     OW18550   0.768   1.149   2.811
 5884SOL    HW118551   0.842   1.143   2.745
 5884SOL    HW218552   0.704   1.221   2.783
 5885SOL     OW18553   6.708   5.966   1.311
 5885SOL    HW118554   6.695   5.867   1.316
 5885SOL    HW218555   6.783   5.993   1.371
 5886SOL     OW18556   0.860   1.876   5.539
 5886SOL    HW118557   0.909   1.960   5.564
 5886SOL    HW218558   0.901   1.836   5.457
 5887SOL     OW18559   3.238   0.896   4.111
 5887SOL    HW118560   3.152   0.865   4.070
 5887SOL    HW218561   3.265   0.983   4.069
 5888SOL     OW18562   2.215   6.723   3.559
 5888SOL    HW118563   2.173   6.790   3.497
 5888SOL    HW218564   2.179   6.737   3.651
 5889SOL     OW18565   2.151   0.562   1.030
 5889SOL    HW118566   2.181   0.496   1.099
 5889SOL    HW218567   2.223   0.630   1.015
 5890SOL     OW18568   2.462   5.170   5.524
 5890SOL    HW118569   2.494   5.084   5.484
 5890SOL    HW218570   2.380   5.201   5.475
 5891SOL     OW18571   3.693   3.174   0.153
 5891SOL    HW118572   3.605   3.173   0.201
 5891SOL    HW218573   3.677   3.181   0.054
 5892SOL     OW18574   0.494   5.904   1.377
 5892SOL    HW118575   0.514   5.976   1.311
 5892SOL    HW218576   0.577   5.853   1.397
 5893SOL     OW18577   1.016   1.484   4.367
 5893SOL    HW118578   1.083   1.453   4.299
 5893SOL    HW218579   0.930   1.507   4.320
 5894SOL     OW18580   1.033   3.205   2.806
 5894SOL    HW118581   0.968   3.152   2.860
 5894SOL    HW218582   1.116   3.152   2.792
 5895SOL     OW18583   5.818   3.614   4.081
 5895SOL    HW118584   5.903   3.564   4.099
 5895SOL    HW218585   5.809   3.687   4.149
 5896SOL     OW18586   3.604   1.922   0.302
 5896SOL    HW118587   3.557   1.927   0.390
 5896SOL    HW218588   3.556   1.979   0.235
 5897SOL     OW18589   3.554   7.020   1.024
 5897SOL    HW118590   3.620   0.051   1.075
 5897SOL    HW218591   3.517   6.949   1.084
 5898SOL     OW18592   1.821   0.183   2.554
 5898SOL    HW118593   1.847   0.260   2.612
 5898SOL    HW218594   1.851   0.097   2.596
 5899SOL     OW18595   5.971   6.569   4.770
 5899SOL    HW118596   5.952   6.583   4.673
 5899SOL    HW218597   5.936   6.480   4.799
 5900SOL     OW18598   4.964   4.718   3.064
 5900SOL    HW118599   5.044   4.746   3.011
 5900SOL    HW218600   4.913   4.650   3.013
 5901SOL     OW18601   2.484   6.748   6.668
 5901SOL    HW118602   2.571   6.700   6.675
 5901SOL    HW218603   2.419   6.691   6.618
 5902SOL     OW18604   6.650   2.580   0.161
 5902SOL    HW118605   6.605   2.667   0.140
 5902SOL    HW218606   6.593   2.528   0.225
 5903SOL     OW18607   5.785   3.534   6.721
 5903SOL    HW118608   5.783   3.626   6.681
 5903SOL    HW218609   5.757   3.538   6.817
 5904SOL     OW18610   0.212   3.613   2.407
 5904SOL    HW118611   0.246   3.620   2.501
 5904SOL    HW218612   0.153   3.534   2.399
 5905SOL     OW18613   6.812   6.422   2.439
 5905SOL    HW118614   6.884   6.480   2.477
 5905SOL    HW218615   6.752   6.391   2.513
 5906SOL     OW18616   5.264   1.262   3.887
 5906SOL    HW118617   5.349   1.279   3.837
 5906SOL    HW218618   5.285   1.248   3.984
 5907SOL     OW18619   0.583   6.384   1.833
 5907SOL    HW118620   0.580   6.411   1.930
 5907SOL    HW218621   0.497   6.338   1.809
 5908SOL     OW18622   0.498   2.854   5.222
 5908SOL    HW118623   0.407   2.833   5.186
 5908SOL    HW218624   0.533   2.937   5.178
 5909SOL     OW18625   0.392   5.843   0.660
 5909SOL    HW118626   0.348   5.886   0.582
 5909SOL    HW218627   0.483   5.811   0.633
 5910SOL     OW18628   1.949   2.448   3.370
 5910SOL    HW118629   1.862   2.425   3.326
 5910SOL    HW218630   1.993   2.365   3.404
 5911SOL     OW18631   6.696   5.480   6.684
 5911SOL    HW118632   6.772   5.461   6.747
 5911SOL    HW218633   6.709   5.571   6.644
 5912SOL     OW18634   6.421   1.657   4.920
 5912SOL    HW118635   6.509   1.655   4.968
 5912SOL    HW218636   6.433   1.622   4.827
 5913SOL     OW18637   5.702   2.374   0.355
 5913SOL    HW118638   5.628   2.325   0.308
 5913SOL    HW218639   5.787   2.365   0.303
 5914SOL     OW18640   0.943   6.172   6.261
 5914SOL    HW118641   0.900   6.084   6.243
 5914SOL    HW218642   0.971   6.214   6.175
 5915SOL     OW18643   3.737   0.405   6.509
 5915SOL    HW118644   3.768   0.364   6.423
 5915SOL    HW218645   3.675   0.481   6.489
 5916SOL     OW18646   1.681   6.683   2.633
 5916SOL    HW118647   1.604   6.622   2.613
 5916SOL    HW218648   1.677   6.763   2.574
 5917SOL     OW18649   3.088   4.284   6.791
 5917SOL    HW118650   3.179   4.243   6.782
 5917SOL    HW218651   3.024   4.215   6.825
 5918SOL     OW18652   3.188   6.805   6.221
 5918SOL    HW118653   3.233   6.831   6.135
 5918SOL    HW218654   3.094   6.838   6.220
 5919SOL     OW18655   3.489   2.828   2.878
 5919SOL    HW118656   3.478   2.848   2.780
 5919SOL    HW218657   3.487   2.729   2.891
 5920SOL     OW18658   6.741   0.171   5.886
 5920SOL    HW118659   6.792   0.099   5.838
 5920SOL    HW218660   6.698   0.231   5.818
 5921SOL     OW18661   3.571   4.430   6.557
 5921SOL    HW118662   3.551   4.485   6.476
 5921SOL    HW218663   3.604   4.340   6.529
 5922SOL     OW18664   5.851   3.813   2.915
 5922SOL    HW118665   5.799   3.772   2.840
 5922SOL    HW218666   5.945   3.778   2.912
 5923SOL     OW18667   6.811   0.953   1.252
 5923SOL    HW118668   6.750   1.030   1.232
 5923SOL    HW218669   6.797   0.881   1.184
 5924SOL     OW18670   5.875   0.130   2.835
 5924SOL    HW118671   5.784   0.145   2.799
 5924SOL    HW218672   5.932   0.083   2.767
 5925SOL     OW18673   4.794   5.765   0.943
 5925SOL    HW118674   4.884   5.808   0.932
 5925SOL    HW218675   4.770   5.765   1.040
 5926SOL     OW18676   4.169   4.689   2.478
 5926SOL    HW118677   4.215   4.698   2.566
 5926SOL    HW218678   4.073   4.714   2.487
 5927SOL     OW18679   1.294   3.921   1.900
 5927SOL    HW118680   1.308   3.992   1.831
 5927SOL    HW218681   1.276   3.834   1.854
 5928SOL     OW18682   3.556   0.504   0.982
 5928SOL    HW118683   3.469   0.533   0.943
 5928SOL    HW218684   3.541   0.430   1.047
 5929SOL     OW18685   6.835   1.178   5.490
 5929SOL    HW118686   6.851   1.106   5.558
 5929SOL    HW218687   6.891   1.257   5.511
 5930SOL     OW18688   1.548   3.843   2.253
 5930SOL    HW118689   1.569   3.748   2.232
 5930SOL    HW218690   1.633   3.891   2.278
 5931SOL     OW18691   5.710   5.864   2.924
 5931SOL    HW118692   5.713   5.892   3.020
 5931SOL    HW218693   5.615   5.849   2.897
 5932SOL     OW18694   3.003   0.543   6.161
 5932SOL    HW118695   2.939   0.506   6.229
 5932SOL    HW218696   3.081   0.583   6.209
 5933SOL     OW18697   6.500   5.516   4.045
 5933SOL    HW118698   6.499   5.426   4.087
 5933SOL    HW218699   6.483   5.586   4.115
 5934SOL     OW18700   3.181   3.809   5.569
 5934SOL    HW118701   3.255   3.762   5.617
 5934SOL    HW218702   3.107   3.828   5.633
 5935SOL     OW18703   0.242   6.283   5.003
 5935SOL    HW118704   0.156   6.326   5.029
 5935SOL    HW218705   0.313   6.353   4.996
 5936SOL     OW18706   3.315   3.105   2.781
 5936SOL    HW118707   3.226   3.078   2.743
 5936SOL    HW218708   3.311   3.105   2.881
 5937SOL     OW18709   6.993   3.041   1.925
 5937SOL    HW118710   6.953   3.125   1.963
 5937SOL    HW218711   0.065   3.056   1.903
 5938SOL     OW18712   6.625   4.982   5.080
 5938SOL    HW118713   6.544   4.990   5.138
 5938SOL    HW218714   6.696   4.929   5.128
 5939SOL     OW18715   3.869   0.557   4.611
 5939SOL    HW118716   3.778   0.598   4.604
 5939SOL    HW218717   3.861   0.465   4.648
 5940SOL     OW18718   4.813   5.797   2.611
 5940SOL    HW118719   4.845   5.837   2.525
 5940SOL    HW218720   4.788   5.702   2.596
 5941SOL     OW18721   6.726   1.957   1.746
 5941SOL    HW118722   6.633   1.953   1.707
 5941SOL    HW218723   6.730   2.030   1.814
 5942SOL     OW18724   6.345   3.390   6.133
 5942SOL    HW118725   6.378   3.463   6.074
 5942SOL    HW218726   6.391   3.395   6.221
 5943SOL     OW18727   3.856   3.631   0.598
 5943SOL    HW118728   3.854   3.689   0.516
 5943SOL    HW218729   3.776   3.571   0.597
 5944SOL     OW18730   0.705   3.573   6.664
 5944SOL    HW118731   0.696   3.483   6.708
 5944SOL    HW218732   0.703   3.561   6.565
 5945SOL     OW18733   0.526   5.770   5.667
 5945SOL    HW118734   0.491   5.684   5.631
 5945SOL    HW218735   0.624   5.776   5.650
 5946SOL     OW18736   3.921   4.896   6.901
 5946SOL    HW118737   4.013   4.889   6.940
 5946SOL    HW218738   3.854   4.906   6.975
 5947SOL     OW18739   3.197   3.011   4.511
 5947SOL    HW118740   3.177   3.085   4.575
 5947SOL    HW218741   3.237   2.933   4.561
 5948SOL     OW18742   4.941   3.744   2.229
 5948SOL    HW118743   4.949   3.721   2.326
 5948SOL    HW218744   4.929   3.660   2.176
 5949SOL     OW18745   6.561   5.684   1.563
 5949SOL    HW118746   6.525   5.718   1.477
 5949SOL    HW218747   6.507   5.606   1.594
 5950SOL     OW18748   5.055   2.294   5.762
 5950SOL    HW118749   4.973   2.292   5.819
 5950SOL    HW218750   5.031   2.323   5.669
 5951SOL     OW18751   1.119   4.492   5.858
 5951SOL    HW118752   1.062   4.473   5.778
 5951SOL    HW218753   1.116   4.589   5.880
 5952SOL     OW18754   4.245   5.136   1.657
 5952SOL    HW118755   4.276   5.094   1.743
 5952SOL    HW218756   4.146   5.148   1.660
 5953SOL     OW18757   5.862   2.353   5.577
 5953SOL    HW118758   5.835   2.396   5.663
 5953SOL    HW218759   5.843   2.255   5.582
 5954SOL     OW18760   0.515   6.245   4.369
 5954SOL    HW118761   0.592   6.292   4.326
 5954SOL    HW218762   0.537   6.149   4.383
 5955SOL     OW18763   5.759   4.173   1.243
 5955SOL    HW118764   5.784   4.257   1.195
 5955SOL    HW218765   5.662   4.176   1.267
 5956SOL     OW18766   5.016   2.664   4.924
 5956SOL    HW118767   4.945   2.602   4.890
 5956SOL    HW218768   4.992   2.696   5.016
 5957SOL     OW18769   1.162   0.939   2.515
 5957SOL    HW118770   1.095   0.929   2.588
 5957SOL    HW218771   1.136   1.017   2.457
 5958SOL     OW18772   4.074   6.774   2.704
 5958SOL    HW118773   3.994   6.804   2.757
 5958SOL    HW218774   4.156   6.778   2.761
 5959SOL     OW18775   4.806   2.315   5.030
 5959SOL    HW118776   4.842   2.380   4.963
 5959SOL    HW218777   4.865   2.315   5.111
 5960SOL     OW18778   3.492   6.899   6.471
 5960SOL    HW118779   3.504   6.800   6.464
 5960SOL    HW218780   3.397   6.922   6.453
 5961SOL     OW18781   3.356   1.749   2.926
 5961SOL    HW118782   3.333   1.835   2.881
 5961SOL    HW218783   3.316   1.673   2.875
 5962SOL     OW18784   5.356   6.363   0.090
 5962SOL    HW118785   5.323   6.283   0.039
 5962SOL    HW218786   5.346   6.346   0.188
 5963SOL     OW18787   3.660   4.983   0.040
 5963SOL    HW118788   3.649   5.076   0.076
 5963SOL    HW218789   3.590   4.967   6.994
 5964SOL     OW18790   1.938   6.383   2.525
 5964SOL    HW118791   1.930   6.455   2.595
 5964SOL    HW218792   2.005   6.315   2.556
 5965SOL     OW18793   1.844   6.801   0.066
 5965SOL    HW118794   1.776   6.828   7.023
 5965SOL    HW218795   1.935   6.830   0.035
 5966SOL     OW18796   2.413   0.623   5.366
 5966SOL    HW118797   2.356   0.578   5.434
 5966SOL    HW218798   2.356   0.677   5.304
 5967SOL     OW18799   2.324   1.779   4.746
 5967SOL    HW118800   2.386   1.788   4.824
 5967SOL    HW218801   2.371   1.732   4.671
 5968SOL     OW18802   5.936   2.131   0.421
 5968SOL    HW118803   5.904   2.165   0.509
 5968SOL    HW218804   5.864   2.080   0.376
 5969SOL     OW18805   5.231   0.771   6.518
 5969SOL    HW118806   5.321   0.807   6.492
 5969SOL    HW218807   5.208   0.802   6.610
 5970SOL     OW18808   0.698   2.869   0.809
 5970SOL    HW118809   0.773   2.804   0.821
 5970SOL    HW218810   0.625   2.828   0.755
 5971SOL     OW18811   6.539   6.933   3.732
 5971SOL    HW118812   6.630   6.946   3.693
 5971SOL    HW218813   6.537   6.847   3.783
 5972SOL     OW18814   5.120   5.238   0.699
 5972SOL    HW118815   5.153   5.157   0.747
 5972SOL    HW218816   5.021   5.248   0.712
 5973SOL     OW18817   1.456   3.286   2.580
 5973SOL    HW118818   1.451   3.354   2.507
 5973SOL    HW218819   1.542   3.235   2.571
 5974SOL     OW18820   4.118   0.963   6.810
 5974SOL    HW118821   4.154   0.875   6.839
 5974SOL    HW218822   4.069   0.952   6.723
 5975SOL     OW18823   5.445   4.509   0.225
 5975SOL    HW118824   5.423   4.464   0.312
 5975SOL    HW218825   5.397   4.597   0.219
 5976SOL     OW18826   3.602   3.650   5.869
 5976SOL    HW118827   3.702   3.640   5.868
 5976SOL    HW218828   3.565   3.603   5.950
 5977SOL     OW18829   0.311   5.237   0.320
 5977SOL    HW118830   0.317   5.315   0.258
 5977SOL    HW218831   0.237   5.176   0.290
 5978SOL     OW18832   3.590   5.435   6.772
 5978SOL    HW118833   3.682   5.461   6.745
 5978SOL    HW218834   3.526   5.507   6.746
 5979SOL     OW18835   6.541   0.218   1.978
 5979SOL    HW118836   6.523   0.165   1.895
 5979SOL    HW218837   6.457   0.264   2.008
 5980SOL     OW18838   3.425   3.240   1.461
 5980SOL    HW118839   3.514   3.274   1.431
 5980SOL    HW218840   3.422   3.141   1.454
 5981SOL     OW18841   4.772   2.413   0.448
 5981SOL    HW118842   4.828   2.429   0.367
 5981SOL    HW218843   4.736   2.320   0.446
 5982SOL     OW18844   5.913   1.788   2.408
 5982SOL    HW118845   6.013   1.797   2.408
 5982SOL    HW218846   5.871   1.878   2.403
 5983SOL     OW18847   0.001   0.639   4.859
 5983SOL    HW118848   0.096   0.645   4.891
 5983SOL    HW218849   7.008   0.711   4.792
 5984SOL     OW18850   6.243   6.473   3.401
 5984SOL    HW118851   6.186   6.428   3.469
 5984SOL    HW218852   6.197   6.556   3.367
 5985SOL     OW18853   6.038   2.307   2.955
 5985SOL    HW118854   5.992   2.343   2.874
 5985SOL    HW218855   6.137   2.319   2.946
 5986SOL     OW18856   4.329   3.837   5.279
 5986SOL    HW118857   4.305   3.857   5.374
 5986SOL    HW218858   4.254   3.786   5.237
 5987SOL     OW18859   6.403   0.891   5.012
 5987SOL    HW118860   6.400   0.989   4.992
 5987SOL    HW218861   6.426   0.878   5.108
 5988SOL     OW18862   2.839   1.930   7.010
 5988SOL    HW118863   2.915   1.904   6.950
 5988SOL    HW218864   2.866   2.008   0.042
 5989SOL     OW18865   0.648   5.962   6.695
 5989SOL    HW118866   0.647   6.012   6.782
 5989SOL    HW218867   0.736   5.917   6.684
 5990SOL     OW18868   3.551   4.531   1.615
 5990SOL    HW118869   3.616   4.566   1.547
 5990SOL    HW218870   3.566   4.578   1.702
 5991SOL     OW18871   5.499   6.242   0.839
 5991SOL    HW118872   5.574   6.178   0.859
 5991SOL    HW218873   5.454   6.268   0.924
 5992SOL     OW18874   3.143   6.967   2.066
 5992SOL    HW118875   3.179   6.899   2.130
 5992SOL    HW218876   3.043   6.959   2.062
 5993SOL     OW18877   6.192   2.511   0.609
 5993SOL    HW118878   6.108   2.559   0.584
 5993SOL    HW218879   6.194   2.423   0.562
 5994SOL     OW18880   0.210   2.779   0.915
 5994SOL    HW118881   0.140   2.716   0.881
 5994SOL    HW218882   0.206   2.865   0.864
 5995SOL     OW18883   4.860   3.600   1.853
 5995SOL    HW118884   4.787   3.600   1.785
 5995SOL    HW218885   4.883   3.694   1.878
 5996SOL     OW18886   2.841   5.921   1.362
 5996SOL    HW118887   2.883   6.007   1.333
 5996SOL    HW218888   2.911   5.852   1.374
 5997SOL     OW18889   6.417   6.951   3.278
 5997SOL    HW118890   6.401   6.928   3.182
 5997SOL    HW218891   6.515   6.955   3.295
 5998SOL     OW18892   6.573   0.504   1.861
 5998SOL    HW118893   6.658   0.552   1.840
 5998SOL    HW218894   6.593   0.419   1.910
 5999SOL     OW18895   3.489   4.154   0.965
 5999SOL    HW118896   3.579   4.189   0.990
 5999SOL    HW218897   3.440   4.125   1.048
 6000SOL     OW18898   6.991   5.450   0.207
 6000SOL    HW118899   0.066   5.462   0.207
 6000SOL    HW218900   6.955   5.468   0.116
 6001SOL     OW18901   5.124   6.425   5.126
 6001SOL    HW118902   5.191   6.387   5.063
 6001SOL    HW218903   5.052   6.358   5.143
 6002SOL     OW18904   6.718   6.727   4.797
 6002SOL    HW118905   6.631   6.715   4.748
 6002SOL    HW218906   6.779   6.785   4.743
 6003SOL     OW18907   6.342   3.039   4.470
 6003SOL    HW118908   6.346   2.947   4.431
 6003SOL    HW218909   6.349   3.106   4.397
 6004SOL     OW18910   4.737   2.127   3.619
 6004SOL    HW118911   4.811   2.081   3.669
 6004SOL    HW218912   4.777   2.196   3.558
 6005SOL     OW18913   4.525   4.119   5.450
 6005SOL    HW118914   4.475   4.202   5.424
 6005SOL    HW218915   4.478   4.075   5.526
 6006SOL     OW18916   3.569   6.584   5.913
 6006SOL    HW118917   3.593   6.549   6.003
 6006SOL    HW218918   3.550   6.682   5.919
 6007SOL     OW18919   0.965   4.449   5.630
 6007SOL    HW118920   0.899   4.523   5.638
 6007SOL    HW218921   0.955   4.405   5.540
 6008SOL     OW18922   1.949   4.742   5.545
 6008SOL    HW118923   2.044   4.773   5.551
 6008SOL    HW218924   1.918   4.747   5.450
 6009SOL     OW18925   4.377   5.296   2.755
 6009SOL    HW118926   4.417   5.217   2.803
 6009SOL    HW218927   4.278   5.291   2.760
 6010SOL     OW18928   6.756   4.063   4.632
 6010SOL    HW118929   6.671   4.114   4.646
 6010SOL    HW218930   6.772   4.051   4.534
 6011SOL     OW18931   5.654   1.233   2.709
 6011SOL    HW118932   5.607   1.208   2.624
 6011SOL    HW218933   5.743   1.188   2.712
 6012SOL     OW18934   6.429   0.598   6.314
 6012SOL    HW118935   6.358   0.602   6.384
 6012SOL    HW218936   6.519   0.607   6.357
 6013SOL     OW18937   5.580   1.133   2.456
 6013SOL    HW118938   5.660   1.079   2.481
 6013SOL    HW218939   5.521   1.079   2.396
 6014SOL     OW18940   3.454   3.090   4.336
 6014SOL    HW118941   3.451   3.182   4.297
 6014SOL    HW218942   3.361   3.060   4.359
 6015SOL     OW18943   6.316   2.138   4.629
 6015SOL    HW118944   6.288   2.171   4.720
 6015SOL    HW218945   6.385   2.067   4.640
 6016SOL     OW18946   5.010   1.823   4.759
 6016SOL    HW118947   4.977   1.732   4.784
 6016SOL    HW218948   5.110   1.820   4.751
 6017SOL     OW18949   6.751   3.441   5.048
 6017SOL    HW118950   6.832   3.386   5.027
 6017SOL    HW218951   6.676   3.415   4.987
 6018SOL     OW18952   3.394   1.200   5.151
 6018SOL    HW118953   3.452   1.267   5.197
 6018SOL    HW218954   3.446   1.115   5.137
 6019SOL     OW18955   0.684   3.806   6.406
 6019SOL    HW118956   0.768   3.837   6.450
 6019SOL    HW218957   0.675   3.707   6.417
 6020SOL     OW18958   1.108   5.286   0.126
 6020SOL    HW118959   1.039   5.312   0.194
 6020SOL    HW218960   1.167   5.364   0.107
 6021SOL     OW18961   3.847   0.606   2.891
 6021SOL    HW118962   3.807   0.541   2.826
 6021SOL    HW218963   3.775   0.654   2.940
 6022SOL     OW18964   6.428   1.251   2.843
 6022SOL    HW118965   6.444   1.239   2.745
 6022SOL    HW218966   6.389   1.168   2.881
 6023SOL     OW18967   4.643   0.875   0.958
 6023SOL    HW118968   4.661   0.955   0.900
 6023SOL    HW218969   4.579   0.814   0.912
 6024SOL     OW18970   0.514   4.522   0.796
 6024SOL    HW118971   0.598   4.552   0.753
 6024SOL    HW218972   0.436   4.568   0.754
 6025SOL     OW18973   2.573   1.403   4.095
 6025SOL    HW118974   2.561   1.323   4.154
 6025SOL    HW218975   2.497   1.406   4.029
 6026SOL     OW18976   6.257   3.992   4.169
 6026SOL    HW118977   6.235   3.940   4.251
 6026SOL    HW218978   6.288   4.084   4.195
 6027SOL     OW18979   5.832   3.599   5.963
 6027SOL    HW118980   5.899   3.624   6.032
 6027SOL    HW218981   5.756   3.664   5.964
 6028SOL     OW18982   5.483   5.279   0.011
 6028SOL    HW118983   5.443   5.292   6.944
 6028SOL    HW218984   5.410   5.254   0.075
 6029SOL     OW18985   2.725   0.790   3.088
 6029SOL    HW118986   2.658   0.863   3.073
 6029SOL    HW218987   2.766   0.765   3.000
 6030SOL     OW18988   4.921   3.534   4.737
 6030SOL    HW118989   4.903   3.626   4.701
 6030SOL    HW218990   4.895   3.530   4.833
 6031SOL     OW18991   0.722   5.968   4.294
 6031SOL    HW118992   0.651   6.015   4.241
 6031SOL    HW218993   0.706   5.870   4.292
 6032SOL     OW18994   3.231   6.628   3.820
 6032SOL    HW118995   3.317   6.593   3.783
 6032SOL    HW218996   3.155   6.591   3.766
 6033SOL     OW18997   1.901   2.559   2.606
 6033SOL    HW118998   1.965   2.486   2.584
 6033SOL    HW218999   1.850   2.584   2.524
 6034SOL     OW19000   1.463   0.387   6.937
 6034SOL    HW119001   1.435   0.325   7.011
 6034SOL    HW219002   1.558   0.414   6.950
 6035SOL     OW19003   1.207   0.764   2.889
 6035SOL    HW119004   1.143   0.791   2.816
 6035SOL    HW219005   1.162   0.698   2.949
 6036SOL     OW19006   6.076   4.014   1.024
 6036SOL    HW119007   6.081   4.113   1.032
 6036SOL    HW219008   5.990   3.981   1.064
 6037SOL     OW19009   4.129   1.635   1.007
 6037SOL    HW119010   4.131   1.691   1.089
 6037SOL    HW219011   4.190   1.556   1.019
 6038SOL     OW19012   0.842   2.326   6.247
 6038SOL    HW119013   0.929   2.354   6.287
 6038SOL    HW219014   0.826   2.376   6.163
 6039SOL     OW19015   3.347   4.076   3.876
 6039SOL    HW119016   3.417   4.102   3.943
 6039SOL    HW219017   3.301   3.993   3.907
 6040SOL     OW19018   1.629   1.783   6.956
 6040SOL    HW119019   1.670   1.775   6.865
 6040SOL    HW219020   1.599   1.692   6.986
 6041SOL     OW19021   3.196   2.272   5.850
 6041SOL    HW119022   3.199   2.358   5.798
 6041SOL    HW219023   3.258   2.206   5.808
 6042SOL     OW19024   3.227   6.334   3.754
 6042SOL    HW119025   3.326   6.338   3.760
 6042SOL    HW219026   3.198   6.346   3.659
 6043SOL     OW19027   1.975   0.853   4.018
 6043SOL    HW119028   1.894   0.907   3.996
 6043SOL    HW219029   2.057   0.905   3.996
 6044SOL     OW19030   2.412   1.968   1.479
 6044SOL    HW119031   2.453   2.019   1.404
 6044SOL    HW219032   2.352   2.028   1.532
 6045SOL     OW19033   5.348   2.907   3.256
 6045SOL    HW119034   5.416   2.871   3.192
 6045SOL    HW219035   5.280   2.961   3.206
 6046SOL     OW19036   3.727   2.564   1.703
 6046SOL    HW119037   3.716   2.634   1.774
 6046SOL    HW219038   3.712   2.474   1.744
 6047SOL     OW19039   5.856   1.641   0.517
 6047SOL    HW119040   5.852   1.721   0.577
 6047SOL    HW219041   5.903   1.665   0.432
 6048SOL     OW19042   5.493   5.292   5.019
 6048SOL    HW119043   5.448   5.215   4.973
 6048SOL    HW219044   5.526   5.357   4.951
 6049SOL     OW19045   5.222   5.045   5.622
 6049SOL    HW119046   5.244   5.107   5.547
 6049SOL    HW219047   5.172   5.096   5.693
 6050SOL     OW19048   3.166   5.794   0.941
 6050SOL    HW119049   3.109   5.758   0.867
 6050SOL    HW219050   3.114   5.861   0.993
 6051SOL     OW19051   0.317   1.577   2.565
 6051SOL    HW119052   0.301   1.636   2.486
 6051SOL    HW219053   0.234   1.526   2.587
 6052SOL     OW19054   5.924   6.656   0.650
 6052SOL    HW119055   5.863   6.578   0.657
 6052SOL    HW219056   5.890   6.719   0.581
 6053SOL     OW19057   4.407   1.553   6.248
 6053SOL    HW119058   4.477   1.620   6.220
 6053SOL    HW219059   4.318   1.582   6.215
 6054SOL     OW19060   3.763   5.226   0.789
 6054SOL    HW119061   3.675   5.229   0.743
 6054SOL    HW219062   3.778   5.311   0.839
 6055SOL     OW19063   3.368   5.314   6.843
 6055SOL    HW119064   3.448   5.372   6.826
 6055SOL    HW219065   3.289   5.351   6.795
 6056SOL     OW19066   5.797   3.782   4.921
 6056SOL    HW119067   5.831   3.701   4.969
 6056SOL    HW219068   5.866   3.813   4.856
 6057SOL     OW19069   4.786   0.407   2.719
 6057SOL    HW119070   4.816   0.468   2.792
 6057SOL    HW219071   4.728   0.335   2.758
 6058SOL     OW19072   5.931   3.173   0.320
 6058SOL    HW119073   5.923   3.265   0.357
 6058SOL    HW219074   6.005   3.124   0.366
 6059SOL     OW19075   5.310   4.451   5.896
 6059SOL    HW119076   5.337   4.392   5.971
 6059SOL    HW219077   5.212   4.470   5.902
 6060SOL     OW19078   2.752   3.474   0.021
 6060SOL    HW119079   2.729   3.544   6.977
 6060SOL    HW219080   2.671   3.419   0.041
 6061SOL     OW19081   4.236   4.841   0.762
 6061SOL    HW119082   4.262   4.935   0.786
 6061SOL    HW219083   4.279   4.816   0.675
 6062SOL     OW19084   2.574   2.366   0.180
 6062SOL    HW119085   2.611   2.455   0.153
 6062SOL    HW219086   2.588   2.301   0.106
 6063SOL     OW19087   4.195   4.271   5.794
 6063SOL    HW119088   4.235   4.337   5.857
 6063SOL    HW219089   4.095   4.278   5.797
 6064SOL     OW19090   0.251   0.639   0.501
 6064SOL    HW119091   0.350   0.627   0.496
 6064SOL    HW219092   0.213   0.572   0.565
 6065SOL     OW19093   1.125   4.998   2.234
 6065SOL    HW119094   1.133   4.931   2.308
 6065SOL    HW219095   1.213   5.007   2.188
 6066SOL     OW19096   5.117   0.994   3.813
 6066SOL    HW119097   5.096   1.092   3.815
 6066SOL    HW219098   5.214   0.981   3.793
 6067SOL     OW19099   5.893   6.709   5.343
 6067SOL    HW119100   5.880   6.640   5.272
 6067SOL    HW219101   5.805   6.754   5.362
 6068SOL     OW19102   5.071   1.432   4.922
 6068SOL    HW119103   4.994   1.496   4.916
 6068SOL    HW219104   5.049   1.350   4.869
 6069SOL     OW19105   6.967   2.917   5.806
 6069SOL    HW119106   7.001   2.964   5.887
 6069SOL    HW219107   6.883   2.961   5.775
 6070SOL     OW19108   3.316   2.142   1.839
 6070SOL    HW119109   3.408   2.102   1.834
 6070SOL    HW219110   3.321   2.238   1.812
 6071SOL     OW19111   6.663   5.982   5.037
 6071SOL    HW119112   6.683   5.911   4.970
 6071SOL    HW219113   6.737   6.049   5.038
 6072SOL     OW19114   1.142   2.141   0.845
 6072SOL    HW119115   1.044   2.147   0.826
 6072SOL    HW219116   1.175   2.050   0.822
 6073SOL     OW19117   5.022   2.998   0.705
 6073SOL    HW119118   4.973   2.915   0.678
 6073SOL    HW219119   4.965   3.051   0.769
 6074SOL     OW19120   1.207   6.673   2.543
 6074SOL    HW119121   1.123   6.728   2.546
 6074SOL    HW219122   1.285   6.731   2.565
 6075SOL     OW19123   4.361   6.692   6.516
 6075SOL    HW119124   4.337   6.761   6.447
 6075SOL    HW219125   4.318   6.605   6.491
 6076SOL     OW19126   2.721   4.913   3.866
 6076SOL    HW119127   2.742   4.867   3.780
 6076SOL    HW219128   2.742   5.010   3.858
 6077SOL     OW19129   6.302   6.655   0.998
 6077SOL    HW119130   6.266   6.603   0.920
 6077SOL    HW219131   6.286   6.752   0.983
 6078SOL     OW19132   4.465   3.927   0.413
 6078SOL    HW119133   4.495   4.007   0.464
 6078SOL    HW219134   4.493   3.844   0.463
 6079SOL     OW19135   4.713   4.284   6.822
 6079SOL    HW119136   4.772   4.294   6.742
 6079SOL    HW219137   4.764   4.306   6.905
 6080SOL     OW19138   1.400   4.609   1.083
 6080SOL    HW119139   1.359   4.586   0.995
 6080SOL    HW219140   1.405   4.527   1.140
 6081SOL     OW19141   0.302   3.619   5.243
 6081SOL    HW119142   0.328   3.526   5.271
 6081SOL    HW219143   0.333   3.685   5.311
 6082SOL     OW19144   4.301   0.365   1.298
 6082SOL    HW119145   4.296   0.298   1.373
 6082SOL    HW219146   4.370   0.434   1.320
 6083SOL     OW19147   5.119   6.459   6.849
 6083SOL    HW119148   5.211   6.495   6.864
 6083SOL    HW219149   5.084   6.421   6.934
 6084SOL     OW19150   0.558   6.621   2.422
 6084SOL    HW119151   0.589   6.540   2.470
 6084SOL    HW219152   0.635   6.664   2.375
 6085SOL     OW19153   6.382   6.555   0.060
 6085SOL    HW119154   6.468   6.605   0.074
 6085SOL    HW219155   6.391   6.496   7.004
 6086SOL     OW19156   3.810   3.479   6.849
 6086SOL    HW119157   3.737   3.446   6.790
 6086SOL    HW219158   3.898   3.449   6.812
 6087SOL     OW19159   4.616   6.617   0.298
 6087SOL    HW119160   4.627   6.559   0.217
 6087SOL    HW219161   4.697   6.607   0.357
 6088SOL     OW19162   5.134   6.318   4.424
 6088SOL    HW119163   5.120   6.307   4.326
 6088SOL    HW219164   5.154   6.414   4.445
 6089SOL     OW19165   6.186   2.410   2.287
 6089SOL    HW119166   6.274   2.446   2.256
 6089SOL    HW219167   6.167   2.323   2.242
 6090SOL     OW19168   3.230   5.369   4.110
 6090SOL    HW119169   3.256   5.460   4.079
 6090SOL    HW219170   3.312   5.313   4.122
 6091SOL     OW19171   2.414   0.595   1.408
 6091SOL    HW119172   2.319   0.577   1.435
 6091SOL    HW219173   2.466   0.624   1.488
 6092SOL     OW19174   4.269   0.278   1.815
 6092SOL    HW119175   4.299   0.364   1.856
 6092SOL    HW219176   4.290   0.203   1.878
 6093SOL     OW19177   1.735   1.723   2.018
 6093SOL    HW119178   1.683   1.754   2.098
 6093SOL    HW219179   1.725   1.790   1.945
 6094SOL     OW19180   0.619   6.872   4.426
 6094SOL    HW119181   0.656   6.871   4.333
 6094SOL    HW219182   0.636   6.783   4.470
 6095SOL     OW19183   4.310   6.020   0.121
 6095SOL    HW119184   4.297   5.923   0.098
 6095SOL    HW219185   4.285   6.035   0.216
 6096SOL     OW19186   5.723   6.227   2.131
 6096SOL    HW119187   5.778   6.283   2.068
 6096SOL    HW219188   5.653   6.284   2.173
 6097SOL     OW19189   1.595   6.061   2.089
 6097SOL    HW119190   1.572   6.155   2.065
 6097SOL    HW219191   1.512   6.005   2.087
 6098SOL     OW19192   6.837   0.689   5.368
 6098SOL    HW119193   6.913   0.727   5.315
 6098SOL    HW219194   6.858   0.594   5.392
 6099SOL     OW19195   5.576   6.267   5.574
 6099SOL    HW119196   5.649   6.295   5.512
 6099SOL    HW219197   5.614   6.251   5.665
 6100SOL     OW19198   0.602   5.515   3.053
 6100SOL    HW119199   0.629   5.531   2.958
 6100SOL    HW219200   0.503   5.525   3.062
 6101SOL     OW19201   6.293   2.151   1.659
 6101SOL    HW119202   6.196   2.167   1.642
 6101SOL    HW219203   6.347   2.201   1.591
 6102SOL     OW19204   4.509   6.372   2.225
 6102SOL    HW119205   4.583   6.409   2.169
 6102SOL    HW219206   4.423   6.416   2.199
 6103SOL     OW19207   6.551   1.672   1.498
 6103SOL    HW119208   6.581   1.616   1.421
 6103SOL    HW219209   6.585   1.766   1.486
 6104SOL     OW19210   6.261   1.489   5.124
 6104SOL    HW119211   6.304   1.531   5.044
 6104SOL    HW219212   6.275   1.390   5.121
 6105SOL     OW19213   2.761   5.498   5.968
 6105SOL    HW119214   2.760   5.443   6.052
 6105SOL    HW219215   2.839   5.472   5.911
 6106SOL     OW19216   0.962   3.678   0.153
 6106SOL    HW119217   0.907   3.610   0.104
 6106SOL    HW219218   0.942   3.673   0.251
 6107SOL     OW19219   4.510   5.286   4.695
 6107SOL    HW119220   4.466   5.352   4.755
 6107SOL    HW219221   4.564   5.222   4.750
 6108SOL     OW19222   1.594   1.446   2.188
 6108SOL    HW119223   1.560   1.540   2.187
 6108SOL    HW219224   1.524   1.385   2.225
 6109SOL     OW19225   5.233   0.559   3.497
 6109SOL    HW119226   5.246   0.656   3.473
 6109SOL    HW219227   5.318   0.524   3.537
 6110SOL     OW19228   0.783   2.109   6.037
 6110SOL    HW119229   0.816   2.186   6.092
 6110SOL    HW219230   0.856   2.041   6.029
 6111SOL     OW19231   1.394   3.518   2.025
 6111SOL    HW119232   1.326   3.580   1.984
 6111SOL    HW219233   1.486   3.550   2.002
 6112SOL     OW19234   3.175   0.541   2.614
 6112SOL    HW119235   3.272   0.559   2.600
 6112SOL    HW219236   3.132   0.523   2.525
 6113SOL     OW19237   2.288   4.688   6.825
 6113SOL    HW119238   2.273   4.678   6.727
 6113SOL    HW219239   2.373   4.739   6.841
 6114SOL     OW19240   4.772   1.701   1.361
 6114SOL    HW119241   4.809   1.727   1.272
 6114SOL    HW219242   4.835   1.732   1.433
 6115SOL     OW19243   0.854   1.025   5.275
 6115SOL    HW119244   0.779   1.031   5.340
 6115SOL    HW219245   0.825   0.974   5.195
 6116SOL     OW19246   3.805   2.193   5.167
 6116SOL    HW119247   3.777   2.271   5.223
 6116SOL    HW219248   3.743   2.117   5.183
 6117SOL     OW19249   1.234   1.843   3.044
 6117SOL    HW119250   1.264   1.887   2.959
 6117SOL    HW219251   1.164   1.775   3.023
 6118SOL     OW19252   6.138   1.010   0.981
 6118SOL    HW119253   6.143   1.059   0.893
 6118SOL    HW219254   6.131   0.912   0.963
 6119SOL     OW19255   0.261   2.358   0.184
 6119SOL    HW119256   0.242   2.442   0.132
 6119SOL    HW219257   0.343   2.371   0.239
 6120SOL     OW19258   2.702   6.857   5.480
 6120SOL    HW119259   2.613   6.811   5.484
 6120SOL    HW219260   2.693   6.945   5.435
 6121SOL     OW19261   0.449   3.786   5.427
 6121SOL    HW119262   0.384   3.861   5.433
 6121SOL    HW219263   0.473   3.754   5.519
 6122SOL     OW19264   5.008   6.030   5.445
 6122SOL    HW119265   4.997   5.939   5.405
 6122SOL    HW219266   5.024   6.022   5.543
 6123SOL     OW19267   5.397   1.378   5.861
 6123SOL    HW119268   5.346   1.357   5.944
 6123SOL    HW219269   5.336   1.419   5.793
 6124SOL     OW19270   2.132   6.986   4.966
 6124SOL    HW119271   2.080   0.025   4.908
 6124SOL    HW219272   2.133   7.019   5.060
 6125SOL     OW19273   2.617   4.196   0.083
 6125SOL    HW119274   2.662   4.146   0.157
 6125SOL    HW219275   2.624   4.294   0.098
 6126SOL     OW19276   0.499   2.415   5.390
 6126SOL    HW119277   0.558   2.481   5.437
 6126SOL    HW219278   0.555   2.340   5.354
 6127SOL     OW19279   4.485   1.245   1.546
 6127SOL    HW119280   4.581   1.268   1.535
 6127SOL    HW219281   4.440   1.243   1.456
 6128SOL     OW19282   5.633   6.048   0.498
 6128SOL    HW119283   5.648   6.038   0.596
 6128SOL    HW219284   5.607   5.959   0.459
 6129SOL     OW19285   1.956   4.804   3.310
 6129SOL    HW119286   2.042   4.754   3.320
 6129SOL    HW219287   1.936   4.854   3.394
 6130SOL     OW19288   5.334   2.733   2.032
 6130SOL    HW119289   5.265   2.661   2.027
 6130SOL    HW219290   5.304   2.803   2.097
 6131SOL     OW19291   0.061   2.235   2.317
 6131SOL    HW119292   0.045   2.143   2.355
 6131SOL    HW219293   0.148   2.236   2.269
 6132SOL     OW19294   3.572   1.517   6.648
 6132SOL    HW119295   3.649   1.500   6.711
 6132SOL    HW219296   3.536   1.430   6.616
 6133SOL     OW19297   1.627   2.537   3.610
 6133SOL    HW119298   1.552   2.576   3.664
 6133SOL    HW219299   1.625   2.437   3.617
 6134SOL     OW19300   5.659   6.233   5.838
 6134SOL    HW119301   5.647   6.134   5.850
 6134SOL    HW219302   5.747   6.261   5.878
 6135SOL     OW19303   6.156   0.305   6.882
 6135SOL    HW119304   6.196   0.389   6.845
 6135SOL    HW219305   6.169   0.303   6.981
 6136SOL     OW19306   1.670   3.059   1.325
 6136SOL    HW119307   1.651   3.083   1.230
 6136SOL    HW219308   1.691   3.142   1.377
 6137SOL     OW19309   0.825   4.271   3.485
 6137SOL    HW119310   0.856   4.175   3.483
 6137SOL    HW219311   0.870   4.318   3.561
 6138SOL     OW19312   4.233   0.120   2.066
 6138SOL    HW119313   4.141   0.082   2.065
 6138SOL    HW219314   4.233   0.207   2.115
 6139SOL     OW19315   1.117   6.634   6.158
 6139SOL    HW119316   1.058   6.555   6.175
 6139SOL    HW219317   1.104   6.666   6.064
 6140SOL     OW19318   1.310   0.395   3.362
 6140SOL    HW119319   1.398   0.351   3.378
 6140SOL    HW219320   1.294   0.463   3.434
 6141SOL     OW19321   0.537   0.444   6.391
 6141SOL    HW119322   0.610   0.513   6.386
 6141SOL    HW219323   0.575   0.354   6.374
 6142SOL     OW19324   0.986   1.394   0.587
 6142SOL    HW119325   0.942   1.369   0.501
 6142SOL    HW219326   0.983   1.494   0.598
 6143SOL     OW19327   6.867   3.844   0.002
 6143SOL    HW119328   6.925   3.762   0.008
 6143SOL    HW219329   6.775   3.822   0.034
 6144SOL     OW19330   4.524   4.540   2.959
 6144SOL    HW119331   4.543   4.484   2.878
 6144SOL    HW219332   4.588   4.517   3.031
 6145SOL     OW19333   5.769   4.282   4.091
 6145SOL    HW119334   5.851   4.334   4.114
 6145SOL    HW219335   5.696   4.304   4.156
 6146SOL     OW19336   3.916   0.736   4.131
 6146SOL    HW119337   3.988   0.797   4.097
 6146SOL    HW219338   3.951   0.681   4.207
 6147SOL     OW19339   1.822   3.159   4.429
 6147SOL    HW119340   1.850   3.247   4.467
 6147SOL    HW219341   1.798   3.171   4.333
 6148SOL     OW19342   4.177   4.886   0.004
 6148SOL    HW119343   4.196   4.802   0.054
 6148SOL    HW219344   4.252   4.906   6.965
 6149SOL     OW19345   2.099   0.083   1.886
 6149SOL    HW119346   2.149   0.165   1.914
 6149SOL    HW219347   2.016   0.110   1.836
 6150SOL     OW19348   6.326   4.254   6.864
 6150SOL    HW119349   6.399   4.226   6.801
 6150SOL    HW219350   6.335   4.203   6.950
 6151SOL     OW19351   5.524   4.899   4.155
 6151SOL    HW119352   5.563   4.928   4.068
 6151SOL    HW219353   5.578   4.823   4.193
 6152SOL     OW19354   1.118   5.834   4.096
 6152SOL    HW119355   1.077   5.901   4.159
 6152SOL    HW219356   1.167   5.882   4.023
 6153SOL     OW19357   4.649   5.546   0.826
 6153SOL    HW119358   4.654   5.605   0.746
 6153SOL    HW219359   4.706   5.583   0.899
 6154SOL     OW19360   4.866   3.289   2.646
 6154SOL    HW119361   4.887   3.338   2.561
 6154SOL    HW219362   4.882   3.191   2.633
 6155SOL     OW19363   2.591   1.034   3.098
 6155SOL    HW119364   2.675   1.088   3.091
 6155SOL    HW219365   2.561   1.033   3.194
 6156SOL     OW19366   5.545   3.953   1.508
 6156SOL    HW119367   5.643   3.952   1.490
 6156SOL    HW219368   5.510   4.046   1.500
 6157SOL     OW19369   0.563   2.225   3.445
 6157SOL    HW119370   0.520   2.157   3.505
 6157SOL    HW219371   0.650   2.188   3.411
 6158SOL     OW19372   3.281   2.230   6.112
 6158SOL    HW119373   3.251   2.239   6.016
 6158SOL    HW219374   3.334   2.310   6.138
 6159SOL     OW19375   5.174   2.612   6.752
 6159SOL    HW119376   5.218   2.606   6.841
 6159SOL    HW219377   5.112   2.534   6.740
 6160SOL     OW19378   0.117   0.022   6.409
 6160SOL    HW119379   0.082   6.982   6.477
 6160SOL    HW219380   0.186   0.081   6.452
 6161SOL     OW19381   5.172   2.514   6.347
 6161SOL    HW119382   5.214   2.550   6.263
 6161SOL    HW219383   5.074   2.501   6.331
 6162SOL     OW19384   5.810   6.751   3.296
 6162SOL    HW119385   5.865   6.808   3.358
 6162SOL    HW219386   5.852   6.661   3.287
 6163SOL     OW19387   4.928   6.324   2.784
 6163SOL    HW119388   4.872   6.285   2.711
 6163SOL    HW219389   4.944   6.256   2.855
 6164SOL     OW19390   3.448   4.103   4.149
 6164SOL    HW119391   3.543   4.113   4.179
 6164SOL    HW219392   3.387   4.121   4.226
 6165SOL     OW19393   3.940   2.514   0.151
 6165SOL    HW119394   3.916   2.610   0.167
 6165SOL    HW219395   4.037   2.500   0.168
 6166SOL     OW19396   6.931   1.955   6.769
 6166SOL    HW119397   6.952   2.007   6.686
 6166SOL    HW219398   6.926   2.018   6.847
 6167SOL     OW19399   1.706   4.879   3.131
 6167SOL    HW119400   1.719   4.960   3.189
 6167SOL    HW219401   1.750   4.800   3.174
 6168SOL     OW19402   6.342   2.680   3.465
 6168SOL    HW119403   6.377   2.591   3.493
 6168SOL    HW219404   6.252   2.694   3.507
 6169SOL     OW19405   1.237   0.584   6.498
 6169SOL    HW119406   1.287   0.575   6.584
 6169SOL    HW219407   1.161   0.519   6.497
 6170SOL     OW19408   3.519   4.434   6.972
 6170SOL    HW119409   3.577   4.355   6.952
 6170SOL    HW219410   3.525   4.500   6.897
 6171SOL     OW19411   1.022   4.071   2.628
 6171SOL    HW119412   1.022   4.062   2.728
 6171SOL    HW219413   0.943   4.124   2.599
 6172SOL     OW19414   0.503   0.565   2.366
 6172SOL    HW119415   0.488   0.563   2.465
 6172SOL    HW219416   0.600   0.573   2.347
 6173SOL     OW19417   0.728   5.086   2.356
 6173SOL    HW119418   0.821   5.123   2.355
 6173SOL    HW219419   0.725   5.007   2.418
 6174SOL     OW19420   5.966   4.897   2.738
 6174SOL    HW119421   6.022   4.925   2.660
 6174SOL    HW219422   5.912   4.817   2.713
 6175SOL     OW19423   5.582   6.180   2.672
 6175SOL    HW119424   5.514   6.236   2.720
 6175SOL    HW219425   5.664   6.234   2.655
 6176SOL     OW19426   6.108   3.409   6.454
 6176SOL    HW119427   6.077   3.393   6.361
 6176SOL    HW219428   6.117   3.322   6.502
 6177SOL     OW19429   4.769   1.316   1.580
 6177SOL    HW119430   4.855   1.366   1.577
 6177SOL    HW219431   4.761   1.269   1.668
 6178SOL     OW19432   4.771   4.766   1.405
 6178SOL    HW119433   4.789   4.744   1.309
 6178SOL    HW219434   4.828   4.709   1.464
 6179SOL     OW19435   6.768   3.353   4.762
 6179SOL    HW119436   6.692   3.339   4.825
 6179SOL    HW219437   6.846   3.296   4.790
 6180SOL     OW19438   3.476   6.866   0.638
 6180SOL    HW119439   3.512   6.824   0.721
 6180SOL    HW219440   3.439   6.795   0.577
 6181SOL     OW19441   4.711   6.372   0.183
 6181SOL    HW119442   4.664   6.354   0.269
 6181SOL    HW219443   4.678   6.309   0.113
 6182SOL     OW19444   5.169   5.351   5.096
 6182SOL    HW119445   5.105   5.275   5.112
 6182SOL    HW219446   5.259   5.326   5.131
 6183SOL     OW19447   2.131   0.500   3.080
 6183SOL    HW119448   2.215   0.543   3.047
 6183SOL    HW219449   2.075   0.471   3.002
 6184SOL     OW19450   1.873   0.114   0.249
 6184SOL    HW119451   1.774   0.129   0.252
 6184SOL    HW219452   1.894   0.023   0.285
 6185SOL     OW19453   0.685   3.837   6.981
 6185SOL    HW119454   0.730   3.751   7.002
 6185SOL    HW219455   0.721   3.909   0.016
 6186SOL     OW19456   5.421   0.098   4.602
 6186SOL    HW119457   5.472   0.015   4.624
 6186SOL    HW219458   5.484   0.167   4.568
 6187SOL     OW19459   5.096   4.818   3.649
 6187SOL    HW119460   5.135   4.744   3.594
 6187SOL    HW219461   4.996   4.816   3.643
 6188SOL     OW19462   2.256   6.426   1.408
 6188SOL    HW119463   2.292   6.505   1.357
 6188SOL    HW219464   2.332   6.376   1.449
 6189SOL     OW19465   5.217   4.684   3.388
 6189SOL    HW119466   5.275   4.604   3.399
 6189SOL    HW219467   5.121   4.657   3.399
 6190SOL     OW19468   5.546   3.656   6.199
 6190SOL    HW119469   5.538   3.733   6.136
 6190SOL    HW219470   5.488   3.581   6.168
 6191SOL     OW19471   5.542   2.441   0.776
 6191SOL    HW119472   5.638   2.414   0.781
 6191SOL    HW219473   5.519   2.467   0.683
 6192SOL     OW19474   3.068   3.852   0.276
 6192SOL    HW119475   3.008   3.892   0.207
 6192SOL    HW219476   3.079   3.917   0.352
 6193SOL     OW19477   4.692   0.289   2.267
 6193SOL    HW119478   4.662   0.331   2.182
 6193SOL    HW219479   4.621   0.300   2.337
 6194SOL     OW19480   2.003   0.250   0.896
 6194SOL    HW119481   2.013   0.200   0.810
 6194SOL    HW219482   2.048   0.339   0.889
 6195SOL     OW19483   4.277   5.109   5.874
 6195SOL    HW119484   4.190   5.086   5.916
 6195SOL    HW219485   4.340   5.032   5.882
 6196SOL     OW19486   0.668   2.772   6.130
 6196SOL    HW119487   0.582   2.725   6.115
 6196SOL    HW219488   0.722   2.722   6.198
 6197SOL     OW19489   2.944   4.117   0.760
 6197SOL    HW119490   2.887   4.072   0.828
 6197SOL    HW219491   3.037   4.081   0.766
 6198SOL     OW19492   3.510   5.898   2.872
 6198SOL    HW119493   3.420   5.868   2.840
 6198SOL    HW219494   3.580   5.871   2.807
 6199SOL     OW19495   0.373   0.184   1.040
 6199SOL    HW119496   0.398   0.115   0.972
 6199SOL    HW219497   0.454   0.210   1.092
 6200SOL     OW19498   2.479   1.468   6.562
 6200SOL    HW119499   2.450   1.513   6.477
 6200SOL    HW219500   2.495   1.537   6.632
 6201SOL     OW19501   2.289   4.758   5.805
 6201SOL    HW119502   2.193   4.750   5.832
 6201SOL    HW219503   2.344   4.775   5.886
 6202SOL     OW19504   4.110   1.867   1.654
 6202SOL    HW119505   4.104   1.898   1.559
 6202SOL    HW219506   4.204   1.879   1.686
 6203SOL     OW19507   4.957   0.455   3.895
 6203SOL    HW119508   4.996   0.526   3.837
 6203SOL    HW219509   5.030   0.397   3.931
 6204SOL     OW19510   0.557   4.897   5.586
 6204SOL    HW119511   0.508   4.980   5.561
 6204SOL    HW219512   0.528   4.822   5.526
 6205SOL     OW19513   5.122   5.487   6.716
 6205SOL    HW119514   5.082   5.398   6.694
 6205SOL    HW219515   5.051   5.557   6.716
 6206SOL     OW19516   0.011   0.492   2.491
 6206SOL    HW119517   0.027   0.571   2.433
 6206SOL    HW219518   0.098   0.444   2.506
 6207SOL     OW19519   1.407   4.164   4.555
 6207SOL    HW119520   1.321   4.153   4.604
 6207SOL    HW219521   1.482   4.122   4.607
 6208SOL     OW19522   6.149   0.405   5.953
 6208SOL    HW119523   6.223   0.410   6.020
 6208SOL    HW219524   6.175   0.342   5.880
 6209SOL     OW19525   3.734   6.268   0.466
 6209SOL    HW119526   3.720   6.196   0.398
 6209SOL    HW219527   3.815   6.321   0.442
 6210SOL     OW19528   5.437   4.135   3.209
 6210SOL    HW119529   5.449   4.087   3.122
 6210SOL    HW219530   5.504   4.209   3.216
 6211SOL     OW19531   2.832   0.065   6.113
 6211SOL    HW119532   2.845   0.133   6.185
 6211SOL    HW219533   2.734   0.052   6.098
 6212SOL     OW19534   0.323   5.744   3.428
 6212SOL    HW119535   0.257   5.781   3.362
 6212SOL    HW219536   0.407   5.797   3.423
 6213SOL     OW19537   5.839   0.304   6.559
 6213SOL    HW119538   5.912   0.236   6.560
 6213SOL    HW219539   5.779   0.287   6.481
 6214SOL     OW19540   5.990   5.240   3.081
 6214SOL    HW119541   5.912   5.183   3.055
 6214SOL    HW219542   6.058   5.238   3.008
 6215SOL     OW19543   3.746   1.483   6.980
 6215SOL    HW119544   3.716   1.389   6.963
 6215SOL    HW219545   3.836   1.482   7.024
 6216SOL     OW19546   6.463   1.877   1.678
 6216SOL    HW119547   6.412   1.947   1.627
 6216SOL    HW219548   6.460   1.791   1.628
 6217SOL     OW19549   5.252   2.538   1.587
 6217SOL    HW119550   5.340   2.533   1.634
 6217SOL    HW219551   5.206   2.624   1.611
 6218SOL     OW19552   3.711   4.955   4.080
 6218SOL    HW119553   3.791   4.964   4.140
 6218SOL    HW219554   3.739   4.968   3.985
 6219SOL     OW19555   1.575   1.789   4.930
 6219SOL    HW119556   1.561   1.783   5.029
 6219SOL    HW219557   1.670   1.814   4.912
 6220SOL     OW19558   1.766   4.248   5.264
 6220SOL    HW119559   1.775   4.319   5.335
 6220SOL    HW219560   1.854   4.203   5.251
 6221SOL     OW19561   5.023   5.123   5.210
 6221SOL    HW119562   4.968   5.043   5.237
 6221SOL    HW219563   4.972   5.206   5.231
 6222SOL     OW19564   0.976   6.570   1.368
 6222SOL    HW119565   0.941   6.479   1.393
 6222SOL    HW219566   0.913   6.640   1.402
 6223SOL     OW19567   5.961   3.269   4.270
 6223SOL    HW119568   6.042   3.232   4.224
 6223SOL    HW219569   5.976   3.366   4.291
 6224SOL     OW19570   1.941   1.771   6.267
 6224SOL    HW119571   1.931   1.701   6.196
 6224SOL    HW219572   1.852   1.790   6.308
 6225SOL     OW19573   2.962   3.363   1.622
 6225SOL    HW119574   2.909   3.361   1.706
 6225SOL    HW219575   3.023   3.442   1.623
 6226SOL     OW19576   5.714   1.487   3.696
 6226SOL    HW119577   5.778   1.442   3.758
 6226SOL    HW219578   5.680   1.571   3.738
 6227SOL     OW19579   3.070   4.454   6.083
 6227SOL    HW119580   3.077   4.536   6.140
 6227SOL    HW219581   3.022   4.475   5.998
 6228SOL     OW19582   6.890   1.961   3.046
 6228SOL    HW119583   6.840   1.882   3.011
 6228SOL    HW219584   6.986   1.954   3.020
 6229SOL     OW19585   1.507   1.770   3.096
 6229SOL    HW119586   1.407   1.771   3.086
 6229SOL    HW219587   1.540   1.676   3.094
 6230SOL     OW19588   1.836   1.249   4.721
 6230SOL    HW119589   1.876   1.284   4.637
 6230SOL    HW219590   1.888   1.169   4.752
 6231SOL     OW19591   6.748   5.124   1.366
 6231SOL    HW119592   6.741   5.223   1.360
 6231SOL    HW219593   6.838   5.099   1.404
 6232SOL     OW19594   0.324   0.914   0.018
 6232SOL    HW119595   0.352   0.989   0.078
 6232SOL    HW219596   0.354   0.933   6.948
 6233SOL     OW19597   5.790   1.983   6.684
 6233SOL    HW119598   5.818   1.906   6.742
 6233SOL    HW219599   5.700   2.016   6.713
 6234SOL     OW19600   0.743   1.477   4.774
 6234SOL    HW119601   0.827   1.461   4.826
 6234SOL    HW219602   0.664   1.451   4.830
 6235SOL     OW19603   1.649   6.815   3.425
 6235SOL    HW119604   1.708   6.840   3.501
 6235SOL    HW219605   1.691   6.740   3.373
 6236SOL     OW19606   0.341   4.711   1.271
 6236SOL    HW119607   0.414   4.673   1.326
 6236SOL    HW219608   0.308   4.796   1.313
 6237SOL     OW19609   4.640   6.071   0.627
 6237SOL    HW119610   4.607   6.164   0.641
 6237SOL    HW219611   4.727   6.058   0.675
 6238SOL     OW19612   4.559   5.377   2.579
 6238SOL    HW119613   4.558   5.475   2.558
 6238SOL    HW219614   4.474   5.351   2.623
 6239SOL     OW19615   2.654   6.289   2.055
 6239SOL    HW119616   2.647   6.292   2.155
 6239SOL    HW219617   2.609   6.369   2.016
 6240SOL     OW19618   2.885   1.831   0.634
 6240SOL    HW119619   2.896   1.866   0.727
 6240SOL    HW219620   2.818   1.887   0.585
 6241SOL     OW19621   2.656   0.933   2.682
 6241SOL    HW119622   2.587   0.997   2.718
 6241SOL    HW219623   2.626   0.899   2.593
 6242SOL     OW19624   5.354   1.732   3.432
 6242SOL    HW119625   5.343   1.650   3.376
 6242SOL    HW219626   5.294   1.727   3.512
 6243SOL     OW19627   5.904   6.792   3.609
 6243SOL    HW119628   5.991   6.840   3.605
 6243SOL    HW219629   5.833   6.854   3.643
 6244SOL     OW19630   2.061   2.369   1.866
 6244SOL    HW119631   2.046   2.274   1.895
 6244SOL    HW219632   1.974   2.408   1.836
 6245SOL     OW19633   2.983   4.308   1.652
 6245SOL    HW119634   3.079   4.310   1.627
 6245SOL    HW219635   2.958   4.393   1.698
 6246SOL     OW19636   2.653   2.684   6.621
 6246SOL    HW119637   2.712   2.672   6.701
 6246SOL    HW219638   2.584   2.754   6.640
 6247SOL     OW19639   0.276   6.674   3.656
 6247SOL    HW119640   0.347   6.644   3.719
 6247SOL    HW219641   0.223   6.594   3.625
 6248SOL     OW19642   1.010   3.851   1.327
 6248SOL    HW119643   1.067   3.894   1.257
 6248SOL    HW219644   0.914   3.874   1.310
 6249SOL     OW19645   0.364   4.317   0.235
 6249SOL    HW119646   0.444   4.329   0.294
 6249SOL    HW219647   0.392   4.270   0.151
 6250SOL     OW19648   6.672   6.396   0.369
 6250SOL    HW119649   6.736   6.339   0.317
 6250SOL    HW219650   6.589   6.342   0.389
 6251SOL     OW19651   4.099   6.750   1.294
 6251SOL    HW119652   4.133   6.805   1.370
 6251SOL    HW219653   4.006   6.779   1.271
 6252SOL     OW19654   2.120   6.355   4.794
 6252SOL    HW119655   2.075   6.313   4.715
 6252SOL    HW219656   2.215   6.324   4.798
 6253SOL     OW19657   2.379   4.265   2.534
 6253SOL    HW119658   2.465   4.288   2.577
 6253SOL    HW219659   2.374   4.310   2.444
 6254SOL     OW19660   5.497   0.764   6.910
 6254SOL    HW119661   5.481   0.815   6.826
 6254SOL    HW219662   5.435   0.796   6.981
 6255SOL     OW19663   1.486   0.831   1.801
 6255SOL    HW119664   1.425   0.752   1.811
 6255SOL    HW219665   1.467   0.897   1.874
 6256SOL     OW19666   4.184   4.996   2.588
 6256SOL    HW119667   4.157   5.072   2.647
 6256SOL    HW219668   4.217   4.920   2.644
 6257SOL     OW19669   5.486   2.438   1.180
 6257SOL    HW119670   5.544   2.488   1.243
 6257SOL    HW219671   5.417   2.387   1.232
 6258SOL     OW19672   4.794   0.965   3.162
 6258SOL    HW119673   4.706   0.976   3.117
 6258SOL    HW219674   4.843   1.052   3.160
 6259SOL     OW19675   2.947   1.757   1.556
 6259SOL    HW119676   2.883   1.834   1.558
 6259SOL    HW219677   3.033   1.787   1.516
 6260SOL     OW19678   3.210   4.205   0.398
 6260SOL    HW119679   3.181   4.265   0.472
 6260SOL    HW219680   3.289   4.245   0.352
 6261SOL     OW19681   3.755   6.772   6.666
 6261SOL    HW119682   3.734   6.818   6.753
 6261SOL    HW219683   3.838   6.813   6.627
 6262SOL     OW19684   1.848   4.263   0.504
 6262SOL    HW119685   1.860   4.165   0.517
 6262SOL    HW219686   1.933   4.311   0.526
 6263SOL     OW19687   0.429   5.858   6.261
 6263SOL    HW119688   0.421   5.856   6.361
 6263SOL    HW219689   0.354   5.912   6.223
 6264SOL     OW19690   2.122   0.897   1.222
 6264SOL    HW119691   2.054   0.836   1.182
 6264SOL    HW219692   2.206   0.894   1.168
 6265SOL     OW19693   3.192   4.448   1.402
 6265SOL    HW119694   3.127   4.491   1.465
 6265SOL    HW219695   3.206   4.353   1.430
 6266SOL     OW19696   4.092   0.915   4.432
 6266SOL    HW119697   4.190   0.912   4.414
 6266SOL    HW219698   4.060   1.010   4.427
 6267SOL     OW19699   3.406   7.007   0.224
 6267SOL    HW119700   3.493   0.016   0.187
 6267SOL    HW219701   3.379   6.923   0.176
 6268SOL     OW19702   2.506   5.904   3.083
 6268SOL    HW119703   2.594   5.896   3.129
 6268SOL    HW219704   2.450   5.824   3.103
 6269SOL     OW19705   6.341   5.563   1.719
 6269SOL    HW119706   6.324   5.468   1.695
 6269SOL    HW219707   6.316   5.578   1.815
 6270SOL     OW19708   1.999   6.965   6.078
 6270SOL    HW119709   2.009   6.977   5.979
 6270SOL    HW219710   2.088   6.944   6.119
 6271SOL     OW19711   6.856   2.640   5.911
 6271SOL    HW119712   6.842   2.681   5.820
 6271SOL    HW219713   6.803   2.691   5.979
 6272SOL     OW19714   0.816   3.022   4.492
 6272SOL    HW119715   0.761   3.048   4.572
 6272SOL    HW219716   0.904   2.984   4.523
 6273SOL     OW19717   1.698   0.364   2.087
 6273SOL    HW119718   1.769   0.294   2.096
 6273SOL    HW219719   1.608   0.320   2.087
 6274SOL     OW19720   2.769   5.496   5.549
 6274SOL    HW119721   2.830   5.575   5.555
 6274SOL    HW219722   2.816   5.422   5.500
 6275SOL     OW19723   2.848   6.394   5.682
 6275SOL    HW119724   2.894   6.480   5.706
 6275SOL    HW219725   2.762   6.388   5.732
 6276SOL     OW19726   1.630   5.057   3.571
 6276SOL    HW119727   1.702   5.105   3.622
 6276SOL    HW219728   1.671   4.983   3.517
 6277SOL     OW19729   4.299   2.376   2.866
 6277SOL    HW119730   4.382   2.421   2.833
 6277SOL    HW219731   4.251   2.335   2.789
 6278SOL     OW19732   4.843   0.186   4.840
 6278SOL    HW119733   4.897   0.110   4.806
 6278SOL    HW219734   4.883   0.219   4.926
 6279SOL     OW19735   3.743   1.278   0.438
 6279SOL    HW119736   3.704   1.244   0.523
 6279SOL    HW219737   3.841   1.294   0.450
 6280SOL     OW19738   0.364   3.124   5.682
 6280SOL    HW119739   0.401   3.067   5.609
 6280SOL    HW219740   0.267   3.143   5.664
 6281SOL     OW19741   2.703   6.192   6.021
 6281SOL    HW119742   2.675   6.250   5.945
 6281SOL    HW219743   2.714   6.248   6.104
 6282SOL     OW19744   1.296   6.946   4.685
 6282SOL    HW119745   1.262   6.945   4.779
 6282SOL    HW219746   1.345   0.008   4.668
 6283SOL     OW19747   6.134   2.719   4.972
 6283SOL    HW119748   6.184   2.777   4.907
 6283SOL    HW219749   6.036   2.724   4.952
 6284SOL     OW19750   1.729   5.495   4.963
 6284SOL    HW119751   1.676   5.441   4.897
 6284SOL    HW219752   1.826   5.479   4.949
 6285SOL     OW19753   1.314   2.954   4.124
 6285SOL    HW119754   1.303   3.053   4.136
 6285SOL    HW219755   1.251   2.906   4.184
 6286SOL     OW19756   6.648   1.098   3.810
 6286SOL    HW119757   6.724   1.163   3.811
 6286SOL    HW219758   6.620   1.082   3.715
 6287SOL     OW19759   4.495   4.474   2.296
 6287SOL    HW119760   4.537   4.429   2.375
 6287SOL    HW219761   4.524   4.428   2.212
 6288SOL     OW19762   5.407   4.191   1.553
 6288SOL    HW119763   5.496   4.224   1.583
 6288SOL    HW219764   5.352   4.164   1.632
 6289SOL     OW19765   1.511   2.702   3.388
 6289SOL    HW119766   1.429   2.671   3.339
 6289SOL    HW219767   1.531   2.638   3.462
 6290SOL     OW19768   5.391   3.791   4.316
 6290SOL    HW119769   5.360   3.697   4.302
 6290SOL    HW219770   5.430   3.801   4.407
 6291SOL     OW19771   4.042   3.728   3.882
 6291SOL    HW119772   4.074   3.650   3.827
 6291SOL    HW219773   4.086   3.725   3.972
 6292SOL     OW19774   0.350   2.922   3.181
 6292SOL    HW119775   0.363   2.865   3.261
 6292SOL    HW219776   0.261   2.968   3.187
 6293SOL     OW19777   4.411   7.017   0.227
 6293SOL    HW119778   4.510   7.009   0.231
 6293SOL    HW219779   4.382   7.022   0.131
 6294SOL     OW19780   3.770   5.187   3.153
 6294SOL    HW119781   3.840   5.179   3.224
 6294SOL    HW219782   3.744   5.095   3.121
 6295SOL     OW19783   5.103   5.796   5.284
 6295SOL    HW119784   5.052   5.842   5.211
 6295SOL    HW219785   5.168   5.859   5.325
 6296SOL     OW19786   6.531   0.498   3.868
 6296SOL    HW119787   6.471   0.553   3.927
 6296SOL    HW219788   6.616   0.549   3.851
 6297SOL     OW19789   5.298   6.903   5.495
 6297SOL    HW119790   5.265   6.955   5.416
 6297SOL    HW219791   5.225   6.846   5.530
 6298SOL     OW19792   1.532   3.762   6.098
 6298SOL    HW119793   1.434   3.743   6.111
 6298SOL    HW219794   1.543   3.835   6.030
 6299SOL     OW19795   6.532   2.392   6.507
 6299SOL    HW119796   6.438   2.359   6.506
 6299SOL    HW219797   6.585   2.346   6.435
 6300SOL     OW19798   5.241   0.570   4.824
 6300SOL    HW119799   5.275   0.495   4.768
 6300SOL    HW219800   5.151   0.547   4.860
 6301SOL     OW19801   2.554   6.917   1.278
 6301SOL    HW119802   2.576   6.995   1.337
 6301SOL    HW219803   2.627   6.849   1.285
 6302SOL     OW19804   1.188   1.289   3.501
 6302SOL    HW119805   1.175   1.203   3.552
 6302SOL    HW219806   1.173   1.366   3.563
 6303SOL     OW19807   2.269   0.640   4.875
 6303SOL    HW119808   2.188   0.635   4.817
 6303SOL    HW219809   2.287   0.735   4.900
 6304SOL     OW19810   3.029   0.756   1.229
 6304SOL    HW119811   3.051   0.847   1.194
 6304SOL    HW219812   3.039   0.756   1.329
 6305SOL     OW19813   6.376   6.561   1.269
 6305SOL    HW119814   6.353   6.471   1.232
 6305SOL    HW219815   6.348   6.631   1.203
 6306SOL     OW19816   0.106   3.163   4.358
 6306SOL    HW119817   0.068   3.214   4.435
 6306SOL    HW219818   0.103   3.220   4.275
 6307SOL     OW19819   3.061   4.898   5.716
 6307SOL    HW119820   3.050   4.976   5.778
 6307SOL    HW219821   3.158   4.876   5.707
 6308SOL     OW19822   1.719   1.505   5.131
 6308SOL    HW119823   1.733   1.603   5.145
 6308SOL    HW219824   1.790   1.470   5.071
 6309SOL     OW19825   4.840   3.235   3.560
 6309SOL    HW119826   4.896   3.250   3.642
 6309SOL    HW219827   4.744   3.232   3.586
 6310SOL     OW19828   2.243   4.655   3.875
 6310SOL    HW119829   2.182   4.677   3.798
 6310SOL    HW219830   2.191   4.659   3.960
 6311SOL     OW19831   6.296   0.561   5.008
 6311SOL    HW119832   6.307   0.641   4.949
 6311SOL    HW219833   6.337   0.481   4.963
 6312SOL     OW19834   4.289   5.069   6.183
 6312SOL    HW119835   4.315   5.003   6.113
 6312SOL    HW219836   4.355   5.143   6.185
 6313SOL     OW19837   1.620   6.080   3.085
 6313SOL    HW119838   1.555   6.013   3.119
 6313SOL    HW219839   1.577   6.170   3.082
 6314SOL     OW19840   3.605   6.401   1.876
 6314SOL    HW119841   3.588   6.312   1.833
 6314SOL    HW219842   3.527   6.426   1.932
 6315SOL     OW19843   4.582   2.871   0.007
 6315SOL    HW119844   4.557   2.878   0.103
 6315SOL    HW219845   4.682   2.873   7.022
 6316SOL     OW19846   4.265   2.225   6.399
 6316SOL    HW119847   4.364   2.242   6.401
 6316SOL    HW219848   4.231   2.212   6.492
 6317SOL     OW19849   5.466   6.499   3.169
 6317SOL    HW119850   5.545   6.443   3.193
 6317SOL    HW219851   5.403   6.446   3.113
 6318SOL     OW19852   2.772   1.996   5.416
 6318SOL    HW119853   2.733   2.004   5.324
 6318SOL    HW219854   2.869   1.973   5.409
 6319SOL     OW19855   0.306   3.117   3.793
 6319SOL    HW119856   0.328   3.095   3.698
 6319SOL    HW219857   0.388   3.149   3.840
 6320SOL     OW19858   5.928   4.289   3.285
 6320SOL    HW119859   5.912   4.298   3.383
 6320SOL    HW219860   5.954   4.195   3.264
 6321SOL     OW19861   2.972   5.243   0.976
 6321SOL    HW119862   2.889   5.255   0.921
 6321SOL    HW219863   2.996   5.331   1.019
 6322SOL     OW19864   1.729   2.273   6.079
 6322SOL    HW119865   1.646   2.274   6.023
 6322SOL    HW219866   1.800   2.219   6.033
 6323SOL     OW19867   3.464   2.395   1.694
 6323SOL    HW119868   3.548   2.381   1.747
 6323SOL    HW219869   3.485   2.443   1.610
 6324SOL     OW19870   4.290   0.764   5.783
 6324SOL    HW119871   4.289   0.780   5.684
 6324SOL    HW219872   4.285   0.852   5.830
 6325SOL     OW19873   1.546   2.886   1.944
 6325SOL    HW119874   1.527   2.844   2.034
 6325SOL    HW219875   1.547   2.985   1.953
 6326SOL     OW19876   5.250   5.982   1.010
 6326SOL    HW119877   5.344   5.977   1.043
 6326SOL    HW219878   5.234   6.072   0.970
 6327SOL     OW19879   6.851   6.573   5.183
 6327SOL    HW119880   6.890   6.600   5.272
 6327SOL    HW219881   6.843   6.654   5.125
 6328SOL     OW19882   2.035   3.971   6.663
 6328SOL    HW119883   1.939   3.981   6.691
 6328SOL    HW219884   2.083   3.915   6.729
 6329SOL     OW19885   0.721   1.592   3.854
 6329SOL    HW119886   0.729   1.652   3.774
 6329SOL    HW219887   0.692   1.501   3.825
 6330SOL     OW19888   4.868   0.796   0.680
 6330SOL    HW119889   4.832   0.877   0.726
 6330SOL    HW219890   4.932   0.749   0.741
 6331SOL     OW19891   6.688   2.646   0.827
 6331SOL    HW119892   6.704   2.709   0.903
 6331SOL    HW219893   6.668   2.555   0.863
 6332SOL     OW19894   6.003   5.185   1.689
 6332SOL    HW119895   6.006   5.086   1.670
 6332SOL    HW219896   6.093   5.214   1.723
 6333SOL     OW19897   3.940   5.138   3.361
 6333SOL    HW119898   3.949   5.222   3.414
 6333SOL    HW219899   3.994   5.065   3.403
 6334SOL     OW19900   2.249   0.128   2.776
 6334SOL    HW119901   2.325   0.080   2.733
 6334SOL    HW219902   2.205   0.068   2.843
 6335SOL     OW19903   5.803   1.945   0.143
 6335SOL    HW119904   5.884   2.004   0.145
 6335SOL    HW219905   5.773   1.928   0.237
 6336SOL     OW19906   0.178   2.479   5.035
 6336SOL    HW119907   0.225   2.517   5.115
 6336SOL    HW219908   0.081   2.465   5.057
 6337SOL     OW19909   5.050   3.510   6.325
 6337SOL    HW119910   4.955   3.520   6.295
 6337SOL    HW219911   5.075   3.414   6.325
 6338SOL     OW19912   2.726   2.392   2.596
 6338SOL    HW119913   2.675   2.337   2.530
 6338SOL    HW219914   2.812   2.347   2.617
 6339SOL     OW19915   0.330   2.383   3.382
 6339SOL    HW119916   0.400   2.335   3.435
 6339SOL    HW219917   0.370   2.417   3.298
 6340SOL     OW19918   2.435   5.627   3.040
 6340SOL    HW119919   2.419   5.607   3.137
 6340SOL    HW219920   2.527   5.666   3.029
 6341SOL     OW19921   6.781   4.581   3.611
 6341SOL    HW119922   6.727   4.511   3.657
 6341SOL    HW219923   6.794   4.659   3.672
 6342SOL     OW19924   2.542   2.515   2.406
 6342SOL    HW119925   2.635   2.531   2.440
 6342SOL    HW219926   2.485   2.481   2.481
 6343SOL     OW19927   5.083   2.620   0.141
 6343SOL    HW119928   5.078   2.717   0.165
 6343SOL    HW219929   4.992   2.580   0.145
 6344SOL     OW19930   6.514   3.258   5.447
 6344SOL    HW119931   6.515   3.338   5.386
 6344SOL    HW219932   6.602   3.211   5.441
 6345SOL     OW19933   4.404   1.288   2.447
 6345SOL    HW119934   4.368   1.286   2.354
 6345SOL    HW219935   4.412   1.383   2.478
 6346SOL     OW19936   6.473   3.465   3.559
 6346SOL    HW119937   6.446   3.437   3.467
 6346SOL    HW219938   6.564   3.505   3.556
 6347SOL     OW19939   3.143   0.369   1.390
 6347SOL    HW119940   3.096   0.352   1.477
 6347SOL    HW219941   3.076   0.374   1.316
 6348SOL     OW19942   0.609   3.933   4.860
 6348SOL    HW119943   0.517   3.966   4.840
 6348SOL    HW219944   0.628   3.943   4.958
 6349SOL     OW19945   2.830   1.265   1.938
 6349SOL    HW119946   2.898   1.276   2.011
 6349SOL    HW219947   2.877   1.245   1.852
 6350SOL     OW19948   1.848   5.168   3.673
 6350SOL    HW119949   1.918   5.133   3.736
 6350SOL    HW219950   1.827   5.263   3.696
 6351SOL     OW19951   6.489   2.709   2.575
 6351SOL    HW119952   6.483   2.799   2.533
 6351SOL    HW219953   6.408   2.692   2.630
 6352SOL     OW19954   1.199   5.417   3.663
 6352SOL    HW119955   1.226   5.480   3.591
 6352SOL    HW219956   1.272   5.410   3.731
 6353SOL     OW19957   6.666   0.555   6.451
 6353SOL    HW119958   6.690   0.485   6.518
 6353SOL    HW219959   6.746   0.578   6.396
 6354SOL     OW19960   1.119   6.460   2.713
 6354SOL    HW119961   1.185   6.457   2.788
 6354SOL    HW219962   1.151   6.523   2.643
 6355SOL     OW19963   0.365   4.038   4.716
 6355SOL    HW119964   0.323   4.118   4.757
 6355SOL    HW219965   0.307   4.003   4.642
 6356SOL     OW19966   5.190   4.794   2.196
 6356SOL    HW119967   5.124   4.775   2.268
 6356SOL    HW219968   5.142   4.831   2.116
 6357SOL     OW19969   4.555   2.580   0.420
 6357SOL    HW119970   4.644   2.536   0.413
 6357SOL    HW219971   4.566   2.679   0.424
 6358SOL     OW19972   6.801   2.416   4.450
 6358SOL    HW119973   6.743   2.339   4.477
 6358SOL    HW219974   6.888   2.382   4.415
 6359SOL     OW19975   6.987   0.314   5.074
 6359SOL    HW119976   0.002   0.379   5.139
 6359SOL    HW219977   6.934   0.363   5.005
 6360SOL     OW19978   2.491   4.747   3.949
 6360SOL    HW119979   2.545   4.814   3.900
 6360SOL    HW219980   2.396   4.778   3.953
 6361SOL     OW19981   4.834   6.232   6.407
 6361SOL    HW119982   4.771   6.155   6.414
 6361SOL    HW219983   4.925   6.204   6.439
 6362SOL     OW19984   5.964   4.829   6.999
 6362SOL    HW119985   5.927   4.778   6.921
 6362SOL    HW219986   5.987   4.765   0.048
 6363SOL     OW19987   2.280   5.787   3.812
 6363SOL    HW119988   2.302   5.879   3.778
 6363SOL    HW219989   2.200   5.793   3.872
 6364SOL     OW19990   2.979   1.792   5.624
 6364SOL    HW119991   3.011   1.867   5.682
 6364SOL    HW219992   3.000   1.813   5.528
 6365SOL     OW19993   4.617   6.866   4.123
 6365SOL    HW119994   4.687   6.875   4.194
 6365SOL    HW219995   4.637   6.929   4.048
 6366SOL     OW19996   0.762   5.587   5.353
 6366SOL    HW119997   0.854   5.599   5.316
 6366SOL    HW219998   0.767   5.539   5.440
 6367SOL     OW19999   5.015   0.693   3.759
 6367SOL    HW120000   5.069   0.776   3.751
 6367SOL    HW220001   4.934   0.700   3.700
 6368SOL     OW20002   3.269   6.922   4.187
 6368SOL    HW120003   3.251   6.895   4.092
 6368SOL    HW220004   3.343   6.989   4.188
 6369SOL     OW20005   3.074   5.222   4.287
 6369SOL    HW120006   3.105   5.274   4.207
 6369SOL    HW220007   3.054   5.128   4.260
 6370SOL     OW20008   0.608   2.623   2.144
 6370SOL    HW120009   0.597   2.603   2.241
 6370SOL    HW220010   0.520   2.611   2.098
 6371SOL     OW20011   4.878   2.939   3.166
 6371SOL    HW120012   4.870   2.965   3.262
 6371SOL    HW220013   4.797   2.887   3.139
 6372SOL     OW20014   3.276   6.751   1.708
 6372SOL    HW120015   3.337   6.743   1.787
 6372SOL    HW220016   3.182   6.763   1.740
 6373SOL     OW20017   6.268   4.204   5.101
 6373SOL    HW120018   6.182   4.219   5.149
 6373SOL    HW220019   6.344   4.209   5.167
 6374SOL     OW20020   3.563   3.478   3.467
 6374SOL    HW120021   3.491   3.455   3.401
 6374SOL    HW220022   3.611   3.561   3.436
 6375SOL     OW20023   0.839   1.081   3.060
 6375SOL    HW120024   0.853   1.160   3.120
 6375SOL    HW220025   0.829   1.112   2.966
 6376SOL     OW20026   0.157   1.499   5.203
 6376SOL    HW120027   0.186   1.458   5.117
 6376SOL    HW220028   0.061   1.476   5.220
 6377SOL     OW20029   6.706   0.503   5.663
 6377SOL    HW120030   6.612   0.484   5.635
 6377SOL    HW220031   6.768   0.482   5.588
 6378SOL     OW20032   4.949   4.657   3.410
 6378SOL    HW120033   4.926   4.733   3.350
 6378SOL    HW220034   4.867   4.603   3.427
 6379SOL     OW20035   2.019   4.963   4.312
 6379SOL    HW120036   1.946   4.956   4.380
 6379SOL    HW220037   2.093   5.020   4.348
 6380SOL     OW20038   1.281   1.212   5.533
 6380SOL    HW120039   1.252   1.168   5.618
 6380SOL    HW220040   1.201   1.243   5.483
 6381SOL     OW20041   2.835   3.435   2.293
 6381SOL    HW120042   2.897   3.499   2.246
 6381SOL    HW220043   2.743   3.446   2.257
 6382SOL     OW20044   1.338   2.554   6.528
 6382SOL    HW120045   1.362   2.527   6.435
 6382SOL    HW220046   1.325   2.653   6.531
 6383SOL     OW20047   1.950   2.070   3.934
 6383SOL    HW120048   1.980   2.165   3.948
 6383SOL    HW220049   1.928   2.055   3.838
 6384SOL     OW20050   6.257   4.818   1.791
 6384SOL    HW120051   6.303   4.902   1.821
 6384SOL    HW220052   6.316   4.768   1.728
 6385SOL     OW20053   6.288   4.741   4.127
 6385SOL    HW120054   6.382   4.709   4.119
 6385SOL    HW220055   6.232   4.671   4.172
 6386SOL     OW20056   2.544   5.095   0.548
 6386SOL    HW120057   2.576   5.074   0.640
 6386SOL    HW220058   2.580   5.027   0.484
 6387SOL     OW20059   0.770   2.108   6.411
 6387SOL    HW120060   0.672   2.099   6.391
 6387SOL    HW220061   0.807   2.187   6.363
 6388SOL     OW20062   3.849   4.547   1.174
 6388SOL    HW120063   3.944   4.550   1.146
 6388SOL    HW220064   3.790   4.569   1.097
 6389SOL     OW20065   0.733   6.426   2.510
 6389SOL    HW120066   0.815   6.450   2.458
 6389SOL    HW220067   0.747   6.447   2.607
 6390SOL     OW20068   6.938   2.625   3.123
 6390SOL    HW120069   0.002   2.600   3.084
 6390SOL    HW220070   6.949   2.643   3.221
 6391SOL     OW20071   3.147   0.990   0.411
 6391SOL    HW120072   3.049   0.976   0.426
 6391SOL    HW220073   3.175   0.942   0.328
 6392SOL     OW20074   2.140   6.530   3.915
 6392SOL    HW120075   2.106   6.462   3.980
 6392SOL    HW220076   2.214   6.492   3.861
 6393SOL     OW20077   5.874   6.697   1.769
 6393SOL    HW120078   5.944   6.628   1.751
 6393SOL    HW220079   5.833   6.727   1.683
 6394SOL     OW20080   2.519   5.021   1.087
 6394SOL    HW120081   2.536   5.101   1.030
 6394SOL    HW220082   2.576   5.026   1.169
 6395SOL     OW20083   6.068   1.730   1.282
 6395SOL    HW120084   6.080   1.742   1.184
 6395SOL    HW220085   6.024   1.642   1.300
 6396SOL     OW20086   5.380   3.018   6.279
 6396SOL    HW120087   5.384   2.947   6.349
 6396SOL    HW220088   5.304   2.999   6.216
 6397SOL     OW20089   6.659   1.839   6.795
 6397SOL    HW120090   6.729   1.890   6.744
 6397SOL    HW220091   6.683   1.742   6.795
 6398SOL     OW20092   3.372   0.932   1.876
 6398SOL    HW120093   3.370   1.027   1.907
 6398SOL    HW220094   3.432   0.879   1.936
 6399SOL     OW20095   1.694   5.541   6.747
 6399SOL    HW120096   1.612   5.559   6.692
 6399SOL    HW220097   1.770   5.596   6.712
 6400SOL     OW20098   2.188   5.808   2.976
 6400SOL    HW120099   2.154   5.813   2.882
 6400SOL    HW220100   2.241   5.724   2.988
 6401SOL     OW20101   0.117   4.497   3.831
 6401SOL    HW120102   0.088   4.587   3.798
 6401SOL    HW220103   0.038   4.437   3.841
 6402SOL     OW20104   2.730   0.582   2.554
 6402SOL    HW120105   2.631   0.572   2.561
 6402SOL    HW220106   2.768   0.503   2.506
 6403SOL     OW20107   0.753   5.690   6.639
 6403SOL    HW120108   0.660   5.695   6.675
 6403SOL    HW220109   0.795   5.604   6.667
 6404SOL     OW20110   4.158   1.639   3.473
 6404SOL    HW120111   4.182   1.708   3.406
 6404SOL    HW220112   4.229   1.636   3.544
 6405SOL     OW20113   1.896   1.812   2.878
 6405SOL    HW120114   1.915   1.808   2.976
 6405SOL    HW220115   1.797   1.807   2.863
 6406SOL     OW20116   1.446   1.464   3.188
 6406SOL    HW120117   1.500   1.385   3.160
 6406SOL    HW220118   1.468   1.488   3.283
 6407SOL     OW20119   3.345   6.683   4.284
 6407SOL    HW120120   3.306   6.614   4.223
 6407SOL    HW220121   3.317   6.774   4.254
 6408SOL     OW20122   6.177   2.426   6.811
 6408SOL    HW120123   6.167   2.330   6.839
 6408SOL    HW220124   6.238   2.431   6.732
 6409SOL     OW20125   6.599   4.306   2.705
 6409SOL    HW120126   6.691   4.320   2.743
 6409SOL    HW220127   6.574   4.210   2.712
 6410SOL     OW20128   2.164   1.818   0.686
 6410SOL    HW120129   2.193   1.812   0.782
 6410SOL    HW220130   2.095   1.748   0.668
 6411SOL     OW20131   0.777   2.356   3.176
 6411SOL    HW120132   0.732   2.272   3.147
 6411SOL    HW220133   0.750   2.378   3.269
 6412SOL     OW20134   6.823   3.200   5.473
 6412SOL    HW120135   6.854   3.294   5.463
 6412SOL    HW220136   6.883   3.152   5.537
 6413SOL     OW20137   5.826   4.819   1.987
 6413SOL    HW120138   5.875   4.732   1.992
 6413SOL    HW220139   5.739   4.811   2.036
 6414SOL     OW20140   5.773   1.008   1.687
 6414SOL    HW120141   5.794   0.974   1.779
 6414SOL    HW220142   5.812   1.100   1.676
 6415SOL     OW20143   2.832   2.295   2.924
 6415SOL    HW120144   2.908   2.345   2.965
 6415SOL    HW220145   2.748   2.348   2.933
 6416SOL     OW20146   1.070   0.947   6.341
 6416SOL    HW120147   0.976   0.916   6.348
 6416SOL    HW220148   1.125   0.905   6.413
 6417SOL     OW20149   0.677   6.052   3.318
 6417SOL    HW120150   0.662   6.130   3.257
 6417SOL    HW220151   0.685   6.085   3.413
 6418SOL     OW20152   6.595   5.122   2.516
 6418SOL    HW120153   6.537   5.106   2.436
 6418SOL    HW220154   6.691   5.123   2.488
 6419SOL     OW20155   3.262   5.507   1.801
 6419SOL    HW120156   3.295   5.420   1.765
 6419SOL    HW220157   3.163   5.513   1.785
 6420SOL     OW20158   3.147   3.350   6.132
 6420SOL    HW120159   3.124   3.311   6.043
 6420SOL    HW220160   3.191   3.439   6.120
 6421SOL     OW20161   6.328   1.400   1.236
 6421SOL    HW120162   6.344   1.450   1.321
 6421SOL    HW220163   6.258   1.330   1.252
 6422SOL     OW20164   6.736   0.204   3.468
 6422SOL    HW120165   6.744   0.280   3.404
 6422SOL    HW220166   6.666   0.223   3.536
 6423SOL     OW20167   4.948   3.970   1.669
 6423SOL    HW120168   4.978   3.885   1.627
 6423SOL    HW220169   4.887   4.019   1.606
 6424SOL     OW20170   6.757   4.176   6.069
 6424SOL    HW120171   6.665   4.192   6.033
 6424SOL    HW220172   6.807   4.116   6.007
 6425SOL     OW20173   6.719   4.711   3.361
 6425SOL    HW120174   6.690   4.648   3.433
 6425SOL    HW220175   6.816   4.731   3.371
 6426SOL     OW20176   1.088   2.838   4.172
 6426SOL    HW120177   0.998   2.881   4.165
 6426SOL    HW220178   1.077   2.741   4.194
 6427SOL     OW20179   1.432   3.676   6.802
 6427SOL    HW120180   1.384   3.595   6.837
 6427SOL    HW220181   1.377   3.718   6.730
 6428SOL     OW20182   6.469   3.794   1.508
 6428SOL    HW120183   6.466   3.714   1.569
 6428SOL    HW220184   6.548   3.850   1.529
 6429SOL     OW20185   1.637   0.696   4.633
 6429SOL    HW120186   1.683   0.638   4.701
 6429SOL    HW220187   1.543   0.714   4.662
 6430SOL     OW20188   4.511   0.745   1.863
 6430SOL    HW120189   4.580   0.807   1.902
 6430SOL    HW220190   4.439   0.799   1.821
 6431SOL     OW20191   5.455   0.055   3.778
 6431SOL    HW120192   5.478   0.142   3.821
 6431SOL    HW220193   5.464   7.005   3.844
 6432SOL     OW20194   4.431   4.244   0.480
 6432SOL    HW120195   4.392   4.289   0.400
 6432SOL    HW220196   4.360   4.232   0.549
 6433SOL     OW20197   3.159   4.816   1.094
 6433SOL    HW120198   3.114   4.882   1.034
 6433SOL    HW220199   3.100   4.736   1.106
 6434SOL     OW20200   1.489   3.615   1.028
 6434SOL    HW120201   1.588   3.623   1.028
 6434SOL    HW220202   1.450   3.678   0.961
 6435SOL     OW20203   3.689   5.227   0.169
 6435SOL    HW120204   3.730   5.202   0.256
 6435SOL    HW220205   3.677   5.326   0.165
 6436SOL     OW20206   1.739   2.972   3.484
 6436SOL    HW120207   1.672   2.902   3.508
 6436SOL    HW220208   1.697   3.062   3.490
 6437SOL     OW20209   1.854   1.525   0.206
 6437SOL    HW120210   1.803   1.601   0.245
 6437SOL    HW220211   1.792   1.447   0.191
 6438SOL     OW20212   0.450   4.281   5.280
 6438SOL    HW120213   0.438   4.355   5.347
 6438SOL    HW220214   0.496   4.203   5.324
 6439SOL     OW20215   0.779   6.607   0.764
 6439SOL    HW120216   0.763   6.658   0.849
 6439SOL    HW220217   0.752   6.511   0.778
 6440SOL     OW20218   2.279   2.402   1.680
 6440SOL    HW120219   2.190   2.390   1.724
 6440SOL    HW220220   2.316   2.492   1.702
 6441SOL     OW20221   1.642   0.400   2.431
 6441SOL    HW120222   1.700   0.442   2.362
 6441SOL    HW220223   1.625   0.304   2.406
 6442SOL     OW20224   2.717   1.625   4.225
 6442SOL    HW120225   2.659   1.559   4.178
 6442SOL    HW220226   2.659   1.692   4.272
 6443SOL     OW20227   3.274   3.035   0.483
 6443SOL    HW120228   3.293   2.988   0.569
 6443SOL    HW220229   3.358   3.076   0.448
 6444SOL     OW20230   0.434   2.483   3.166
 6444SOL    HW120231   0.393   2.550   3.104
 6444SOL    HW220232   0.429   2.392   3.123
 6445SOL     OW20233   4.341   2.282   5.254
 6445SOL    HW120234   4.276   2.354   5.233
 6445SOL    HW220235   4.298   2.215   5.315
 6446SOL     OW20236   0.250   1.262   5.814
 6446SOL    HW120237   0.344   1.228   5.826
 6446SOL    HW220238   0.220   1.306   5.899
 6447SOL     OW20239   0.739   6.065   2.526
 6447SOL    HW120240   0.833   6.099   2.518
 6447SOL    HW220241   0.685   6.098   2.449
 6448SOL     OW20242   6.316   4.191   2.364
 6448SOL    HW120243   6.238   4.247   2.393
 6448SOL    HW220244   6.400   4.244   2.376
 6449SOL     OW20245   3.844   4.060   1.678
 6449SOL    HW120246   3.839   4.122   1.600
 6449SOL    HW220247   3.755   4.053   1.722
 6450SOL     OW20248   6.436   2.855   1.904
 6450SOL    HW120249   6.465   2.931   1.961
 6450SOL    HW220250   6.473   2.769   1.941
 6451SOL     OW20251   3.212   6.347   5.733
 6451SOL    HW120252   3.232   6.385   5.823
 6451SOL    HW220253   3.234   6.250   5.733
 6452SOL     OW20254   3.675   0.111   4.812
 6452SOL    HW120255   3.691   0.100   4.910
 6452SOL    HW220256   3.712   0.199   4.782
 6453SOL     OW20257   1.261   6.812   0.106
 6453SOL    HW120258   1.217   6.885   0.158
 6453SOL    HW220259   1.305   6.748   0.168
 6454SOL     OW20260   2.739   1.493   3.923
 6454SOL    HW120261   2.838   1.481   3.916
 6454SOL    HW220262   2.701   1.421   3.981
 6455SOL     OW20263   0.731   2.422   4.717
 6455SOL    HW120264   0.691   2.348   4.771
 6455SOL    HW220265   0.828   2.430   4.739
 6456SOL     OW20266   1.564   0.320   3.385
 6456SOL    HW120267   1.592   0.300   3.292
 6456SOL    HW220268   1.644   0.351   3.438
 6457SOL     OW20269   5.724   1.679   1.309
 6457SOL    HW120270   5.698   1.583   1.317
 6457SOL    HW220271   5.744   1.700   1.214
 6458SOL     OW20272   0.838   6.477   2.771
 6458SOL    HW120273   0.814   6.395   2.822
 6458SOL    HW220274   0.937   6.493   2.777
 6459SOL     OW20275   5.679   5.570   0.571
 6459SOL    HW120276   5.626   5.485   0.579
 6459SOL    HW220277   5.662   5.628   0.651
 6460SOL     OW20278   4.382   4.671   0.013
 6460SOL    HW120279   4.448   4.598   7.021
 6460SOL    HW220280   4.291   4.631   0.025
 6461SOL     OW20281   3.149   5.675   5.249
 6461SOL    HW120282   3.162   5.772   5.271
 6461SOL    HW220283   3.088   5.633   5.317
 6462SOL     OW20284   2.221   3.263   5.161
 6462SOL    HW120285   2.269   3.180   5.133
 6462SOL    HW220286   2.288   3.329   5.197
 6463SOL     OW20287   2.839   4.937   6.419
 6463SOL    HW120288   2.837   5.007   6.348
 6463SOL    HW220289   2.745   4.910   6.443
 6464SOL     OW20290   0.864   4.689   3.989
 6464SOL    HW120291   0.927   4.613   3.976
 6464SOL    HW220292   0.778   4.670   3.941
 6465SOL     OW20293   5.969   2.303   3.689
 6465SOL    HW120294   6.062   2.323   3.718
 6465SOL    HW220295   5.968   2.217   3.636
 6466SOL     OW20296   6.570   2.544   5.066
 6466SOL    HW120297   6.591   2.447   5.078
 6466SOL    HW220298   6.600   2.595   5.148
 6467SOL     OW20299   2.296   1.314   6.307
 6467SOL    HW120300   2.307   1.412   6.294
 6467SOL    HW220301   2.205   1.286   6.276
 6468SOL     OW20302   3.846   6.068   1.460
 6468SOL    HW120303   3.839   5.968   1.471
 6468SOL    HW220304   3.936   6.098   1.492
 6469SOL     OW20305   5.846   1.157   5.219
 6469SOL    HW120306   5.835   1.253   5.244
 6469SOL    HW220307   5.835   1.100   5.300
 6470SOL     OW20308   6.524   5.316   6.268
 6470SOL    HW120309   6.464   5.236   6.259
 6470SOL    HW220310   6.571   5.312   6.356
 6471SOL     OW20311   6.702   5.277   6.474
 6471SOL    HW120312   6.697   5.315   6.567
 6471SOL    HW220313   6.794   5.287   6.439
 6472SOL     OW20314   0.970   5.655   1.091
 6472SOL    HW120315   0.923   5.713   1.025
 6472SOL    HW220316   1.062   5.691   1.107
 6473SOL     OW20317   2.328   1.428   5.840
 6473SOL    HW120318   2.365   1.345   5.882
 6473SOL    HW220319   2.399   1.498   5.838
 6474SOL     OW20320   1.639   3.986   5.922
 6474SOL    HW120321   1.603   4.037   6.001
 6474SOL    HW220322   1.606   4.028   5.838
 6475SOL     OW20323   5.925   6.268   4.095
 6475SOL    HW120324   5.985   6.341   4.128
 6475SOL    HW220325   5.864   6.304   4.025
 6476SOL     OW20326   4.862   4.261   2.392
 6476SOL    HW120327   4.828   4.251   2.298
 6476SOL    HW220328   4.798   4.318   2.445
 6477SOL     OW20329   6.440   4.852   0.158
 6477SOL    HW120330   6.352   4.842   0.206
 6477SOL    HW220331   6.441   4.938   0.108
 6478SOL     OW20332   3.448   5.941   2.195
 6478SOL    HW120333   3.371   5.889   2.230
 6478SOL    HW220334   3.530   5.920   2.250
 6479SOL     OW20335   4.267   4.956   2.203
 6479SOL    HW120336   4.175   4.970   2.168
 6479SOL    HW220337   4.285   4.858   2.213
 6480SOL     OW20338   3.955   2.831   5.751
 6480SOL    HW120339   4.034   2.872   5.797
 6480SOL    HW220340   3.874   2.839   5.809
 6481SOL     OW20341   3.411   2.280   1.413
 6481SOL    HW120342   3.511   2.269   1.414
 6481SOL    HW220343   3.374   2.256   1.502
 6482SOL     OW20344   6.876   0.862   0.120
 6482SOL    HW120345   6.829   0.782   0.083
 6482SOL    HW220346   6.972   0.840   0.136
 6483SOL     OW20347   2.577   6.284   2.327
 6483SOL    HW120348   2.482   6.256   2.338
 6483SOL    HW220349   2.623   6.280   2.416
 6484SOL     OW20350   4.520   0.343   2.476
 6484SOL    HW120351   4.510   0.270   2.544
 6484SOL    HW220352   4.491   0.430   2.516
 6485SOL     OW20353   1.399   3.226   3.504
 6485SOL    HW120354   1.421   3.260   3.595
 6485SOL    HW220355   1.392   3.126   3.506
 6486SOL     OW20356   1.274   4.247   4.168
 6486SOL    HW120357   1.180   4.239   4.135
 6486SOL    HW220358   1.283   4.331   4.221
 6487SOL     OW20359   6.365   5.565   4.548
 6487SOL    HW120360   6.314   5.652   4.553
 6487SOL    HW220361   6.310   5.498   4.498
 6488SOL     OW20362   3.549   5.844   5.640
 6488SOL    HW120363   3.508   5.932   5.661
 6488SOL    HW220364   3.507   5.773   5.697
 6489SOL     OW20365   1.905   2.950   6.669
 6489SOL    HW120366   1.926   3.048   6.676
 6489SOL    HW220367   1.936   2.903   6.751
 6490SOL     OW20368   3.841   2.238   0.191
 6490SOL    HW120369   3.864   2.336   0.189
 6490SOL    HW220370   3.925   2.184   0.195
 6491SOL     OW20371   4.088   1.470   6.816
 6491SOL    HW120372   4.152   1.394   6.806
 6491SOL    HW220373   4.063   1.480   6.912
 6492SOL     OW20374   6.010   6.706   6.927
 6492SOL    HW120375   6.057   6.752   6.852
 6492SOL    HW220376   5.990   6.612   6.901
 6493SOL     OW20377   1.856   6.539   5.426
 6493SOL    HW120378   1.813   6.474   5.488
 6493SOL    HW220379   1.945   6.566   5.462
 6494SOL     OW20380   0.425   0.521   3.367
 6494SOL    HW120381   0.369   0.599   3.340
 6494SOL    HW220382   0.521   0.538   3.346
 6495SOL     OW20383   5.023   5.591   3.638
 6495SOL    HW120384   5.058   5.675   3.680
 6495SOL    HW220385   5.063   5.512   3.684
 6496SOL     OW20386   6.975   6.276   2.235
 6496SOL    HW120387   6.907   6.328   2.286
 6496SOL    HW220388   0.018   6.237   2.298
 6497SOL     OW20389   2.528   3.499   1.033
 6497SOL    HW120390   2.579   3.414   1.020
 6497SOL    HW220391   2.454   3.484   1.098
 6498SOL     OW20392   2.480   5.145   4.054
 6498SOL    HW120393   2.440   5.084   4.123
 6498SOL    HW220394   2.536   5.214   4.100
 6499SOL     OW20395   5.073   0.923   5.285
 6499SOL    HW120396   5.078   0.939   5.186
 6499SOL    HW220397   5.155   0.875   5.315
 6500SOL     OW20398   6.432   3.887   3.452
 6500SOL    HW120399   6.487   3.805   3.470
 6500SOL    HW220400   6.463   3.962   3.510
 6501SOL     OW20401   6.380   3.285   1.121
 6501SOL    HW120402   6.474   3.296   1.154
 6501SOL    HW220403   6.325   3.361   1.154
 6502SOL     OW20404   0.417   4.128   3.695
 6502SOL    HW120405   0.427   4.169   3.786
 6502SOL    HW220406   0.329   4.081   3.689
 6503SOL     OW20407   5.739   6.541   3.620
 6503SOL    HW120408   5.668   6.587   3.567
 6503SOL    HW220409   5.814   6.605   3.639
 6504SOL     OW20410   4.261   6.663   6.105
 6504SOL    HW120411   4.286   6.724   6.181
 6504SOL    HW220412   4.200   6.592   6.139
 6505SOL     OW20413   6.233   4.544   1.037
 6505SOL    HW120414   6.319   4.592   1.047
 6505SOL    HW220415   6.198   4.558   0.944
 6506SOL     OW20416   0.926   3.209   1.202
 6506SOL    HW120417   1.003   3.150   1.178
 6506SOL    HW220418   0.840   3.162   1.184
 6507SOL     OW20419   1.330   5.776   0.693
 6507SOL    HW120420   1.403   5.725   0.648
 6507SOL    HW220421   1.253   5.715   0.710
 6508SOL     OW20422   2.093   1.692   3.655
 6508SOL    HW120423   2.103   1.772   3.714
 6508SOL    HW220424   2.181   1.673   3.611
 6509SOL     OW20425   1.351   2.665   4.934
 6509SOL    HW120426   1.331   2.733   5.004
 6509SOL    HW220427   1.407   2.707   4.862
 6510SOL     OW20428   6.973   5.035   6.374
 6510SOL    HW120429   6.887   5.083   6.389
 6510SOL    HW220430   6.953   4.939   6.351
 6511SOL     OW20431   6.196   0.276   5.435
 6511SOL    HW120432   6.277   0.272   5.377
 6511SOL    HW220433   6.147   0.362   5.418
 6512SOL     OW20434   4.802   6.740   3.044
 6512SOL    HW120435   4.855   6.688   3.111
 6512SOL    HW220436   4.785   6.683   2.964
 6513SOL     OW20437   3.530   6.686   4.052
 6513SOL    HW120438   3.545   6.590   4.073
 6513SOL    HW220439   3.469   6.726   4.121
 6514SOL     OW20440   4.927   6.967   4.148
 6514SOL    HW120441   4.890   6.910   4.222
 6514SOL    HW220442   4.854   6.988   4.083
 6515SOL     OW20443   6.833   5.135   4.075
 6515SOL    HW120444   6.892   5.154   3.996
 6515SOL    HW220445   6.831   5.216   4.135
 6516SOL     OW20446   0.348   1.502   6.708
 6516SOL    HW120447   0.420   1.498   6.639
 6516SOL    HW220448   0.371   1.571   6.776
 6517SOL     OW20449   6.832   1.606   0.528
 6517SOL    HW120450   6.784   1.525   0.493
 6517SOL    HW220451   6.872   1.656   0.452
 6518SOL     OW20452   0.983   6.225   0.223
 6518SOL    HW120453   0.984   6.156   0.151
 6518SOL    HW220454   0.888   6.247   0.246
 6519SOL     OW20455   2.681   1.843   4.042
 6519SOL    HW120456   2.718   1.776   4.106
 6519SOL    HW220457   2.618   1.798   3.979
 6520SOL     OW20458   6.472   5.650   2.926
 6520SOL    HW120459   6.379   5.675   2.902
 6520SOL    HW220460   6.502   5.573   2.869
 6521SOL     OW20461   1.247   1.068   4.335
 6521SOL    HW120462   1.272   1.054   4.240
 6521SOL    HW220463   1.316   1.026   4.394
 6522SOL     OW20464   2.441   5.351   6.695
 6522SOL    HW120465   2.479   5.324   6.607
 6522SOL    HW220466   2.510   5.399   6.749
 6523SOL     OW20467   2.752   1.362   6.402
 6523SOL    HW120468   2.675   1.300   6.383
 6523SOL    HW220469   2.722   1.456   6.392
 6524SOL     OW20470   3.817   3.670   3.745
 6524SOL    HW120471   3.804   3.756   3.696
 6524SOL    HW220472   3.885   3.684   3.818
 6525SOL     OW20473   1.255   2.628   2.652
 6525SOL    HW120474   1.354   2.631   2.645
 6525SOL    HW220475   1.215   2.606   2.564
 6526SOL     OW20476   1.022   6.729   5.033
 6526SOL    HW120477   1.063   6.680   5.110
 6526SOL    HW220478   0.934   6.766   5.060
 6527SOL     OW20479   1.375   0.961   4.934
 6527SOL    HW120480   1.467   0.932   4.961
 6527SOL    HW220481   1.359   1.055   4.963
 6528SOL     OW20482   0.133   0.688   4.039
 6528SOL    HW120483   0.202   0.720   4.104
 6528SOL    HW220484   0.098   0.765   3.986
 6529SOL     OW20485   5.642   1.814   2.998
 6529SOL    HW120486   5.692   1.806   2.912
 6529SOL    HW220487   5.582   1.735   3.009
 6530SOL     OW20488   6.484   2.992   0.665
 6530SOL    HW120489   6.571   2.954   0.635
 6530SOL    HW220490   6.483   2.999   0.765
 6531SOL     OW20491   5.512   2.350   4.033
 6531SOL    HW120492   5.533   2.278   4.100
 6531SOL    HW220493   5.563   2.433   4.058
 6532SOL     OW20494   6.722   1.778   0.149
 6532SOL    HW120495   6.724   1.678   0.154
 6532SOL    HW220496   6.805   1.815   0.191
 6533SOL     OW20497   5.665   6.494   0.949
 6533SOL    HW120498   5.611   6.453   1.023
 6533SOL    HW220499   5.626   6.583   0.925
 6534SOL     OW20500   2.472   4.033   0.880
 6534SOL    HW120501   2.410   3.965   0.841
 6534SOL    HW220502   2.566   3.998   0.877
 6535SOL     OW20503   0.262   2.825   5.122
 6535SOL    HW120504   0.265   2.728   5.097
 6535SOL    HW220505   0.177   2.866   5.088
 6536SOL     OW20506   6.279   2.272   6.510
 6536SOL    HW120507   6.260   2.188   6.459
 6536SOL    HW220508   6.208   2.340   6.492
 6537SOL     OW20509   6.658   6.638   6.514
 6537SOL    HW120510   6.692   6.614   6.423
 6537SOL    HW220511   6.734   6.640   6.579
 6538SOL     OW20512   3.927   3.892   0.421
 6538SOL    HW120513   4.019   3.852   0.420
 6538SOL    HW220514   3.867   3.841   0.360
 6539SOL     OW20515   2.178   2.043   6.653
 6539SOL    HW120516   2.133   2.106   6.590
 6539SOL    HW220517   2.115   1.970   6.678
 6540SOL     OW20518   3.780   1.863   4.429
 6540SOL    HW120519   3.697   1.889   4.478
 6540SOL    HW220520   3.771   1.888   4.332
 6541SOL     OW20521   2.932   2.174   5.229
 6541SOL    HW120522   2.835   2.155   5.213
 6541SOL    HW220523   2.974   2.209   5.146
 6542SOL     OW20524   6.213   5.024   3.401
 6542SOL    HW120525   6.116   5.045   3.391
 6542SOL    HW220526   6.226   4.964   3.480
 6543SOL     OW20527   6.123   5.172   6.946
 6543SOL    HW120528   6.047   5.204   6.889
 6543SOL    HW220529   6.110   5.205   0.016
 6544SOL     OW20530   0.096   6.366   4.248
 6544SOL    HW120531   0.078   6.442   4.184
 6544SOL    HW220532   0.013   6.347   4.300
 6545SOL     OW20533   5.079   1.174   6.189
 6545SOL    HW120534   4.998   1.192   6.244
 6545SOL    HW220535   5.055   1.115   6.112
 6546SOL     OW20536   4.370   4.300   6.131
 6546SOL    HW120537   4.278   4.308   6.092
 6546SOL    HW220538   4.371   4.224   6.197
 6547SOL     OW20539   4.350   1.981   6.060
 6547SOL    HW120540   4.269   2.006   6.114
 6547SOL    HW220541   4.367   2.052   5.992
 6548SOL     OW20542   0.339   4.432   6.132
 6548SOL    HW120543   0.315   4.480   6.216
 6548SOL    HW220544   0.275   4.457   6.060
 6549SOL     OW20545   4.060   1.951   1.400
 6549SOL    HW120546   4.105   1.866   1.374
 6549SOL    HW220547   3.969   1.955   1.359
 6550SOL     OW20548   0.448   5.511   3.538
 6550SOL    HW120549   0.507   5.481   3.463
 6550SOL    HW220550   0.400   5.595   3.512
 6551SOL     OW20551   2.516   4.387   1.527
 6551SOL    HW120552   2.593   4.443   1.555
 6551SOL    HW220553   2.535   4.291   1.546
 6552SOL     OW20554   2.461   5.529   5.517
 6552SOL    HW120555   2.464   5.475   5.432
 6552SOL    HW220556   2.553   5.533   5.557
 6553SOL     OW20557   0.392   2.937   1.445
 6553SOL    HW120558   0.439   3.021   1.474
 6553SOL    HW220559   0.436   2.901   1.363
 6554SOL     OW20560   5.934   1.588   5.866
 6554SOL    HW120561   5.918   1.489   5.864
 6554SOL    HW220562   5.887   1.630   5.788
 6555SOL     OW20563   1.777   0.586   2.227
 6555SOL    HW120564   1.741   0.510   2.173
 6555SOL    HW220565   1.738   0.672   2.192
 6556SOL     OW20566   4.615   4.719   4.950
 6556SOL    HW120567   4.625   4.716   4.851
 6556SOL    HW220568   4.589   4.811   4.978
 6557SOL     OW20569   5.979   5.866   0.586
 6557SOL    HW120570   5.939   5.801   0.521
 6557SOL    HW220571   6.075   5.843   0.601
 6558SOL     OW20572   6.480   5.976   0.802
 6558SOL    HW120573   6.421   6.053   0.825
 6558SOL    HW220574   6.511   5.931   0.886
 6559SOL     OW20575   4.746   3.516   1.249
 6559SOL    HW120576   4.839   3.490   1.276
 6559SOL    HW220577   4.718   3.597   1.302
 6560SOL     OW20578   3.760   3.026   0.927
 6560SOL    HW120579   3.708   3.112   0.926
 6560SOL    HW220580   3.849   3.041   0.970
 6561SOL     OW20581   4.011   3.731   2.264
 6561SOL    HW120582   4.069   3.764   2.190
 6561SOL    HW220583   4.012   3.797   2.339
 6562SOL     OW20584   6.635   4.479   6.081
 6562SOL    HW120585   6.685   4.502   6.165
 6562SOL    HW220586   6.603   4.385   6.086
 6563SOL     OW20587   0.383   5.751   6.933
 6563SOL    HW120588   0.355   5.845   6.951
 6563SOL    HW220589   0.464   5.729   6.987
 6564SOL     OW20590   1.142   3.587   2.233
 6564SOL    HW120591   1.196   3.670   2.217
 6564SOL    HW220592   1.054   3.595   2.185
 6565SOL     OW20593   5.505   2.416   4.957
 6565SOL    HW120594   5.601   2.399   4.936
 6565SOL    HW220595   5.453   2.426   4.873
 6566SOL     OW20596   3.473   0.569   1.422
 6566SOL    HW120597   3.517   0.636   1.361
 6566SOL    HW220598   3.442   0.491   1.368
 6567SOL     OW20599   5.213   2.903   1.368
 6567SOL    HW120600   5.122   2.866   1.352
 6567SOL    HW220601   5.275   2.830   1.395
 6568SOL     OW20602   4.544   4.765   1.806
 6568SOL    HW120603   4.543   4.695   1.877
 6568SOL    HW220604   4.525   4.723   1.717
 6569SOL     OW20605   2.584   5.432   0.712
 6569SOL    HW120606   2.581   5.507   0.779
 6569SOL    HW220607   2.515   5.448   0.642
 6570SOL     OW20608   4.895   0.153   2.052
 6570SOL    HW120609   4.976   0.211   2.055
 6570SOL    HW220610   4.817   0.202   2.093
 6571SOL     OW20611   2.404   6.299   3.120
 6571SOL    HW120612   2.385   6.259   3.210
 6571SOL    HW220613   2.373   6.236   3.049
 6572SOL     OW20614   5.868   4.090   5.419
 6572SOL    HW120615   5.939   4.019   5.423
 6572SOL    HW220616   5.837   4.112   5.511
 6573SOL     OW20617   3.704   0.815   2.629
 6573SOL    HW120618   3.668   0.800   2.721
 6573SOL    HW220619   3.797   0.778   2.623
 6574SOL     OW20620   2.275   6.253   2.091
 6574SOL    HW120621   2.219   6.336   2.091
 6574SOL    HW220622   2.307   6.235   2.184
 6575SOL     OW20623   0.822   1.269   1.894
 6575SOL    HW120624   0.797   1.172   1.888
 6575SOL    HW220625   0.894   1.289   1.827
 6576SOL     OW20626   1.310   6.088   6.504
 6576SOL    HW120627   1.213   6.113   6.498
 6576SOL    HW220628   1.335   6.078   6.600
 6577SOL     OW20629   0.439   1.703   3.971
 6577SOL    HW120630   0.394   1.727   3.885
 6577SOL    HW220631   0.437   1.604   3.983
 6578SOL     OW20632   6.081   5.306   3.643
 6578SOL    HW120633   6.041   5.294   3.552
 6578SOL    HW220634   6.049   5.234   3.703
 6579SOL     OW20635   6.921   3.768   3.895
 6579SOL    HW120636   6.943   3.744   3.801
 6579SOL    HW220637   6.876   3.858   3.896
 6580SOL     OW20638   5.729   0.766   1.198
 6580SOL    HW120639   5.786   0.821   1.259
 6580SOL    HW220640   5.758   0.782   1.103
 6581SOL     OW20641   3.913   1.456   5.550
 6581SOL    HW120642   3.902   1.534   5.488
 6581SOL    HW220643   3.965   1.384   5.504
 6582SOL     OW20644   0.760   0.069   2.497
 6582SOL    HW120645   0.713   7.007   2.520
 6582SOL    HW220646   0.827   0.051   2.425
 6583SOL     OW20647   5.378   1.709   6.620
 6583SOL    HW120648   5.407   1.792   6.573
 6583SOL    HW220649   5.300   1.669   6.571
 6584SOL     OW20650   5.749   1.802   6.452
 6584SOL    HW120651   5.762   1.714   6.497
 6584SOL    HW220652   5.740   1.874   6.520
 6585SOL     OW20653   0.135   1.503   0.070
 6585SOL    HW120654   0.112   1.501   0.167
 6585SOL    HW220655   0.235   1.506   0.059
 6586SOL     OW20656   6.673   2.558   5.704
 6586SOL    HW120657   6.726   2.475   5.689
 6586SOL    HW220658   6.626   2.553   5.792
 6587SOL     OW20659   2.436   5.764   4.223
 6587SOL    HW120660   2.532   5.766   4.193
 6587SOL    HW220661   2.383   5.711   4.157
 6588SOL     OW20662   1.582   4.021   0.905
 6588SOL    HW120663   1.667   4.040   0.954
 6588SOL    HW220664   1.585   4.066   0.815
 6589SOL     OW20665   4.546   0.330   6.613
 6589SOL    HW120666   4.508   0.422   6.617
 6589SOL    HW220667   4.614   0.324   6.539
 6590SOL     OW20668   0.300   1.588   4.656
 6590SOL    HW120669   0.333   1.669   4.606
 6590SOL    HW220670   0.252   1.618   4.739
 6591SOL     OW20671   5.656   6.886   2.829
 6591SOL    HW120672   5.564   6.925   2.830
 6591SOL    HW220673   5.694   6.889   2.922
 6592SOL     OW20674   4.297   0.521   4.509
 6592SOL    HW120675   4.224   0.481   4.454
 6592SOL    HW220676   4.372   0.456   4.517
 6593SOL     OW20677   2.511   2.453   3.860
 6593SOL    HW120678   2.411   2.454   3.853
 6593SOL    HW220679   2.539   2.488   3.949
 6594SOL     OW20680   4.575   0.918   0.034
 6594SOL    HW120681   4.625   0.843   0.077
 6594SOL    HW220682   4.536   0.977   0.105
 6595SOL     OW20683   1.438   3.878   1.597
 6595SOL    HW120684   1.356   3.832   1.562
 6595SOL    HW220685   1.482   3.929   1.523
 6596SOL     OW20686   4.198   0.559   5.947
 6596SOL    HW120687   4.130   0.588   6.014
 6596SOL    HW220688   4.230   0.639   5.896
 6597SOL     OW20689   0.468   6.433   4.572
 6597SOL    HW120690   0.468   6.361   4.502
 6597SOL    HW220691   0.381   6.483   4.568
 6598SOL     OW20692   1.479   5.157   4.865
 6598SOL    HW120693   1.538   5.227   4.826
 6598SOL    HW220694   1.384   5.176   4.841
 6599SOL     OW20695   4.079   4.853   5.957
 6599SOL    HW120696   4.151   4.892   6.015
 6599SOL    HW220697   4.006   4.920   5.947
 6600SOL     OW20698   4.911   4.941   4.865
 6600SOL    HW120699   4.929   4.922   4.961
 6600SOL    HW220700   4.983   4.999   4.828
 6601SOL     OW20701   0.477   0.310   0.127
 6601SOL    HW120702   0.550   0.263   0.077
 6601SOL    HW220703   0.490   0.409   0.121
 6602SOL     OW20704   0.757   2.555   0.984
 6602SOL    HW120705   0.752   2.507   0.897
 6602SOL    HW220706   0.665   2.560   1.024
 6603SOL     OW20707   2.007   3.342   4.050
 6603SOL    HW120708   2.057   3.419   4.089
 6603SOL    HW220709   2.072   3.277   4.010
 6604SOL     OW20710   2.626   5.835   1.788
 6604SOL    HW120711   2.668   5.774   1.855
 6604SOL    HW220712   2.625   5.929   1.823
 6605SOL     OW20713   5.319   5.709   0.481
 6605SOL    HW120714   5.400   5.670   0.438
 6605SOL    HW220715   5.313   5.806   0.457
 6606SOL     OW20716   4.828   0.457   2.445
 6606SOL    HW120717   4.792   0.385   2.385
 6606SOL    HW220718   4.804   0.436   2.540
 6607SOL     OW20719   2.111   1.513   2.083
 6607SOL    HW120720   2.049   1.478   2.153
 6607SOL    HW220721   2.090   1.609   2.066
 6608SOL     OW20722   5.556   3.293   2.834
 6608SOL    HW120723   5.493   3.307   2.758
 6608SOL    HW220724   5.523   3.344   2.914
 6609SOL     OW20725   5.290   0.464   7.018
 6609SOL    HW120726   5.203   0.421   6.997
 6609SOL    HW220727   5.274   0.554   0.034
 6610SOL     OW20728   1.748   0.421   7.006
 6610SOL    HW120729   1.734   0.452   0.076
 6610SOL    HW220730   1.784   0.496   6.951
 6611SOL     OW20731   6.734   2.439   3.073
 6611SOL    HW120732   6.803   2.510   3.059
 6611SOL    HW220733   6.699   2.444   3.167
 6612SOL     OW20734   1.435   5.246   6.444
 6612SOL    HW120735   1.490   5.191   6.508
 6612SOL    HW220736   1.343   5.209   6.439
 6613SOL     OW20737   5.234   5.484   3.291
 6613SOL    HW120738   5.179   5.407   3.323
 6613SOL    HW220739   5.328   5.453   3.274
 6614SOL     OW20740   4.851   6.360   5.995
 6614SOL    HW120741   4.937   6.374   5.946
 6614SOL    HW220742   4.857   6.401   6.086
 6615SOL     OW20743   0.072   3.418   4.785
 6615SOL    HW120744   0.104   3.334   4.829
 6615SOL    HW220745   0.094   3.497   4.842
 6616SOL     OW20746   4.238   1.558   5.907
 6616SOL    HW120747   4.326   1.511   5.917
 6616SOL    HW220748   4.210   1.596   5.996
 6617SOL     OW20749   3.512   0.033   3.867
 6617SOL    HW120750   3.463   0.115   3.838
 6617SOL    HW220751   3.463   7.013   3.942
 6618SOL     OW20752   0.894   3.614   2.111
 6618SOL    HW120753   0.852   3.662   2.034
 6618SOL    HW220754   0.856   3.522   2.118
 6619SOL     OW20755   4.327   6.740   4.060
 6619SOL    HW120756   4.392   6.744   3.984
 6619SOL    HW220757   4.368   6.782   4.141
 6620SOL     OW20758   1.593   2.790   5.795
 6620SOL    HW120759   1.621   2.877   5.835
 6620SOL    HW220760   1.660   2.761   5.727
 6621SOL     OW20761   2.703   4.050   0.292
 6621SOL    HW120762   2.650   3.979   0.339
 6621SOL    HW220763   2.745   4.110   0.359
 6622SOL     OW20764   6.403   6.208   0.979
 6622SOL    HW120765   6.441   6.265   0.905
 6622SOL    HW220766   6.305   6.223   0.985
 6623SOL     OW20767   3.639   3.209   1.972
 6623SOL    HW120768   3.715   3.197   1.908
 6623SOL    HW220769   3.565   3.145   1.949
 6624SOL     OW20770   2.999   5.824   4.911
 6624SOL    HW120771   2.977   5.727   4.907
 6624SOL    HW220772   2.955   5.872   4.836
 6625SOL     OW20773   5.972   1.191   6.557
 6625SOL    HW120774   5.975   1.097   6.524
 6625SOL    HW220775   5.946   1.252   6.482
 6626SOL     OW20776   3.309   5.858   3.104
 6626SOL    HW120777   3.349   5.861   3.195
 6626SOL    HW220778   3.366   5.801   3.044
 6627SOL     OW20779   2.137   0.561   5.838
 6627SOL    HW120780   2.130   0.541   5.935
 6627SOL    HW220781   2.070   0.508   5.787
 6628SOL     OW20782   5.117   4.776   2.621
 6628SOL    HW120783   5.033   4.737   2.583
 6628SOL    HW220784   5.185   4.704   2.632
 6629SOL     OW20785   3.209   6.099   1.030
 6629SOL    HW120786   3.128   6.129   1.080
 6629SOL    HW220787   3.291   6.122   1.082
 6630SOL     OW20788   3.548   1.182   0.253
 6630SOL    HW120789   3.615   1.215   0.320
 6630SOL    HW220790   3.460   1.168   0.298
 6631SOL     OW20791   4.603   0.373   2.022
 6631SOL    HW120792   4.511   0.402   1.994
 6631SOL    HW220793   4.665   0.452   2.017
 6632SOL     OW20794   0.057   1.696   1.016
 6632SOL    HW120795   0.007   1.676   0.933
 6632SOL    HW220796   0.082   1.611   1.062
 6633SOL     OW20797   1.169   5.797   6.622
 6633SOL    HW120798   1.102   5.871   6.627
 6633SOL    HW220799   1.209   5.794   6.530
 6634SOL     OW20800   6.454   3.085   6.086
 6634SOL    HW120801   6.546   3.105   6.051
 6634SOL    HW220802   6.396   3.166   6.075
 6635SOL     OW20803   4.282   5.143   3.226
 6635SOL    HW120804   4.329   5.068   3.178
 6635SOL    HW220805   4.227   5.105   3.300
 6636SOL     OW20806   1.157   3.607   5.685
 6636SOL    HW120807   1.175   3.704   5.667
 6636SOL    HW220808   1.217   3.551   5.627
 6637SOL     OW20809   1.187   0.669   0.147
 6637SOL    HW120810   1.128   0.749   0.150
 6637SOL    HW220811   1.210   0.640   0.240
 6638SOL     OW20812   2.967   5.170   4.988
 6638SOL    HW120813   2.892   5.152   5.052
 6638SOL    HW220814   2.965   5.103   4.914
 6639SOL     OW20815   5.709   5.323   6.185
 6639SOL    HW120816   5.761   5.312   6.269
 6639SOL    HW220817   5.614   5.295   6.200
 6640SOL     OW20818   6.980   1.607   4.324
 6640SOL    HW120819   6.892   1.562   4.345
 6640SOL    HW220820   0.002   1.629   4.410
 6641SOL     OW20821   3.250   3.917   6.647
 6641SOL    HW120822   3.320   3.968   6.596
 6641SOL    HW220823   3.178   3.889   6.584
 6642SOL     OW20824   2.154   5.307   6.988
 6642SOL    HW120825   2.252   5.319   6.976
 6642SOL    HW220826   2.123   5.228   6.934
 6643SOL     OW20827   6.189   4.445   6.456
 6643SOL    HW120828   6.185   4.486   6.547
 6643SOL    HW220829   6.284   4.444   6.425
 6644SOL     OW20830   2.945   4.795   1.796
 6644SOL    HW120831   2.920   4.730   1.868
 6644SOL    HW220832   2.864   4.822   1.746
 6645SOL     OW20833   6.876   4.921   0.074
 6645SOL    HW120834   6.954   4.887   0.022
 6645SOL    HW220835   6.839   5.002   0.029
 6646SOL     OW20836   4.025   5.552   4.295
 6646SOL    HW120837   3.992   5.583   4.206
 6646SOL    HW220838   4.039   5.632   4.354
 6647SOL     OW20839   3.130   0.766   2.768
 6647SOL    HW120840   3.124   0.698   2.695
 6647SOL    HW220841   3.073   0.845   2.745
 6648SOL     OW20842   4.112   5.591   2.898
 6648SOL    HW120843   4.186   5.540   2.941
 6648SOL    HW220844   4.084   5.545   2.814
 6649SOL     OW20845   5.326   2.261   6.200
 6649SOL    HW120846   5.379   2.340   6.231
 6649SOL    HW220847   5.322   2.261   6.100
 6650SOL     OW20848   4.110   1.201   2.959
 6650SOL    HW120849   4.145   1.289   2.928
 6650SOL    HW220850   4.023   1.182   2.913
 6651SOL     OW20851   1.640   2.192   0.459
 6651SOL    HW120852   1.676   2.140   0.381
 6651SOL    HW220853   1.633   2.131   0.539
 6652SOL     OW20854   6.781   4.183   1.168
 6652SOL    HW120855   6.792   4.094   1.125
 6652SOL    HW220856   6.710   4.235   1.120
 6653SOL     OW20857   3.780   4.090   3.151
 6653SOL    HW120858   3.859   4.069   3.208
 6653SOL    HW220859   3.697   4.081   3.206
 6654SOL     OW20860   1.824   2.703   1.135
 6654SOL    HW120861   1.769   2.754   1.201
 6654SOL    HW220862   1.780   2.707   1.045
 6655SOL     OW20863   2.957   6.674   1.963
 6655SOL    HW120864   2.875   6.693   2.017
 6655SOL    HW220865   3.037   6.672   2.023
 6656SOL     OW20866   6.653   0.707   2.771
 6656SOL    HW120867   6.723   0.643   2.739
 6656SOL    HW220868   6.565   0.660   2.779
 6657SOL     OW20869   4.365   6.848   6.265
 6657SOL    HW120870   4.443   6.881   6.212
 6657SOL    HW220871   4.328   6.923   6.319
 6658SOL     OW20872   6.036   0.886   5.108
 6658SOL    HW120873   6.022   0.963   5.046
 6658SOL    HW220874   6.119   0.837   5.082
 6659SOL     OW20875   2.774   2.781   0.145
 6659SOL    HW120876   2.747   2.743   0.234
 6659SOL    HW220877   2.735   2.872   0.134
 6660SOL     OW20878   0.025   6.686   1.697
 6660SOL    HW120879   7.023   6.677   1.793
 6660SOL    HW220880   7.012   6.772   1.661
 6661SOL     OW20881   6.305   5.028   3.853
 6661SOL    HW120882   6.279   5.022   3.949
 6661SOL    HW220883   6.371   5.103   3.841
 6662SOL     OW20884   1.842   1.087   0.300
 6662SOL    HW120885   1.853   0.992   0.268
 6662SOL    HW220886   1.927   1.117   0.342
 6663SOL     OW20887   6.800   5.573   3.505
 6663SOL    HW120888   6.708   5.600   3.475
 6663SOL    HW220889   6.862   5.651   3.499
 6664SOL     OW20890   1.560   0.232   1.750
 6664SOL    HW120891   1.504   0.150   1.735
 6664SOL    HW220892   1.547   0.295   1.674
 6665SOL     OW20893   0.840   6.914   3.441
 6665SOL    HW120894   0.908   6.987   3.452
 6665SOL    HW220895   0.750   6.954   3.427
 6666SOL     OW20896   6.624   1.625   5.124
 6666SOL    HW120897   6.603   1.530   5.148
 6666SOL    HW220898   6.631   1.679   5.208
 6667SOL     OW20899   6.001   5.353   5.248
 6667SOL    HW120900   6.096   5.336   5.225
 6667SOL    HW220901   5.992   5.441   5.294
 6668SOL     OW20902   0.194   5.599   2.042
 6668SOL    HW120903   0.219   5.689   2.076
 6668SOL    HW220904   0.190   5.534   2.118
 6669SOL     OW20905   2.206   4.704   3.430
 6669SOL    HW120906   2.139   4.688   3.503
 6669SOL    HW220907   2.237   4.617   3.394
 6670SOL     OW20908   3.562   4.633   6.764
 6670SOL    HW120909   3.545   4.570   6.688
 6670SOL    HW220910   3.634   4.697   6.738
 6671SOL     OW20911   5.661   4.605   0.083
 6671SOL    HW120912   5.585   4.586   0.145
 6671SOL    HW220913   5.667   4.704   0.068
 6672SOL     OW20914   1.385   0.800   5.812
 6672SOL    HW120915   1.428   0.815   5.901
 6672SOL    HW220916   1.289   0.828   5.817
 6673SOL     OW20917   5.218   5.721   2.702
 6673SOL    HW120918   5.314   5.751   2.696
 6673SOL    HW220919   5.181   5.712   2.609
 6674SOL     OW20920   0.836   6.007   5.890
 6674SOL    HW120921   0.743   5.987   5.921
 6674SOL    HW220922   0.861   6.101   5.915
 6675SOL     OW20923   5.504   3.959   0.940
 6675SOL    HW120924   5.454   3.984   1.023
 6675SOL    HW220925   5.561   3.879   0.957
 6676SOL     OW20926   0.669   3.414   5.233
 6676SOL    HW120927   0.672   3.371   5.323
 6676SOL    HW220928   0.706   3.352   5.165
 6677SOL     OW20929   0.046   3.078   0.155
 6677SOL    HW120930   6.971   3.063   0.145
 6677SOL    HW220931   0.062   3.154   0.218
 6678SOL     OW20932   1.174   3.098   6.451
 6678SOL    HW120933   1.273   3.110   6.454
 6678SOL    HW220934   1.150   3.028   6.383
 6679SOL     OW20935   1.369   1.936   5.133
 6679SOL    HW120936   1.350   1.839   5.147
 6679SOL    HW220937   1.314   1.971   5.057
 6680SOL     OW20938   3.642   5.568   6.162
 6680SOL    HW120939   3.693   5.561   6.248
 6680SOL    HW220940   3.703   5.603   6.091
 6681SOL     OW20941   5.254   5.823   6.866
 6681SOL    HW120942   5.329   5.825   6.931
 6681SOL    HW220943   5.289   5.802   6.775
 6682SOL     OW20944   0.441   4.539   2.763
 6682SOL    HW120945   0.347   4.523   2.734
 6682SOL    HW220946   0.449   4.629   2.805
 6683SOL     OW20947   5.222   2.173   5.303
 6683SOL    HW120948   5.206   2.145   5.398
 6683SOL    HW220949   5.319   2.197   5.292
 6684SOL     OW20950   1.840   6.950   2.633
 6684SOL    HW120951   1.791   6.930   2.548
 6684SOL    HW220952   1.925   6.898   2.636
 6685SOL     OW20953   5.850   2.291   6.382
 6685SOL    HW120954   5.877   2.247   6.468
 6685SOL    HW220955   5.804   2.224   6.324
 6686SOL     OW20956   6.071   4.106   4.507
 6686SOL    HW120957   6.098   4.013   4.481
 6686SOL    HW220958   5.973   4.117   4.492
 6687SOL     OW20959   1.427   1.504   1.177
 6687SOL    HW120960   1.383   1.544   1.258
 6687SOL    HW220961   1.376   1.423   1.148
 6688SOL     OW20962   0.390   4.425   3.002
 6688SOL    HW120963   0.308   4.480   2.985
 6688SOL    HW220964   0.455   4.440   2.928
 6689SOL     OW20965   4.711   3.264   1.269
 6689SOL    HW120966   4.718   3.361   1.244
 6689SOL    HW220967   4.697   3.256   1.368
 6690SOL     OW20968   2.428   2.388   1.457
 6690SOL    HW120969   2.499   2.451   1.489
 6690SOL    HW220970   2.345   2.401   1.512
 6691SOL     OW20971   2.364   5.662   1.395
 6691SOL    HW120972   2.451   5.661   1.444
 6691SOL    HW220973   2.376   5.618   1.305
 6692SOL     OW20974   2.896   4.265   5.310
 6692SOL    HW120975   2.977   4.264   5.370
 6692SOL    HW220976   2.875   4.358   5.284
 6693SOL     OW20977   4.795   3.573   6.267
 6693SOL    HW120978   4.735   3.565   6.346
 6693SOL    HW220979   4.767   3.509   6.195
 6694SOL     OW20980   4.592   6.412   0.519
 6694SOL    HW120981   4.657   6.485   0.543
 6694SOL    HW220982   4.501   6.438   0.549
 6695SOL     OW20983   0.716   1.439   6.692
 6695SOL    HW120984   0.717   1.403   6.785
 6695SOL    HW220985   0.639   1.400   6.642
 6696SOL     OW20986   2.113   2.665   1.521
 6696SOL    HW120987   2.194   2.656   1.462
 6696SOL    HW220988   2.134   2.726   1.597
 6697SOL     OW20989   4.843   1.503   2.466
 6697SOL    HW120990   4.787   1.583   2.490
 6697SOL    HW220991   4.932   1.509   2.513
 6698SOL     OW20992   4.033   2.842   0.698
 6698SOL    HW120993   4.112   2.801   0.653
 6698SOL    HW220994   3.957   2.776   0.699
 6699SOL     OW20995   3.698   4.870   6.696
 6699SOL    HW120996   3.788   4.860   6.737
 6699SOL    HW220997   3.647   4.942   6.744
 6700SOL     OW20998   0.388   5.633   1.073
 6700SOL    HW120999   0.336   5.679   1.000
 6700SOL    HW221000   0.346   5.653   1.161
 6701SOL     OW21001   6.380   1.990   1.013
 6701SOL    HW121002   6.423   2.045   0.941
 6701SOL    HW221003   6.337   1.909   0.972
 6702SOL     OW21004   3.173   1.993   0.344
 6702SOL    HW121005   3.206   2.076   0.389
 6702SOL    HW221006   3.245   1.923   0.345
 6703SOL     OW21007   6.326   1.848   6.668
 6703SOL    HW121008   6.240   1.802   6.690
 6703SOL    HW221009   6.392   1.780   6.635
 6704SOL     OW21010   4.392   2.204   2.442
 6704SOL    HW121011   4.457   2.276   2.418
 6704SOL    HW221012   4.335   2.182   2.363
 6705SOL     OW21013   6.733   2.170   1.915
 6705SOL    HW121014   6.736   2.268   1.894
 6705SOL    HW221015   6.648   2.150   1.964
 6706SOL     OW21016   0.858   3.494   0.593
 6706SOL    HW121017   0.932   3.433   0.622
 6706SOL    HW221018   0.813   3.533   0.674
 6707SOL     OW21019   6.076   5.993   4.629
 6707SOL    HW121020   6.035   5.998   4.538
 6707SOL    HW221021   6.173   6.013   4.623
 6708SOL     OW21022   1.443   5.553   2.308
 6708SOL    HW121023   1.402   5.595   2.227
 6708SOL    HW221024   1.459   5.456   2.290
 6709SOL     OW21025   3.766   6.596   1.781
 6709SOL    HW121026   3.854   6.551   1.767
 6709SOL    HW221027   3.693   6.528   1.786
 6710SOL     OW21028   2.906   2.526   6.261
 6710SOL    HW121029   2.825   2.529   6.320
 6710SOL    HW221030   2.903   2.603   6.197
 6711SOL     OW21031   4.893   4.140   6.642
 6711SOL    HW121032   4.945   4.225   6.653
 6711SOL    HW221033   4.930   4.088   6.565
 6712SOL     OW21034   4.012   5.500   0.203
 6712SOL    HW121035   4.036   5.561   0.279
 6712SOL    HW221036   4.010   5.406   0.236
 6713SOL     OW21037   2.815   1.993   1.645
 6713SOL    HW121038   2.792   2.057   1.572
 6713SOL    HW221039   2.744   1.995   1.715
 6714SOL     OW21040   5.002   0.242   5.086
 6714SOL    HW121041   4.959   0.164   5.133
 6714SOL    HW221042   5.006   0.320   5.148
 6715SOL     OW21043   1.002   1.894   0.496
 6715SOL    HW121044   1.067   1.822   0.472
 6715SOL    HW221045   0.932   1.901   0.425
 6716SOL     OW21046   1.809   6.106   1.006
 6716SOL    HW121047   1.823   6.202   1.029
 6716SOL    HW221048   1.884   6.074   0.948
 6717SOL     OW21049   3.559   3.904   0.299
 6717SOL    HW121050   3.572   3.997   0.264
 6717SOL    HW221051   3.647   3.858   0.307
 6718SOL     OW21052   3.478   6.152   6.486
 6718SOL    HW121053   3.457   6.097   6.567
 6718SOL    HW221054   3.501   6.092   6.410
 6719SOL     OW21055   0.506   6.720   5.715
 6719SOL    HW121056   0.450   6.688   5.792
 6719SOL    HW221057   0.492   6.659   5.637
 6720SOL     OW21058   2.060   5.984   1.829
 6720SOL    HW121059   1.986   5.962   1.891
 6720SOL    HW221060   2.121   5.905   1.820
 6721SOL     OW21061   5.386   6.148   4.461
 6721SOL    HW121062   5.409   6.067   4.407
 6721SOL    HW221063   5.308   6.194   4.419
 6722SOL     OW21064   4.821   3.209   0.396
 6722SOL    HW121065   4.911   3.170   0.415
 6722SOL    HW221066   4.831   3.294   0.346
 6723SOL     OW21067   2.286   6.703   3.049
 6723SOL    HW121068   2.349   6.703   3.127
 6723SOL    HW221069   2.278   6.796   3.013
 6724SOL     OW21070   2.736   4.479   5.859
 6724SOL    HW121071   2.729   4.487   5.760
 6724SOL    HW221072   2.653   4.517   5.901
 6725SOL     OW21073   1.183   4.791   2.401
 6725SOL    HW121074   1.127   4.771   2.482
 6725SOL    HW221075   1.187   4.711   2.342
 6726SOL     OW21076   2.102   3.155   4.621
 6726SOL    HW121077   2.123   3.124   4.714
 6726SOL    HW221078   2.101   3.255   4.619
 6727SOL     OW21079   4.928   3.540   6.607
 6727SOL    HW121080   4.876   3.618   6.641
 6727SOL    HW221081   4.946   3.553   6.509
 6728SOL     OW21082   3.718   2.160   4.430
 6728SOL    HW121083   3.816   2.158   4.410
 6728SOL    HW221084   3.667   2.130   4.350
 6729SOL     OW21085   6.804   0.510   2.615
 6729SOL    HW121086   6.768   0.530   2.524
 6729SOL    HW221087   6.899   0.478   2.608
 6730SOL     OW21088   2.588   0.252   0.149
 6730SOL    HW121089   2.625   0.226   0.060
 6730SOL    HW221090   2.656   0.305   0.199
 6731SOL     OW21091   2.696   4.255   1.218
 6731SOL    HW121092   2.618   4.238   1.278
 6731SOL    HW221093   2.767   4.304   1.270
 6732SOL     OW21094   2.319   6.342   0.452
 6732SOL    HW121095   2.323   6.395   0.368
 6732SOL    HW221096   2.353   6.398   0.528
 6733SOL     OW21097   4.338   5.551   5.759
 6733SOL    HW121098   4.305   5.489   5.831
 6733SOL    HW221099   4.262   5.608   5.727
 6734SOL     OW21100   1.135   3.448   5.949
 6734SOL    HW121101   1.153   3.427   6.045
 6734SOL    HW221102   1.218   3.482   5.906
 6735SOL     OW21103   7.014   4.782   5.835
 6735SOL    HW121104   6.973   4.873   5.827
 6735SOL    HW221105   6.953   4.723   5.888
 6736SOL     OW21106   2.639   3.145   1.608
 6736SOL    HW121107   2.716   3.188   1.656
 6736SOL    HW221108   2.607   3.066   1.659
 6737SOL     OW21109   1.874   1.464   2.241
 6737SOL    HW121110   1.883   1.473   2.340
 6737SOL    HW221111   1.783   1.494   2.213
 6738SOL     OW21112   2.190   1.632   2.514
 6738SOL    HW121113   2.259   1.698   2.544
 6738SOL    HW221114   2.133   1.674   2.443
 6739SOL     OW21115   4.126   6.154   4.938
 6739SOL    HW121116   4.046   6.191   4.985
 6739SOL    HW221117   4.110   6.157   4.839
 6740SOL     OW21118   1.449   0.898   4.462
 6740SOL    HW121119   1.492   0.988   4.472
 6740SOL    HW221120   1.436   0.857   4.552
 6741SOL     OW21121   5.830   0.837   6.125
 6741SOL    HW121122   5.899   0.891   6.173
 6741SOL    HW221123   5.838   0.852   6.026
 6742SOL     OW21124   6.566   5.696   5.451
 6742SOL    HW121125   6.523   5.743   5.528
 6742SOL    HW221126   6.633   5.756   5.408
 6743SOL     OW21127   4.070   3.638   1.121
 6743SOL    HW121128   4.165   3.660   1.098
 6743SOL    HW221129   4.068   3.579   1.201
 6744SOL     OW21130   4.359   4.568   5.527
 6744SOL    HW121131   4.281   4.613   5.571
 6744SOL    HW221132   4.441   4.582   5.582
 6745SOL     OW21133   0.849   4.999   2.986
 6745SOL    HW121134   0.922   4.941   3.021
 6745SOL    HW221135   0.857   5.091   3.024
 6746SOL     OW21136   0.785   1.969   1.314
 6746SOL    HW121137   0.762   2.066   1.301
 6746SOL    HW221138   0.763   1.942   1.408
 6747SOL     OW21139   5.357   5.683   4.776
 6747SOL    HW121140   5.276   5.642   4.818
 6747SOL    HW221141   5.334   5.714   4.684
 6748SOL     OW21142   0.939   0.445   2.493
 6748SOL    HW121143   0.885   0.431   2.410
 6748SOL    HW221144   1.020   0.500   2.473
 6749SOL     OW21145   3.935   0.724   6.971
 6749SOL    HW121146   3.939   0.823   6.962
 6749SOL    HW221147   3.893   0.700   0.035
 6750SOL     OW21148   2.679   2.419   4.777
 6750SOL    HW121149   2.683   2.370   4.690
 6750SOL    HW221150   2.747   2.493   4.777
 6751SOL     OW21151   2.339   2.348   4.689
 6751SOL    HW121152   2.268   2.371   4.622
 6751SOL    HW221153   2.377   2.432   4.728
 6752SOL     OW21154   5.429   3.048   0.866
 6752SOL    HW121155   5.385   2.961   0.884
 6752SOL    HW221156   5.469   3.084   0.950
 6753SOL     OW21157   4.074   1.878   6.553
 6753SOL    HW121158   4.010   1.838   6.488
 6753SOL    HW221159   4.135   1.807   6.587
 6754SOL     OW21160   6.151   1.588   6.325
 6754SOL    HW121161   6.196   1.574   6.237
 6754SOL    HW221162   6.217   1.578   6.399
 6755SOL     OW21163   5.028   2.032   3.507
 6755SOL    HW121164   5.065   2.016   3.598
 6755SOL    HW221165   5.084   2.102   3.461
 6756SOL     OW21166   5.106   4.692   4.015
 6756SOL    HW121167   5.177   4.701   3.945
 6756SOL    HW221168   5.048   4.613   3.994
 6757SOL     OW21169   5.468   6.177   1.907
 6757SOL    HW121170   5.451   6.263   1.955
 6757SOL    HW221171   5.509   6.111   1.970
 6758SOL     OW21172   5.248   3.334   2.364
 6758SOL    HW121173   5.222   3.430   2.355
 6758SOL    HW221174   5.329   3.315   2.308
 6759SOL     OW21175   1.427   4.980   2.800
 6759SOL    HW121176   1.427   5.079   2.818
 6759SOL    HW221177   1.498   4.958   2.733
 6760SOL     OW21178   6.851   4.317   4.191
 6760SOL    HW121179   6.782   4.297   4.121
 6760SOL    HW221180   6.897   4.403   4.169
 6761SOL     OW21181   5.085   3.200   5.625
 6761SOL    HW121182   5.025   3.141   5.680
 6761SOL    HW221183   5.069   3.295   5.649
 6762SOL     OW21184   6.577   4.240   3.346
 6762SOL    HW121185   6.584   4.147   3.310
 6762SOL    HW221186   6.661   4.290   3.325
 6763SOL     OW21187   6.107   6.802   5.446
 6763SOL    HW121188   6.185   6.778   5.388
 6763SOL    HW221189   6.028   6.746   5.420
 6764SOL     OW21190   2.995   3.818   6.591
 6764SOL    HW121191   2.928   3.785   6.525
 6764SOL    HW221192   2.978   3.776   6.680
 6765SOL     OW21193   6.310   4.031   2.623
 6765SOL    HW121194   6.296   3.942   2.580
 6765SOL    HW221195   6.303   4.103   2.554
 6766SOL     OW21196   2.225   0.755   5.208
 6766SOL    HW121197   2.284   0.797   5.139
 6766SOL    HW221198   2.140   0.806   5.215
 6767SOL     OW21199   0.896   2.631   6.274
 6767SOL    HW121200   0.810   2.594   6.308
 6767SOL    HW221201   0.970   2.567   6.295
 6768SOL     OW21202   0.421   0.043   4.153
 6768SOL    HW121203   0.388   0.015   4.243
 6768SOL    HW221204   0.357   0.109   4.113
 6769SOL     OW21205   2.019   2.688   5.237
 6769SOL    HW121206   1.923   2.685   5.208
 6769SOL    HW221207   2.055   2.781   5.224
 6770SOL     OW21208   0.434   1.514   3.285
 6770SOL    HW121209   0.366   1.543   3.352
 6770SOL    HW221210   0.489   1.593   3.256
 6771SOL     OW21211   3.584   2.105   3.596
 6771SOL    HW121212   3.541   2.183   3.640
 6771SOL    HW221213   3.514   2.046   3.557
 6772SOL     OW21214   6.728   1.497   2.678
 6772SOL    HW121215   6.785   1.448   2.613
 6772SOL    HW221216   6.631   1.476   2.661
 6773SOL     OW21217   0.424   6.182   2.055
 6773SOL    HW121218   0.388   6.244   2.125
 6773SOL    HW221219   0.406   6.219   1.964
 6774SOL     OW21220   2.285   2.667   5.610
 6774SOL    HW121221   2.262   2.757   5.646
 6774SOL    HW221222   2.359   2.627   5.664
 6775SOL     OW21223   0.611   2.230   4.870
 6775SOL    HW121224   0.629   2.138   4.904
 6775SOL    HW221225   0.514   2.251   4.883
 6776SOL     OW21226   3.545   4.072   2.514
 6776SOL    HW121227   3.523   4.130   2.592
 6776SOL    HW221228   3.483   4.094   2.438
 6777SOL     OW21229   5.607   5.300   0.775
 6777SOL    HW121230   5.608   5.222   0.837
 6777SOL    HW221231   5.688   5.357   0.791
 6778SOL     OW21232   0.150   4.959   2.494
 6778SOL    HW121233   0.249   4.945   2.488
 6778SOL    HW221234   0.107   4.926   2.410
 6779SOL     OW21235   5.657   4.091   5.921
 6779SOL    HW121236   5.655   4.108   6.020
 6779SOL    HW221237   5.605   4.162   5.875
 6780SOL     OW21238   2.718   2.017   2.775
 6780SOL    HW121239   2.740   1.968   2.691
 6780SOL    HW221240   2.767   2.104   2.777
 6781SOL     OW21241   0.010   1.266   4.127
 6781SOL    HW121242   0.014   1.360   4.092
 6781SOL    HW221243   0.031   1.202   4.052
 6782SOL     OW21244   6.797   1.748   3.323
 6782SOL    HW121245   6.766   1.815   3.256
 6782SOL    HW221246   6.891   1.721   3.303
 6783SOL     OW21247   1.644   4.774   5.079
 6783SOL    HW121248   1.736   4.811   5.065
 6783SOL    HW221249   1.592   4.780   4.995
 6784SOL     OW21250   2.286   3.998   1.359
 6784SOL    HW121251   2.225   3.990   1.438
 6784SOL    HW221252   2.275   3.918   1.300
 6785SOL     OW21253   5.057   5.053   4.324
 6785SOL    HW121254   5.088   4.960   4.304
 6785SOL    HW221255   4.984   5.078   4.260
 6786SOL     OW21256   6.567   2.369   6.999
 6786SOL    HW121257   6.578   2.450   0.032
 6786SOL    HW221258   6.601   2.387   6.907
 6787SOL     OW21259   3.906   2.035   6.310
 6787SOL    HW121260   3.820   2.087   6.310
 6787SOL    HW221261   3.886   1.939   6.328
 6788SOL     OW21262   6.330   4.266   2.958
 6788SOL    HW121263   6.331   4.282   3.057
 6788SOL    HW221264   6.265   4.192   2.937
 6789SOL     OW21265   6.146   3.828   3.972
 6789SOL    HW121266   6.192   3.887   4.039
 6789SOL    HW221267   6.167   3.733   3.992
 6790SOL     OW21268   0.723   5.028   5.884
 6790SOL    HW121269   0.657   5.095   5.917
 6790SOL    HW221270   0.771   5.065   5.804
 6791SOL     OW21271   3.589   0.594   3.410
 6791SOL    HW121272   3.537   0.678   3.427
 6791SOL    HW221273   3.620   0.556   3.498
 6792SOL     OW21274   4.032   6.819   5.520
 6792SOL    HW121275   4.131   6.833   5.524
 6792SOL    HW221276   3.986   6.900   5.558
 6793SOL     OW21277   1.862   3.690   0.147
 6793SOL    HW121278   1.908   3.657   0.065
 6793SOL    HW221279   1.912   3.658   0.228
 6794SOL     OW21280   4.973   1.730   5.515
 6794SOL    HW121281   4.964   1.764   5.608
 6794SOL    HW221282   5.055   1.672   5.508
 6795SOL     OW21283   0.956   1.175   0.970
 6795SOL    HW121284   1.021   1.192   0.895
 6795SOL    HW221285   0.884   1.244   0.968
 6796SOL     OW21286   6.767   0.870   2.969
 6796SOL    HW121287   6.760   0.960   2.925
 6796SOL    HW221288   6.716   0.803   2.915
 6797SOL     OW21289   0.994   2.734   1.076
 6797SOL    HW121290   0.901   2.704   1.055
 6797SOL    HW221291   0.994   2.786   1.162
 6798SOL     OW21292   5.181   0.436   1.284
 6798SOL    HW121293   5.251   0.374   1.250
 6798SOL    HW221294   5.191   0.525   1.241
 6799SOL     OW21295   6.035   0.567   3.356
 6799SOL    HW121296   6.119   0.512   3.360
 6799SOL    HW221297   5.964   0.514   3.309
 6800SOL     OW21298   0.147   1.932   1.742
 6800SOL    HW121299   0.087   2.004   1.777
 6800SOL    HW221300   0.104   1.890   1.662
 6801SOL     OW21301   0.850   5.928   5.620
 6801SOL    HW121302   0.866   5.972   5.708
 6801SOL    HW221303   0.934   5.884   5.589
 6802SOL     OW21304   2.876   4.941   2.227
 6802SOL    HW121305   2.859   4.843   2.228
 6802SOL    HW221306   2.809   4.987   2.286
 6803SOL     OW21307   5.030   4.995   5.967
 6803SOL    HW121308   5.122   4.998   6.005
 6803SOL    HW221309   5.010   4.902   5.935
 6804SOL     OW21310   3.434   5.085   3.028
 6804SOL    HW121311   3.459   5.127   3.115
 6804SOL    HW221312   3.478   5.135   2.953
 6805SOL     OW21313   0.005   4.207   5.370
 6805SOL    HW121314   0.011   4.115   5.331
 6805SOL    HW221315   6.934   4.229   5.389
 6806SOL     OW21316   0.052   1.973   2.417
 6806SOL    HW121317   0.007   2.019   2.495
 6806SOL    HW221318   7.010   1.914   2.371
 6807SOL     OW21319   3.026   3.923   1.870
 6807SOL    HW121320   2.991   3.988   1.937
 6807SOL    HW221321   3.004   3.830   1.899
 6808SOL     OW21322   3.480   1.199   4.443
 6808SOL    HW121323   3.478   1.190   4.343
 6808SOL    HW221324   3.573   1.222   4.472
 6809SOL     OW21325   5.542   3.276   1.373
 6809SOL    HW121326   5.511   3.369   1.389
 6809SOL    HW221327   5.470   3.212   1.397
 6810SOL     OW21328   2.473   0.387   3.931
 6810SOL    HW121329   2.518   0.309   3.975
 6810SOL    HW221330   2.505   0.394   3.836
 6811SOL     OW21331   6.765   1.262   1.259
 6811SOL    HW121332   6.822   1.242   1.179
 6811SOL    HW221333   6.818   1.316   1.325
 6812SOL     OW21334   3.571   3.878   5.090
 6812SOL    HW121335   3.510   3.956   5.075
 6812SOL    HW221336   3.589   3.869   5.188
 6813SOL     OW21337   6.016   3.945   1.901
 6813SOL    HW121338   6.066   4.005   1.963
 6813SOL    HW221339   5.927   3.986   1.880
 6814SOL     OW21340   5.313   0.942   6.764
 6814SOL    HW121341   5.315   0.994   6.679
 6814SOL    HW221342   5.224   0.954   6.808
 6815SOL     OW21343   1.862   5.162   5.545
 6815SOL    HW121344   1.876   5.085   5.607
 6815SOL    HW221345   1.791   5.138   5.478
 6816SOL     OW21346   0.637   0.904   3.082
 6816SOL    HW121347   0.660   0.812   3.112
 6816SOL    HW221348   0.719   0.961   3.083
 6817SOL     OW21349   3.672   2.091   2.272
 6817SOL    HW121350   3.688   2.137   2.185
 6817SOL    HW221351   3.625   2.005   2.256
 6818SOL     OW21352   1.859   0.040   5.358
 6818SOL    HW121353   1.782   7.004   5.378
 6818SOL    HW221354   1.909   0.058   5.442
 6819SOL     OW21355   4.998   4.569   1.523
 6819SOL    HW121356   4.994   4.475   1.489
 6819SOL    HW221357   5.015   4.568   1.622
 6820SOL     OW21358   2.891   6.142   1.634
 6820SOL    HW121359   2.906   6.048   1.603
 6820SOL    HW221360   2.909   6.148   1.732
 6821SOL     OW21361   4.100   2.731   5.346
 6821SOL    HW121362   4.120   2.657   5.282
 6821SOL    HW221363   4.170   2.732   5.419
 6822SOL     OW21364   6.660   2.789   6.469
 6822SOL    HW121365   6.737   2.751   6.520
 6822SOL    HW221366   6.694   2.849   6.397
 6823SOL     OW21367   6.087   3.282   6.168
 6823SOL    HW121368   6.009   3.337   6.140
 6823SOL    HW221369   6.172   3.332   6.148
 6824SOL     OW21370   0.642   1.339   5.690
 6824SOL    HW121371   0.664   1.244   5.712
 6824SOL    HW221372   0.579   1.375   5.759
 6825SOL     OW21373   5.948   4.794   1.374
 6825SOL    HW121374   5.865   4.779   1.320
 6825SOL    HW221375   5.928   4.776   1.471
 6826SOL     OW21376   6.917   3.911   3.371
 6826SOL    HW121377   6.959   4.001   3.364
 6826SOL    HW221378   6.976   3.850   3.423
 6827SOL     OW21379   4.350   5.803   4.524
 6827SOL    HW121380   4.382   5.823   4.616
 6827SOL    HW221381   4.253   5.778   4.527
 6828SOL     OW21382   2.782   1.933   2.537
 6828SOL    HW121383   2.694   1.924   2.491
 6828SOL    HW221384   2.842   1.991   2.482
 6829SOL     OW21385   4.241   6.917   4.548
 6829SOL    HW121386   4.163   6.976   4.529
 6829SOL    HW221387   4.220   6.824   4.517
 6830SOL     OW21388   4.863   0.242   3.313
 6830SOL    HW121389   4.879   0.291   3.228
 6830SOL    HW221390   4.897   0.148   3.304
 6831SOL     OW21391   1.543   1.613   6.147
 6831SOL    HW121392   1.591   1.558   6.078
 6831SOL    HW221393   1.583   1.704   6.151
 6832SOL     OW21394   3.041   2.730   0.134
 6832SOL    HW121395   3.064   2.634   0.119
 6832SOL    HW221396   2.942   2.741   0.137
 6833SOL     OW21397   3.177   4.766   6.014
 6833SOL    HW121398   3.087   4.742   5.977
 6833SOL    HW221399   3.175   4.759   6.114
 6834SOL     OW21400   5.669   0.236   0.815
 6834SOL    HW121401   5.612   0.314   0.840
 6834SOL    HW221402   5.740   0.223   0.885
 6835SOL     OW21403   2.380   1.599   4.527
 6835SOL    HW121404   2.462   1.556   4.566
 6835SOL    HW221405   2.327   1.531   4.478
 6836SOL     OW21406   2.231   4.284   6.216
 6836SOL    HW121407   2.159   4.336   6.261
 6836SOL    HW221408   2.190   4.207   6.167
 6837SOL     OW21409   0.834   6.999   1.347
 6837SOL    HW121410   0.927   0.007   1.365
 6837SOL    HW221411   0.769   0.035   1.393
 6838SOL     OW21412   2.884   3.801   5.173
 6838SOL    HW121413   2.925   3.743   5.243
 6838SOL    HW221414   2.924   3.892   5.177
 6839SOL     OW21415   5.851   2.633   3.860
 6839SOL    HW121416   5.764   2.678   3.883
 6839SOL    HW221417   5.839   2.581   3.775
 6840SOL     OW21418   2.441   6.922   5.702
 6840SOL    HW121419   2.411   6.879   5.617
 6840SOL    HW221420   2.422   7.020   5.699
 6841SOL     OW21421   4.098   5.623   1.207
 6841SOL    HW121422   4.149   5.603   1.123
 6841SOL    HW221423   4.026   5.690   1.187
 6842SOL     OW21424   0.254   3.764   6.125
 6842SOL    HW121425   0.303   3.836   6.076
 6842SOL    HW221426   0.319   3.700   6.164
 6843SOL     OW21427   3.348   2.078   2.421
 6843SOL    HW121428   3.348   2.080   2.321
 6843SOL    HW221429   3.281   2.011   2.453
 6844SOL     OW21430   4.592   4.920   3.883
 6844SOL    HW121431   4.689   4.909   3.903
 6844SOL    HW221432   4.551   4.830   3.866
 6845SOL     OW21433   4.826   4.558   2.230
 6845SOL    HW121434   4.799   4.508   2.313
 6845SOL    HW221435   4.851   4.492   2.159
 6846SOL     OW21436   3.165   2.956   2.366
 6846SOL    HW121437   3.099   2.990   2.299
 6846SOL    HW221438   3.233   2.899   2.320
 6847SOL     OW21439   6.396   3.321   1.743
 6847SOL    HW121440   6.477   3.264   1.735
 6847SOL    HW221441   6.409   3.405   1.690
 6848SOL     OW21442   0.769   6.263   3.689
 6848SOL    HW121443   0.701   6.333   3.667
 6848SOL    HW221444   0.758   6.234   3.784
 6849SOL     OW21445   3.709   6.415   3.837
 6849SOL    HW121446   3.800   6.406   3.798
 6849SOL    HW221447   3.716   6.425   3.936
 6850SOL     OW21448   5.390   3.041   2.835
 6850SOL    HW121449   5.437   3.125   2.863
 6850SOL    HW221450   5.293   3.061   2.819
 6851SOL     OW21451   1.647   5.137   5.332
 6851SOL    HW121452   1.590   5.165   5.409
 6851SOL    HW221453   1.668   5.217   5.276
 6852SOL     OW21454   0.972   4.174   1.719
 6852SOL    HW121455   0.885   4.223   1.721
 6852SOL    HW221456   0.955   4.079   1.691
 6853SOL     OW21457   0.847   4.080   5.018
 6853SOL    HW121458   0.801   4.057   4.932
 6853SOL    HW221459   0.809   4.166   5.054
 6854SOL     OW21460   6.456   2.651   6.602
 6854SOL    HW121461   6.457   2.561   6.560
 6854SOL    HW221462   6.536   2.703   6.570
 6855SOL     OW21463   2.861   6.978   2.012
 6855SOL    HW121464   2.883   0.028   1.948
 6855SOL    HW221465   2.763   6.958   2.008
 6856SOL     OW21466   5.925   4.019   5.087
 6856SOL    HW121467   5.897   3.974   5.003
 6856SOL    HW221468   5.946   3.950   5.156
 6857SOL     OW21469   4.014   1.802   5.761
 6857SOL    HW121470   3.918   1.826   5.774
 6857SOL    HW221471   4.055   1.778   5.849
 6858SOL     OW21472   3.824   3.147   4.932
 6858SOL    HW121473   3.835   3.083   5.007
 6858SOL    HW221474   3.880   3.229   4.948
 6859SOL     OW21475   3.371   0.618   0.714
 6859SOL    HW121476   3.277   0.625   0.682
 6859SOL    HW221477   3.393   0.697   0.772
 6860SOL     OW21478   5.335   4.054   0.606
 6860SOL    HW121479   5.398   4.103   0.666
 6860SOL    HW221480   5.361   3.957   0.603
 6861SOL     OW21481   5.947   4.903   0.262
 6861SOL    HW121482   5.899   4.822   0.296
 6861SOL    HW221483   5.956   4.896   0.162
 6862SOL     OW21484   3.326   5.605   4.024
 6862SOL    HW121485   3.369   5.608   3.934
 6862SOL    HW221486   3.354   5.686   4.076
 6863SOL     OW21487   5.534   2.666   4.522
 6863SOL    HW121488   5.602   2.636   4.589
 6863SOL    HW221489   5.557   2.758   4.490
 6864SOL     OW21490   3.317   6.234   4.713
 6864SOL    HW121491   3.260   6.216   4.793
 6864SOL    HW221492   3.356   6.149   4.679
 6865SOL     OW21493   6.615   4.261   4.039
 6865SOL    HW121494   6.539   4.196   4.036
 6865SOL    HW221495   6.589   4.340   4.095
 6866SOL     OW21496   7.019   3.453   2.390
 6866SOL    HW121497   6.929   3.487   2.362
 6866SOL    HW221498   7.007   3.380   2.458
 6867SOL     OW21499   2.231   4.075   2.144
 6867SOL    HW121500   2.308   4.132   2.119
 6867SOL    HW221501   2.252   3.979   2.123
 6868SOL     OW21502   1.909   5.623   4.433
 6868SOL    HW121503   1.874   5.688   4.365
 6868SOL    HW221504   2.008   5.615   4.424
 6869SOL     OW21505   5.495   2.661   5.539
 6869SOL    HW121506   5.566   2.601   5.503
 6869SOL    HW221507   5.446   2.615   5.613
 6870SOL     OW21508   5.608   3.742   3.056
 6870SOL    HW121509   5.701   3.774   3.038
 6870SOL    HW221510   5.544   3.818   3.046
 6871SOL     OW21511   5.282   5.652   1.140
 6871SOL    HW121512   5.213   5.627   1.072
 6871SOL    HW221513   5.258   5.739   1.182
 6872SOL     OW21514   2.164   3.753   6.784
 6872SOL    HW121515   2.175   3.770   6.882
 6872SOL    HW221516   2.214   3.670   6.759
 6873SOL     OW21517   6.186   3.754   6.310
 6873SOL    HW121518   6.198   3.731   6.406
 6873SOL    HW221519   6.195   3.671   6.254
 6874SOL     OW21520   0.205   2.558   4.774
 6874SOL    HW121521   0.213   2.523   4.868
 6874SOL    HW221522   0.235   2.654   4.772
 6875SOL     OW21523   2.528   1.341   3.227
 6875SOL    HW121524   2.603   1.341   3.161
 6875SOL    HW221525   2.461   1.411   3.201
 6876SOL     OW21526   4.067   6.194   0.100
 6876SOL    HW121527   4.159   6.174   0.065
 6876SOL    HW221528   4.058   6.293   0.115
 6877SOL     OW21529   2.124   4.030   0.064
 6877SOL    HW121530   2.169   4.110   0.026
 6877SOL    HW221531   2.185   3.951   0.057
 6878SOL     OW21532   1.966   1.660   5.845
 6878SOL    HW121533   1.959   1.754   5.811
 6878SOL    HW221534   1.954   1.596   5.769
 6879SOL     OW21535   1.324   2.185   6.071
 6879SOL    HW121536   1.265   2.151   5.998
 6879SOL    HW221537   1.277   2.175   6.159
 6880SOL     OW21538   2.182   4.054   4.759
 6880SOL    HW121539   2.165   3.963   4.722
 6880SOL    HW221540   2.243   4.047   4.838
 6881SOL     OW21541   0.233   3.762   2.142
 6881SOL    HW121542   0.141   3.789   2.111
 6881SOL    HW221543   0.225   3.683   2.203
 6882SOL     OW21544   2.084   0.514   5.242
 6882SOL    HW121545   2.157   0.447   5.253
 6882SOL    HW221546   2.124   0.604   5.226
 6883SOL     OW21547   4.100   0.546   1.537
 6883SOL    HW121548   4.164   0.611   1.496
 6883SOL    HW221549   4.151   0.465   1.569
 6884SOL     OW21550   2.000   5.367   3.961
 6884SOL    HW121551   2.006   5.269   3.975
 6884SOL    HW221552   2.013   5.415   4.048
 6885SOL     OW21553   2.823   5.510   4.317
 6885SOL    HW121554   2.869   5.540   4.401
 6885SOL    HW221555   2.878   5.536   4.238
 6886SOL     OW21556   6.001   0.878   2.515
 6886SOL    HW121557   5.947   0.940   2.572
 6886SOL    HW221558   6.091   0.865   2.557
 6887SOL     OW21559   5.747   0.794   4.425
 6887SOL    HW121560   5.678   0.723   4.423
 6887SOL    HW221561   5.763   0.823   4.519
 6888SOL     OW21562   5.707   0.269   4.755
 6888SOL    HW121563   5.629   0.236   4.808
 6888SOL    HW221564   5.684   0.264   4.657
 6889SOL     OW21565   1.505   4.413   5.879
 6889SOL    HW121566   1.490   4.321   5.843
 6889SOL    HW221567   1.534   4.474   5.805
 6890SOL     OW21568   2.419   6.680   1.474
 6890SOL    HW121569   2.518   6.681   1.490
 6890SOL    HW221570   2.400   6.706   1.380
 6891SOL     OW21571   1.509   4.135   3.847
 6891SOL    HW121572   1.438   4.072   3.817
 6891SOL    HW221573   1.568   4.157   3.770
 6892SOL     OW21574   2.974   0.224   4.017
 6892SOL    HW121575   2.950   0.133   3.983
 6892SOL    HW221576   3.042   0.216   4.090
 6893SOL     OW21577   4.543   6.074   2.970
 6893SOL    HW121578   4.585   5.985   2.952
 6893SOL    HW221579   4.553   6.133   2.890
 6894SOL     OW21580   6.134   4.966   6.732
 6894SOL    HW121581   6.234   4.960   6.727
 6894SOL    HW221582   6.109   5.028   6.806
 6895SOL     OW21583   2.785   4.563   6.597
 6895SOL    HW121584   2.692   4.528   6.588
 6895SOL    HW221585   2.795   4.608   6.687
 6896SOL     OW21586   3.497   0.532   2.976
 6896SOL    HW121587   3.432   0.468   2.933
 6896SOL    HW221588   3.539   0.488   3.056
 6897SOL     OW21589   3.550   3.991   0.744
 6897SOL    HW121590   3.540   4.076   0.795
 6897SOL    HW221591   3.507   3.916   0.795
 6898SOL     OW21592   4.248   1.826   2.237
 6898SOL    HW121593   4.153   1.818   2.207
 6898SOL    HW221594   4.307   1.779   2.171
 6899SOL     OW21595   4.497   6.435   6.744
 6899SOL    HW121596   4.413   6.489   6.740
 6899SOL    HW221597   4.575   6.495   6.763
 6900SOL     OW21598   5.110   0.408   6.174
 6900SOL    HW121599   5.182   0.415   6.243
 6900SOL    HW221600   5.093   0.312   6.153
 6901SOL     OW21601   1.464   0.013   6.611
 6901SOL    HW121602   1.459   6.940   6.635
 6901SOL    HW221603   1.560   0.042   6.613
 6902SOL     OW21604   0.092   6.253   0.180
 6902SOL    HW121605   0.130   6.321   0.243
 6902SOL    HW221606   0.085   6.293   0.088
 6903SOL     OW21607   4.514   4.978   0.412
 6903SOL    HW121608   4.465   4.891   0.404
 6903SOL    HW221609   4.448   5.052   0.421
 6904SOL     OW21610   6.388   1.358   3.774
 6904SOL    HW121611   6.467   1.411   3.744
 6904SOL    HW221612   6.416   1.294   3.845
 6905SOL     OW21613   6.035   6.896   0.832
 6905SOL    HW121614   6.110   6.870   0.893
 6905SOL    HW221615   5.971   6.820   0.824
 6906SOL     OW21616   4.069   0.761   2.931
 6906SOL    HW121617   3.984   0.707   2.931
 6906SOL    HW221618   4.049   0.855   2.903
 6907SOL     OW21619   3.592   1.716   1.682
 6907SOL    HW121620   3.644   1.797   1.709
 6907SOL    HW221621   3.558   1.670   1.763
 6908SOL     OW21622   1.585   6.426   5.170
 6908SOL    HW121623   1.584   6.370   5.087
 6908SOL    HW221624   1.678   6.429   5.207
 6909SOL     OW21625   4.704   4.237   0.502
 6909SOL    HW121626   4.696   4.155   0.559
 6909SOL    HW221627   4.613   4.262   0.468
 6910SOL     OW21628   6.127   1.522   1.651
 6910SOL    HW121629   6.181   1.456   1.703
 6910SOL    HW221630   6.120   1.607   1.703
 6911SOL     OW21631   3.917   1.317   5.062
 6911SOL    HW121632   3.945   1.268   5.144
 6911SOL    HW221633   3.817   1.320   5.057
 6912SOL     OW21634   5.313   5.026   0.750
 6912SOL    HW121635   5.232   4.967   0.743
 6912SOL    HW221636   5.382   4.980   0.807
 6913SOL     OW21637   5.354   5.056   4.935
 6913SOL    HW121638   5.271   5.090   4.891
 6913SOL    HW221639   5.401   4.993   4.873
 6914SOL     OW21640   6.014   5.576   0.700
 6914SOL    HW121641   6.090   5.521   0.664
 6914SOL    HW221642   5.963   5.615   0.623
 6915SOL     OW21643   0.599   4.898   2.983
 6915SOL    HW121644   0.685   4.939   2.951
 6915SOL    HW221645   0.620   4.824   3.047
 6916SOL     OW21646   6.483   3.276   7.021
 6916SOL    HW121647   6.442   3.344   0.058
 6916SOL    HW221648   6.497   3.191   0.047
 6917SOL     OW21649   4.899   6.547   5.587
 6917SOL    HW121650   4.919   6.450   5.599
 6917SOL    HW221651   4.982   6.596   5.563
 6918SOL     OW21652   6.977   3.237   3.979
 6918SOL    HW121653   6.984   3.137   3.970
 6918SOL    HW221654   0.007   3.267   4.058
 6919SOL     OW21655   2.054   5.966   2.524
 6919SOL    HW121656   2.036   5.969   2.426
 6919SOL    HW221657   2.077   6.058   2.557
 6920SOL     OW21658   5.073   6.222   4.148
 6920SOL    HW121659   4.983   6.216   4.105
 6920SOL    HW221660   5.122   6.136   4.137
 6921SOL     OW21661   6.922   0.675   3.372
 6921SOL    HW121662   6.847   0.699   3.311
 6921SOL    HW221663   6.953   0.582   3.353
 6922SOL     OW21664   2.520   6.659   0.774
 6922SOL    HW121665   2.482   6.748   0.797
 6922SOL    HW221666   2.602   6.642   0.829
 6923SOL     OW21667   4.630   0.698   3.804
 6923SOL    HW121668   4.569   0.776   3.791
 6923SOL    HW221669   4.700   0.697   3.733
 6924SOL     OW21670   0.119   5.228   1.522
 6924SOL    HW121671   0.138   5.227   1.620
 6924SOL    HW221672   0.094   5.321   1.494
 6925SOL     OW21673   4.525   6.217   2.746
 6925SOL    HW121674   4.511   6.316   2.753
 6925SOL    HW221675   4.454   6.178   2.687
 6926SOL     OW21676   2.876   3.589   4.276
 6926SOL    HW121677   2.778   3.567   4.284
 6926SOL    HW221678   2.920   3.521   4.217
 6927SOL     OW21679   4.657   4.010   6.185
 6927SOL    HW121680   4.624   4.001   6.091
 6927SOL    HW221681   4.653   4.106   6.213
 6928SOL     OW21682   4.796   0.915   6.450
 6928SOL    HW121683   4.748   0.943   6.367
 6928SOL    HW221684   4.888   0.883   6.427
 6929SOL     OW21685   4.125   6.009   0.356
 6929SOL    HW121686   4.081   6.064   0.285
 6929SOL    HW221687   4.109   6.050   0.446
 6930SOL     OW21688   0.597   0.054   2.808
 6930SOL    HW121689   0.593   0.023   2.713
 6930SOL    HW221690   0.588   6.999   2.869
 6931SOL     OW21691   1.678   1.153   1.717
 6931SOL    HW121692   1.698   1.227   1.654
 6931SOL    HW221693   1.646   1.190   1.804
 6932SOL     OW21694   2.928   2.023   0.226
 6932SOL    HW121695   2.851   1.995   0.283
 6932SOL    HW221696   3.014   1.997   0.270
 6933SOL     OW21697   4.187   5.378   5.885
 6933SOL    HW121698   4.127   5.379   5.805
 6933SOL    HW221699   4.226   5.286   5.895
 6934SOL     OW21700   5.121   2.994   7.007
 6934SOL    HW121701   5.164   2.953   6.927
 6934SOL    HW221702   5.159   3.085   7.024
 6935SOL     OW21703   4.434   6.319   3.661
 6935SOL    HW121704   4.431   6.249   3.589
 6935SOL    HW221705   4.503   6.387   3.636
 6936SOL     OW21706   1.334   3.221   1.240
 6936SOL    HW121707   1.354   3.137   1.289
 6936SOL    HW221708   1.249   3.211   1.189
 6937SOL     OW21709   4.574   6.961   6.105
 6937SOL    HW121710   4.622   6.943   6.019
 6937SOL    HW221711   4.521   0.021   6.097
 6938SOL     OW21712   5.169   2.931   5.415
 6938SOL    HW121713   5.069   2.920   5.414
 6938SOL    HW221714   5.194   3.004   5.478
 6939SOL     OW21715   6.860   4.651   2.529
 6939SOL    HW121716   6.882   4.728   2.469
 6939SOL    HW221717   6.900   4.568   2.492
 6940SOL     OW21718   4.954   0.834   5.789
 6940SOL    HW121719   4.925   0.740   5.807
 6940SOL    HW221720   4.982   0.843   5.693
 6941SOL     OW21721   4.157   3.544   3.702
 6941SOL    HW121722   4.142   3.477   3.774
 6941SOL    HW221723   4.254   3.542   3.675
 6942SOL     OW21724   6.723   2.847   0.598
 6942SOL    HW121725   6.801   2.823   0.540
 6942SOL    HW221726   6.692   2.765   0.647
 6943SOL     OW21727   5.623   5.952   5.904
 6943SOL    HW121728   5.523   5.946   5.906
 6943SOL    HW221729   5.660   5.878   5.849
 6944SOL     OW21730   0.982   5.519   6.439
 6944SOL    HW121731   1.072   5.549   6.410
 6944SOL    HW221732   0.912   5.572   6.391
 6945SOL     OW21733   6.552   2.565   6.224
 6945SOL    HW121734   6.453   2.557   6.230
 6945SOL    HW221735   6.589   2.591   6.313
 6946SOL     OW21736   5.670   4.097   2.563
 6946SOL    HW121737   5.607   4.115   2.639
 6946SOL    HW221738   5.728   4.177   2.549
 6947SOL     OW21739   3.423   6.717   2.923
 6947SOL    HW121740   3.440   6.759   3.012
 6947SOL    HW221741   3.504   6.664   2.895
 6948SOL     OW21742   4.532   0.905   6.624
 6948SOL    HW121743   4.442   0.926   6.586
 6948SOL    HW221744   4.602   0.924   6.556
 6949SOL     OW21745   5.216   6.662   3.352
 6949SOL    HW121746   5.249   6.756   3.355
 6949SOL    HW221747   5.279   6.606   3.299
 6950SOL     OW21748   2.280   1.414   2.948
 6950SOL    HW121749   2.287   1.429   2.849
 6950SOL    HW221750   2.333   1.484   2.996
 6951SOL     OW21751   6.344   5.738   6.043
 6951SOL    HW121752   6.303   5.655   6.080
 6951SOL    HW221753   6.362   5.726   5.945
 6952SOL     OW21754   0.567   5.034   4.557
 6952SOL    HW121755   0.564   4.938   4.529
 6952SOL    HW221756   0.483   5.057   4.606
 6953SOL     OW21757   4.494   1.482   5.900
 6953SOL    HW121758   4.571   1.545   5.908
 6953SOL    HW221759   4.527   1.392   5.870
 6954SOL     OW21760   6.543   3.062   4.257
 6954SOL    HW121761   6.601   3.101   4.328
 6954SOL    HW221762   6.562   3.108   4.170
 6955SOL     OW21763   0.316   6.268   1.827
 6955SOL    HW121764   0.294   6.359   1.863
 6955SOL    HW221765   0.275   6.257   1.737
 6956SOL     OW21766   4.509   5.373   1.726
 6956SOL    HW121767   4.557   5.315   1.792
 6956SOL    HW221768   4.529   5.341   1.634
 6957SOL     OW21769   0.302   4.778   1.953
 6957SOL    HW121770   0.241   4.847   1.914
 6957SOL    HW221771   0.346   4.727   1.879
 6958SOL     OW21772   2.260   2.743   6.198
 6958SOL    HW121773   2.192   2.766   6.128
 6958SOL    HW221774   2.239   2.792   6.282
 6959SOL     OW21775   3.857   1.549   4.903
 6959SOL    HW121776   3.876   1.482   4.830
 6959SOL    HW221777   3.816   1.630   4.862
 6960SOL     OW21778   0.090   4.346   6.927
 6960SOL    HW121779   0.133   4.426   6.968
 6960SOL    HW221780   0.139   4.263   6.952
 6961SOL     OW21781   1.195   1.384   3.236
 6961SOL    HW121782   1.285   1.427   3.224
 6961SOL    HW221783   1.185   1.354   3.331
 6962SOL     OW21784   5.078   4.595   1.775
 6962SOL    HW121785   5.062   4.505   1.816
 6962SOL    HW221786   5.069   4.666   1.845
 6963SOL     OW21787   0.717   4.987   1.866
 6963SOL    HW121788   0.640   4.927   1.886
 6963SOL    HW221789   0.789   4.973   1.934
 6964SOL     OW21790   4.405   5.322   5.064
 6964SOL    HW121791   4.373   5.249   5.004
 6964SOL    HW221792   4.427   5.403   5.010
 6965SOL     OW21793   6.752   2.810   6.099
 6965SOL    HW121794   6.703   2.896   6.116
 6965SOL    HW221795   6.837   2.809   6.152
 6966SOL     OW21796   4.695   2.258   2.629
 6966SOL    HW121797   4.728   2.281   2.538
 6966SOL    HW221798   4.773   2.246   2.691
 6967SOL     OW21799   1.247   2.022   5.729
 6967SOL    HW121800   1.339   2.049   5.699
 6967SOL    HW221801   1.238   1.922   5.723
 6968SOL     OW21802   4.277   5.797   1.368
 6968SOL    HW121803   4.195   5.745   1.345
 6968SOL    HW221804   4.253   5.872   1.431
 6969SOL     OW21805   3.508   1.913   0.547
 6969SOL    HW121806   3.517   1.813   0.546
 6969SOL    HW221807   3.547   1.949   0.631
 6970SOL     OW21808   4.542   4.593   0.596
 6970SOL    HW121809   4.590   4.655   0.658
 6970SOL    HW221810   4.533   4.503   0.639
 6971SOL     OW21811   6.042   2.584   2.060
 6971SOL    HW121812   6.010   2.545   1.974
 6971SOL    HW221813   6.048   2.512   2.130
 6972SOL     OW21814   5.302   4.593   4.486
 6972SOL    HW121815   5.299   4.679   4.537
 6972SOL    HW221816   5.318   4.517   4.549
 6973SOL     OW21817   2.299   5.418   4.258
 6973SOL    HW121818   2.305   5.353   4.182
 6973SOL    HW221819   2.384   5.470   4.265
 6974SOL     OW21820   3.063   3.959   3.830
 6974SOL    HW121821   3.119   3.905   3.767
 6974SOL    HW221822   3.046   4.049   3.791
 6975SOL     OW21823   3.927   0.640   5.600
 6975SOL    HW121824   3.918   0.698   5.681
 6975SOL    HW221825   3.907   0.545   5.624
 6976SOL     OW21826   2.574   5.223   6.464
 6976SOL    HW121827   2.537   5.160   6.396
 6976SOL    HW221828   2.623   5.172   6.534
 6977SOL     OW21829   3.515   1.464   2.619
 6977SOL    HW121830   3.518   1.375   2.665
 6977SOL    HW221831   3.425   1.475   2.576
 6978SOL     OW21832   0.477   0.604   1.707
 6978SOL    HW121833   0.489   0.628   1.611
 6978SOL    HW221834   0.441   0.682   1.758
 6979SOL     OW21835   0.541   4.662   2.505
 6979SOL    HW121836   0.492   4.613   2.577
 6979SOL    HW221837   0.548   4.603   2.424
 6980SOL     OW21838   2.442   1.016   4.093
 6980SOL    HW121839   2.481   1.085   4.155
 6980SOL    HW221840   2.503   0.938   4.089
 6981SOL     OW21841   2.283   4.869   0.601
 6981SOL    HW121842   2.323   4.912   0.682
 6981SOL    HW221843   2.184   4.887   0.600
 6982SOL     OW21844   1.261   0.087   4.014
 6982SOL    HW121845   1.180   0.090   4.072
 6982SOL    HW221846   1.233   0.080   3.918
 6983SOL     OW21847   6.642   0.438   4.717
 6983SOL    HW121848   6.619   0.531   4.690
 6983SOL    HW221849   6.667   0.385   4.637
 6984SOL     OW21850   2.187   2.018   5.869
 6984SOL    HW121851   2.147   2.025   5.960
 6984SOL    HW221852   2.273   2.069   5.865
 6985SOL     OW21853   4.229   5.658   2.379
 6985SOL    HW121854   4.188   5.733   2.430
 6985SOL    HW221855   4.303   5.617   2.433
 6986SOL     OW21856   1.965   6.034   5.489
 6986SOL    HW121857   1.882   6.080   5.455
 6986SOL    HW221858   1.939   5.970   5.562
 6987SOL     OW21859   0.398   2.777   6.414
 6987SOL    HW121860   0.412   2.784   6.315
 6987SOL    HW221861   0.374   2.683   6.438
 6988SOL     OW21862   5.146   1.490   3.858
 6988SOL    HW121863   5.187   1.403   3.887
 6988SOL    HW221864   5.062   1.507   3.909
 6989SOL     OW21865   1.249   1.850   3.682
 6989SOL    HW121866   1.282   1.938   3.717
 6989SOL    HW221867   1.185   1.810   3.748
 6990SOL     OW21868   4.533   3.213   0.073
 6990SOL    HW121869   4.539   3.302   0.117
 6990SOL    HW221870   4.436   3.188   0.061
 6991SOL     OW21871   2.692   4.721   5.444
 6991SOL    HW121872   2.662   4.641   5.392
 6991SOL    HW221873   2.612   4.778   5.466
 6992SOL     OW21874   5.886   6.336   4.475
 6992SOL    HW121875   5.945   6.352   4.397
 6992SOL    HW221876   5.792   6.361   4.451
 6993SOL     OW21877   6.995   0.666   3.047
 6993SOL    HW121878   6.929   0.593   3.028
 6993SOL    HW221879   6.946   0.746   3.082
 6994SOL     OW21880   1.632   2.987   6.026
 6994SOL    HW121881   1.690   3.034   6.092
 6994SOL    HW221882   1.547   2.959   6.071
 6995SOL     OW21883   5.345   5.486   4.081
 6995SOL    HW121884   5.309   5.431   4.157
 6995SOL    HW221885   5.433   5.448   4.052
 6996SOL     OW21886   2.796   0.495   5.237
 6996SOL    HW121887   2.768   0.586   5.267
 6996SOL    HW221888   2.715   0.436   5.232
 6997SOL     OW21889   4.564   6.104   4.743
 6997SOL    HW121890   4.618   6.105   4.658
 6997SOL    HW221891   4.616   6.057   4.814
 6998SOL     OW21892   1.825   3.460   2.519
 6998SOL    HW121893   1.742   3.482   2.469
 6998SOL    HW221894   1.827   3.513   2.604
 6999SOL     OW21895   3.041   2.074   6.069
 6999SOL    HW121896   3.108   2.041   6.136
 6999SOL    HW221897   3.030   2.173   6.078
 7000SOL     OW21898   0.929   6.754   2.769
 7000SOL    HW121899   0.849   6.694   2.777
 7000SOL    HW221900   0.985   6.745   2.852
 7001SOL     OW21901   2.302   2.910   5.742
 7001SOL    HW121902   2.375   2.961   5.696
 7001SOL    HW221903   2.229   2.972   5.768
 7002SOL     OW21904   1.042   5.058   3.580
 7002SOL    HW121905   1.069   5.102   3.666
 7002SOL    HW221906   1.115   4.997   3.549
 7003SOL     OW21907   3.200   6.729   0.904
 7003SOL    HW121908   3.185   6.809   0.846
 7003SOL    HW221909   3.298   6.715   0.919
 7004SOL     OW21910   1.481   4.152   1.148
 7004SOL    HW121911   1.502   4.249   1.138
 7004SOL    HW221912   1.555   4.098   1.107
 7005SOL     OW21913   5.445   6.381   6.683
 7005SOL    HW121914   5.436   6.472   6.644
 7005SOL    HW221915   5.477   6.388   6.778
 7006SOL     OW21916   4.691   4.309   4.643
 7006SOL    HW121917   4.626   4.353   4.706
 7006SOL    HW221918   4.751   4.378   4.603
 7007SOL     OW21919   4.513   6.633   2.963
 7007SOL    HW121920   4.498   6.598   3.055
 7007SOL    HW221921   4.591   6.585   2.921
 7008SOL     OW21922   2.087   5.081   4.832
 7008SOL    HW121923   1.999   5.043   4.805
 7008SOL    HW221924   2.129   5.128   4.754
 7009SOL     OW21925   6.469   5.424   2.411
 7009SOL    HW121926   6.396   5.477   2.369
 7009SOL    HW221927   6.494   5.348   2.350
 7010SOL     OW21928   3.855   4.795   6.238
 7010SOL    HW121929   3.840   4.825   6.144
 7010SOL    HW221930   3.863   4.875   6.298
 7011SOL     OW21931   2.233   6.884   5.510
 7011SOL    HW121932   2.268   6.873   5.417
 7011SOL    HW221933   2.143   6.929   5.506
 7012SOL     OW21934   1.084   0.442   1.866
 7012SOL    HW121935   0.989   0.429   1.896
 7012SOL    HW221936   1.141   0.460   1.946
 7013SOL     OW21937   0.792   0.017   1.042
 7013SOL    HW121938   0.794   0.016   1.142
 7013SOL    HW221939   0.882   7.018   1.006
 7014SOL     OW21940   2.954   4.653   1.177
 7014SOL    HW121941   3.021   4.579   1.170
 7014SOL    HW221942   2.932   4.668   1.273
 7015SOL     OW21943   4.702   2.655   2.344
 7015SOL    HW121944   4.656   2.739   2.317
 7015SOL    HW221945   4.800   2.664   2.326
 7016SOL     OW21946   4.193   4.920   1.359
 7016SOL    HW121947   4.291   4.921   1.378
 7016SOL    HW221948   4.169   4.999   1.303
 7017SOL     OW21949   3.206   1.704   3.427
 7017SOL    HW121950   3.193   1.800   3.453
 7017SOL    HW221951   3.158   1.645   3.492
 7018SOL     OW21952   0.182   3.945   4.524
 7018SOL    HW121953   0.104   3.912   4.576
 7018SOL    HW221954   0.181   3.904   4.433
 7019SOL     OW21955   2.998   5.287   6.570
 7019SOL    HW121956   3.053   5.229   6.510
 7019SOL    HW221957   3.038   5.287   6.662
 7020SOL     OW21958   5.571   0.316   6.721
 7020SOL    HW121959   5.670   0.312   6.706
 7020SOL    HW221960   5.550   0.385   6.790
 7021SOL     OW21961   2.223   1.283   5.021
 7021SOL    HW121962   2.180   1.319   5.104
 7021SOL    HW221963   2.241   1.185   5.033
 7022SOL     OW21964   5.212   3.497   0.351
 7022SOL    HW121965   5.252   3.415   0.310
 7022SOL    HW221966   5.241   3.504   0.447
 7023SOL     OW21967   6.247   2.062   1.944
 7023SOL    HW121968   6.203   1.972   1.944
 7023SOL    HW221969   6.258   2.093   1.849
 7024SOL     OW21970   1.675   6.085   6.764
 7024SOL    HW121971   1.689   6.056   6.670
 7024SOL    HW221972   1.761   6.117   6.802
 7025SOL     OW21973   3.385   1.975   6.551
 7025SOL    HW121974   3.436   2.055   6.583
 7025SOL    HW221975   3.296   1.972   6.595
 7026SOL     OW21976   3.663   2.016   1.480
 7026SOL    HW121977   3.567   1.992   1.467
 7026SOL    HW221978   3.716   1.979   1.404
 7027SOL     OW21979   4.092   5.647   3.767
 7027SOL    HW121980   4.124   5.553   3.755
 7027SOL    HW221981   4.156   5.697   3.824
 7028SOL     OW21982   4.319   6.663   3.599
 7028SOL    HW121983   4.331   6.564   3.608
 7028SOL    HW221984   4.382   6.698   3.530
 7029SOL     OW21985   3.948   6.447   0.125
 7029SOL    HW121986   3.892   6.452   0.042
 7029SOL    HW221987   3.888   6.438   0.205
 7030SOL     OW21988   0.086   3.198   5.600
 7030SOL    HW121989   0.092   3.216   5.698
 7030SOL    HW221990   0.138   3.267   5.550
 7031SOL     OW21991   2.046   5.555   4.174
 7031SOL    HW121992   2.131   5.569   4.224
 7031SOL    HW221993   1.991   5.639   4.178
 7032SOL     OW21994   5.544   0.349   2.899
 7032SOL    HW121995   5.511   0.281   2.964
 7032SOL    HW221996   5.581   0.303   2.818
 7033SOL     OW21997   0.276   1.152   4.078
 7033SOL    HW121998   0.330   1.093   4.018
 7033SOL    HW221999   0.319   1.155   4.169
 7034SOL     OW22000   5.653   0.367   3.190
 7034SOL    HW122001   5.630   0.420   3.109
 7034SOL    HW222002   5.704   0.423   3.254
 7035SOL     OW22003   7.014   6.329   2.840
 7035SOL    HW122004   7.003   6.411   2.785
 7035SOL    HW222005   0.087   6.304   2.845
 7036SOL     OW22006   6.776   5.334   1.726
 7036SOL    HW122007   6.797   5.379   1.814
 7036SOL    HW222008   6.779   5.235   1.738
 7037SOL     OW22009   0.992   6.162   5.387
 7037SOL    HW122010   1.038   6.154   5.299
 7037SOL    HW222011   0.894   6.144   5.376
 7038SOL     OW22012   1.231   4.555   3.776
 7038SOL    HW122013   1.288   4.501   3.837
 7038SOL    HW222014   1.284   4.585   3.697
 7039SOL     OW22015   3.762   0.764   6.655
 7039SOL    HW122016   3.705   0.739   6.577
 7039SOL    HW222017   3.734   0.854   6.690
 7040SOL     OW22018   4.242   2.601   6.403
 7040SOL    HW122019   4.321   2.552   6.440
 7040SOL    HW222020   4.185   2.538   6.351
 7041SOL     OW22021   1.475   1.406   2.812
 7041SOL    HW122022   1.545   1.384   2.745
 7041SOL    HW222023   1.421   1.324   2.832
 7042SOL     OW22024   4.204   5.396   6.705
 7042SOL    HW122025   4.291   5.380   6.658
 7042SOL    HW222026   4.144   5.317   6.691
 7043SOL     OW22027   1.777   1.856   3.514
 7043SOL    HW122028   1.757   1.782   3.450
 7043SOL    HW222029   1.697   1.873   3.571
 7044SOL     OW22030   4.838   4.526   2.869
 7044SOL    HW122031   4.792   4.439   2.850
 7044SOL    HW222032   4.819   4.590   2.795
 7045SOL     OW22033   5.343   6.247   1.117
 7045SOL    HW122034   5.279   6.265   1.042
 7045SOL    HW222035   5.379   6.334   1.151
 7046SOL     OW22036   3.938   0.838   4.646
 7046SOL    HW122037   4.007   0.857   4.576
 7046SOL    HW222038   3.935   0.740   4.664
 7047SOL     OW22039   0.676   1.100   3.888
 7047SOL    HW122040   0.747   1.072   3.824
 7047SOL    HW222041   0.717   1.119   3.977
 7048SOL     OW22042   6.757   6.366   1.143
 7048SOL    HW122043   6.721   6.277   1.116
 7048SOL    HW222044   6.766   6.424   1.062
 7049SOL     OW22045   2.278   1.126   1.017
 7049SOL    HW122046   2.296   1.173   1.103
 7049SOL    HW222047   2.358   1.072   0.990
 7050SOL     OW22048   3.313   4.131   4.425
 7050SOL    HW122049   3.385   4.200   4.438
 7050SOL    HW222050   3.284   4.095   4.514
 7051SOL     OW22051   0.214   0.099   1.410
 7051SOL    HW122052   0.291   0.040   1.390
 7051SOL    HW222053   0.244   0.174   1.469
 7052SOL     OW22054   0.061   1.958   4.523
 7052SOL    HW122055   0.106   1.899   4.590
 7052SOL    HW222056   0.071   1.919   4.432
 7053SOL     OW22057   0.465   4.046   6.700
 7053SOL    HW122058   0.535   3.976   6.687
 7053SOL    HW222059   0.508   4.136   6.705
 7054SOL     OW22060   6.184   6.789   1.451
 7054SOL    HW122061   6.254   6.741   1.398
 7054SOL    HW222062   6.224   6.870   1.494
 7055SOL     OW22063   4.615   0.237   5.322
 7055SOL    HW122064   4.607   0.140   5.300
 7055SOL    HW222065   4.641   0.288   5.241
 7056SOL     OW22066   5.967   4.616   3.354
 7056SOL    HW122067   5.933   4.531   3.315
 7056SOL    HW222068   5.893   4.683   3.357
 7057SOL     OW22069   0.554   4.300   3.539
 7057SOL    HW122070   0.511   4.227   3.592
 7057SOL    HW222071   0.652   4.281   3.530
 7058SOL     OW22072   0.499   5.171   5.120
 7058SOL    HW122073   0.568   5.123   5.067
 7058SOL    HW222074   0.542   5.239   5.179
 7059SOL     OW22075   0.650   0.100   2.031
 7059SOL    HW122076   0.636   0.169   1.960
 7059SOL    HW222077   0.667   0.145   2.118
 7060SOL     OW22078   3.288   6.915   1.485
 7060SOL    HW122079   3.349   6.993   1.477
 7060SOL    HW222080   3.301   6.871   1.573
 7061SOL     OW22081   0.371   1.439   2.995
 7061SOL    HW122082   0.292   1.385   3.022
 7061SOL    HW222083   0.396   1.502   3.069
 7062SOL     OW22084   5.823   1.682   5.415
 7062SOL    HW122085   5.856   1.756   5.357
 7062SOL    HW222086   5.900   1.622   5.438
 7063SOL     OW22087   2.027   6.548   1.463
 7063SOL    HW122088   2.103   6.488   1.437
 7063SOL    HW222089   2.035   6.635   1.414
 7064SOL     OW22090   4.272   2.103   2.200
 7064SOL    HW122091   4.185   2.142   2.232
 7064SOL    HW222092   4.273   2.005   2.218
 7065SOL     OW22093   4.359   3.835   1.449
 7065SOL    HW122094   4.332   3.806   1.541
 7065SOL    HW222095   4.390   3.756   1.397
 7066SOL     OW22096   3.887   0.210   0.802
 7066SOL    HW122097   3.841   0.176   0.884
 7066SOL    HW222098   3.839   0.176   0.721
 7067SOL     OW22099   0.956   3.994   5.666
 7067SOL    HW122100   0.941   3.991   5.567
 7067SOL    HW222101   1.054   3.986   5.685
 7068SOL     OW22102   1.497   2.093   3.281
 7068SOL    HW122103   1.545   2.005   3.280
 7068SOL    HW222104   1.401   2.079   3.257
 7069SOL     OW22105   6.437   4.030   5.362
 7069SOL    HW122106   6.459   3.968   5.287
 7069SOL    HW222107   6.467   3.989   5.448
 7070SOL     OW22108   6.421   4.814   5.458
 7070SOL    HW122109   6.391   4.896   5.507
 7070SOL    HW222110   6.350   4.787   5.393
 7071SOL     OW22111   1.197   5.833   5.284
 7071SOL    HW122112   1.287   5.830   5.326
 7071SOL    HW222113   1.202   5.794   5.191
 7072SOL     OW22114   6.597   6.149   5.740
 7072SOL    HW122115   6.597   6.083   5.664
 7072SOL    HW222116   6.663   6.221   5.720
 7073SOL     OW22117   0.083   1.074   5.519
 7073SOL    HW122118   0.004   1.026   5.482
 7073SOL    HW222119   0.057   1.121   5.604
 7074SOL     OW22120   3.147   2.555   1.652
 7074SOL    HW122121   3.219   2.487   1.638
 7074SOL    HW222122   3.086   2.524   1.725
 7075SOL     OW22123   1.758   6.159   4.376
 7075SOL    HW122124   1.702   6.219   4.319
 7075SOL    HW222125   1.703   6.126   4.453
 7076SOL     OW22126   3.876   1.779   6.397
 7076SOL    HW122127   3.799   1.785   6.461
 7076SOL    HW222128   3.912   1.686   6.397
 7077SOL     OW22129   2.145   5.996   5.303
 7077SOL    HW122130   2.150   5.896   5.301
 7077SOL    HW222131   2.064   6.024   5.355
 7078SOL     OW22132   6.251   6.750   3.370
 7078SOL    HW122133   6.336   6.788   3.334
 7078SOL    HW222134   6.175   6.811   3.345
 7079SOL     OW22135   6.497   5.915   6.205
 7079SOL    HW122136   6.581   5.863   6.222
 7079SOL    HW222137   6.435   5.860   6.148
 7080SOL     OW22138   4.132   2.299   4.007
 7080SOL    HW122139   4.090   2.388   3.991
 7080SOL    HW222140   4.198   2.280   3.935
 7081SOL     OW22141   3.084   1.385   5.117
 7081SOL    HW122142   3.095   1.450   5.042
 7081SOL    HW222143   3.017   1.315   5.091
 7082SOL     OW22144   5.764   1.273   6.715
 7082SOL    HW122145   5.680   1.227   6.741
 7082SOL    HW222146   5.828   1.207   6.675
 7083SOL     OW22147   3.112   1.079   6.145
 7083SOL    HW122148   3.022   1.074   6.102
 7083SOL    HW222149   3.179   1.112   6.078
 7084SOL     OW22150   6.798   6.345   5.685
 7084SOL    HW122151   6.820   6.319   5.590
 7084SOL    HW222152   6.791   6.444   5.692
 7085SOL     OW22153   2.279   2.233   3.684
 7085SOL    HW122154   2.360   2.236   3.625
 7085SOL    HW222155   2.307   2.220   3.779
 7086SOL     OW22156   4.902   0.976   6.713
 7086SOL    HW122157   4.868   0.972   6.619
 7086SOL    HW222158   4.830   1.010   6.773
 7087SOL     OW22159   0.802   3.713   4.440
 7087SOL    HW122160   0.787   3.614   4.438
 7087SOL    HW222161   0.724   3.758   4.482
 7088SOL     OW22162   5.174   3.318   4.289
 7088SOL    HW122163   5.201   3.223   4.274
 7088SOL    HW222164   5.077   3.329   4.269
 7089SOL     OW22165   3.446   2.458   6.156
 7089SOL    HW122166   3.544   2.458   6.175
 7089SOL    HW222167   3.425   2.528   6.088
 7090SOL     OW22168   1.911   1.726   5.304
 7090SOL    HW122169   1.997   1.696   5.265
 7090SOL    HW222170   1.886   1.666   5.380
 7091SOL     OW22171   0.697   1.078   0.334
 7091SOL    HW122172   0.776   1.139   0.326
 7091SOL    HW222173   0.695   1.038   0.426
 7092SOL     OW22174   3.665   4.128   0.186
 7092SOL    HW122175   3.714   4.081   0.113
 7092SOL    HW222176   3.730   4.167   0.251
 7093SOL     OW22177   3.116   4.001   4.319
 7093SOL    HW122178   3.212   4.025   4.329
 7093SOL    HW222179   3.059   4.071   4.361
 7094SOL     OW22180   0.627   6.467   5.924
 7094SOL    HW122181   0.723   6.479   5.949
 7094SOL    HW222182   0.620   6.442   5.827
 7095SOL     OW22183   2.055   3.054   0.038
 7095SOL    HW122184   1.958   3.043   0.061
 7095SOL    HW222185   2.065   3.121   6.989
 7096SOL     OW22186   4.864   2.079   4.136
 7096SOL    HW122187   4.819   2.048   4.219
 7096SOL    HW222188   4.961   2.055   4.139
 7097SOL     OW22189   0.114   0.786   2.085
 7097SOL    HW122190   0.080   0.871   2.044
 7097SOL    HW222191   0.213   0.793   2.097
 7098SOL     OW22192   1.688   5.993   5.929
 7098SOL    HW122193   1.692   5.963   5.834
 7098SOL    HW222194   1.760   5.948   5.981
 7099SOL     OW22195   1.547   1.293   4.974
 7099SOL    HW122196   1.511   1.362   5.035
 7099SOL    HW222197   1.590   1.337   4.895
 7100SOL     OW22198   4.770   3.972   1.212
 7100SOL    HW122199   4.857   3.923   1.203
 7100SOL    HW222200   4.696   3.917   1.174
 7101SOL     OW22201   3.131   0.360   4.521
 7101SOL    HW122202   3.101   0.446   4.562
 7101SOL    HW222203   3.070   0.286   4.550
 7102SOL     OW22204   4.421   1.235   1.294
 7102SOL    HW122205   4.386   1.147   1.262
 7102SOL    HW222206   4.495   1.266   1.234
 7103SOL     OW22207   3.698   6.251   0.001
 7103SOL    HW122208   3.639   6.176   0.030
 7103SOL    HW222209   3.792   6.217   7.014
 7104SOL     OW22210   1.737   2.645   3.218
 7104SOL    HW122211   1.832   2.678   3.212
 7104SOL    HW222212   1.690   2.693   3.291
 7105SOL     OW22213   3.181   3.306   4.604
 7105SOL    HW122214   3.086   3.309   4.632
 7105SOL    HW222215   3.191   3.348   4.513
 7106SOL     OW22216   3.579   3.050   4.831
 7106SOL    HW122217   3.661   3.084   4.876
 7106SOL    HW222218   3.528   2.992   4.894
 7107SOL     OW22219   2.785   1.172   0.270
 7107SOL    HW122220   2.711   1.131   0.217
 7107SOL    HW222221   2.800   1.118   0.353
 7108SOL     OW22222   5.095   6.211   1.267
 7108SOL    HW122223   5.189   6.220   1.234
 7108SOL    HW222224   5.095   6.168   1.357
 7109SOL     OW22225   3.459   0.164   6.372
 7109SOL    HW122226   3.524   0.144   6.446
 7109SOL    HW222227   3.383   0.100   6.376
 7110SOL     OW22228   5.215   5.122   4.048
 7110SOL    HW122229   5.188   5.211   4.084
 7110SOL    HW222230   5.225   5.057   4.123
 7111SOL     OW22231   1.528   3.793   4.185
 7111SOL    HW122232   1.460   3.739   4.235
 7111SOL    HW222233   1.484   3.875   4.147
 7112SOL     OW22234   1.458   6.119   4.028
 7112SOL    HW122235   1.530   6.140   3.962
 7112SOL    HW222236   1.493   6.053   4.095
 7113SOL     OW22237   3.852   4.070   4.336
 7113SOL    HW122238   3.775   4.007   4.327
 7113SOL    HW222239   3.918   4.032   4.401
 7114SOL     OW22240   4.034   0.713   1.811
 7114SOL    HW122241   4.017   0.628   1.761
 7114SOL    HW222242   3.972   0.719   1.889
 7115SOL     OW22243   4.941   2.016   1.365
 7115SOL    HW122244   4.883   2.096   1.378
 7115SOL    HW222245   4.922   1.949   1.436
 7116SOL     OW22246   5.643   4.073   3.923
 7116SOL    HW122247   5.705   3.998   3.900
 7116SOL    HW222248   5.680   4.125   4.000
 7117SOL     OW22249   6.732   5.992   3.495
 7117SOL    HW122250   6.653   5.935   3.472
 7117SOL    HW222251   6.746   6.061   3.424
 7118SOL     OW22252   5.330   3.766   1.489
 7118SOL    HW122253   5.366   3.726   1.574
 7118SOL    HW222254   5.393   3.835   1.455
 7119SOL     OW22255   6.159   1.198   2.746
 7119SOL    HW122256   6.193   1.220   2.837
 7119SOL    HW222257   6.182   1.271   2.682
 7120SOL     OW22258   4.841   1.488   3.329
 7120SOL    HW122259   4.848   1.459   3.425
 7120SOL    HW222260   4.913   1.553   3.309
 7121SOL     OW22261   2.445   6.677   3.775
 7121SOL    HW122262   2.350   6.647   3.762
 7121SOL    HW222263   2.484   6.628   3.853
 7122SOL     OW22264   6.683   1.176   0.201
 7122SOL    HW122265   6.639   1.091   0.233
 7122SOL    HW222266   6.737   1.157   0.120
 7123SOL     OW22267   3.069   5.777   1.975
 7123SOL    HW122268   3.053   5.876   1.975
 7123SOL    HW222269   3.167   5.760   1.971
 7124SOL     OW22270   0.792   4.931   0.463
 7124SOL    HW122271   0.716   4.996   0.466
 7124SOL    HW222272   0.873   4.976   0.427
 7125SOL     OW22273   6.275   6.350   1.985
 7125SOL    HW122274   6.355   6.394   2.026
 7125SOL    HW222275   6.304   6.266   1.939
 7126SOL     OW22276   2.370   4.390   0.507
 7126SOL    HW122277   2.347   4.301   0.468
 7126SOL    HW222278   2.395   4.452   0.433
 7127SOL     OW22279   3.762   5.458   4.023
 7127SOL    HW122280   3.695   5.397   3.981
 7127SOL    HW222281   3.836   5.477   3.958
 7128SOL     OW22282   3.655   4.847   0.668
 7128SOL    HW122283   3.592   4.770   0.659
 7128SOL    HW222284   3.745   4.820   0.633
 7129SOL     OW22285   2.862   0.567   0.888
 7129SOL    HW122286   2.823   0.602   0.973
 7129SOL    HW222287   2.921   0.636   0.847
 7130SOL     OW22288   3.103   4.879   3.740
 7130SOL    HW122289   3.201   4.859   3.735
 7130SOL    HW222290   3.084   4.927   3.826
 7131SOL     OW22291   2.952   1.553   2.234
 7131SOL    HW122292   2.852   1.553   2.230
 7131SOL    HW222293   2.988   1.622   2.172
 7132SOL     OW22294   4.139   3.415   3.119
 7132SOL    HW122295   4.222   3.447   3.074
 7132SOL    HW222296   4.067   3.484   3.110
 7133SOL     OW22297   4.530   5.707   3.161
 7133SOL    HW122298   4.498   5.792   3.202
 7133SOL    HW222299   4.454   5.663   3.112
 7134SOL     OW22300   5.962   6.048   3.928
 7134SOL    HW122301   5.971   5.955   3.963
 7134SOL    HW222302   5.992   6.113   3.997
 7135SOL     OW22303   1.460   0.453   4.138
 7135SOL    HW122304   1.501   0.529   4.188
 7135SOL    HW222305   1.361   0.455   4.148
 7136SOL     OW22306   2.142   1.407   0.613
 7136SOL    HW122307   2.105   1.400   0.521
 7136SOL    HW222308   2.239   1.431   0.609
 7137SOL     OW22309   4.606   0.887   4.848
 7137SOL    HW122310   4.684   0.949   4.840
 7137SOL    HW222311   4.632   0.796   4.817
 7138SOL     OW22312   3.384   2.982   1.086
 7138SOL    HW122313   3.286   3.002   1.091
 7138SOL    HW222314   3.436   3.067   1.089
 7139SOL     OW22315   4.859   3.082   1.750
 7139SOL    HW122316   4.919   3.114   1.823
 7139SOL    HW222317   4.769   3.059   1.788
 7140SOL     OW22318   5.997   3.837   4.758
 7140SOL    HW122319   6.077   3.778   4.745
 7140SOL    HW222320   5.976   3.883   4.671
 7141SOL     OW22321   3.123   0.362   0.941
 7141SOL    HW122322   3.069   0.383   1.022
 7141SOL    HW222323   3.119   0.440   0.878
 7142SOL     OW22324   4.242   6.153   3.815
 7142SOL    HW122325   4.308   6.201   3.757
 7142SOL    HW222326   4.277   6.149   3.909
 7143SOL     OW22327   1.777   4.384   5.965
 7143SOL    HW122328   1.700   4.402   5.904
 7143SOL    HW222329   1.799   4.466   6.017
 7144SOL     OW22330   0.516   1.300   2.826
 7144SOL    HW122331   0.446   1.233   2.803
 7144SOL    HW222332   0.483   1.360   2.899
 7145SOL     OW22333   4.267   6.748   6.993
 7145SOL    HW122334   4.284   6.847   6.992
 7145SOL    HW222335   4.170   6.731   7.012
 7146SOL     OW22336   3.002   6.357   0.793
 7146SOL    HW122337   2.918   6.314   0.826
 7146SOL    HW222338   3.068   6.286   0.768
 7147SOL     OW22339   6.666   6.970   3.363
 7147SOL    HW122340   6.683   6.906   3.437
 7147SOL    HW222341   6.677   0.039   3.396
 7148SOL     OW22342   1.099   6.145   1.842
 7148SOL    HW122343   1.036   6.223   1.839
 7148SOL    HW222344   1.049   6.061   1.820
 7149SOL     OW22345   6.208   0.979   3.954
 7149SOL    HW122346   6.161   0.917   4.016
 7149SOL    HW222347   6.234   0.930   3.870
 7150SOL     OW22348   5.199   2.902   0.931
 7150SOL    HW122349   5.157   2.977   0.981
 7150SOL    HW222350   5.181   2.913   0.833
 7151SOL     OW22351   1.758   5.885   1.243
 7151SOL    HW122352   1.686   5.838   1.192
 7151SOL    HW222353   1.846   5.869   1.200
 7152SOL     OW22354   0.541   3.285   4.671
 7152SOL    HW122355   0.591   3.364   4.706
 7152SOL    HW222356   0.509   3.304   4.579
 7153SOL     OW22357   4.301   0.043   5.295
 7153SOL    HW122358   4.312   0.141   5.283
 7153SOL    HW222359   4.335   7.019   5.215
 7154SOL     OW22360   3.765   5.720   4.147
 7154SOL    HW122361   3.856   5.750   4.176
 7154SOL    HW222362   3.770   5.627   4.110
 7155SOL     OW22363   1.135   6.092   2.192
 7155SOL    HW122364   1.083   6.006   2.192
 7155SOL    HW222365   1.138   6.129   2.099
 7156SOL     OW22366   6.681   5.128   5.388
 7156SOL    HW122367   6.771   5.123   5.344
 7156SOL    HW222368   6.614   5.078   5.332
 7157SOL     OW22369   5.943   5.845   0.123
 7157SOL    HW122370   5.954   5.904   0.043
 7157SOL    HW222371   5.876   5.774   0.103
 7158SOL     OW22372   6.699   6.572   3.131
 7158SOL    HW122373   6.619   6.571   3.190
 7158SOL    HW222374   6.687   6.640   3.059
 7159SOL     OW22375   0.466   5.121   1.329
 7159SOL    HW122376   0.496   5.215   1.347
 7159SOL    HW222377   0.538   5.071   1.281
 7160SOL     OW22378   6.451   6.600   1.787
 7160SOL    HW122379   6.373   6.662   1.796
 7160SOL    HW222380   6.449   6.556   1.697
 7161SOL     OW22381   3.480   3.073   3.825
 7161SOL    HW122382   3.484   3.170   3.850
 7161SOL    HW222383   3.504   3.017   3.905
 7162SOL     OW22384   3.759   4.925   4.468
 7162SOL    HW122385   3.664   4.926   4.436
 7162SOL    HW222386   3.782   4.832   4.498
 7163SOL     OW22387   3.916   0.137   3.611
 7163SOL    HW122388   3.924   0.215   3.673
 7163SOL    HW222389   3.957   0.056   3.653
 7164SOL     OW22390   2.026   1.356   3.085
 7164SOL    HW122391   2.100   1.403   3.037
 7164SOL    HW222392   2.061   1.317   3.170
 7165SOL     OW22393   6.077   1.132   0.506
 7165SOL    HW122394   5.996   1.118   0.449
 7165SOL    HW222395   6.074   1.223   0.546
 7166SOL     OW22396   4.802   4.501   1.256
 7166SOL    HW122397   4.852   4.447   1.324
 7166SOL    HW222398   4.709   4.515   1.287
 7167SOL     OW22399   4.819   3.770   5.325
 7167SOL    HW122400   4.790   3.684   5.282
 7167SOL    HW222401   4.741   3.832   5.332
 7168SOL     OW22402   1.192   1.354   4.172
 7168SOL    HW122403   1.154   1.402   4.093
 7168SOL    HW222404   1.193   1.256   4.153
 7169SOL     OW22405   1.599   3.123   5.728
 7169SOL    HW122406   1.540   3.156   5.801
 7169SOL    HW222407   1.695   3.135   5.754
 7170SOL     OW22408   5.135   5.037   3.044
 7170SOL    HW122409   5.045   5.035   3.087
 7170SOL    HW222410   5.160   4.944   3.015
 7171SOL     OW22411   4.358   3.278   5.626
 7171SOL    HW122412   4.329   3.263   5.531
 7171SOL    HW222413   4.353   3.193   5.677
 7172SOL     OW22414   1.463   6.356   0.496
 7172SOL    HW122415   1.365   6.339   0.497
 7172SOL    HW222416   1.498   6.344   0.403
 7173SOL     OW22417   6.779   5.383   4.256
 7173SOL    HW122418   6.766   5.312   4.325
 7173SOL    HW222419   6.716   5.459   4.274
 7174SOL     OW22420   2.199   5.143   0.173
 7174SOL    HW122421   2.190   5.224   0.114
 7174SOL    HW222422   2.108   5.112   0.199
 7175SOL     OW22423   5.315   3.557   0.629
 7175SOL    HW122424   5.413   3.574   0.618
 7175SOL    HW222425   5.298   3.508   0.715
 7176SOL     OW22426   6.898   4.490   2.098
 7176SOL    HW122427   6.993   4.501   2.070
 7176SOL    HW222428   6.893   4.485   2.198
 7177SOL     OW22429   1.240   5.820   3.697
 7177SOL    HW122430   1.209   5.730   3.728
 7177SOL    HW222431   1.339   5.818   3.684
 7178SOL     OW22432   1.278   3.078   5.257
 7178SOL    HW122433   1.356   3.092   5.318
 7178SOL    HW222434   1.195   3.064   5.310
 7179SOL     OW22435   2.931   3.480   5.774
 7179SOL    HW122436   2.996   3.555   5.783
 7179SOL    HW222437   2.851   3.511   5.724
 7180SOL     OW22438   0.994   5.813   6.979
 7180SOL    HW122439   1.063   5.771   6.921
 7180SOL    HW222440   0.944   5.741   0.004
 7181SOL     OW22441   3.691   0.759   0.923
 7181SOL    HW122442   3.593   0.751   0.903
 7181SOL    HW222443   3.720   0.678   0.975
 7182SOL     OW22444   2.101   4.423   5.220
 7182SOL    HW122445   2.099   4.338   5.167
 7182SOL    HW222446   2.083   4.402   5.317
 7183SOL     OW22447   1.861   5.185   2.440
 7183SOL    HW122448   1.915   5.103   2.420
 7183SOL    HW222449   1.856   5.198   2.539
 7184SOL     OW22450   1.431   6.540   4.086
 7184SOL    HW122451   1.367   6.616   4.083
 7184SOL    HW222452   1.474   6.529   3.996
 7185SOL     OW22453   4.706   2.824   6.612
 7185SOL    HW122454   4.616   2.863   6.631
 7185SOL    HW222455   4.737   2.773   6.692
 7186SOL     OW22456   6.931   6.594   5.462
 7186SOL    HW122457   0.001   6.618   5.485
 7186SOL    HW222458   6.872   6.607   5.541
 7187SOL     OW22459   1.534   4.759   1.629
 7187SOL    HW122460   1.627   4.788   1.653
 7187SOL    HW222461   1.496   4.702   1.702
 7188SOL     OW22462   5.457   0.299   2.411
 7188SOL    HW122463   5.443   0.336   2.503
 7188SOL    HW222464   5.457   0.374   2.345
 7189SOL     OW22465   6.532   0.809   6.046
 7189SOL    HW122466   6.499   0.793   6.139
 7189SOL    HW222467   6.546   0.907   6.032
 7190SOL     OW22468   5.179   4.097   3.300
 7190SOL    HW122469   5.268   4.116   3.259
 7190SOL    HW222470   5.110   4.157   3.259
 7191SOL     OW22471   1.061   3.385   3.031
 7191SOL    HW122472   1.105   3.321   2.968
 7191SOL    HW222473   0.969   3.352   3.053
 7192SOL     OW22474   2.354   5.115   5.850
 7192SOL    HW122475   2.401   5.030   5.872
 7192SOL    HW222476   2.396   5.157   5.770
 7193SOL     OW22477   3.056   1.924   4.700
 7193SOL    HW122478   3.074   1.970   4.613
 7193SOL    HW222479   3.027   1.991   4.768
 7194SOL     OW22480   2.644   1.357   1.293
 7194SOL    HW122481   2.680   1.448   1.316
 7194SOL    HW222482   2.660   1.294   1.369
 7195SOL     OW22483   6.912   5.241   0.373
 7195SOL    HW122484   6.961   5.167   0.326
 7195SOL    HW222485   6.939   5.329   0.335
 7196SOL     OW22486   3.084   3.182   3.089
 7196SOL    HW122487   3.098   3.097   3.139
 7196SOL    HW222488   3.098   3.260   3.150
 7197SOL     OW22489   6.763   1.701   4.762
 7197SOL    HW122490   6.792   1.780   4.817
 7197SOL    HW222491   6.749   1.622   4.823
 7198SOL     OW22492   1.765   6.762   5.666
 7198SOL    HW122493   1.838   6.695   5.674
 7198SOL    HW222494   1.756   6.791   5.571
 7199SOL     OW22495   6.795   0.940   2.654
 7199SOL    HW122496   6.783   1.015   2.719
 7199SOL    HW222497   6.727   0.869   2.673
 7200SOL     OW22498   2.395   1.086   0.433
 7200SOL    HW122499   2.323   1.052   0.493
 7200SOL    HW222500   2.390   1.039   0.345
 7201SOL     OW22501   1.629   4.958   2.584
 7201SOL    HW122502   1.702   4.953   2.653
 7201SOL    HW222503   1.637   4.881   2.521
 7202SOL     OW22504   3.820   0.205   6.292
 7202SOL    HW122505   3.807   0.114   6.331
 7202SOL    HW222506   3.872   0.197   6.207
 7203SOL     OW22507   6.376   0.430   0.598
 7203SOL    HW122508   6.435   0.459   0.673
 7203SOL    HW222509   6.291   0.482   0.600
 7204SOL     OW22510   6.220   0.732   3.788
 7204SOL    HW122511   6.306   0.717   3.739
 7204SOL    HW222512   6.146   0.684   3.741
 7205SOL     OW22513   1.527   5.241   2.808
 7205SOL    HW122514   1.452   5.293   2.849
 7205SOL    HW222515   1.548   5.278   2.717
 7206SOL     OW22516   0.114   1.446   1.116
 7206SOL    HW122517   0.212   1.452   1.101
 7206SOL    HW222518   0.096   1.413   1.209
 7207SOL     OW22519   3.694   6.691   1.182
 7207SOL    HW122520   3.626   6.764   1.189
 7207SOL    HW222521   3.649   6.608   1.149
 7208SOL     OW22522   3.811   6.969   4.645
 7208SOL    HW122523   3.766   0.004   4.712
 7208SOL    HW222524   3.879   6.912   4.691
 7209SOL     OW22525   3.975   3.422   4.184
 7209SOL    HW122526   3.878   3.399   4.196
 7209SOL    HW222527   4.032   3.355   4.231
 7210SOL     OW22528   4.644   1.226   3.488
 7210SOL    HW122529   4.719   1.169   3.522
 7210SOL    HW222530   4.584   1.172   3.429
 7211SOL     OW22531   1.445   6.542   4.434
 7211SOL    HW122532   1.434   6.540   4.334
 7211SOL    HW222533   1.490   6.628   4.461
 7212SOL     OW22534   6.690   5.740   4.890
 7212SOL    HW122535   6.788   5.720   4.889
 7212SOL    HW222536   6.643   5.675   4.950
 7213SOL     OW22537   5.639   0.125   5.553
 7213SOL    HW122538   5.592   0.058   5.610
 7213SOL    HW222539   5.690   0.188   5.611
 7214SOL     OW22540   2.404   5.559   4.634
 7214SOL    HW122541   2.453   5.561   4.548
 7214SOL    HW222542   2.426   5.475   4.684
 7215SOL     OW22543   1.069   3.208   4.341
 7215SOL    HW122544   1.146   3.205   4.277
 7215SOL    HW222545   1.093   3.159   4.424
 7216SOL     OW22546   2.399   6.213   0.102
 7216SOL    HW122547   2.489   6.242   0.068
 7216SOL    HW222548   2.405   6.118   0.134
 7217SOL     OW22549   1.862   4.405   2.546
 7217SOL    HW122550   1.955   4.371   2.561
 7217SOL    HW222551   1.861   4.463   2.465
 7218SOL     OW22552   4.808   2.066   5.696
 7218SOL    HW122553   4.866   1.984   5.699
 7218SOL    HW222554   4.793   2.099   5.789
 7219SOL     OW22555   4.503   6.748   3.424
 7219SOL    HW122556   4.481   6.840   3.392
 7219SOL    HW222557   4.590   6.719   3.384
 7220SOL     OW22558   6.422   0.958   2.721
 7220SOL    HW122559   6.324   0.948   2.735
 7220SOL    HW222560   6.461   0.870   2.691
 7221SOL     OW22561   5.760   4.559   5.375
 7221SOL    HW122562   5.843   4.614   5.379
 7221SOL    HW222563   5.736   4.542   5.279
 7222SOL     OW22564   6.570   6.735   0.923
 7222SOL    HW122565   6.486   6.687   0.949
 7222SOL    HW222566   6.650   6.682   0.953
 7223SOL     OW22567   3.216   1.397   6.574
 7223SOL    HW122568   3.124   1.359   6.578
 7223SOL    HW222569   3.230   1.461   6.649
 7224SOL     OW22570   5.866   1.115   4.778
 7224SOL    HW122571   5.809   1.035   4.797
 7224SOL    HW222572   5.826   1.167   4.702
 7225SOL     OW22573   1.808   5.625   0.420
 7225SOL    HW122574   1.791   5.606   0.323
 7225SOL    HW222575   1.791   5.542   0.473
 7226SOL     OW22576   0.480   6.711   0.290
 7226SOL    HW122577   0.464   6.676   0.382
 7226SOL    HW222578   0.443   6.804   0.283
 7227SOL     OW22579   0.615   1.845   0.157
 7227SOL    HW122580   0.691   1.871   0.218
 7227SOL    HW222581   0.595   1.921   0.096
 7228SOL     OW22582   6.955   6.709   1.958
 7228SOL    HW122583   6.862   6.708   1.920
 7228SOL    HW222584   6.964   6.786   2.021
 7229SOL     OW22585   1.116   0.136   4.266
 7229SOL    HW122586   1.083   0.086   4.346
 7229SOL    HW222587   1.212   0.160   4.280
 7230SOL     OW22588   4.594   5.360   3.764
 7230SOL    HW122589   4.600   5.322   3.856
 7230SOL    HW222590   4.541   5.445   3.766
 7231SOL     OW22591   6.029   1.841   6.370
 7231SOL    HW122592   5.938   1.829   6.411
 7231SOL    HW222593   6.075   1.753   6.363
 7232SOL     OW22594   4.547   4.675   2.493
 7232SOL    HW122595   4.524   4.639   2.403
 7232SOL    HW222596   4.503   4.765   2.505
 7233SOL     OW22597   0.262   2.822   5.400
 7233SOL    HW122598   0.193   2.862   5.459
 7233SOL    HW222599   0.243   2.846   5.304
 7234SOL     OW22600   6.168   1.811   1.720
 7234SOL    HW122601   6.089   1.871   1.705
 7234SOL    HW222602   6.215   1.795   1.633
 7235SOL     OW22603   5.111   3.572   4.535
 7235SOL    HW122604   5.056   3.556   4.617
 7235SOL    HW222605   5.174   3.648   4.551
 7236SOL     OW22606   3.962   1.553   3.061
 7236SOL    HW122607   3.923   1.603   2.984
 7236SOL    HW222608   4.059   1.536   3.045
 7237SOL     OW22609   6.203   6.130   5.641
 7237SOL    HW122610   6.278   6.087   5.592
 7237SOL    HW222611   6.206   6.101   5.737
 7238SOL     OW22612   2.574   1.901   2.339
 7238SOL    HW122613   2.624   1.904   2.252
 7238SOL    HW222614   2.563   1.806   2.368
 7239SOL     OW22615   1.836   1.132   2.546
 7239SOL    HW122616   1.854   1.036   2.565
 7239SOL    HW222617   1.917   1.186   2.568
 7240SOL     OW22618   2.801   4.189   0.494
 7240SOL    HW122619   2.732   4.241   0.544
 7240SOL    HW222620   2.850   4.129   0.557
 7241SOL     OW22621   3.576   0.175   5.383
 7241SOL    HW122622   3.486   0.155   5.345
 7241SOL    HW222623   3.576   0.160   5.481
 7242SOL     OW22624   5.878   4.531   6.732
 7242SOL    HW122625   5.832   4.479   6.804
 7242SOL    HW222626   5.974   4.501   6.725
 7243SOL     OW22627   0.867   5.580   0.052
 7243SOL    HW122628   0.917   5.529   7.006
 7243SOL    HW222629   0.793   5.523   0.087
 7244SOL     OW22630   5.954   1.787   1.504
 7244SOL    HW122631   6.015   1.792   1.424
 7244SOL    HW222632   5.948   1.692   1.535
 7245SOL     OW22633   0.299   2.030   4.908
 7245SOL    HW122634   0.262   2.072   4.825
 7245SOL    HW222635   0.388   1.988   4.887
 7246SOL     OW22636   5.973   0.173   4.874
 7246SOL    HW122637   6.031   0.116   4.815
 7246SOL    HW222638   5.882   0.181   4.833
 7247SOL     OW22639   2.597   6.083   1.884
 7247SOL    HW122640   2.498   6.075   1.895
 7247SOL    HW222641   2.633   6.145   1.954
 7248SOL     OW22642   4.122   1.292   3.960
 7248SOL    HW122643   4.079   1.204   3.980
 7248SOL    HW222644   4.169   1.288   3.873
 7249SOL     OW22645   5.611   4.587   0.509
 7249SOL    HW122646   5.626   4.651   0.585
 7249SOL    HW222647   5.568   4.504   0.543
 7250SOL     OW22648   2.715   4.921   6.114
 7250SOL    HW122649   2.737   5.000   6.171
 7250SOL    HW222650   2.776   4.919   6.035
 7251SOL     OW22651   6.928   6.900   4.775
 7251SOL    HW122652   6.863   6.974   4.758
 7251SOL    HW222653   6.994   6.928   4.845
 7252SOL     OW22654   3.344   3.218   4.910
 7252SOL    HW122655   3.285   3.145   4.874
 7252SOL    HW222656   3.439   3.187   4.912
 7253SOL     OW22657   3.183   6.152   0.751
 7253SOL    HW122658   3.182   6.140   0.851
 7253SOL    HW222659   3.164   6.064   0.707
 7254SOL     OW22660   4.024   5.930   3.861
 7254SOL    HW122661   4.019   6.021   3.902
 7254SOL    HW222662   3.944   5.914   3.805
 7255SOL     OW22663   3.270   3.512   2.140
 7255SOL    HW122664   3.369   3.524   2.128
 7255SOL    HW222665   3.252   3.429   2.192
 7256SOL     OW22666   4.329   4.692   4.046
 7256SOL    HW122667   4.330   4.665   3.950
 7256SOL    HW222668   4.422   4.715   4.075
 7257SOL     OW22669   5.521   2.297   3.209
 7257SOL    HW122670   5.600   2.258   3.257
 7257SOL    HW222671   5.498   2.239   3.131
 7258SOL     OW22672   3.521   0.409   4.902
 7258SOL    HW122673   3.510   0.494   4.952
 7258SOL    HW222674   3.435   0.384   4.859
 7259SOL     OW22675   2.312   4.292   0.043
 7259SOL    HW122676   2.383   4.233   0.079
 7259SOL    HW222677   2.290   4.363   0.110
 7260SOL     OW22678   3.002   2.107   2.833
 7260SOL    HW122679   3.003   2.151   2.743
 7260SOL    HW222680   2.928   2.145   2.888
 7261SOL     OW22681   2.106   3.242   2.057
 7261SOL    HW122682   2.064   3.192   1.981
 7261SOL    HW222683   2.143   3.329   2.023
 7262SOL     OW22684   5.570   2.012   4.995
 7262SOL    HW122685   5.486   1.959   4.999
 7262SOL    HW222686   5.596   2.040   5.087
 7263SOL     OW22687   1.504   6.060   1.359
 7263SOL    HW122688   1.454   6.121   1.298
 7263SOL    HW222689   1.546   6.113   1.432
 7264SOL     OW22690   6.617   0.862   6.433
 7264SOL    HW122691   6.667   0.785   6.475
 7264SOL    HW222692   6.653   0.879   6.341
 7265SOL     OW22693   4.923   5.022   5.624
 7265SOL    HW122694   4.917   4.952   5.695
 7265SOL    HW222695   4.964   5.104   5.662
 7266SOL     OW22696   4.736   0.615   2.030
 7266SOL    HW122697   4.781   0.646   2.114
 7266SOL    HW222698   4.716   0.694   1.972
 7267SOL     OW22699   6.945   3.854   4.632
 7267SOL    HW122700   6.920   3.763   4.663
 7267SOL    HW222701   6.873   3.919   4.657
 7268SOL     OW22702   4.117   6.475   1.365
 7268SOL    HW122703   4.078   6.399   1.314
 7268SOL    HW222704   4.128   6.554   1.305
 7269SOL     OW22705   1.034   5.855   2.180
 7269SOL    HW122706   1.092   5.791   2.131
 7269SOL    HW222707   0.959   5.806   2.224
 7270SOL     OW22708   2.272   1.438   2.655
 7270SOL    HW122709   2.320   1.386   2.584
 7270SOL    HW222710   2.228   1.518   2.615
 7271SOL     OW22711   0.077   3.853   3.046
 7271SOL    HW122712   0.165   3.854   3.093
 7271SOL    HW222713   0.010   3.804   3.102
 7272SOL     OW22714   4.545   2.457   2.698
 7272SOL    HW122715   4.570   2.365   2.670
 7272SOL    HW222716   4.526   2.512   2.616
 7273SOL     OW22717   5.807   4.379   1.048
 7273SOL    HW122718   5.737   4.447   1.071
 7273SOL    HW222719   5.796   4.352   0.952
 7274SOL     OW22720   6.890   5.019   5.760
 7274SOL    HW122721   6.931   5.022   5.668
 7274SOL    HW222722   6.801   4.974   5.755
 7275SOL     OW22723   6.977   0.616   0.437
 7275SOL    HW122724   6.920   0.588   0.360
 7275SOL    HW222725   0.049   0.620   0.408
 7276SOL     OW22726   2.140   2.546   4.157
 7276SOL    HW122727   2.188   2.627   4.124
 7276SOL    HW222728   2.041   2.560   4.151
 7277SOL     OW22729   4.611   1.828   4.849
 7277SOL    HW122730   4.709   1.847   4.842
 7277SOL    HW222731   4.560   1.890   4.789
 7278SOL     OW22732   3.242   1.284   3.420
 7278SOL    HW122733   3.209   1.364   3.371
 7278SOL    HW222734   3.342   1.289   3.428
 7279SOL     OW22735   4.981   4.954   0.189
 7279SOL    HW122736   4.997   5.020   0.116
 7279SOL    HW222737   4.889   4.968   0.226
 7280SOL     OW22738   5.579   2.120   5.259
 7280SOL    HW122739   5.537   2.201   5.300
 7280SOL    HW222740   5.661   2.147   5.208
 7281SOL     OW22741   3.735   6.755   1.998
 7281SOL    HW122742   3.756   6.689   1.926
 7281SOL    HW222743   3.730   6.709   2.086
 7282SOL     OW22744   6.910   5.627   2.171
 7282SOL    HW122745   6.840   5.637   2.242
 7282SOL    HW222746   6.996   5.666   2.204
 7283SOL     OW22747   4.132   5.251   2.427
 7283SOL    HW122748   4.137   5.186   2.502
 7283SOL    HW222749   4.037   5.268   2.403
 7284SOL     OW22750   6.573   1.543   3.707
 7284SOL    HW122751   6.570   1.565   3.610
 7284SOL    HW222752   6.527   1.614   3.760
 7285SOL     OW22753   4.800   2.912   2.309
 7285SOL    HW122754   4.853   2.976   2.365
 7285SOL    HW222755   4.791   2.948   2.216
 7286SOL     OW22756   0.562   1.228   0.914
 7286SOL    HW122757   0.645   1.277   0.889
 7286SOL    HW222758   0.583   1.160   0.984
 7287SOL     OW22759   1.421   2.701   4.026
 7287SOL    HW122760   1.398   2.633   4.095
 7287SOL    HW222761   1.395   2.792   4.059
 7288SOL     OW22762   3.134   2.077   3.202
 7288SOL    HW122763   3.113   1.979   3.203
 7288SOL    HW222764   3.150   2.108   3.295
 7289SOL     OW22765   6.013   2.262   1.289
 7289SOL    HW122766   5.932   2.204   1.300
 7289SOL    HW222767   6.076   2.219   1.225
 7290SOL     OW22768   3.315   1.573   4.748
 7290SOL    HW122769   3.363   1.551   4.663
 7290SOL    HW222770   3.338   1.505   4.818
 7291SOL     OW22771   4.299   1.122   0.513
 7291SOL    HW122772   4.251   1.178   0.446
 7291SOL    HW222773   4.314   1.030   0.476
 7292SOL     OW22774   1.940   0.015   3.052
 7292SOL    HW122775   1.896   0.012   3.141
 7292SOL    HW222776   1.871   0.017   2.980
 7293SOL     OW22777   1.572   0.821   5.066
 7293SOL    HW122778   1.645   0.841   5.001
 7293SOL    HW222779   1.572   0.889   5.139
 7294SOL     OW22780   2.652   5.802   1.197
 7294SOL    HW122781   2.718   5.860   1.244
 7294SOL    HW222782   2.563   5.808   1.243
 7295SOL     OW22783   6.459   5.213   2.244
 7295SOL    HW122784   6.390   5.142   2.228
 7295SOL    HW222785   6.493   5.246   2.156
 7296SOL     OW22786   4.640   5.144   1.919
 7296SOL    HW122787   4.590   5.105   1.996
 7296SOL    HW222788   4.692   5.071   1.873
 7297SOL     OW22789   3.686   6.241   1.333
 7297SOL    HW122790   3.645   6.307   1.395
 7297SOL    HW222791   3.760   6.193   1.379
 7298SOL     OW22792   5.061   5.910   6.509
 7298SOL    HW122793   5.053   5.868   6.599
 7298SOL    HW222794   5.037   5.843   6.439
 7299SOL     OW22795   1.427   2.979   6.978
 7299SOL    HW122796   1.474   2.920   6.912
 7299SOL    HW222797   1.328   2.974   6.963
 7300SOL     OW22798   0.670   5.206   1.701
 7300SOL    HW122799   0.702   5.153   1.779
 7300SOL    HW222800   0.686   5.154   1.617
 7301SOL     OW22801   5.085   6.765   5.621
 7301SOL    HW122802   5.076   6.779   5.720
 7301SOL    HW222803   5.014   6.816   5.574
 7302SOL     OW22804   5.086   2.068   6.238
 7302SOL    HW122805   5.150   2.143   6.257
 7302SOL    HW222806   5.115   2.020   6.155
 7303SOL     OW22807   2.983   1.333   1.091
 7303SOL    HW122808   2.981   1.391   1.173
 7303SOL    HW222809   2.951   1.241   1.114
 7304SOL     OW22810   2.845   5.698   1.634
 7304SOL    HW122811   2.827   5.693   1.732
 7304SOL    HW222812   2.901   5.779   1.615
 7305SOL     OW22813   6.195   1.920   0.649
 7305SOL    HW122814   6.158   1.904   0.557
 7305SOL    HW222815   6.194   2.018   0.668
 7306SOL     OW22816   2.238   1.904   1.262
 7306SOL    HW122817   2.280   1.822   1.225
 7306SOL    HW222818   2.242   1.901   1.362
 7307SOL     OW22819   1.872   6.596   1.686
 7307SOL    HW122820   1.943   6.571   1.620
 7307SOL    HW222821   1.787   6.615   1.638
 7308SOL     OW22822   5.288   1.237   2.637
 7308SOL    HW122823   5.281   1.143   2.670
 7308SOL    HW222824   5.340   1.292   2.703
 7309SOL     OW22825   1.934   5.608   3.273
 7309SOL    HW122826   1.909   5.517   3.240
 7309SOL    HW222827   1.929   5.673   3.197
 7310SOL     OW22828   2.094   3.235   0.350
 7310SOL    HW122829   2.125   3.140   0.347
 7310SOL    HW222830   2.015   3.245   0.289
 7311SOL     OW22831   6.785   6.549   6.280
 7311SOL    HW122832   6.830   6.465   6.309
 7311SOL    HW222833   6.750   6.537   6.187
 7312SOL     OW22834   6.891   2.380   5.260
 7312SOL    HW122835   6.794   2.403   5.262
 7312SOL    HW222836   6.903   2.287   5.227
 7313SOL     OW22837   2.956   0.936   2.048
 7313SOL    HW122838   3.036   0.969   1.998
 7313SOL    HW222839   2.885   1.007   2.049
 7314SOL     OW22840   0.428   3.972   0.264
 7314SOL    HW122841   0.383   3.940   0.181
 7314SOL    HW222842   0.488   4.049   0.242
 7315SOL     OW22843   1.511   4.619   2.648
 7315SOL    HW122844   1.458   4.540   2.618
 7315SOL    HW222845   1.500   4.631   2.747
 7316SOL     OW22846   3.630   2.119   0.832
 7316SOL    HW122847   3.551   2.176   0.807
 7316SOL    HW222848   3.692   2.113   0.754
 7317SOL     OW22849   3.838   1.874   1.768
 7317SOL    HW122850   3.809   1.969   1.766
 7317SOL    HW222851   3.911   1.859   1.702
 7318SOL     OW22852   3.986   6.765   0.651
 7318SOL    HW122853   3.920   6.712   0.704
 7318SOL    HW222854   4.056   6.802   0.711
 7319SOL     OW22855   6.310   4.487   0.096
 7319SOL    HW122856   6.395   4.443   0.066
 7319SOL    HW222857   6.285   4.558   0.030
 7320SOL     OW22858   6.776   2.785   1.076
 7320SOL    HW122859   6.856   2.750   1.027
 7320SOL    HW222860   6.759   2.728   1.157
 7321SOL     OW22861   1.273   0.138   6.790
 7321SOL    HW122862   1.319   0.166   6.874
 7321SOL    HW222863   1.342   0.108   6.723
 7322SOL     OW22864   0.304   2.914   2.709
 7322SOL    HW122865   0.316   3.004   2.666
 7322SOL    HW222866   0.343   2.843   2.650
 7323SOL     OW22867   1.262   1.923   1.666
 7323SOL    HW122868   1.195   1.991   1.697
 7323SOL    HW222869   1.352   1.966   1.660
 7324SOL     OW22870   5.656   4.722   3.340
 7324SOL    HW122871   5.697   4.811   3.359
 7324SOL    HW222872   5.639   4.674   3.427
 7325SOL     OW22873   4.321   0.842   6.178
 7325SOL    HW122874   4.409   0.795   6.185
 7325SOL    HW222875   4.336   0.936   6.147
 7326SOL     OW22876   2.490   0.587   6.899
 7326SOL    HW122877   2.469   0.490   6.911
 7326SOL    HW222878   2.568   0.597   6.837
 7327SOL     OW22879   6.872   3.893   2.670
 7327SOL    HW122880   6.779   3.860   2.655
 7327SOL    HW222881   6.906   3.936   2.586
 7328SOL     OW22882   4.281   4.818   4.974
 7328SOL    HW122883   4.332   4.732   4.962
 7328SOL    HW222884   4.186   4.804   4.947
 7329SOL     OW22885   2.909   3.013   0.803
 7329SOL    HW122886   2.819   2.971   0.788
 7329SOL    HW222887   2.926   3.082   0.733
 7330SOL     OW22888   3.307   3.331   0.932
 7330SOL    HW122889   3.216   3.318   0.970
 7330SOL    HW222890   3.375   3.287   0.992
 7331SOL     OW22891   4.905   0.576   2.898
 7331SOL    HW122892   4.953   0.631   2.829
 7331SOL    HW222893   4.905   0.625   2.985
 7332SOL     OW22894   2.792   4.300   6.668
 7332SOL    HW122895   2.743   4.244   6.602
 7332SOL    HW222896   2.846   4.370   6.620
 7333SOL     OW22897   6.883   2.456   1.302
 7333SOL    HW122898   6.820   2.380   1.313
 7333SOL    HW222899   6.842   2.540   1.337
 7334SOL     OW22900   3.021   0.374   5.178
 7334SOL    HW122901   2.950   0.443   5.195
 7334SOL    HW222902   2.998   0.291   5.229
 7335SOL     OW22903   6.824   2.623   2.459
 7335SOL    HW122904   6.811   2.674   2.544
 7335SOL    HW222905   6.838   2.688   2.383
 7336SOL     OW22906   1.350   6.214   1.186
 7336SOL    HW122907   1.420   6.277   1.153
 7336SOL    HW222908   1.283   6.197   1.113
 7337SOL     OW22909   2.398   2.413   2.630
 7337SOL    HW122910   2.385   2.493   2.690
 7337SOL    HW222911   2.315   2.358   2.630
 7338SOL     OW22912   5.923   3.130   1.825
 7338SOL    HW122913   6.020   3.125   1.851
 7338SOL    HW222914   5.884   3.038   1.825
 7339SOL     OW22915   6.767   5.412   4.743
 7339SOL    HW122916   6.711   5.476   4.691
 7339SOL    HW222917   6.709   5.343   4.785
 7340SOL     OW22918   2.789   0.366   0.283
 7340SOL    HW122919   2.829   0.324   0.364
 7340SOL    HW222920   2.861   0.408   0.228
 7341SOL     OW22921   6.463   4.795   3.815
 7341SOL    HW122922   6.433   4.711   3.860
 7341SOL    HW222923   6.402   4.871   3.841
 7342SOL     OW22924   6.856   0.195   0.804
 7342SOL    HW122925   6.870   0.118   0.741
 7342SOL    HW222926   6.833   0.277   0.751
 7343SOL     OW22927   6.408   4.053   2.142
 7343SOL    HW122928   6.478   4.102   2.090
 7343SOL    HW222929   6.378   4.111   2.219
 7344SOL     OW22930   1.578   6.382   0.194
 7344SOL    HW122931   1.644   6.455   0.176
 7344SOL    HW222932   1.609   6.298   0.148
 7345SOL     OW22933   4.160   5.280   6.305
 7345SOL    HW122934   4.075   5.284   6.358
 7345SOL    HW222935   4.175   5.186   6.275
 7346SOL     OW22936   3.943   4.726   1.806
 7346SOL    HW122937   3.968   4.702   1.900
 7346SOL    HW222938   4.026   4.737   1.751
 7347SOL     OW22939   6.290   1.655   2.187
 7347SOL    HW122940   6.258   1.715   2.114
 7347SOL    HW222941   6.389   1.660   2.194
 7348SOL     OW22942   1.440   1.817   3.486
 7348SOL    HW122943   1.354   1.817   3.537
 7348SOL    HW222944   1.509   1.867   3.538
 7349SOL     OW22945   3.591   1.668   0.554
 7349SOL    HW122946   3.628   1.611   0.481
 7349SOL    HW222947   3.648   1.661   0.635
 7350SOL     OW22948   1.681   2.300   3.196
 7350SOL    HW122949   1.634   2.370   3.142
 7350SOL    HW222950   1.613   2.246   3.246
 7351SOL     OW22951   4.663   4.682   0.146
 7351SOL    HW122952   4.660   4.640   0.237
 7351SOL    HW222953   4.722   4.628   0.086
 7352SOL     OW22954   0.684   2.053   2.803
 7352SOL    HW122955   0.636   1.997   2.736
 7352SOL    HW222956   0.639   2.045   2.892
 7353SOL     OW22957   5.531   1.610   4.381
 7353SOL    HW122958   5.590   1.642   4.456
 7353SOL    HW222959   5.528   1.680   4.310
 7354SOL     OW22960   6.266   5.985   5.880
 7354SOL    HW122961   6.307   5.918   5.942
 7354SOL    HW222962   6.282   6.077   5.916
 7355SOL     OW22963   1.459   5.413   1.603
 7355SOL    HW122964   1.383   5.363   1.645
 7355SOL    HW222965   1.522   5.444   1.674
 7356SOL     OW22966   6.396   1.799   6.075
 7356SOL    HW122967   6.316   1.777   6.019
 7356SOL    HW222968   6.418   1.722   6.135
 7357SOL     OW22969   6.166   2.190   6.906
 7357SOL    HW122970   6.081   2.143   6.932
 7357SOL    HW222971   6.244   2.128   6.921
 7358SOL     OW22972   3.231   1.324   4.387
 7358SOL    HW122973   3.294   1.247   4.397
 7358SOL    HW222974   3.145   1.292   4.347
 7359SOL     OW22975   3.685   2.964   3.014
 7359SOL    HW122976   3.716   2.951   3.108
 7359SOL    HW222977   3.606   2.904   2.997
 7360SOL     OW22978   0.823   2.922   5.312
 7360SOL    HW122979   0.827   2.850   5.243
 7360SOL    HW222980   0.869   2.891   5.395
 7361SOL     OW22981   5.125   6.038   2.020
 7361SOL    HW122982   5.194   6.033   2.093
 7361SOL    HW222983   5.058   6.109   2.043
 7362SOL     OW22984   2.188   5.631   5.610
 7362SOL    HW122985   2.276   5.589   5.589
 7362SOL    HW222986   2.202   5.720   5.651
 7363SOL     OW22987   4.834   2.994   6.960
 7363SOL    HW122988   4.770   3.070   6.948
 7363SOL    HW222989   4.920   3.029   6.996
 7364SOL     OW22990   4.429   6.248   1.279
 7364SOL    HW122991   4.478   6.262   1.365
 7364SOL    HW222992   4.417   6.336   1.233
 7365SOL     OW22993   2.481   6.993   2.079
 7365SOL    HW122994   2.438   6.957   1.996
 7365SOL    HW222995   2.566   6.943   2.096
 7366SOL     OW22996   0.212   5.081   0.018
 7366SOL    HW122997   0.225   5.013   6.970
 7366SOL    HW222998   0.163   5.160   7.005
 7367SOL     OW22999   4.804   3.876   1.893
 7367SOL    HW123000   4.862   3.925   1.827
 7367SOL    HW223001   4.799   3.927   1.978
 7368SOL     OW23002   3.011   3.345   4.889
 7368SOL    HW123003   2.951   3.310   4.817
 7368SOL    HW223004   3.001   3.444   4.894
 7369SOL     OW23005   5.172   3.687   0.961
 7369SOL    HW123006   5.179   3.591   0.933
 7369SOL    HW223007   5.189   3.746   0.883
 7370SOL     OW23008   2.797   6.997   0.764
 7370SOL    HW123009   2.836   7.022   0.852
 7370SOL    HW223010   2.859   6.933   0.717
 7371SOL     OW23011   3.091   4.982   4.138
 7371SOL    HW123012   3.144   4.954   4.058
 7371SOL    HW223013   2.996   4.951   4.127
 7372SOL     OW23014   3.292   0.347   5.508
 7372SOL    HW123015   3.326   0.253   5.508
 7372SOL    HW223016   3.287   0.381   5.415
 7373SOL     OW23017   3.573   0.843   2.340
 7373SOL    HW123018   3.668   0.835   2.371
 7373SOL    HW223019   3.529   0.919   2.388
 7374SOL     OW23020   1.231   3.049   6.753
 7374SOL    HW123021   1.309   2.998   6.715
 7374SOL    HW223022   1.205   3.122   6.691
 7375SOL     OW23023   1.166   0.437   4.289
 7375SOL    HW123024   1.155   0.339   4.275
 7375SOL    HW223025   1.082   0.475   4.327
 7376SOL     OW23026   2.645   3.268   0.202
 7376SOL    HW123027   2.659   3.202   0.128
 7376SOL    HW223028   2.618   3.221   0.285
 7377SOL     OW23029   4.565   4.590   2.009
 7377SOL    HW123030   4.664   4.598   2.007
 7377SOL    HW223031   4.539   4.494   1.996
 7378SOL     OW23032   6.951   1.095   4.839
 7378SOL    HW123033   6.852   1.102   4.849
 7378SOL    HW223034   6.974   1.011   4.790
 7379SOL     OW23035   4.067   1.461   2.405
 7379SOL    HW123036   4.004   1.538   2.397
 7379SOL    HW223037   4.137   1.468   2.335
 7380SOL     OW23038   0.101   3.536   5.917
 7380SOL    HW123039   0.091   3.635   5.919
 7380SOL    HW223040   0.198   3.513   5.905
 7381SOL     OW23041   4.550   2.072   2.178
 7381SOL    HW123042   4.570   2.003   2.109
 7381SOL    HW223043   4.452   2.092   2.178
 7382SOL     OW23044   0.106   4.775   4.268
 7382SOL    HW123045   0.051   4.853   4.297
 7382SOL    HW223046   0.181   4.761   4.333
 7383SOL     OW23047   0.003   6.363   3.226
 7383SOL    HW123048   7.022   6.452   3.180
 7383SOL    HW223049   0.062   6.301   3.174
 7384SOL     OW23050   5.308   6.559   2.337
 7384SOL    HW123051   5.401   6.556   2.373
 7384SOL    HW223052   5.262   6.642   2.370
 7385SOL     OW23053   4.702   5.973   1.398
 7385SOL    HW123054   4.643   5.981   1.318
 7385SOL    HW223055   4.748   6.060   1.416
 7386SOL     OW23056   0.957   2.471   5.571
 7386SOL    HW123057   1.032   2.523   5.612
 7386SOL    HW223058   0.902   2.429   5.643
 7387SOL     OW23059   4.091   5.333   3.765
 7387SOL    HW123060   4.109   5.318   3.862
 7387SOL    HW223061   4.149   5.273   3.710
 7388SOL     OW23062   6.659   4.417   3.802
 7388SOL    HW123063   6.661   4.347   3.873
 7388SOL    HW223064   6.568   4.458   3.798
 7389SOL     OW23065   1.797   4.671   6.948
 7389SOL    HW123066   1.719   4.702   6.894
 7389SOL    HW223067   1.774   4.674   0.022
 7390SOL     OW23068   0.717   1.072   5.798
 7390SOL    HW123069   0.657   0.993   5.813
 7390SOL    HW223070   0.785   1.076   5.871
 7391SOL     OW23071   6.397   3.358   6.401
 7391SOL    HW123072   6.307   3.386   6.435
 7391SOL    HW223073   6.416   3.264   6.431
 7392SOL     OW23074   1.360   4.967   4.239
 7392SOL    HW123075   1.437   4.914   4.274
 7392SOL    HW223076   1.279   4.908   4.233
 7393SOL     OW23077   6.942   5.296   2.209
 7393SOL    HW123078   0.011   5.323   2.234
 7393SOL    HW223079   6.890   5.378   2.183
 7394SOL     OW23080   3.735   3.350   6.242
 7394SOL    HW123081   3.739   3.268   6.185
 7394SOL    HW223082   3.732   3.432   6.184
 7395SOL     OW23083   0.699   0.030   0.285
 7395SOL    HW123084   0.735   6.961   0.284
 7395SOL    HW223085   0.683   0.061   0.191
 7396SOL     OW23086   1.346   0.350   6.323
 7396SOL    HW123087   1.445   0.337   6.332
 7396SOL    HW223088   1.318   0.428   6.379
 7397SOL     OW23089   6.817   4.856   5.311
 7397SOL    HW123090   6.913   4.882   5.304
 7397SOL    HW223091   6.810   4.758   5.333
 7398SOL     OW23092   4.602   4.699   4.130
 7398SOL    HW123093   4.665   4.775   4.140
 7398SOL    HW223094   4.609   4.638   4.209
 7399SOL     OW23095   5.346   3.838   6.133
 7399SOL    HW123096   5.324   3.754   6.084
 7399SOL    HW223097   5.269   3.902   6.127
 7400SOL     OW23098   3.052   4.963   6.628
 7400SOL    HW123099   3.000   4.995   6.548
 7400SOL    HW223100   3.103   4.881   6.603
 7401SOL     OW23101   0.187   1.717   4.082
 7401SOL    HW123102   0.281   1.684   4.078
 7401SOL    HW223103   0.171   1.781   4.007
 7402SOL     OW23104   2.584   0.378   3.695
 7402SOL    HW123105   2.678   0.344   3.686
 7402SOL    HW223106   2.526   0.332   3.628
 7403SOL     OW23107   2.062   3.211   2.841
 7403SOL    HW123108   2.003   3.233   2.919
 7403SOL    HW223109   2.069   3.290   2.781
 7404SOL     OW23110   1.333   0.682   1.248
 7404SOL    HW123111   1.376   0.643   1.167
 7404SOL    HW223112   1.233   0.674   1.241
 7405SOL     OW23113   2.781   5.199   5.497
 7405SOL    HW123114   2.752   5.181   5.591
 7405SOL    HW223115   2.826   5.117   5.460
 7406SOL     OW23116   1.508   4.288   2.249
 7406SOL    HW123117   1.425   4.232   2.254
 7406SOL    HW223118   1.585   4.238   2.286
 7407SOL     OW23119   1.420   6.190   5.448
 7407SOL    HW123120   1.343   6.144   5.493
 7407SOL    HW223121   1.404   6.191   5.349
 7408SOL     OW23122   1.422   4.482   5.366
 7408SOL    HW123123   1.453   4.534   5.446
 7408SOL    HW223124   1.478   4.506   5.287
 7409SOL     OW23125   1.570   0.443   4.901
 7409SOL    HW123126   1.499   0.506   4.932
 7409SOL    HW223127   1.555   0.353   4.943
 7410SOL     OW23128   6.816   5.505   1.096
 7410SOL    HW123129   6.798   5.601   1.119
 7410SOL    HW223130   6.895   5.473   1.147
 7411SOL     OW23131   2.843   6.259   4.873
 7411SOL    HW123132   2.788   6.252   4.790
 7411SOL    HW223133   2.784   6.286   4.949
 7412SOL     OW23134   1.787   1.118   1.359
 7412SOL    HW123135   1.737   1.044   1.314
 7412SOL    HW223136   1.859   1.079   1.417
 7413SOL     OW23137   5.891   3.816   4.519
 7413SOL    HW123138   5.864   3.730   4.477
 7413SOL    HW223139   5.886   3.889   4.450
 7414SOL     OW23140   6.490   6.617   2.264
 7414SOL    HW123141   6.501   6.528   2.309
 7414SOL    HW223142   6.457   6.604   2.171
 7415SOL     OW23143   2.006   3.144   3.187
 7415SOL    HW123144   2.082   3.182   3.240
 7415SOL    HW223145   1.939   3.105   3.250
 7416SOL     OW23146   3.796   1.125   4.201
 7416SOL    HW123147   3.732   1.054   4.230
 7416SOL    HW223148   3.744   1.204   4.166
 7417SOL     OW23149   1.415   6.895   6.891
 7417SOL    HW123150   1.406   6.851   6.802
 7417SOL    HW223151   1.355   6.850   6.957
 7418SOL     OW23152   2.813   3.939   1.397
 7418SOL    HW123153   2.818   3.887   1.482
 7418SOL    HW223154   2.736   4.002   1.401
 7419SOL     OW23155   5.632   1.595   5.256
 7419SOL    HW123156   5.648   1.590   5.157
 7419SOL    HW223157   5.719   1.608   5.303
 7420SOL     OW23158   6.690   5.934   2.114
 7420SOL    HW123159   6.650   5.843   2.122
 7420SOL    HW223160   6.618   6.001   2.098
 7421SOL     OW23161   3.933   3.766   1.749
 7421SOL    HW123162   3.864   3.820   1.798
 7421SOL    HW223163   4.000   3.828   1.709
 7422SOL     OW23164   0.171   3.442   0.552
 7422SOL    HW123165   0.094   3.505   0.552
 7422SOL    HW223166   0.205   3.431   0.646
 7423SOL     OW23167   1.756   4.884   5.959
 7423SOL    HW123168   1.853   4.895   5.982
 7423SOL    HW223169   1.748   4.836   5.872
 7424SOL     OW23170   5.332   0.796   4.446
 7424SOL    HW123171   5.302   0.836   4.359
 7424SOL    HW223172   5.395   0.859   4.491
 7425SOL     OW23173   3.876   4.582   5.894
 7425SOL    HW123174   3.921   4.645   5.958
 7425SOL    HW223175   3.891   4.613   5.800
 7426SOL     OW23176   0.918   1.493   6.158
 7426SOL    HW123177   0.992   1.449   6.209
 7426SOL    HW223178   0.861   1.422   6.115
 7427SOL     OW23179   3.268   5.885   4.973
 7427SOL    HW123180   3.325   5.808   4.999
 7427SOL    HW223181   3.175   5.853   4.956
 7428SOL     OW23182   3.609   2.524   5.878
 7428SOL    HW123183   3.559   2.599   5.923
 7428SOL    HW223184   3.552   2.484   5.807
 7429SOL     OW23185   0.314   0.735   2.666
 7429SOL    HW123186   0.277   0.762   2.755
 7429SOL    HW223187   0.365   0.649   2.676
 7430SOL     OW23188   6.396   3.687   5.290
 7430SOL    HW123189   6.310   3.671   5.242
 7430SOL    HW223190   6.449   3.756   5.241
 7431SOL     OW23191   0.546   3.413   2.072
 7431SOL    HW123192   0.510   3.470   2.146
 7431SOL    HW223193   0.505   3.442   1.985
 7432SOL     OW23194   0.055   6.658   4.129
 7432SOL    HW123195   0.104   6.740   4.159
 7432SOL    HW223196   0.059   6.651   4.029
 7433SOL     OW23197   6.205   5.272   0.770
 7433SOL    HW123198   6.161   5.232   0.850
 7433SOL    HW223199   6.148   5.253   0.689
 7434SOL     OW23200   2.947   1.902   6.675
 7434SOL    HW123201   3.022   1.893   6.741
 7434SOL    HW223202   2.897   1.816   6.669
 7435SOL     OW23203   2.968   6.151   6.479
 7435SOL    HW123204   2.929   6.240   6.455
 7435SOL    HW223205   2.895   6.084   6.490
 7436SOL     OW23206   5.245   3.103   6.642
 7436SOL    HW123207   5.212   3.011   6.664
 7436SOL    HW223208   5.344   3.101   6.630
 7437SOL     OW23209   0.416   5.751   6.008
 7437SOL    HW123210   0.445   5.763   6.103
 7437SOL    HW223211   0.467   5.813   5.949
 7438SOL     OW23212   0.563   4.504   2.279
 7438SOL    HW123213   0.487   4.453   2.240
 7438SOL    HW223214   0.649   4.466   2.246
 7439SOL     OW23215   2.083   6.775   3.780
 7439SOL    HW123216   1.995   6.734   3.756
 7439SOL    HW223217   2.123   6.724   3.856
 7440SOL     OW23218   0.933   2.598   4.165
 7440SOL    HW123219   0.939   2.498   4.156
 7440SOL    HW223220   0.888   2.620   4.251
 7441SOL     OW23221   5.409   1.107   4.114
 7441SOL    HW123222   5.412   1.033   4.046
 7441SOL    HW223223   5.491   1.104   4.171
 7442SOL     OW23224   1.305   1.732   6.128
 7442SOL    HW123225   1.360   1.656   6.162
 7442SOL    HW223226   1.363   1.813   6.114
 7443SOL     OW23227   1.114   1.387   6.308
 7443SOL    HW123228   1.072   1.337   6.384
 7443SOL    HW223229   1.212   1.396   6.325
 7444SOL     OW23230   0.407   3.497   5.941
 7444SOL    HW123231   0.472   3.479   6.015
 7444SOL    HW223232   0.447   3.561   5.876
 7445SOL     OW23233   5.165   1.393   1.819
 7445SOL    HW123234   5.119   1.305   1.806
 7445SOL    HW223235   5.248   1.396   1.763
 7446SOL     OW23236   6.647   3.716   1.154
 7446SOL    HW123237   6.625   3.745   1.247
 7446SOL    HW223238   6.723   3.771   1.119
 7447SOL     OW23239   1.309   4.277   0.367
 7447SOL    HW123240   1.397   4.269   0.414
 7447SOL    HW223241   1.264   4.362   0.395
 7448SOL     OW23242   5.497   0.191   5.321
 7448SOL    HW123243   5.549   0.256   5.265
 7448SOL    HW223244   5.553   0.163   5.399
 7449SOL     OW23245   4.970   2.200   2.156
 7449SOL    HW123246   5.054   2.253   2.163
 7449SOL    HW223247   4.975   2.121   2.217
 7450SOL     OW23248   4.488   2.040   2.911
 7450SOL    HW123249   4.461   1.944   2.917
 7450SOL    HW223250   4.407   2.097   2.898
 7451SOL     OW23251   1.832   0.893   4.626
 7451SOL    HW123252   1.885   0.883   4.542
 7451SOL    HW223253   1.771   0.815   4.636
 7452SOL     OW23254   2.126   7.008   4.460
 7452SOL    HW123255   2.121   6.951   4.378
 7452SOL    HW223256   2.206   0.044   4.455
 7453SOL     OW23257   5.826   6.510   5.146
 7453SOL    HW123258   5.772   6.572   5.090
 7453SOL    HW223259   5.792   6.416   5.135
 7454SOL     OW23260   0.605   3.911   1.767
 7454SOL    HW123261   0.644   3.849   1.699
 7454SOL    HW223262   0.592   4.001   1.726
 7455SOL     OW23263   4.936   2.623   0.494
 7455SOL    HW123264   4.883   2.539   0.474
 7455SOL    HW223265   4.879   2.685   0.547
 7456SOL     OW23266   1.364   3.386   4.935
 7456SOL    HW123267   1.329   3.367   5.027
 7456SOL    HW223268   1.289   3.418   4.877
 7457SOL     OW23269   5.654   0.951   5.067
 7457SOL    HW123270   5.700   0.999   5.142
 7457SOL    HW223271   5.633   1.017   4.995
 7458SOL     OW23272   3.096   0.636   6.820
 7458SOL    HW123273   3.117   0.539   6.821
 7458SOL    HW223274   3.020   0.654   6.758
 7459SOL     OW23275   4.784   0.267   5.559
 7459SOL    HW123276   4.707   0.248   5.498
 7459SOL    HW223277   4.820   0.358   5.539
 7460SOL     OW23278   0.788   4.574   0.691
 7460SOL    HW123279   0.871   4.526   0.718
 7460SOL    HW223280   0.807   4.672   0.684
 7461SOL     OW23281   5.669   0.996   5.392
 7461SOL    HW123282   5.600   1.067   5.381
 7461SOL    HW223283   5.629   0.906   5.372
 7462SOL     OW23284   2.332   1.987   2.165
 7462SOL    HW123285   2.389   1.961   2.244
 7462SOL    HW223286   2.236   1.967   2.185
 7463SOL     OW23287   4.265   3.155   1.795
 7463SOL    HW123288   4.225   3.127   1.883
 7463SOL    HW223289   4.247   3.252   1.779
 7464SOL     OW23290   4.622   6.388   0.838
 7464SOL    HW123291   4.527   6.362   0.823
 7464SOL    HW223292   4.671   6.310   0.877
 7465SOL     OW23293   2.496   0.366   1.746
 7465SOL    HW123294   2.493   0.465   1.756
 7465SOL    HW223295   2.408   0.333   1.712
 7466SOL     OW23296   0.328   0.191   6.891
 7466SOL    HW123297   0.229   0.200   6.881
 7466SOL    HW223298   0.357   0.233   6.976
 7467SOL     OW23299   0.289   2.104   1.208
 7467SOL    HW123300   0.369   2.162   1.218
 7467SOL    HW223301   0.217   2.135   1.270
 7468SOL     OW23302   5.488   1.580   3.040
 7468SOL    HW123303   5.453   1.580   3.134
 7468SOL    HW223304   5.423   1.532   2.980
 7469SOL     OW23305   1.126   1.101   0.318
 7469SOL    HW123306   1.219   1.137   0.324
 7469SOL    HW223307   1.116   1.048   0.233
 7470SOL     OW23308   0.252   2.074   1.956
 7470SOL    HW123309   0.239   2.037   1.864
 7470SOL    HW223310   0.254   1.998   2.022
 7471SOL     OW23311   6.591   6.403   5.315
 7471SOL    HW123312   6.502   6.383   5.356
 7471SOL    HW223313   6.588   6.492   5.270
 7472SOL     OW23314   3.995   0.208   4.372
 7472SOL    HW123315   4.024   0.265   4.449
 7472SOL    HW223316   4.003   0.111   4.398
 7473SOL     OW23317   6.759   3.484   4.135
 7473SOL    HW123318   6.853   3.500   4.104
 7473SOL    HW223319   6.747   3.523   4.226
 7474SOL     OW23320   3.655   0.985   3.850
 7474SOL    HW123321   3.724   0.961   3.781
 7474SOL    HW223322   3.670   0.930   3.933
 7475SOL     OW23323   3.852   0.353   1.394
 7475SOL    HW123324   3.900   0.288   1.452
 7475SOL    HW223325   3.911   0.431   1.375
 7476SOL     OW23326   4.088   5.764   4.491
 7476SOL    HW123327   4.016   5.832   4.479
 7476SOL    HW223328   4.068   5.707   4.571
 7477SOL     OW23329   4.387   1.014   3.669
 7477SOL    HW123330   4.416   0.976   3.582
 7477SOL    HW223331   4.292   1.045   3.662
 7478SOL     OW23332   2.521   3.931   6.647
 7478SOL    HW123333   2.568   3.964   6.729
 7478SOL    HW223334   2.433   3.978   6.638
 7479SOL     OW23335   4.610   0.718   0.376
 7479SOL    HW123336   4.649   0.682   0.292
 7479SOL    HW223337   4.677   0.712   0.450
 7480SOL     OW23338   5.699   5.735   1.443
 7480SOL    HW123339   5.615   5.787   1.459
 7480SOL    HW223340   5.761   5.788   1.386
 7481SOL     OW23341   6.125   4.554   0.801
 7481SOL    HW123342   6.037   4.539   0.757
 7481SOL    HW223343   6.172   4.630   0.756
 7482SOL     OW23344   4.906   0.941   2.693
 7482SOL    HW123345   4.863   0.851   2.687
 7482SOL    HW223346   4.847   1.002   2.747
 7483SOL     OW23347   3.599   1.640   4.362
 7483SOL    HW123348   3.661   1.710   4.398
 7483SOL    HW223349   3.548   1.599   4.437
 7484SOL     OW23350   1.893   6.193   1.749
 7484SOL    HW123351   1.965   6.139   1.793
 7484SOL    HW223352   1.871   6.272   1.806
 7485SOL     OW23353   3.441   5.620   5.791
 7485SOL    HW123354   3.479   5.548   5.848
 7485SOL    HW223355   3.349   5.644   5.825
 7486SOL     OW23356   3.379   6.014   5.192
 7486SOL    HW123357   3.345   5.979   5.105
 7486SOL    HW223358   3.309   6.073   5.233
 7487SOL     OW23359   3.103   6.568   3.381
 7487SOL    HW123360   3.154   6.482   3.379
 7487SOL    HW223361   3.020   6.558   3.326
 7488SOL     OW23362   3.048   0.034   5.513
 7488SOL    HW123363   3.146   0.042   5.527
 7488SOL    HW223364   3.010   6.992   5.578
 7489SOL     OW23365   4.584   2.542   4.110
 7489SOL    HW123366   4.620   2.449   4.097
 7489SOL    HW223367   4.653   2.598   4.155
 7490SOL     OW23368   6.827   1.143   0.973
 7490SOL    HW123369   6.878   1.058   0.957
 7490SOL    HW223370   6.733   1.132   0.942
 7491SOL     OW23371   0.102   5.575   6.313
 7491SOL    HW123372   0.090   5.650   6.249
 7491SOL    HW223373   0.168   5.510   6.276
 7492SOL     OW23374   2.127   2.938   5.187
 7492SOL    HW123375   2.038   2.980   5.166
 7492SOL    HW223376   2.188   2.949   5.109
 7493SOL     OW23377   5.675   4.043   6.213
 7493SOL    HW123378   5.578   4.067   6.216
 7493SOL    HW223379   5.686   3.947   6.240
 7494SOL     OW23380   5.827   0.917   1.919
 7494SOL    HW123381   5.772   0.834   1.926
 7494SOL    HW223382   5.830   0.962   2.009
 7495SOL     OW23383   2.749   1.710   0.370
 7495SOL    HW123384   2.792   1.800   0.382
 7495SOL    HW223385   2.709   1.680   0.456
 7496SOL     OW23386   0.935   5.269   6.301
 7496SOL    HW123387   0.864   5.319   6.251
 7496SOL    HW223388   0.974   5.328   6.371
 7497SOL     OW23389   2.258   4.742   2.525
 7497SOL    HW123390   2.320   4.733   2.602
 7497SOL    HW223391   2.174   4.787   2.555
 7498SOL     OW23392   2.521   1.080   4.828
 7498SOL    HW123393   2.483   1.129   4.907
 7498SOL    HW223394   2.593   1.019   4.859
 7499SOL     OW23395   5.286   6.636   4.576
 7499SOL    HW123396   5.340   6.607   4.497
 7499SOL    HW223397   5.293   6.568   4.648
 7500SOL     OW23398   4.846   5.837   1.968
 7500SOL    HW123399   4.793   5.773   1.913
 7500SOL    HW223400   4.943   5.815   1.961
 7501SOL     OW23401   1.196   3.425   3.757
 7501SOL    HW123402   1.217   3.343   3.810
 7501SOL    HW223403   1.115   3.470   3.795
 7502SOL     OW23404   2.263   0.991   4.704
 7502SOL    HW123405   2.222   0.926   4.640
 7502SOL    HW223406   2.310   1.063   4.653
 7503SOL     OW23407   2.893   0.840   6.697
 7503SOL    HW123408   2.972   0.887   6.736
 7503SOL    HW223409   2.912   0.816   6.602
 7504SOL     OW23410   3.825   6.508   3.321
 7504SOL    HW123411   3.748   6.484   3.262
 7504SOL    HW223412   3.902   6.538   3.265
 7505SOL     OW23413   1.624   1.096   5.201
 7505SOL    HW123414   1.696   1.039   5.241
 7505SOL    HW223415   1.650   1.121   5.108
 7506SOL     OW23416   3.255   0.769   2.438
 7506SOL    HW123417   3.259   0.822   2.352
 7506SOL    HW223418   3.278   0.674   2.419
 7507SOL     OW23419   0.134   6.311   6.081
 7507SOL    HW123420   0.134   6.293   5.982
 7507SOL    HW223421   0.130   6.409   6.097
 7508SOL     OW23422   5.558   6.677   3.456
 7508SOL    HW123423   5.634   6.730   3.418
 7508SOL    HW223424   5.528   6.609   3.389
 7509SOL     OW23425   5.386   3.801   6.643
 7509SOL    HW123426   5.388   3.703   6.662
 7509SOL    HW223427   5.333   3.818   6.561
 7510SOL     OW23428   3.285   3.992   4.675
 7510SOL    HW123429   3.361   4.035   4.725
 7510SOL    HW223430   3.320   3.917   4.619
 7511SOL     OW23431   1.694   0.145   2.317
 7511SOL    HW123432   1.757   0.142   2.239
 7511SOL    HW223433   1.746   0.140   2.402
 7512SOL     OW23434   2.584   3.048   1.307
 7512SOL    HW123435   2.646   3.100   1.365
 7512SOL    HW223436   2.610   2.952   1.307
 7513SOL     OW23437   1.578   2.341   5.863
 7513SOL    HW123438   1.564   2.303   5.772
 7513SOL    HW223439   1.647   2.414   5.858
 7514SOL     OW23440   2.958   6.138   1.921
 7514SOL    HW123441   2.982   6.223   1.966
 7514SOL    HW223442   2.911   6.078   1.986
 7515SOL     OW23443   0.230   0.240   2.935
 7515SOL    HW123444   0.131   0.253   2.943
 7515SOL    HW223445   0.275   0.329   2.929
 7516SOL     OW23446   6.950   0.262   4.497
 7516SOL    HW123447   6.967   0.225   4.588
 7516SOL    HW223448   6.999   0.208   4.429
 7517SOL     OW23449   0.270   3.600   1.322
 7517SOL    HW123450   0.206   3.613   1.246
 7517SOL    HW223451   0.256   3.510   1.363
 7518SOL     OW23452   4.147   5.754   3.143
 7518SOL    HW123453   4.179   5.717   3.056
 7518SOL    HW223454   4.198   5.714   3.218
 7519SOL     OW23455   1.316   6.602   4.802
 7519SOL    HW123456   1.320   6.518   4.749
 7519SOL    HW223457   1.224   6.641   4.796
 7520SOL     OW23458   1.517   6.423   3.338
 7520SOL    HW123459   1.479   6.511   3.309
 7520SOL    HW223460   1.450   6.351   3.320
 7521SOL     OW23461   4.569   4.306   5.157
 7521SOL    HW123462   4.626   4.290   5.237
 7521SOL    HW223463   4.473   4.307   5.184
 7522SOL     OW23464   2.165   1.285   0.147
 7522SOL    HW123465   2.129   1.374   0.119
 7522SOL    HW223466   2.263   1.292   0.162
 7523SOL     OW23467   5.803   0.213   5.822
 7523SOL    HW123468   5.874   0.180   5.759
 7523SOL    HW223469   5.775   0.305   5.794
 7524SOL     OW23470   0.402   1.928   5.766
 7524SOL    HW123471   0.498   1.921   5.740
 7524SOL    HW223472   0.378   1.852   5.826
 7525SOL     OW23473   1.830   0.779   0.382
 7525SOL    HW123474   1.733   0.762   0.367
 7525SOL    HW223475   1.883   0.698   0.359
 7526SOL     OW23476   3.668   3.068   4.566
 7526SOL    HW123477   3.587   3.078   4.508
 7526SOL    HW223478   3.640   3.060   4.662
 7527SOL     OW23479   5.293   4.239   2.550
 7527SOL    HW123480   5.293   4.161   2.487
 7527SOL    HW223481   5.280   4.323   2.498
 7528SOL     OW23482   4.614   2.867   0.450
 7528SOL    HW123483   4.565   2.929   0.512
 7528SOL    HW223484   4.629   2.912   0.363
 7529SOL     OW23485   4.257   1.271   3.732
 7529SOL    HW123486   4.343   1.321   3.731
 7529SOL    HW223487   4.233   1.243   3.639
 7530SOL     OW23488   6.933   3.969   2.407
 7530SOL    HW123489   0.008   3.958   2.411
 7530SOL    HW223490   6.899   3.933   2.320
 7531SOL     OW23491   4.286   1.951   3.986
 7531SOL    HW123492   4.203   1.974   3.936
 7531SOL    HW223493   4.262   1.908   4.073
 7532SOL     OW23494   5.599   5.975   2.061
 7532SOL    HW123495   5.644   5.927   1.986
 7532SOL    HW223496   5.662   6.041   2.102
 7533SOL     OW23497   3.477   1.205   4.169
 7533SOL    HW123498   3.460   1.298   4.136
 7533SOL    HW223499   3.461   1.140   4.094
 7534SOL     OW23500   3.880   6.211   5.083
 7534SOL    HW123501   3.904   6.302   5.117
 7534SOL    HW223502   3.781   6.202   5.077
 7535SOL     OW23503   2.912   2.324   5.635
 7535SOL    HW123504   2.834   2.312   5.574
 7535SOL    HW223505   2.995   2.340   5.581
 7536SOL     OW23506   4.145   5.435   4.529
 7536SOL    HW123507   4.101   5.444   4.440
 7536SOL    HW223508   4.157   5.338   4.550
 7537SOL     OW23509   1.909   4.635   4.525
 7537SOL    HW123510   1.867   4.557   4.478
 7537SOL    HW223511   2.005   4.615   4.544
 7538SOL     OW23512   3.185   3.545   2.752
 7538SOL    HW123513   3.212   3.499   2.836
 7538SOL    HW223514   3.086   3.558   2.750
 7539SOL     OW23515   1.953   3.296   5.264
 7539SOL    HW123516   1.943   3.261   5.358
 7539SOL    HW223517   2.046   3.275   5.231
 7540SOL     OW23518   2.873   1.333   6.899
 7540SOL    HW123519   2.832   1.370   6.982
 7540SOL    HW223520   2.915   1.407   6.846
 7541SOL     OW23521   5.756   2.581   5.755
 7541SOL    HW123522   5.670   2.622   5.785
 7541SOL    HW223523   5.831   2.615   5.812
 7542SOL     OW23524   1.168   0.123   5.833
 7542SOL    HW123525   1.168   0.030   5.796
 7542SOL    HW223526   1.101   0.130   5.907
 7543SOL     OW23527   4.272   3.052   0.526
 7543SOL    HW123528   4.296   3.084   0.434
 7543SOL    HW223529   4.200   2.984   0.520
 7544SOL     OW23530   1.437   2.112   2.911
 7544SOL    HW123531   1.387   2.032   2.877
 7544SOL    HW223532   1.375   2.170   2.964
 7545SOL     OW23533   4.700   0.104   2.750
 7545SOL    HW123534   4.617   0.063   2.712
 7545SOL    HW223535   4.683   0.133   2.844
 7546SOL     OW23536   5.319   0.740   0.344
 7546SOL    HW123537   5.271   0.768   0.261
 7546SOL    HW223538   5.323   0.817   0.408
 7547SOL     OW23539   3.969   0.579   0.515
 7547SOL    HW123540   3.892   0.631   0.552
 7547SOL    HW223541   3.951   0.481   0.527
 7548SOL     OW23542   2.513   1.459   1.555
 7548SOL    HW123543   2.488   1.552   1.581
 7548SOL    HW223544   2.460   1.432   1.474
 7549SOL     OW23545   5.415   1.602   2.618
 7549SOL    HW123546   5.353   1.617   2.541
 7549SOL    HW223547   5.381   1.526   2.674
 7550SOL     OW23548   2.091   6.008   2.256
 7550SOL    HW123549   2.167   5.978   2.198
 7550SOL    HW223550   2.032   6.070   2.204
 7551SOL     OW23551   4.483   3.709   6.729
 7551SOL    HW123552   4.390   3.677   6.745
 7551SOL    HW223553   4.537   3.700   6.813
 7552SOL     OW23554   2.362   5.621   4.018
 7552SOL    HW123555   2.353   5.683   3.940
 7552SOL    HW223556   2.353   5.527   3.986
 7553SOL     OW23557   3.789   4.917   6.010
 7553SOL    HW123558   3.732   4.894   5.930
 7553SOL    HW223559   3.783   5.015   6.028
 7554SOL     OW23560   4.782   1.599   0.805
 7554SOL    HW123561   4.749   1.547   0.725
 7554SOL    HW223562   4.844   1.542   0.858
 7555SOL     OW23563   0.432   5.516   5.638
 7555SOL    HW123564   0.478   5.435   5.603
 7555SOL    HW223565   0.337   5.494   5.659
 7556SOL     OW23566   0.731   3.455   4.778
 7556SOL    HW123567   0.739   3.536   4.836
 7556SOL    HW223568   0.786   3.466   4.696
 7557SOL     OW23569   4.981   4.009   6.389
 7557SOL    HW123570   4.903   3.994   6.328
 7557SOL    HW223571   5.047   4.070   6.344
 7558SOL     OW23572   1.982   2.768   3.891
 7558SOL    HW123573   2.071   2.804   3.865
 7558SOL    HW223574   1.951   2.703   3.822
 7559SOL     OW23575   6.717   4.939   0.804
 7559SOL    HW123576   6.723   4.911   0.708
 7559SOL    HW223577   6.631   4.989   0.819
 7560SOL     OW23578   5.209   6.829   0.994
 7560SOL    HW123579   5.160   6.861   1.074
 7560SOL    HW223580   5.205   6.899   0.922
 7561SOL     OW23581   0.242   3.451   0.812
 7561SOL    HW123582   0.320   3.395   0.842
 7561SOL    HW223583   0.260   3.547   0.834
 7562SOL     OW23584   5.177   6.582   5.321
 7562SOL    HW123585   5.193   6.522   5.400
 7562SOL    HW223586   5.156   6.526   5.241
 7563SOL     OW23587   2.968   0.437   1.616
 7563SOL    HW123588   3.006   0.491   1.690
 7563SOL    HW223589   2.888   0.484   1.578
 7564SOL     OW23590   5.326   6.938   2.930
 7564SOL    HW123591   5.395   6.877   2.969
 7564SOL    HW223592   5.356   0.009   2.938
 7565SOL     OW23593   4.910   5.098   6.518
 7565SOL    HW123594   4.926   5.157   6.598
 7565SOL    HW223595   4.823   5.122   6.476
 7566SOL     OW23596   0.040   5.514   4.236
 7566SOL    HW123597   6.966   5.494   4.230
 7566SOL    HW223598   0.085   5.491   4.150
 7567SOL     OW23599   2.502   4.576   5.948
 7567SOL    HW123600   2.405   4.554   5.934
 7567SOL    HW223601   2.519   4.591   6.045
 7568SOL     OW23602   5.462   5.809   3.292
 7568SOL    HW123603   5.539   5.759   3.332
 7568SOL    HW223604   5.379   5.789   3.345
 7569SOL     OW23605   4.264   5.786   6.739
 7569SOL    HW123606   4.257   5.814   6.834
 7569SOL    HW223607   4.360   5.765   6.717
 7570SOL     OW23608   6.067   5.005   4.387
 7570SOL    HW123609   6.024   5.080   4.438
 7570SOL    HW223610   6.002   4.929   4.379
 7571SOL     OW23611   5.748   4.075   1.946
 7571SOL    HW123612   5.716   4.169   1.933
 7571SOL    HW223613   5.702   4.035   2.025
 7572SOL     OW23614   4.481   0.972   4.129
 7572SOL    HW123615   4.480   1.023   4.043
 7572SOL    HW223616   4.495   0.875   4.111
 7573SOL     OW23617   0.109   5.584   4.737
 7573SOL    HW123618   0.206   5.574   4.760
 7573SOL    HW223619   0.091   5.540   4.649
 7574SOL     OW23620   5.843   1.206   3.732
 7574SOL    HW123621   5.838   1.148   3.650
 7574SOL    HW223622   5.939   1.213   3.762
 7575SOL     OW23623   3.902   1.240   6.071
 7575SOL    HW123624   3.910   1.308   5.998
 7575SOL    HW223625   3.875   1.285   6.156
 7576SOL     OW23626   6.013   4.605   0.147
 7576SOL    HW123627   6.051   4.554   0.224
 7576SOL    HW223628   5.933   4.556   0.110
 7577SOL     OW23629   6.330   1.149   4.870
 7577SOL    HW123630   6.299   1.184   4.958
 7577SOL    HW223631   6.255   1.101   4.824
 7578SOL     OW23632   2.146   6.741   4.340
 7578SOL    HW123633   2.076   6.728   4.270
 7578SOL    HW223634   2.115   6.701   4.426
 7579SOL     OW23635   3.898   2.025   2.438
 7579SOL    HW123636   3.821   2.024   2.375
 7579SOL    HW223637   3.867   2.051   2.529
 7580SOL     OW23638   2.063   4.125   2.988
 7580SOL    HW123639   1.971   4.092   3.008
 7580SOL    HW223640   2.089   4.097   2.896
 7581SOL     OW23641   5.585   1.353   0.529
 7581SOL    HW123642   5.555   1.437   0.484
 7581SOL    HW223643   5.553   1.352   0.624
 7582SOL     OW23644   3.546   1.608   0.929
 7582SOL    HW123645   3.624   1.613   0.992
 7582SOL    HW223646   3.499   1.696   0.928
 7583SOL     OW23647   5.923   3.858   2.248
 7583SOL    HW123648   5.880   3.948   2.235
 7583SOL    HW223649   5.974   3.858   2.334
 7584SOL     OW23650   2.534   6.473   1.115
 7584SOL    HW123651   2.546   6.572   1.121
 7584SOL    HW223652   2.537   6.433   1.206
 7585SOL     OW23653   1.909   4.261   6.551
 7585SOL    HW123654   1.858   4.276   6.636
 7585SOL    HW223655   2.007   4.266   6.570
 7586SOL     OW23656   2.672   0.199   2.981
 7586SOL    HW123657   2.759   0.156   2.957
 7586SOL    HW223658   2.643   0.260   2.907
 7587SOL     OW23659   1.550   1.915   0.149
 7587SOL    HW123660   1.623   1.978   0.174
 7587SOL    HW223661   1.574   1.868   0.064
 7588SOL     OW23662   0.822   5.287   2.042
 7588SOL    HW123663   0.757   5.211   2.038
 7588SOL    HW223664   0.777   5.372   2.016
 7589SOL     OW23665   6.021   6.099   0.287
 7589SOL    HW123666   5.993   6.014   0.243
 7589SOL    HW223667   5.940   6.146   0.323
 7590SOL     OW23668   2.577   1.827   5.515
 7590SOL    HW123669   2.655   1.881   5.485
 7590SOL    HW223670   2.493   1.880   5.502
 7591SOL     OW23671   0.518   5.004   0.216
 7591SOL    HW123672   0.433   5.050   0.193
 7591SOL    HW223673   0.535   5.013   0.315
 7592SOL     OW23674   6.399   5.065   0.004
 7592SOL    HW123675   6.409   5.025   6.936
 7592SOL    HW223676   6.301   5.070   0.027
 7593SOL     OW23677   5.304   2.301   7.002
 7593SOL    HW123678   5.272   2.395   7.000
 7593SOL    HW223679   5.232   2.240   6.969
 7594SOL     OW23680   0.821   5.611   3.333
 7594SOL    HW123681   0.873   5.531   3.364
 7594SOL    HW223682   0.883   5.677   3.291
 7595SOL     OW23683   0.123   3.218   6.270
 7595SOL    HW123684   0.107   3.316   6.288
 7595SOL    HW223685   0.146   3.172   6.356
 7596SOL     OW23686   5.278   4.571   2.527
 7596SOL    HW123687   5.313   4.656   2.488
 7596SOL    HW223688   5.235   4.516   2.455
 7597SOL     OW23689   3.367   5.708   1.998
 7597SOL    HW123690   3.377   5.626   1.943
 7597SOL    HW223691   3.429   5.779   1.964
 7598SOL     OW23692   6.700   0.195   2.995
 7598SOL    HW123693   6.707   0.122   2.927
 7598SOL    HW223694   6.610   0.238   2.987
 7599SOL     OW23695   6.004   1.497   3.091
 7599SOL    HW123696   6.015   1.401   3.118
 7599SOL    HW223697   5.922   1.507   3.035
 7600SOL     OW23698   1.545   0.133   2.619
 7600SOL    HW123699   1.487   0.211   2.592
 7600SOL    HW223700   1.636   0.146   2.581
 7601SOL     OW23701   2.270   6.042   3.364
 7601SOL    HW123702   2.340   6.110   3.388
 7601SOL    HW223703   2.189   6.057   3.420
 7602SOL     OW23704   2.395   4.403   4.486
 7602SOL    HW123705   2.458   4.420   4.562
 7602SOL    HW223706   2.346   4.317   4.503
 7603SOL     OW23707   1.009   6.084   7.016
 7603SOL    HW123708   1.020   5.986   6.997
 7603SOL    HW223709   1.014   6.136   6.931
 7604SOL     OW23710   3.690   5.981   4.147
 7604SOL    HW123711   3.634   5.997   4.066
 7604SOL    HW223712   3.717   5.885   4.151
 7605SOL     OW23713   0.848   5.122   6.789
 7605SOL    HW123714   0.845   5.219   6.765
 7605SOL    HW223715   0.780   5.073   6.734
 7606SOL     OW23716   0.410   2.925   2.039
 7606SOL    HW123717   0.428   2.870   1.957
 7606SOL    HW223718   0.496   2.963   2.073
 7607SOL     OW23719   4.895   0.009   0.134
 7607SOL    HW123720   4.965   0.015   0.206
 7607SOL    HW223721   4.935   6.989   0.054
 7608SOL     OW23722   2.977   3.517   3.256
 7608SOL    HW123723   2.982   3.559   3.165
 7608SOL    HW223724   2.956   3.588   3.324
 7609SOL     OW23725   0.474   3.505   4.304
 7609SOL    HW123726   0.407   3.485   4.375
 7609SOL    HW223727   0.563   3.525   4.346
 7610SOL     OW23728   5.536   0.971   1.405
 7610SOL    HW123729   5.533   0.879   1.365
 7610SOL    HW223730   5.528   0.964   1.504
 7611SOL     OW23731   1.380   1.835   6.776
 7611SOL    HW123732   1.345   1.922   6.813
 7611SOL    HW223733   1.476   1.826   6.799
 7612SOL     OW23734   3.900   1.740   3.949
 7612SOL    HW123735   3.989   1.714   3.911
 7612SOL    HW223736   3.833   1.749   3.875
 7613SOL     OW23737   4.715   1.200   1.347
 7613SOL    HW123738   4.756   1.236   1.430
 7613SOL    HW223739   4.680   1.108   1.364
 7614SOL     OW23740   3.955   2.126   2.073
 7614SOL    HW123741   4.000   2.160   1.990
 7614SOL    HW223742   3.862   2.161   2.078
 7615SOL     OW23743   4.382   5.103   6.618
 7615SOL    HW123744   4.305   5.113   6.681
 7615SOL    HW223745   4.406   5.193   6.580
 7616SOL     OW23746   0.416   4.010   4.105
 7616SOL    HW123747   0.328   3.989   4.149
 7616SOL    HW223748   0.446   3.931   4.052
 7617SOL     OW23749   3.171   5.717   3.444
 7617SOL    HW123750   3.098   5.650   3.441
 7617SOL    HW223751   3.253   5.679   3.400
 7618SOL     OW23752   1.148   2.349   6.578
 7618SOL    HW123753   1.150   2.299   6.665
 7618SOL    HW223754   1.201   2.433   6.587
 7619SOL     OW23755   5.621   2.860   5.285
 7619SOL    HW123756   5.523   2.840   5.278
 7619SOL    HW223757   5.656   2.826   5.373
 7620SOL     OW23758   3.716   6.802   0.921
 7620SOL    HW123759   3.685   6.897   0.929
 7620SOL    HW223760   3.745   6.770   1.012
 7621SOL     OW23761   1.203   0.871   0.724
 7621SOL    HW123762   1.110   0.847   0.694
 7621SOL    HW223763   1.269   0.815   0.675
 7622SOL     OW23764   4.823   2.855   1.612
 7622SOL    HW123765   4.800   2.782   1.677
 7622SOL    HW223766   4.842   2.939   1.663
 7623SOL     OW23767   4.193   6.054   6.360
 7623SOL    HW123768   4.207   6.059   6.261
 7623SOL    HW223769   4.278   6.026   6.404
 7624SOL     OW23770   0.538   1.866   2.994
 7624SOL    HW123771   0.475   1.828   2.925
 7624SOL    HW223772   0.526   1.818   3.080
 7625SOL     OW23773   5.652   0.946   1.004
 7625SOL    HW123774   5.733   0.971   1.058
 7625SOL    HW223775   5.572   0.944   1.064
 7626SOL     OW23776   0.803   6.913   5.119
 7626SOL    HW123777   0.776   6.916   5.215
 7626SOL    HW223778   0.786   7.003   5.077
 7627SOL     OW23779   6.215   3.159   0.940
 7627SOL    HW123780   6.167   3.228   0.885
 7627SOL    HW223781   6.258   3.203   1.018
 7628SOL     OW23782   2.725   0.550   1.553
 7628SOL    HW123783   2.711   0.470   1.494
 7628SOL    HW223784   2.643   0.566   1.608
 7629SOL     OW23785   6.405   6.397   2.558
 7629SOL    HW123786   6.325   6.337   2.560
 7629SOL    HW223787   6.441   6.403   2.465
 7630SOL     OW23788   6.266   6.758   2.356
 7630SOL    HW123789   6.341   6.705   2.317
 7630SOL    HW223790   6.231   6.823   2.287
 7631SOL     OW23791   1.149   1.502   5.700
 7631SOL    HW123792   1.084   1.507   5.624
 7631SOL    HW223793   1.106   1.457   5.778
 7632SOL     OW23794   4.319   2.214   1.044
 7632SOL    HW123795   4.295   2.265   1.126
 7632SOL    HW223796   4.296   2.269   0.963
 7633SOL     OW23797   5.184   3.804   6.853
 7633SOL    HW123798   5.248   3.820   6.777
 7633SOL    HW223799   5.106   3.866   6.844
 7634SOL     OW23800   1.406   0.835   2.480
 7634SOL    HW123801   1.312   0.846   2.512
 7634SOL    HW223802   1.467   0.822   2.558
 7635SOL     OW23803   2.476   5.804   5.768
 7635SOL    HW123804   2.482   5.832   5.864
 7635SOL    HW223805   2.394   5.843   5.727
 7636SOL     OW23806   1.192   1.533   3.904
 7636SOL    HW123807   1.132   1.604   3.943
 7636SOL    HW223808   1.183   1.534   3.804
 7637SOL     OW23809   1.421   6.918   4.129
 7637SOL    HW123810   1.367   6.988   4.082
 7637SOL    HW223811   1.418   6.935   4.228
 7638SOL     OW23812   6.032   5.755   1.805
 7638SOL    HW123813   6.045   5.656   1.806
 7638SOL    HW223814   5.945   5.777   1.850
 7639SOL     OW23815   1.042   1.741   6.233
 7639SOL    HW123816   0.996   1.672   6.178
 7639SOL    HW223817   1.141   1.735   6.218
 7640SOL     OW23818   2.609   2.539   0.620
 7640SOL    HW123819   2.696   2.519   0.664
 7640SOL    HW223820   2.572   2.456   0.579
 7641SOL     OW23821   0.546   4.737   2.128
 7641SOL    HW123822   0.550   4.662   2.193
 7641SOL    HW223823   0.456   4.740   2.085
 7642SOL     OW23824   2.708   1.662   2.961
 7642SOL    HW123825   2.688   1.753   2.996
 7642SOL    HW223826   2.680   1.655   2.865
 7643SOL     OW23827   4.569   2.476   3.580
 7643SOL    HW123828   4.489   2.418   3.595
 7643SOL    HW223829   4.604   2.508   3.668
 7644SOL     OW23830   6.708   2.789   2.684
 7644SOL    HW123831   6.683   2.855   2.754
 7644SOL    HW223832   6.627   2.738   2.656
 7645SOL     OW23833   4.890   5.263   6.766
 7645SOL    HW123834   4.790   5.270   6.770
 7645SOL    HW223835   4.926   5.340   6.714
 7646SOL     OW23836   1.728   2.033   2.308
 7646SOL    HW123837   1.697   1.938   2.299
 7646SOL    HW223838   1.810   2.036   2.366
 7647SOL     OW23839   1.857   3.392   2.137
 7647SOL    HW123840   1.922   3.321   2.108
 7647SOL    HW223841   1.904   3.480   2.141
 7648SOL     OW23842   4.268   1.422   3.354
 7648SOL    HW123843   4.266   1.331   3.395
 7648SOL    HW223844   4.218   1.486   3.413
 7649SOL     OW23845   1.348   0.529   2.299
 7649SOL    HW123846   1.437   0.509   2.339
 7649SOL    HW223847   1.297   0.589   2.361
 7650SOL     OW23848   6.391   2.933   2.223
 7650SOL    HW123849   6.307   2.894   2.187
 7650SOL    HW223850   6.426   3.002   2.159
 7651SOL     OW23851   2.360   0.332   6.893
 7651SOL    HW123852   2.456   0.313   6.876
 7651SOL    HW223853   2.322   0.263   6.955
 7652SOL     OW23854   6.213   3.525   3.654
 7652SOL    HW123855   6.170   3.450   3.705
 7652SOL    HW223856   6.302   3.494   3.620
 7653SOL     OW23857   2.606   1.736   0.856
 7653SOL    HW123858   2.611   1.637   0.840
 7653SOL    HW223859   2.680   1.763   0.918
 7654SOL     OW23860   4.812   2.396   3.457
 7654SOL    HW123861   4.880   2.388   3.530
 7654SOL    HW223862   4.729   2.438   3.493
 7655SOL     OW23863   3.757   0.202   4.177
 7655SOL    HW123864   3.669   0.242   4.203
 7655SOL    HW223865   3.820   0.206   4.254
 7656SOL     OW23866   0.196   5.843   5.558
 7656SOL    HW123867   0.171   5.799   5.644
 7656SOL    HW223868   0.249   5.779   5.502
 7657SOL     OW23869   2.937   2.290   3.181
 7657SOL    HW123870   3.024   2.242   3.194
 7657SOL    HW223871   2.878   2.236   3.121
 7658SOL     OW23872   4.347   0.656   6.469
 7658SOL    HW123873   4.401   0.666   6.553
 7658SOL    HW223874   4.403   0.610   6.399
 7659SOL     OW23875   6.243   6.920   1.006
 7659SOL    HW123876   6.240   6.970   1.092
 7659SOL    HW223877   6.256   6.985   0.930
 7660SOL     OW23878   5.450   5.421   3.749
 7660SOL    HW123879   5.361   5.456   3.781
 7660SOL    HW223880   5.464   5.329   3.786
 7661SOL     OW23881   5.598   2.246   4.446
 7661SOL    HW123882   5.687   2.232   4.489
 7661SOL    HW223883   5.526   2.241   4.516
 7662SOL     OW23884   1.516   2.777   2.188
 7662SOL    HW123885   1.438   2.823   2.230
 7662SOL    HW223886   1.495   2.680   2.177
 7663SOL     OW23887   6.980   5.364   6.659
 7663SOL    HW123888   0.015   5.290   6.626
 7663SOL    HW223889   6.927   5.332   6.738
 7664SOL     OW23890   3.219   6.398   2.522
 7664SOL    HW123891   3.220   6.331   2.596
 7664SOL    HW223892   3.242   6.488   2.559
 7665SOL     OW23893   2.717   0.294   4.136
 7665SOL    HW123894   2.738   0.325   4.229
 7665SOL    HW223895   2.802   0.268   4.089
 7666SOL     OW23896   0.338   6.745   1.208
 7666SOL    HW123897   0.285   6.726   1.126
 7666SOL    HW223898   0.424   6.693   1.206
 7667SOL     OW23899   4.770   6.468   6.841
 7667SOL    HW123900   4.789   6.370   6.846
 7667SOL    HW223901   4.732   6.499   6.929
 7668SOL     OW23902   3.214   4.195   1.591
 7668SOL    HW123903   3.221   4.095   1.590
 7668SOL    HW223904   3.306   4.235   1.591
 7669SOL     OW23905   4.846   0.926   4.594
 7669SOL    HW123906   4.905   0.847   4.579
 7669SOL    HW223907   4.787   0.939   4.515
 7670SOL     OW23908   1.226   5.545   6.668
 7670SOL    HW123909   1.184   5.635   6.660
 7670SOL    HW223910   1.174   5.489   6.732
 7671SOL     OW23911   4.682   1.567   4.536
 7671SOL    HW123912   4.667   1.585   4.439
 7671SOL    HW223913   4.662   1.649   4.589
 7672SOL     OW23914   6.062   0.329   3.679
 7672SOL    HW123915   6.064   0.266   3.757
 7672SOL    HW223916   6.149   0.324   3.631
 7673SOL     OW23917   1.381   4.780   0.689
 7673SOL    HW123918   1.450   4.849   0.708
 7673SOL    HW223919   1.380   4.759   0.591
 7674SOL     OW23920   6.455   1.923   4.731
 7674SOL    HW123921   6.506   1.909   4.816
 7674SOL    HW223922   6.489   1.860   4.661
 7675SOL     OW23923   4.966   0.507   1.860
 7675SOL    HW123924   4.876   0.535   1.896
 7675SOL    HW223925   5.008   0.443   1.924
 7676SOL     OW23926   1.197   1.463   6.791
 7676SOL    HW123927   1.296   1.470   6.773
 7676SOL    HW223928   1.182   1.444   6.888
 7677SOL     OW23929   1.665   3.206   2.279
 7677SOL    HW123930   1.726   3.285   2.283
 7677SOL    HW223931   1.717   3.126   2.249
 7678SOL     OW23932   1.242   0.857   6.539
 7678SOL    HW123933   1.340   0.879   6.540
 7678SOL    HW223934   1.229   0.760   6.560
 7679SOL     OW23935   1.031   5.181   5.011
 7679SOL    HW123936   1.115   5.206   5.060
 7679SOL    HW223937   1.029   5.227   4.923
 7680SOL     OW23938   3.176   3.421   6.712
 7680SOL    HW123939   3.265   3.445   6.751
 7680SOL    HW223940   3.189   3.366   6.630
 7681SOL     OW23941   2.889   0.969   0.431
 7681SOL    HW123942   2.867   1.012   0.518
 7681SOL    HW223943   2.813   0.908   0.404
 7682SOL     OW23944   2.504   6.481   1.907
 7682SOL    HW123945   2.519   6.577   1.881
 7682SOL    HW223946   2.422   6.447   1.860
 7683SOL     OW23947   6.507   2.686   3.008
 7683SOL    HW123948   6.569   2.610   2.991
 7683SOL    HW223949   6.412   2.654   3.004
 7684SOL     OW23950   5.161   2.259   6.504
 7684SOL    HW123951   5.233   2.199   6.538
 7684SOL    HW223952   5.202   2.328   6.443
 7685SOL     OW23953   3.879   2.671   0.423
 7685SOL    HW123954   3.811   2.601   0.399
 7685SOL    HW223955   3.841   2.762   0.404
 7686SOL     OW23956   4.694   0.269   2.968
 7686SOL    HW123957   4.682   0.245   3.064
 7686SOL    HW223958   4.616   0.323   2.937
 7687SOL     OW23959   5.140   5.654   5.750
 7687SOL    HW123960   5.178   5.572   5.706
 7687SOL    HW223961   5.075   5.698   5.688
 7688SOL     OW23962   6.757   6.619   5.689
 7688SOL    HW123963   6.814   6.676   5.749
 7688SOL    HW223964   6.661   6.626   5.719
 7689SOL     OW23965   4.686   6.005   4.528
 7689SOL    HW123966   4.619   5.966   4.466
 7689SOL    HW223967   4.766   5.945   4.532
 7690SOL     OW23968   5.378   5.122   3.205
 7690SOL    HW123969   5.318   5.081   3.136
 7690SOL    HW223970   5.350   5.091   3.296
 7691SOL     OW23971   4.843   2.935   3.823
 7691SOL    HW123972   4.929   2.987   3.830
 7691SOL    HW223973   4.863   2.842   3.791
 7692SOL     OW23974   1.249   6.340   1.423
 7692SOL    HW123975   1.275   6.274   1.353
 7692SOL    HW223976   1.251   6.297   1.513
 7693SOL     OW23977   4.269   1.206   6.826
 7693SOL    HW123978   4.239   1.113   6.807
 7693SOL    HW223979   4.350   1.228   6.771
 7694SOL     OW23980   0.625   4.555   3.914
 7694SOL    HW123981   0.532   4.586   3.935
 7694SOL    HW223982   0.626   4.513   3.823
 7695SOL     OW23983   4.140   0.342   0.710
 7695SOL    HW123984   4.160   0.406   0.785
 7695SOL    HW223985   4.049   0.302   0.723
 7696SOL     OW23986   6.819   2.017   4.507
 7696SOL    HW123987   6.917   2.014   4.527
 7696SOL    HW223988   6.801   1.969   4.421
 7697SOL     OW23989   2.553   1.675   3.599
 7697SOL    HW123990   2.464   1.702   3.563
 7697SOL    HW223991   2.590   1.600   3.545
 7698SOL     OW23992   6.589   2.770   4.886
 7698SOL    HW123993   6.492   2.768   4.863
 7698SOL    HW223994   6.610   2.695   4.949
 7699SOL     OW23995   2.160   5.718   0.145
 7699SOL    HW123996   2.102   5.670   0.079
 7699SOL    HW223997   2.199   5.651   0.209
 7700SOL     OW23998   4.659   6.958   5.310
 7700SOL    HW123999   4.578   6.906   5.337
 7700SOL    HW224000   4.741   6.909   5.339
 7701SOL     OW24001   6.403   0.704   5.827
 7701SOL    HW124002   6.458   0.755   5.894
 7701SOL    HW224003   6.415   0.606   5.842
 7702SOL     OW24004   3.505   6.649   6.226
 7702SOL    HW124005   3.519   6.647   6.325
 7702SOL    HW224006   3.407   6.647   6.206
 7703SOL     OW24007   0.167   1.079   5.211
 7703SOL    HW124008   0.239   1.114   5.271
 7703SOL    HW224009   0.078   1.090   5.256
 7704SOL     OW24010   4.307   4.371   0.243
 7704SOL    HW124011   4.224   4.382   0.189
 7704SOL    HW224012   4.372   4.443   0.219
 7705SOL     OW24013   3.572   4.981   5.346
 7705SOL    HW124014   3.525   4.971   5.258
 7705SOL    HW224015   3.619   4.896   5.369
 7706SOL     OW24016   5.664   6.755   5.119
 7706SOL    HW124017   5.723   6.830   5.088
 7706SOL    HW224018   5.612   6.784   5.198
 7707SOL     OW24019   0.251   5.303   6.011
 7707SOL    HW124020   0.302   5.382   5.977
 7707SOL    HW224021   0.275   5.222   5.957
 7708SOL     OW24022   5.007   5.776   4.869
 7708SOL    HW124023   5.048   5.712   4.933
 7708SOL    HW224024   4.990   5.729   4.782
 7709SOL     OW24025   4.549   2.360   2.078
 7709SOL    HW124026   4.460   2.394   2.048
 7709SOL    HW224027   4.557   2.262   2.056
 7710SOL     OW24028   2.541   0.066   0.678
 7710SOL    HW124029   2.638   0.050   0.694
 7710SOL    HW224030   2.528   0.151   0.627
 7711SOL     OW24031   5.852   6.314   6.070
 7711SOL    HW124032   5.923   6.300   6.000
 7711SOL    HW224033   5.827   6.225   6.109
 7712SOL     OW24034   6.108   5.036   1.425
 7712SOL    HW124035   6.052   4.959   1.395
 7712SOL    HW224036   6.188   5.044   1.364
 7713SOL     OW24037   1.755   4.184   0.138
 7713SOL    HW124038   1.826   4.214   0.201
 7713SOL    HW224039   1.734   4.088   0.156
 7714SOL     OW24040   6.271   4.053   4.730
 7714SOL    HW124041   6.217   4.047   4.646
 7714SOL    HW224042   6.227   4.116   4.794
 7715SOL     OW24043   5.217   0.887   0.999
 7715SOL    HW124044   5.124   0.887   1.036
 7715SOL    HW224045   5.256   0.979   1.009
 7716SOL     OW24046   4.579   2.407   2.360
 7716SOL    HW124047   4.569   2.385   2.263
 7716SOL    HW224048   4.617   2.499   2.370
 7717SOL     OW24049   2.840   1.285   4.980
 7717SOL    HW124050   2.840   1.350   4.904
 7717SOL    HW224051   2.748   1.278   5.018
 7718SOL     OW24052   1.921   1.528   2.794
 7718SOL    HW124053   1.965   1.617   2.801
 7718SOL    HW224054   1.853   1.518   2.867
 7719SOL     OW24055   0.020   2.942   4.880
 7719SOL    HW124056   6.968   2.905   4.826
 7719SOL    HW224057   7.022   2.935   4.978
 7720SOL     OW24058   6.724   6.465   0.881
 7720SOL    HW124059   6.803   6.489   0.825
 7720SOL    HW224060   6.667   6.398   0.832
 7721SOL     OW24061   2.342   4.463   3.512
 7721SOL    HW124062   2.259   4.452   3.568
 7721SOL    HW224063   2.414   4.504   3.568
 7722SOL     OW24064   6.271   5.040   3.134
 7722SOL    HW124065   6.204   4.977   3.095
 7722SOL    HW224066   6.278   5.022   3.233
 7723SOL     OW24067   6.971   3.123   0.563
 7723SOL    HW124068   7.019   3.181   0.497
 7723SOL    HW224069   6.923   3.050   0.514
 7724SOL     OW24070   1.769   4.349   1.597
 7724SOL    HW124071   1.815   4.336   1.510
 7724SOL    HW224072   1.671   4.362   1.582
 7725SOL     OW24073   5.394   2.545   3.261
 7725SOL    HW124074   5.423   2.452   3.238
 7725SOL    HW224075   5.359   2.591   3.179
 7726SOL     OW24076   0.327   4.601   3.240
 7726SOL    HW124077   0.313   4.526   3.304
 7726SOL    HW224078   0.377   4.568   3.160
 7727SOL     OW24079   6.148   2.060   4.065
 7727SOL    HW124080   6.216   2.127   4.036
 7727SOL    HW224081   6.089   2.100   4.135
 7728SOL     OW24082   1.572   3.177   3.035
 7728SOL    HW124083   1.592   3.093   2.986
 7728SOL    HW224084   1.482   3.211   3.009
 7729SOL     OW24085   5.375   2.324   0.956
 7729SOL    HW124086   5.436   2.347   0.880
 7729SOL    HW224087   5.397   2.381   1.035
 7730SOL     OW24088   4.748   6.505   2.909
 7730SOL    HW124089   4.805   6.489   2.829
 7730SOL    HW224090   4.772   6.440   2.981
 7731SOL     OW24091   6.542   0.950   0.343
 7731SOL    HW124092   6.489   0.936   0.427
 7731SOL    HW224093   6.602   0.872   0.328
 7732SOL     OW24094   5.045   5.868   0.887
 7732SOL    HW124095   5.115   5.920   0.937
 7732SOL    HW224096   5.082   5.840   0.798
 7733SOL     OW24097   4.033   0.157   1.502
 7733SOL    HW124098   4.103   0.226   1.521
 7733SOL    HW224099   4.077   0.071   1.477
 7734SOL     OW24100   1.642   3.256   3.300
 7734SOL    HW124101   1.617   3.241   3.204
 7734SOL    HW224102   1.562   3.240   3.358
 7735SOL     OW24103   5.159   4.273   6.937
 7735SOL    HW124104   5.258   4.282   6.951
 7735SOL    HW224105   5.111   4.330   7.003
 7736SOL     OW24106   5.377   4.762   0.438
 7736SOL    HW124107   5.453   4.708   0.476
 7736SOL    HW224108   5.291   4.713   0.454
 7737SOL     OW24109   4.712   2.154   1.114
 7737SOL    HW124110   4.674   2.109   1.033
 7737SOL    HW224111   4.812   2.142   1.114
 7738SOL     OW24112   3.191   6.448   0.429
 7738SOL    HW124113   3.114   6.384   0.426
 7738SOL    HW224114   3.274   6.400   0.457
 7739SOL     OW24115   1.101   2.274   0.528
 7739SOL    HW124116   1.026   2.273   0.462
 7739SOL    HW224117   1.070   2.317   0.613
 7740SOL     OW24118   6.930   0.000   2.491
 7740SOL    HW124119   6.962   6.959   2.422
 7740SOL    HW224120   7.008   0.054   2.524
 7741SOL     OW24121   2.024   5.746   3.929
 7741SOL    HW124122   1.931   5.755   3.893
 7741SOL    HW224123   2.023   5.684   4.007
 7742SOL     OW24124   6.175   2.027   2.929
 7742SOL    HW124125   6.115   2.104   2.947
 7742SOL    HW224126   6.254   2.058   2.876
 7743SOL     OW24127   4.608   3.333   5.920
 7743SOL    HW124128   4.610   3.235   5.938
 7743SOL    HW224129   4.523   3.372   5.955
 7744SOL     OW24130   6.524   6.712   3.885
 7744SOL    HW124131   6.608   6.727   3.937
 7744SOL    HW224132   6.479   6.629   3.917
 7745SOL     OW24133   3.746   2.825   5.989
 7745SOL    HW124134   3.717   2.824   6.084
 7745SOL    HW224135   3.667   2.840   5.930
 7746SOL     OW24136   2.038   0.120   0.654
 7746SOL    HW124137   2.000   0.029   0.638
 7746SOL    HW224138   2.125   0.128   0.606
 7747SOL     OW24139   5.085   6.607   0.944
 7747SOL    HW124140   5.071   6.564   1.033
 7747SOL    HW224141   5.119   6.700   0.958
 7748SOL     OW24142   2.254   3.654   6.181
 7748SOL    HW124143   2.250   3.688   6.087
 7748SOL    HW224144   2.291   3.726   6.240
 7749SOL     OW24145   4.836   3.409   6.014
 7749SOL    HW124146   4.848   3.498   5.969
 7749SOL    HW224147   4.746   3.373   5.990
 7750SOL     OW24148   0.739   6.579   1.715
 7750SOL    HW124149   0.678   6.516   1.764
 7750SOL    HW224150   0.744   6.553   1.619
 7751SOL     OW24151   1.065   1.771   1.553
 7751SOL    HW124152   1.065   1.831   1.474
 7751SOL    HW224153   1.137   1.799   1.617
 7752SOL     OW24154   4.952   0.631   4.228
 7752SOL    HW124155   4.969   0.696   4.154
 7752SOL    HW224156   4.860   0.644   4.264
 7753SOL     OW24157   2.121   1.601   5.132
 7753SOL    HW124158   2.056   1.525   5.130
 7753SOL    HW224159   2.162   1.612   5.042
 7754SOL     OW24160   4.194   6.283   1.557
 7754SOL    HW124161   4.174   6.342   1.479
 7754SOL    HW224162   4.289   6.252   1.551
 7755SOL     OW24163   1.943   4.437   6.307
 7755SOL    HW124164   1.862   4.457   6.252
 7755SOL    HW224165   1.917   4.381   6.385
 7756SOL     OW24166   2.612   6.100   1.425
 7756SOL    HW124167   2.535   6.057   1.472
 7756SOL    HW224168   2.696   6.050   1.446
 7757SOL     OW24169   0.692   4.514   3.361
 7757SOL    HW124170   0.634   4.550   3.434
 7757SOL    HW224171   0.728   4.424   3.387
 7758SOL     OW24172   1.177   0.988   5.274
 7758SOL    HW124173   1.085   1.027   5.264
 7758SOL    HW224174   1.242   1.061   5.295
 7759SOL     OW24175   3.088   2.158   6.539
 7759SOL    HW124176   2.992   2.132   6.555
 7759SOL    HW224177   3.091   2.233   6.473
 7760SOL     OW24178   4.303   2.313   1.691
 7760SOL    HW124179   4.220   2.365   1.672
 7760SOL    HW224180   4.345   2.283   1.604
 7761SOL     OW24181   4.431   5.566   4.387
 7761SOL    HW124182   4.350   5.529   4.433
 7761SOL    HW224183   4.440   5.663   4.408
 7762SOL     OW24184   0.070   0.933   3.937
 7762SOL    HW124185   7.002   0.914   3.902
 7762SOL    HW224186   0.107   1.014   3.891
 7763SOL     OW24187   2.548   6.960   4.739
 7763SOL    HW124188   2.456   6.921   4.740
 7763SOL    HW224189   2.557   0.001   4.814
 7764SOL     OW24190   3.236   3.938   5.345
 7764SOL    HW124191   3.245   4.038   5.349
 7764SOL    HW224192   3.215   3.903   5.436
 7765SOL     OW24193   6.509   3.391   4.567
 7765SOL    HW124194   6.581   3.354   4.509
 7765SOL    HW224195   6.444   3.319   4.590
 7766SOL     OW24196   0.658   4.647   0.057
 7766SOL    HW124197   0.709   4.706   0.119
 7766SOL    HW224198   0.711   4.634   6.997
 7767SOL     OW24199   2.789   0.729   2.825
 7767SOL    HW124200   2.769   0.821   2.790
 7767SOL    HW224201   2.730   0.663   2.779
 7768SOL     OW24202   4.310   4.712   3.025
 7768SOL    HW124203   4.271   4.701   2.934
 7768SOL    HW224204   4.389   4.651   3.035
 7769SOL     OW24205   3.443   2.331   5.367
 7769SOL    HW124206   3.373   2.359   5.303
 7769SOL    HW224207   3.474   2.238   5.344
 7770SOL     OW24208   1.096   3.421   4.809
 7770SOL    HW124209   1.056   3.440   4.898
 7770SOL    HW224210   1.059   3.335   4.773
 7771SOL     OW24211   3.137   3.141   6.295
 7771SOL    HW124212   3.161   3.209   6.225
 7771SOL    HW224213   3.187   3.057   6.277
 7772SOL     OW24214   5.131   0.755   1.253
 7772SOL    HW124215   5.140   0.825   1.324
 7772SOL    HW224216   5.195   0.774   1.179
 7773SOL     OW24217   3.197   6.200   0.090
 7773SOL    HW124218   3.218   6.102   0.095
 7773SOL    HW224219   3.272   6.252   0.131
 7774SOL     OW24220   4.698   1.783   2.820
 7774SOL    HW124221   4.725   1.815   2.911
 7774SOL    HW224222   4.768   1.811   2.754
 7775SOL     OW24223   3.314   0.564   0.189
 7775SOL    HW124224   3.388   0.631   0.189
 7775SOL    HW224225   3.323   0.503   0.111
 7776SOL     OW24226   1.329   0.097   5.268
 7776SOL    HW124227   1.305   0.129   5.360
 7776SOL    HW224228   1.407   0.035   5.273
 7777SOL     OW24229   5.015   5.575   3.156
 7777SOL    HW124230   5.099   5.544   3.201
 7777SOL    HW224231   5.036   5.651   3.093
 7778SOL     OW24232   5.811   4.355   2.806
 7778SOL    HW124233   5.731   4.370   2.749
 7778SOL    HW224234   5.784   4.353   2.902
 7779SOL     OW24235   3.334   6.024   1.948
 7779SOL    HW124236   3.303   6.119   1.956
 7779SOL    HW224237   3.342   5.984   2.040
 7780SOL     OW24238   6.357   6.041   5.434
 7780SOL    HW124239   6.399   6.044   5.343
 7780SOL    HW224240   6.410   5.980   5.493
 7781SOL     OW24241   1.625   3.072   0.390
 7781SOL    HW124242   1.685   3.019   0.451
 7781SOL    HW224243   1.545   3.103   0.442
 7782SOL     OW24244   6.124   4.605   3.594
 7782SOL    HW124245   6.135   4.510   3.623
 7782SOL    HW224246   6.069   4.609   3.511
 7783SOL     OW24247   1.140   0.730   5.144
 7783SOL    HW124248   1.073   0.731   5.070
 7783SOL    HW224249   1.158   0.824   5.174
 7784SOL     OW24250   2.401   2.643   2.789
 7784SOL    HW124251   2.356   2.670   2.874
 7784SOL    HW224252   2.409   2.722   2.729
 7785SOL     OW24253   0.993   6.411   2.409
 7785SOL    HW124254   1.014   6.315   2.429
 7785SOL    HW224255   1.078   6.462   2.397
 7786SOL     OW24256   4.352   0.392   6.267
 7786SOL    HW124257   4.267   0.438   6.292
 7786SOL    HW224258   4.383   0.425   6.178
 7787SOL     OW24259   2.664   2.728   1.321
 7787SOL    HW124260   2.613   2.697   1.240
 7787SOL    HW224261   2.752   2.681   1.324
 7788SOL     OW24262   0.265   4.456   1.540
 7788SOL    HW124263   0.326   4.448   1.461
 7788SOL    HW224264   0.176   4.417   1.517
 7789SOL     OW24265   3.572   0.624   6.460
 7789SOL    HW124266   3.550   0.586   6.370
 7789SOL    HW224267   3.520   0.708   6.474
 7790SOL     OW24268   5.226   4.521   2.133
 7790SOL    HW124269   5.133   4.498   2.102
 7790SOL    HW224270   5.235   4.620   2.143
 7791SOL     OW24271   2.701   5.449   2.107
 7791SOL    HW124272   2.637   5.398   2.051
 7791SOL    HW224273   2.765   5.386   2.151
 7792SOL     OW24274   1.031   1.912   2.169
 7792SOL    HW124275   0.941   1.913   2.213
 7792SOL    HW224276   1.095   1.965   2.224
 7793SOL     OW24277   4.638   1.057   6.815
 7793SOL    HW124278   4.616   0.995   6.891
 7793SOL    HW224279   4.604   1.018   6.729
 7794SOL     OW24280   0.710   5.768   2.841
 7794SOL    HW124281   0.767   5.794   2.919
 7794SOL    HW224282   0.616   5.799   2.856
 7795SOL     OW24283   3.109   5.137   6.369
 7795SOL    HW124284   3.012   5.153   6.351
 7795SOL    HW224285   3.146   5.076   6.299
 7796SOL     OW24286   3.465   3.182   6.078
 7796SOL    HW124287   3.395   3.118   6.045
 7796SOL    HW224288   3.488   3.159   6.173
 7797SOL     OW24289   1.157   5.997   3.217
 7797SOL    HW124290   1.139   6.071   3.152
 7797SOL    HW224291   1.103   6.012   3.300
 7798SOL     OW24292   0.956   2.400   0.777
 7798SOL    HW124293   0.871   2.380   0.729
 7798SOL    HW224294   0.953   2.361   0.869
 7799SOL     OW24295   2.765   6.159   3.496
 7799SOL    HW124296   2.793   6.238   3.551
 7799SOL    HW224297   2.770   6.076   3.551
 7800SOL     OW24298   0.309   6.225   1.337
 7800SOL    HW124299   0.379   6.279   1.385
 7800SOL    HW224300   0.352   6.171   1.265
 7801SOL     OW24301   1.767   2.675   2.381
 7801SOL    HW124302   1.687   2.727   2.410
 7801SOL    HW224303   1.742   2.610   2.309
 7802SOL     OW24304   6.904   3.660   5.193
 7802SOL    HW124305   6.859   3.740   5.153
 7802SOL    HW224306   6.858   3.577   5.162
 7803SOL     OW24307   4.672   2.200   5.476
 7803SOL    HW124308   4.738   2.166   5.544
 7803SOL    HW224309   4.697   2.165   5.386
 7804SOL     OW24310   2.669   2.100   5.156
 7804SOL    HW124311   2.659   2.196   5.130
 7804SOL    HW224312   2.709   2.048   5.080
 7805SOL     OW24313   5.561   3.117   1.117
 7805SOL    HW124314   5.551   3.167   1.203
 7805SOL    HW224315   5.652   3.134   1.079
 7806SOL     OW24316   0.010   1.971   5.647
 7806SOL    HW124317   6.981   1.927   5.720
 7806SOL    HW224318   0.107   1.974   5.674
 7807SOL     OW24319   2.122   5.009   5.791
 7807SOL    HW124320   2.138   4.971   5.700
 7807SOL    HW224321   2.203   5.060   5.820
 7808SOL     OW24322   5.415   3.965   2.988
 7808SOL    HW124323   5.316   3.954   2.998
 7808SOL    HW224324   5.444   3.926   2.901
 7809SOL     OW24325   4.600   5.295   3.480
 7809SOL    HW124326   4.594   5.382   3.429
 7809SOL    HW224327   4.607   5.314   3.578
 7810SOL     OW24328   3.935   6.532   5.523
 7810SOL    HW124329   4.033   6.515   5.511
 7810SOL    HW224330   3.914   6.626   5.498
 7811SOL     OW24331   1.236   5.568   2.502
 7811SOL    HW124332   1.257   5.646   2.562
 7811SOL    HW224333   1.314   5.550   2.442
 7812SOL     OW24334   2.506   2.539   5.702
 7812SOL    HW124335   2.457   2.481   5.767
 7812SOL    HW224336   2.551   2.482   5.634
 7813SOL     OW24337   5.952   1.314   0.883
 7813SOL    HW124338   5.940   1.405   0.924
 7813SOL    HW224339   6.032   1.270   0.923
 7814SOL     OW24340   0.004   3.083   2.235
 7814SOL    HW124341   0.067   3.131   2.296
 7814SOL    HW224342   0.045   3.074   2.144
 7815SOL     OW24343   6.000   2.610   5.263
 7815SOL    HW124344   6.075   2.547   5.242
 7815SOL    HW224345   5.928   2.600   5.194
 7816SOL     OW24346   0.533   1.383   4.946
 7816SOL    HW124347   0.466   1.309   4.939
 7816SOL    HW224348   0.486   1.468   4.970
 7817SOL     OW24349   2.740   3.266   6.422
 7817SOL    HW124350   2.810   3.328   6.388
 7817SOL    HW224351   2.769   3.171   6.409
 7818SOL     OW24352   5.390   0.993   2.301
 7818SOL    HW124353   5.300   0.969   2.339
 7818SOL    HW224354   5.407   0.940   2.218
 7819SOL     OW24355   1.082   3.856   3.877
 7819SOL    HW124356   1.107   3.897   3.964
 7819SOL    HW224357   1.018   3.780   3.893
 7820SOL     OW24358   1.861   0.440   5.606
 7820SOL    HW124359   1.837   0.385   5.527
 7820SOL    HW224360   1.836   0.536   5.589
 7821SOL     OW24361   5.918   5.518   6.760
 7821SOL    HW124362   5.940   5.445   6.824
 7821SOL    HW224363   6.002   5.556   6.722
 7822SOL     OW24364   1.093   0.760   4.582
 7822SOL    HW124365   1.107   0.859   4.578
 7822SOL    HW224366   1.178   0.715   4.608
 7823SOL     OW24367   1.285   4.480   6.810
 7823SOL    HW124368   1.255   4.563   6.762
 7823SOL    HW224369   1.342   4.506   6.889
 7824SOL     OW24370   5.103   2.740   2.318
 7824SOL    HW124371   5.100   2.767   2.414
 7824SOL    HW224372   5.157   2.806   2.266
 7825SOL     OW24373   3.288   3.328   1.653
 7825SOL    HW124374   3.269   3.424   1.636
 7825SOL    HW224375   3.355   3.294   1.587
 7826SOL     OW24376   6.801   0.800   0.370
 7826SOL    HW124377   6.849   0.832   0.287
 7826SOL    HW224378   6.864   0.746   0.425
 7827SOL     OW24379   5.435   4.971   1.223
 7827SOL    HW124380   5.355   4.939   1.273
 7827SOL    HW224381   5.441   5.071   1.230
 7828SOL     OW24382   0.542   6.345   1.023
 7828SOL    HW124383   0.615   6.283   1.053
 7828SOL    HW224384   0.454   6.296   1.025
 7829SOL     OW24385   3.119   2.838   1.431
 7829SOL    HW124386   3.122   2.763   1.497
 7829SOL    HW224387   3.054   2.907   1.462
 7830SOL     OW24388   5.736   2.931   6.991
 7830SOL    HW124389   5.649   2.917   6.944
 7830SOL    HW224390   5.798   2.982   6.931
 7831SOL     OW24391   1.120   3.278   0.167
 7831SOL    HW124392   1.190   3.232   0.220
 7831SOL    HW224393   1.117   3.239   0.075
 7832SOL     OW24394   2.323   2.362   5.450
 7832SOL    HW124395   2.287   2.455   5.437
 7832SOL    HW224396   2.330   2.316   5.361
 7833SOL     OW24397   0.674   6.791   0.495
 7833SOL    HW124398   0.660   6.776   0.397
 7833SOL    HW224399   0.592   6.762   0.545
 7834SOL     OW24400   1.020   0.633   1.249
 7834SOL    HW124401   1.019   0.730   1.225
 7834SOL    HW224402   1.028   0.623   1.348
 7835SOL     OW24403   2.168   3.052   4.855
 7835SOL    HW124404   2.107   3.119   4.897
 7835SOL    HW224405   2.255   3.051   4.904
 7836SOL     OW24406   2.707   6.656   6.919
 7836SOL    HW124407   2.703   6.621   6.826
 7836SOL    HW224408   2.754   6.590   6.978
 7837SOL     OW24409   6.035   6.745   3.127
 7837SOL    HW124410   5.983   6.712   3.048
 7837SOL    HW224411   6.052   6.669   3.190
 7838SOL     OW24412   4.310   6.583   4.828
 7838SOL    HW124413   4.260   6.529   4.760
 7838SOL    HW224414   4.394   6.620   4.787
 7839SOL     OW24415   6.663   5.116   4.813
 7839SOL    HW124416   6.633   5.045   4.877
 7839SOL    HW224417   6.619   5.102   4.725
 7840SOL     OW24418   5.242   2.634   4.041
 7840SOL    HW124419   5.300   2.637   4.123
 7840SOL    HW224420   5.176   2.708   4.043
 7841SOL     OW24421   0.267   1.364   6.342
 7841SOL    HW124422   0.190   1.399   6.396
 7841SOL    HW224423   0.247   1.272   6.311
 7842SOL     OW24424   2.051   1.287   2.723
 7842SOL    HW124425   2.129   1.338   2.687
 7842SOL    HW224426   1.976   1.349   2.742
 7843SOL     OW24427   5.259   3.448   0.872
 7843SOL    HW124428   5.312   3.449   0.957
 7843SOL    HW224429   5.237   3.354   0.848
 7844SOL     OW24430   4.274   0.543   3.060
 7844SOL    HW124431   4.352   0.603   3.079
 7844SOL    HW224432   4.260   0.538   2.961
 7845SOL     OW24433   6.237   1.396   4.472
 7845SOL    HW124434   6.289   1.447   4.403
 7845SOL    HW224435   6.142   1.387   4.443
 7846SOL     OW24436   2.890   0.227   1.765
 7846SOL    HW124437   2.918   0.314   1.724
 7846SOL    HW224438   2.941   0.152   1.723
 7847SOL     OW24439   6.828   0.436   0.668
 7847SOL    HW124440   6.763   0.384   0.612
 7847SOL    HW224441   6.902   0.471   0.611
 7848SOL     OW24442   4.330   3.819   1.723
 7848SOL    HW124443   4.246   3.872   1.716
 7848SOL    HW224444   4.408   3.881   1.731
 7849SOL     OW24445   5.735   2.926   4.717
 7849SOL    HW124446   5.688   2.977   4.789
 7849SOL    HW224447   5.711   2.964   4.628
 7850SOL     OW24448   0.704   0.684   5.522
 7850SOL    HW124449   0.744   0.772   5.547
 7850SOL    HW224450   0.692   0.679   5.423
 7851SOL     OW24451   6.065   0.011   0.359
 7851SOL    HW124452   6.121   0.086   0.395
 7851SOL    HW224453   6.033   0.034   0.267
 7852SOL     OW24454   2.847   6.434   6.995
 7852SOL    HW124455   2.901   6.434   6.911
 7852SOL    HW224456   2.907   6.416   0.049
 7853SOL     OW24457   2.582   3.006   0.143
 7853SOL    HW124458   2.542   3.049   0.062
 7853SOL    HW224459   2.556   2.909   0.145
 7854SOL     OW24460   3.451   4.047   2.046
 7854SOL    HW124461   3.543   4.015   2.066
 7854SOL    HW224462   3.410   4.084   2.130
 7855SOL     OW24463   4.331   5.637   6.332
 7855SOL    HW124464   4.304   5.581   6.253
 7855SOL    HW224465   4.269   5.618   6.408
 7856SOL     OW24466   5.618   3.573   5.238
 7856SOL    HW124467   5.573   3.513   5.171
 7856SOL    HW224468   5.561   3.653   5.254
 7857SOL     OW24469   6.182   1.747   5.898
 7857SOL    HW124470   6.106   1.683   5.905
 7857SOL    HW224471   6.178   1.794   5.809
 7858SOL     OW24472   6.011   3.912   3.479
 7858SOL    HW124473   5.973   3.857   3.552
 7858SOL    HW224474   6.016   3.858   3.395
 7859SOL     OW24475   1.078   4.721   5.997
 7859SOL    HW124476   1.077   4.797   5.932
 7859SOL    HW224477   1.033   4.748   6.082
 7860SOL     OW24478   3.883   6.835   1.673
 7860SOL    HW124479   3.846   6.921   1.710
 7860SOL    HW224480   3.829   6.758   1.707
 7861SOL     OW24481   4.654   4.942   0.965
 7861SOL    HW124482   4.584   5.001   1.006
 7861SOL    HW224483   4.738   4.995   0.950
 7862SOL     OW24484   2.900   4.371   1.349
 7862SOL    HW124485   2.926   4.308   1.423
 7862SOL    HW224486   2.891   4.464   1.386
 7863SOL     OW24487   6.573   5.679   2.207
 7863SOL    HW124488   6.489   5.693   2.260
 7863SOL    HW224489   6.615   5.592   2.234
 7864SOL     OW24490   0.843   5.404   4.456
 7864SOL    HW124491   0.875   5.448   4.372
 7864SOL    HW224492   0.902   5.326   4.477
 7865SOL     OW24493   3.452   6.841   3.159
 7865SOL    HW124494   3.497   6.931   3.160
 7865SOL    HW224495   3.361   6.849   3.200
 7866SOL     OW24496   2.600   2.110   4.071
 7866SOL    HW124497   2.520   2.127   4.013
 7866SOL    HW224498   2.627   2.014   4.062
 7867SOL     OW24499   5.968   4.582   2.001
 7867SOL    HW124500   6.012   4.600   1.913
 7867SOL    HW224501   6.038   4.575   2.072
 7868SOL     OW24502   5.366   6.249   0.602
 7868SOL    HW124503   5.417   6.238   0.687
 7868SOL    HW224504   5.303   6.327   0.611
 7869SOL     OW24505   0.661   3.061   1.534
 7869SOL    HW124506   0.746   3.110   1.520
 7869SOL    HW224507   0.680   2.967   1.561
 7870SOL     OW24508   6.650   4.900   4.022
 7870SOL    HW124509   6.710   4.978   4.044
 7870SOL    HW224510   6.656   4.881   3.924
 7871SOL     OW24511   5.268   3.387   3.235
 7871SOL    HW124512   5.235   3.362   3.144
 7871SOL    HW224513   5.231   3.323   3.302
 7872SOL     OW24514   0.075   3.576   2.829
 7872SOL    HW124515   7.010   3.572   2.873
 7872SOL    HW224516   0.080   3.657   2.771
 7873SOL     OW24517   0.344   5.747   5.346
 7873SOL    HW124518   0.314   5.663   5.302
 7873SOL    HW224519   0.431   5.777   5.306
 7874SOL     OW24520   5.955   1.687   0.249
 7874SOL    HW124521   6.047   1.675   0.209
 7874SOL    HW224522   5.915   1.772   0.215
 7875SOL     OW24523   4.472   3.152   6.243
 7875SOL    HW124524   4.571   3.160   6.258
 7875SOL    HW224525   4.428   3.240   6.261
 7876SOL     OW24526   6.493   0.290   3.683
 7876SOL    HW124527   6.448   0.204   3.709
 7876SOL    HW224528   6.503   0.348   3.764
 7877SOL     OW24529   0.057   2.351   3.050
 7877SOL    HW124530   0.115   2.413   3.104
 7877SOL    HW224531   0.036   2.392   2.962
 7878SOL     OW24532   4.719   4.465   2.490
 7878SOL    HW124533   4.801   4.474   2.548
 7878SOL    HW224534   4.669   4.551   2.489
 7879SOL     OW24535   4.751   0.038   3.946
 7879SOL    HW124536   4.744   0.138   3.947
 7879SOL    HW224537   4.772   0.007   3.854
 7880SOL     OW24538   0.153   6.743   6.274
 7880SOL    HW124539   0.239   6.720   6.321
 7880SOL    HW224540   0.079   6.749   6.341
 7881SOL     OW24541   6.934   4.158   4.812
 7881SOL    HW124542   6.885   4.124   4.732
 7881SOL    HW224543   6.877   4.222   4.862
 7882SOL     OW24544   0.130   3.106   2.934
 7882SOL    HW124545   0.176   3.157   2.862
 7882SOL    HW224546   0.078   3.169   2.992
 7883SOL     OW24547   2.831   1.157   3.061
 7883SOL    HW124548   2.910   1.167   3.122
 7883SOL    HW224549   2.789   1.246   3.046
 7884SOL     OW24550   1.356   4.387   3.928
 7884SOL    HW124551   1.332   4.348   4.018
 7884SOL    HW224552   1.423   4.329   3.883
 7885SOL     OW24553   6.143   5.506   2.881
 7885SOL    HW124554   6.201   5.442   2.933
 7885SOL    HW224555   6.178   5.599   2.892
 7886SOL     OW24556   4.720   2.757   1.840
 7886SOL    HW124557   4.700   2.688   1.910
 7886SOL    HW224558   4.668   2.840   1.858
 7887SOL     OW24559   3.405   3.473   0.376
 7887SOL    HW124560   3.425   3.511   0.467
 7887SOL    HW224561   3.380   3.548   0.314
 7888SOL     OW24562   5.968   1.374   4.089
 7888SOL    HW124563   6.018   1.423   4.018
 7888SOL    HW224564   5.910   1.304   4.046
 7889SOL     OW24565   6.051   4.943   0.868
 7889SOL    HW124566   5.996   4.965   0.787
 7889SOL    HW224567   5.993   4.895   0.935
 7890SOL     OW24568   1.183   3.054   4.552
 7890SOL    HW124569   1.147   2.962   4.535
 7890SOL    HW224570   1.142   3.091   4.635
 7891SOL     OW24571   0.155   2.033   3.935
 7891SOL    HW124572   0.221   2.090   3.885
 7891SOL    HW224573   0.090   2.091   3.983
 7892SOL     OW24574   0.856   3.532   5.827
 7892SOL    HW124575   0.840   3.593   5.905
 7892SOL    HW224576   0.951   3.502   5.828
 7893SOL     OW24577   6.348   1.007   1.671
 7893SOL    HW124578   6.355   0.927   1.731
 7893SOL    HW224579   6.330   0.977   1.578
 7894SOL     OW24580   2.454   1.182   5.911
 7894SOL    HW124581   2.539   1.157   5.958
 7894SOL    HW224582   2.464   1.166   5.813
 7895SOL     OW24583   3.676   5.923   3.205
 7895SOL    HW124584   3.621   5.950   3.126
 7895SOL    HW224585   3.772   5.923   3.180
 7896SOL     OW24586   4.262   2.590   1.426
 7896SOL    HW124587   4.304   2.668   1.473
 7896SOL    HW224588   4.164   2.588   1.446
 7897SOL     OW24589   3.790   4.011   7.005
 7897SOL    HW124590   3.887   3.996   6.987
 7897SOL    HW224591   3.739   3.928   6.985
 7898SOL     OW24592   4.957   0.384   4.323
 7898SOL    HW124593   4.935   0.468   4.275
 7898SOL    HW224594   5.018   0.404   4.400
 7899SOL     OW24595   5.445   4.723   1.404
 7899SOL    HW124596   5.501   4.796   1.444
 7899SOL    HW224597   5.403   4.756   1.320
 7900SOL     OW24598   0.742   3.358   0.395
 7900SOL    HW124599   0.778   3.423   0.462
 7900SOL    HW224600   0.642   3.361   0.396
 7901SOL     OW24601   5.621   1.193   6.223
 7901SOL    HW124602   5.545   1.252   6.251
 7901SOL    HW224603   5.634   1.200   6.124
 7902SOL     OW24604   0.531   6.679   2.784
 7902SOL    HW124605   0.467   6.739   2.736
 7902SOL    HW224606   0.483   6.595   2.811
 7903SOL     OW24607   2.030   1.867   4.534
 7903SOL    HW124608   1.931   1.877   4.518
 7903SOL    HW224609   2.045   1.825   4.624
 7904SOL     OW24610   5.831   0.665   2.506
 7904SOL    HW124611   5.883   0.584   2.481
 7904SOL    HW224612   5.894   0.738   2.533
 7905SOL     OW24613   5.769   0.260   0.155
 7905SOL    HW124614   5.680   0.247   0.111
 7905SOL    HW224615   5.835   0.292   0.088
 7906SOL     OW24616   1.269   5.209   0.824
 7906SOL    HW124617   1.343   5.206   0.757
 7906SOL    HW224618   1.242   5.116   0.848
 7907SOL     OW24619   6.212   0.031   3.434
 7907SOL    HW124620   6.298   0.005   3.391
 7907SOL    HW224621   6.136   0.006   3.374
 7908SOL     OW24622   0.814   0.022   6.384
 7908SOL    HW124623   0.856   6.993   6.310
 7908SOL    HW224624   0.866   0.106   6.398
 7909SOL     OW24625   5.563   3.826   2.288
 7909SOL    HW124626   5.628   3.884   2.238
 7909SOL    HW224627   5.595   3.732   2.287
 7910SOL     OW24628   2.001   3.491   0.903
 7910SOL    HW124629   2.095   3.504   0.933
 7910SOL    HW224630   1.991   3.401   0.860
 7911SOL     OW24631   1.361   4.307   0.680
 7911SOL    HW124632   1.318   4.238   0.739
 7911SOL    HW224633   1.406   4.262   0.603
 7912SOL     OW24634   5.932   5.441   0.249
 7912SOL    HW124635   5.863   5.391   0.303
 7912SOL    HW224636   6.004   5.378   0.222
 7913SOL     OW24637   0.337   3.707   0.800
 7913SOL    HW124638   0.387   3.782   0.844
 7913SOL    HW224639   0.284   3.743   0.723
 7914SOL     OW24640   6.255   5.305   5.147
 7914SOL    HW124641   6.337   5.358   5.171
 7914SOL    HW224642   6.273   5.252   5.064
 7915SOL     OW24643   3.568   0.207   2.834
 7915SOL    HW124644   3.531   0.156   2.912
 7915SOL    HW224645   3.500   0.209   2.760
 7916SOL     OW24646   1.462   0.427   4.434
 7916SOL    HW124647   1.369   0.429   4.396
 7916SOL    HW224648   1.489   0.520   4.461
 7917SOL     OW24649   3.651   3.253   6.923
 7917SOL    HW124650   3.552   3.256   6.936
 7917SOL    HW224651   3.691   3.340   6.950
 7918SOL     OW24652   2.104   0.620   4.657
 7918SOL    HW124653   2.022   0.580   4.616
 7918SOL    HW224654   2.185   0.575   4.618
 7919SOL     OW24655   0.817   5.063   2.694
 7919SOL    HW124656   0.771   4.992   2.642
 7919SOL    HW224657   0.828   5.033   2.789
 7920SOL     OW24658   4.431   0.661   0.940
 7920SOL    HW124659   4.346   0.610   0.957
 7920SOL    HW224660   4.509   0.606   0.971
 7921SOL     OW24661   4.993   1.474   1.643
 7921SOL    HW124662   5.040   1.468   1.731
 7921SOL    HW224663   5.056   1.507   1.573
 7922SOL     OW24664   0.649   5.779   0.510
 7922SOL    HW124665   0.685   5.763   0.418
 7922SOL    HW224666   0.631   5.691   0.554
 7923SOL     OW24667   3.664   1.218   7.012
 7923SOL    HW124668   3.643   1.211   0.085
 7923SOL    HW224669   3.596   1.167   6.959
 7924SOL     OW24670   6.309   0.111   1.433
 7924SOL    HW124671   6.380   0.049   1.400
 7924SOL    HW224672   6.255   0.065   1.504
 7925SOL     OW24673   2.379   6.344   0.921
 7925SOL    HW124674   2.443   6.391   0.982
 7925SOL    HW224675   2.296   6.398   0.911
 7926SOL     OW24676   5.052   6.524   6.213
 7926SOL    HW124677   4.954   6.529   6.234
 7926SOL    HW224678   5.077   6.596   6.150
 7927SOL     OW24679   5.173   6.770   2.498
 7927SOL    HW124680   5.207   6.717   2.575
 7927SOL    HW224681   5.168   6.867   2.523
 7928SOL     OW24682   6.251   1.377   3.544
 7928SOL    HW124683   6.312   1.339   3.474
 7928SOL    HW224684   6.290   1.360   3.635
 7929SOL     OW24685   4.147   3.940   6.161
 7929SOL    HW124686   4.193   3.998   6.094
 7929SOL    HW224687   4.185   3.847   6.157
 7930SOL     OW24688   3.924   6.039   5.297
 7930SOL    HW124689   3.857   6.037   5.372
 7930SOL    HW224690   3.906   6.118   5.239
 7931SOL     OW24691   2.852   2.341   0.598
 7931SOL    HW124692   2.945   2.321   0.566
 7931SOL    HW224693   2.786   2.305   0.532
 7932SOL     OW24694   0.050   5.513   1.439
 7932SOL    HW124695   0.116   5.550   1.504
 7932SOL    HW224696   6.987   5.562   1.448
 7933SOL     OW24697   6.857   1.068   5.955
 7933SOL    HW124698   6.762   1.097   5.967
 7933SOL    HW224699   6.918   1.136   5.997
 7934SOL     OW24700   1.287   4.563   0.827
 7934SOL    HW124701   1.305   4.477   0.780
 7934SOL    HW224702   1.330   4.638   0.776
 7935SOL     OW24703   5.723   3.817   2.644
 7935SOL    HW124704   5.750   3.912   2.660
 7935SOL    HW224705   5.805   3.761   2.633
 7936SOL     OW24706   3.487   6.382   4.095
 7936SOL    HW124707   3.581   6.368   4.128
 7936SOL    HW224708   3.436   6.296   4.102
 7937SOL     OW24709   2.647   5.662   6.237
 7937SOL    HW124710   2.673   5.745   6.189
 7937SOL    HW224711   2.697   5.584   6.199
 7938SOL     OW24712   4.243   6.932   4.818
 7938SOL    HW124713   4.157   6.881   4.823
 7938SOL    HW224714   4.277   6.930   4.723
 7939SOL     OW24715   0.427   1.641   5.042
 7939SOL    HW124716   0.440   1.733   5.006
 7939SOL    HW224717   0.335   1.634   5.082
 7940SOL     OW24718   5.081   1.326   2.877
 7940SOL    HW124719   5.096   1.294   2.784
 7940SOL    HW224720   4.983   1.331   2.896
 7941SOL     OW24721   4.162   6.661   1.747
 7941SOL    HW124722   4.077   6.638   1.701
 7941SOL    HW224723   4.143   6.718   1.827
 7942SOL     OW24724   0.939   3.917   1.624
 7942SOL    HW124725   1.027   3.884   1.657
 7942SOL    HW224726   0.930   3.896   1.527
 7943SOL     OW24727   2.444   5.129   6.230
 7943SOL    HW124728   2.422   5.032   6.220
 7943SOL    HW224729   2.363   5.184   6.211
 7944SOL     OW24730   0.944   2.880   1.275
 7944SOL    HW124731   0.864   2.932   1.243
 7944SOL    HW224732   0.963   2.905   1.370
 7945SOL     OW24733   5.648   5.164   2.506
 7945SOL    HW124734   5.611   5.183   2.415
 7945SOL    HW224735   5.584   5.108   2.558
 7946SOL     OW24736   4.082   1.205   5.552
 7946SOL    HW124737   4.062   1.110   5.573
 7946SOL    HW224738   4.163   1.234   5.602
 7947SOL     OW24739   0.988   2.805   4.963
 7947SOL    HW124740   1.006   2.746   4.884
 7947SOL    HW224741   0.942   2.751   5.034
 7948SOL     OW24742   1.847   5.126   2.027
 7948SOL    HW124743   1.820   5.030   2.019
 7948SOL    HW224744   1.944   5.132   2.053
 7949SOL     OW24745   4.182   4.983   6.430
 7949SOL    HW124746   4.239   5.043   6.486
 7949SOL    HW224747   4.208   4.992   6.334
 7950SOL     OW24748   5.993   5.183   5.631
 7950SOL    HW124749   5.973   5.281   5.636
 7950SOL    HW224750   5.993   5.153   5.536
 7951SOL     OW24751   3.177   5.583   2.673
 7951SOL    HW124752   3.194   5.488   2.646
 7951SOL    HW224753   3.078   5.597   2.681
 7952SOL     OW24754   5.157   3.269   7.018
 7952SOL    HW124755   5.087   3.314   0.050
 7952SOL    HW224756   5.129   3.271   6.922
 7953SOL     OW24757   3.799   2.089   0.565
 7953SOL    HW124758   3.796   2.011   0.502
 7953SOL    HW224759   3.890   2.131   0.562
 7954SOL     OW24760   3.776   2.984   0.348
 7954SOL    HW124761   3.761   3.053   0.276
 7954SOL    HW224762   3.687   2.954   0.384
 7955SOL     OW24763   1.530   1.639   6.586
 7955SOL    HW124764   1.480   1.586   6.654
 7955SOL    HW224765   1.477   1.643   6.501
 7956SOL     OW24766   6.676   0.515   1.447
 7956SOL    HW124767   6.672   0.505   1.546
 7956SOL    HW224768   6.762   0.559   1.420
 7957SOL     OW24769   4.721   0.407   5.124
 7957SOL    HW124770   4.783   0.483   5.104
 7957SOL    HW224771   4.651   0.401   5.052
 7958SOL     OW24772   5.781   3.276   6.625
 7958SOL    HW124773   5.684   3.255   6.613
 7958SOL    HW224774   5.790   3.368   6.663
 7959SOL     OW24775   4.977   0.988   6.002
 7959SOL    HW124776   4.891   0.973   6.051
 7959SOL    HW224777   4.971   0.949   5.910
 7960SOL     OW24778   6.829   0.888   6.624
 7960SOL    HW124779   6.895   0.839   6.566
 7960SOL    HW224780   6.779   0.955   6.569
 7961SOL     OW24781   6.503   0.285   0.014
 7961SOL    HW124782   6.416   0.238   0.026
 7961SOL    HW224783   6.546   0.299   0.103
 7962SOL     OW24784   6.308   6.537   5.570
 7962SOL    HW124785   6.296   6.464   5.502
 7962SOL    HW224786   6.218   6.565   5.604
 7963SOL     OW24787   6.727   5.029   4.333
 7963SOL    HW124788   6.683   5.018   4.244
 7963SOL    HW224789   6.826   5.025   4.323
 7964SOL     OW24790   6.374   3.626   1.966
 7964SOL    HW124791   6.396   3.579   2.051
 7964SOL    HW224792   6.275   3.629   1.954
 7965SOL     OW24793   4.140   1.913   6.976
 7965SOL    HW124794   4.116   1.995   6.924
 7965SOL    HW224795   4.057   1.859   6.993
 7966SOL     OW24796   4.378   4.338   5.375
 7966SOL    HW124797   4.390   4.413   5.440
 7966SOL    HW224798   4.327   4.371   5.295
 7967SOL     OW24799   1.432   5.210   2.022
 7967SOL    HW124800   1.435   5.124   2.074
 7967SOL    HW224801   1.511   5.266   2.046
 7968SOL     OW24802   6.518   1.915   4.290
 7968SOL    HW124803   6.608   1.901   4.248
 7968SOL    HW224804   6.494   2.012   4.286
 7969SOL     OW24805   4.638   6.149   6.939
 7969SOL    HW124806   4.733   6.134   6.911
 7969SOL    HW224807   4.630   6.139   0.015
 7970SOL     OW24808   6.424   3.299   2.706
 7970SOL    HW124809   6.354   3.227   2.708
 7970SOL    HW224810   6.480   3.293   2.789
 7971SOL     OW24811   3.318   1.700   1.114
 7971SOL    HW124812   3.357   1.616   1.077
 7971SOL    HW224813   3.279   1.682   1.204
 7972SOL     OW24814   3.844   3.090   2.513
 7972SOL    HW124815   3.862   3.045   2.600
 7972SOL    HW224816   3.766   3.152   2.523
 7973SOL     OW24817   6.304   3.663   3.135
 7973SOL    HW124818   6.272   3.701   3.222
 7973SOL    HW224819   6.330   3.567   3.149
 7974SOL     OW24820   6.225   1.595   5.559
 7974SOL    HW124821   6.260   1.672   5.611
 7974SOL    HW224822   6.301   1.548   5.513
 7975SOL     OW24823   5.258   1.451   0.718
 7975SOL    HW124824   5.350   1.415   0.732
 7975SOL    HW224825   5.245   1.532   0.775
 7976SOL     OW24826   1.193   6.979   0.284
 7976SOL    HW124827   1.136   0.037   0.280
 7976SOL    HW224828   1.174   6.929   0.368
 7977SOL     OW24829   5.318   6.354   3.003
 7977SOL    HW124830   5.341   6.270   3.050
 7977SOL    HW224831   5.300   6.335   2.906
 7978SOL     OW24832   0.069   4.740   0.769
 7978SOL    HW124833   0.063   4.837   0.744
 7978SOL    HW224834   0.095   4.733   0.866
 7979SOL     OW24835   1.481   3.760   4.555
 7979SOL    HW124836   1.553   3.760   4.485
 7979SOL    HW224837   1.409   3.824   4.529
 7980SOL     OW24838   3.419   4.671   5.895
 7980SOL    HW124839   3.326   4.690   5.925
 7980SOL    HW224840   3.467   4.757   5.878
 7981SOL     OW24841   1.938   5.326   3.153
 7981SOL    HW124842   1.989   5.260   3.208
 7981SOL    HW224843   1.862   5.280   3.107
 7982SOL     OW24844   1.480   1.951   6.095
 7982SOL    HW124845   1.458   2.049   6.092
 7982SOL    HW224846   1.529   1.925   6.013
 7983SOL     OW24847   5.405   1.164   0.981
 7983SOL    HW124848   5.326   1.205   0.935
 7983SOL    HW224849   5.471   1.133   0.912
 7984SOL     OW24850   1.045   1.609   1.827
 7984SOL    HW124851   1.057   1.510   1.816
 7984SOL    HW224852   1.041   1.652   1.736
 7985SOL     OW24853   2.061   2.549   5.513
 7985SOL    HW124854   2.026   2.599   5.434
 7985SOL    HW224855   2.131   2.604   5.558
 7986SOL     OW24856   3.399   1.071   3.956
 7986SOL    HW124857   3.485   1.039   3.917
 7986SOL    HW224858   3.329   1.072   3.885
 7987SOL     OW24859   1.307   3.442   0.889
 7987SOL    HW124860   1.223   3.490   0.863
 7987SOL    HW224861   1.352   3.491   0.964
 7988SOL     OW24862   0.332   1.407   1.446
 7988SOL    HW124863   0.328   1.506   1.461
 7988SOL    HW224864   0.348   1.360   1.533
 7989SOL     OW24865   0.975   4.272   0.490
 7989SOL    HW124866   1.064   4.315   0.475
 7989SOL    HW224867   0.986   4.173   0.493
 7990SOL     OW24868   2.968   5.699   5.545
 7990SOL    HW124869   3.038   5.661   5.605
 7990SOL    HW224870   3.004   5.781   5.499
 7991SOL     OW24871   5.472   1.446   5.423
 7991SOL    HW124872   5.530   1.491   5.355
 7991SOL    HW224873   5.382   1.490   5.425
 7992SOL     OW24874   2.326   0.452   0.298
 7992SOL    HW124875   2.237   0.413   0.275
 7992SOL    HW224876   2.336   0.456   0.397
 7993SOL     OW24877   7.013   6.505   1.447
 7993SOL    HW124878   0.017   6.531   1.539
 7993SOL    HW224879   6.943   6.568   1.414
 7994SOL     OW24880   5.512   0.962   3.186
 7994SOL    HW124881   5.492   1.021   3.264
 7994SOL    HW224882   5.506   1.015   3.102
 7995SOL     OW24883   0.629   4.512   1.867
 7995SOL    HW124884   0.533   4.533   1.848
 7995SOL    HW224885   0.648   4.531   1.964
 7996SOL     OW24886   3.648   0.060   3.138
 7996SOL    HW124887   3.700   0.059   3.224
 7996SOL    HW224888   3.712   0.052   3.061
 7997SOL     OW24889   0.854   2.205   6.693
 7997SOL    HW124890   0.945   2.248   6.692
 7997SOL    HW224891   0.833   2.170   6.602
 7998SOL     OW24892   2.713   0.832   0.237
 7998SOL    HW124893   2.685   0.745   0.196
 7998SOL    HW224894   2.781   0.876   0.179
 7999SOL     OW24895   1.380   1.405   5.176
 7999SOL    HW124896   1.336   1.454   5.252
 7999SOL    HW224897   1.389   1.308   5.200
 8000SOL     OW24898   5.608   6.250   6.456
 8000SOL    HW124899   5.570   6.297   6.376
 8000SOL    HW224900   5.588   6.303   6.538
 8001SOL     OW24901   4.895   0.448   1.069
 8001SOL    HW124902   4.960   0.383   1.031
 8001SOL    HW224903   4.849   0.408   1.148
 8002SOL     OW24904   0.184   0.614   6.058
 8002SOL    HW124905   0.218   0.595   6.150
 8002SOL    HW224906   0.257   0.598   5.991
 8003SOL     OW24907   1.914   6.608   2.761
 8003SOL    HW124908   1.832   6.621   2.706
 8003SOL    HW224909   1.898   6.537   2.829
 8004SOL     OW24910   0.742   2.602   3.967
 8004SOL    HW124911   0.820   2.618   4.028
 8004SOL    HW224912   0.707   2.510   3.981
 8005SOL     OW24913   2.441   0.339   3.227
 8005SOL    HW124914   2.394   0.279   3.163
 8005SOL    HW224915   2.531   0.302   3.249
 8006SOL     OW24916   3.524   5.054   4.845
 8006SOL    HW124917   3.463   5.011   4.779
 8006SOL    HW224918   3.478   5.060   4.934
 8007SOL     OW24919   6.288   1.299   6.288
 8007SOL    HW124920   6.272   1.208   6.325
 8007SOL    HW224921   6.273   1.299   6.189
 8008SOL     OW24922   4.239   6.466   0.133
 8008SOL    HW124923   4.282   6.541   0.183
 8008SOL    HW224924   4.139   6.475   0.139
 8009SOL     OW24925   4.669   1.425   0.573
 8009SOL    HW124926   4.703   1.484   0.500
 8009SOL    HW224927   4.569   1.417   0.565
 8010SOL     OW24928   2.575   2.575   5.199
 8010SOL    HW124929   2.499   2.632   5.231
 8010SOL    HW224930   2.661   2.611   5.236
 8011SOL     OW24931   3.302   1.747   2.114
 8011SOL    HW124932   3.255   1.721   2.199
 8011SOL    HW224933   3.268   1.835   2.082
 8012SOL     OW24934   1.007   3.261   5.488
 8012SOL    HW124935   0.942   3.314   5.543
 8012SOL    HW224936   1.081   3.229   5.547
 8013SOL     OW24937   1.646   2.229   3.700
 8013SOL    HW124938   1.742   2.206   3.686
 8013SOL    HW224939   1.626   2.231   3.798
 8014SOL     OW24940   2.081   0.853   3.279
 8014SOL    HW124941   2.099   0.924   3.347
 8014SOL    HW224942   2.050   0.770   3.326
 8015SOL     OW24943   2.378   0.025   5.329
 8015SOL    HW124944   2.344   6.967   5.284
 8015SOL    HW224945   2.478   0.024   5.329
 8016SOL     OW24946   4.532   1.652   5.473
 8016SOL    HW124947   4.553   1.724   5.538
 8016SOL    HW224948   4.465   1.685   5.406
 8017SOL     OW24949   0.010   0.230   0.421
 8017SOL    HW124950   6.980   0.273   0.349
 8017SOL    HW224951   7.022   0.131   0.417
 8018SOL     OW24952   4.006   1.341   0.478
 8018SOL    HW124953   4.085   1.350   0.417
 8018SOL    HW224954   4.036   1.307   0.567
 8019SOL     OW24955   3.207   3.580   0.850
 8019SOL    HW124956   3.263   3.506   0.889
 8019SOL    HW224957   3.146   3.616   0.921
 8020SOL     OW24958   6.742   0.116   5.060
 8020SOL    HW124959   6.814   0.170   5.105
 8020SOL    HW224960   6.694   0.061   5.129
 8021SOL     OW24961   1.933   2.108   2.484
 8021SOL    HW124962   2.004   2.043   2.510
 8021SOL    HW224963   1.876   2.129   2.563
 8022SOL     OW24964   5.197   1.139   2.040
 8022SOL    HW124965   5.162   1.232   2.034
 8022SOL    HW224966   5.209   1.114   2.136
 8023SOL     OW24967   5.109   6.492   3.521
 8023SOL    HW124968   5.193   6.453   3.558
 8023SOL    HW224969   5.132   6.559   3.451
 8024SOL     OW24970   1.796   6.255   6.375
 8024SOL    HW124971   1.698   6.273   6.366
 8024SOL    HW224972   1.842   6.337   6.408
 8025SOL     OW24973   2.354   4.994   1.454
 8025SOL    HW124974   2.357   4.954   1.363
 8025SOL    HW224975   2.363   5.093   1.447
 8026SOL     OW24976   0.624   5.232   6.564
 8026SOL    HW124977   0.577   5.190   6.641
 8026SOL    HW224978   0.593   5.190   6.479
 8027SOL     OW24979   3.999   6.177   6.099
 8027SOL    HW124980   4.056   6.228   6.164
 8027SOL    HW224981   4.009   6.216   6.008
 8028SOL     OW24982   3.202   5.704   4.572
 8028SOL    HW124983   3.187   5.613   4.610
 8028SOL    HW224984   3.244   5.695   4.481
 8029SOL     OW24985   6.049   1.188   1.317
 8029SOL    HW124986   6.039   1.173   1.416
 8029SOL    HW224987   6.128   1.137   1.283
 8030SOL     OW24988   6.447   4.740   1.006
 8030SOL    HW124989   6.430   4.838   1.000
 8030SOL    HW224990   6.542   4.724   1.033
 8031SOL     OW24991   5.941   0.465   3.030
 8031SOL    HW124992   5.923   0.445   2.933
 8031SOL    HW224993   6.019   0.410   3.061
 8032SOL     OW24994   5.435   2.868   1.111
 8032SOL    HW124995   5.338   2.854   1.131
 8032SOL    HW224996   5.460   2.962   1.134
 8033SOL     OW24997   3.717   4.562   0.434
 8033SOL    HW124998   3.720   4.581   0.336
 8033SOL    HW224999   3.788   4.615   0.480
 8034SOL     OW25000   5.819   6.947   5.029
 8034SOL    HW125001   5.804   0.019   5.005
 8034SOL    HW225002   5.868   6.941   5.115
 8035SOL     OW25003   4.839   1.428   2.999
 8035SOL    HW125004   4.888   1.514   3.013
 8035SOL    HW225005   4.767   1.420   3.068
 8036SOL     OW25006   6.279   2.805   3.946
 8036SOL    HW125007   6.374   2.773   3.938
 8036SOL    HW225008   6.218   2.728   3.962
 8037SOL     OW25009   1.441   3.019   6.409
 8037SOL    HW125010   1.529   3.065   6.420
 8037SOL    HW225011   1.455   2.930   6.367
 8038SOL     OW25012   5.886   6.172   2.331
 8038SOL    HW125013   5.819   6.179   2.257
 8038SOL    HW225014   5.929   6.082   2.328
 8039SOL     OW25015   1.000   2.115   5.641
 8039SOL    HW125016   0.960   2.194   5.688
 8039SOL    HW225017   1.085   2.089   5.688
 8040SOL     OW25018   1.488   5.533   5.840
 8040SOL    HW125019   1.474   5.508   5.744
 8040SOL    HW225020   1.480   5.451   5.897
 8041SOL     OW25021   3.486   1.697   3.169
 8041SOL    HW125022   3.554   1.759   3.209
 8041SOL    HW225023   3.442   1.741   3.091
 8042SOL     OW25024   4.535   4.500   6.192
 8042SOL    HW125025   4.473   4.423   6.175
 8042SOL    HW225026   4.624   4.465   6.220
 8043SOL     OW25027   5.349   4.513   1.101
 8043SOL    HW125028   5.375   4.481   1.010
 8043SOL    HW225029   5.429   4.513   1.160
 8044SOL     OW25030   3.392   3.759   0.921
 8044SOL    HW125031   3.350   3.821   0.988
 8044SOL    HW225032   3.321   3.718   0.864
 8045SOL     OW25033   0.650   0.926   2.447
 8045SOL    HW125034   0.617   0.939   2.541
 8045SOL    HW225035   0.705   0.843   2.442
 8046SOL     OW25036   0.188   5.402   2.229
 8046SOL    HW125037   0.214   5.425   2.323
 8046SOL    HW225038   0.243   5.325   2.197
 8047SOL     OW25039   3.847   7.008   5.607
 8047SOL    HW125040   3.764   0.024   5.644
 8047SOL    HW225041   3.891   0.050   5.546
 8048SOL     OW25042   3.321   3.652   0.198
 8048SOL    HW125043   3.234   3.671   0.152
 8048SOL    HW225044   3.384   3.729   0.183
 8049SOL     OW25045   1.669   0.059   0.677
 8049SOL    HW125046   1.754   0.078   0.628
 8049SOL    HW225047   1.591   0.079   0.617
 8050SOL     OW25048   1.748   4.433   4.061
 8050SOL    HW125049   1.846   4.454   4.057
 8050SOL    HW225050   1.736   4.335   4.076
 8051SOL     OW25051   3.879   6.121   4.281
 8051SOL    HW125052   3.817   6.070   4.221
 8051SOL    HW225053   3.941   6.176   4.225
 8052SOL     OW25054   2.034   1.777   2.045
 8052SOL    HW125055   1.935   1.762   2.036
 8052SOL    HW225056   2.050   1.860   2.097
 8053SOL     OW25057   2.843   3.490   6.050
 8053SOL    HW125058   2.829   3.392   6.065
 8053SOL    HW225059   2.886   3.505   5.961
 8054SOL     OW25060   5.360   3.964   4.819
 8054SOL    HW125061   5.403   4.053   4.801
 8054SOL    HW225062   5.430   3.899   4.850
 8055SOL     OW25063   0.381   0.313   5.621
 8055SOL    HW125064   0.412   0.226   5.657
 8055SOL    HW225065   0.358   0.303   5.524
 8056SOL     OW25066   2.348   0.660   3.569
 8056SOL    HW125067   2.387   0.641   3.660
 8056SOL    HW225068   2.361   0.757   3.547
 8057SOL     OW25069   2.457   2.711   1.897
 8057SOL    HW125070   2.372   2.668   1.925
 8057SOL    HW225071   2.531   2.644   1.897
 8058SOL     OW25072   2.989   6.886   3.550
 8058SOL    HW125073   2.897   6.861   3.580
 8058SOL    HW225074   3.000   6.985   3.555
 8059SOL     OW25075   2.690   2.746   6.350
 8059SOL    HW125076   2.773   2.801   6.355
 8059SOL    HW225077   2.667   2.710   6.440
 8060SOL     OW25078   6.875   0.342   6.239
 8060SOL    HW125079   6.901   0.249   6.214
 8060SOL    HW225080   6.778   0.345   6.264
 8061SOL     OW25081   0.363   0.883   2.118
 8061SOL    HW125082   0.460   0.881   2.139
 8061SOL    HW225083   0.332   0.978   2.110
 8062SOL     OW25084   4.324   5.706   5.296
 8062SOL    HW125085   4.291   5.653   5.217
 8062SOL    HW225086   4.261   5.781   5.314
 8063SOL     OW25087   3.579   0.764   2.878
 8063SOL    HW125088   3.529   0.682   2.907
 8063SOL    HW225089   3.521   0.844   2.889
 8064SOL     OW25090   6.089   3.392   0.123
 8064SOL    HW125091   6.075   3.295   0.142
 8064SOL    HW225092   6.181   3.419   0.154
 8065SOL     OW25093   3.481   0.070   4.610
 8065SOL    HW125094   3.464   6.996   4.605
 8065SOL    HW225095   3.564   0.087   4.664
 8066SOL     OW25096   0.134   1.000   4.971
 8066SOL    HW125097   0.157   1.037   5.061
 8066SOL    HW225098   0.058   1.051   4.931
 8067SOL     OW25099   4.889   2.991   3.428
 8067SOL    HW125100   4.877   2.905   3.478
 8067SOL    HW225101   4.887   3.067   3.492
 8068SOL     OW25102   7.004   4.394   1.539
 8068SOL    HW125103   6.935   4.464   1.557
 8068SOL    HW225104   6.998   4.366   1.443
 8069SOL     OW25105   3.066   5.225   2.478
 8069SOL    HW125106   3.061   5.163   2.400
 8069SOL    HW225107   2.983   5.218   2.533
 8070SOL     OW25108   5.000   4.652   0.863
 8070SOL    HW125109   5.039   4.617   0.948
 8070SOL    HW225110   4.906   4.618   0.853
 8071SOL     OW25111   3.877   6.695   5.987
 8071SOL    HW125112   3.799   6.757   5.978
 8071SOL    HW225113   3.960   6.741   5.954
 8072SOL     OW25114   2.274   3.096   6.847
 8072SOL    HW125115   2.220   3.032   6.901
 8072SOL    HW225116   2.213   3.162   6.802
 8073SOL     OW25117   2.873   0.002   6.541
 8073SOL    HW125118   2.951   7.013   6.601
 8073SOL    HW225119   2.891   0.078   6.478
 8074SOL     OW25120   2.028   2.004   0.552
 8074SOL    HW125121   2.074   1.937   0.610
 8074SOL    HW225122   1.981   1.957   0.477
 8075SOL     OW25123   6.993   6.477   6.968
 8075SOL    HW125124   0.046   6.443   6.915
 8075SOL    HW225125   6.908   6.439   6.932
 8076SOL     OW25126   6.944   6.965   6.887
 8076SOL    HW125127   6.985   7.004   6.970
 8076SOL    HW225128   6.887   6.887   6.913
 8077SOL     OW25129   4.026   5.699   1.729
 8077SOL    HW125130   4.043   5.729   1.823
 8077SOL    HW225131   4.104   5.645   1.697
 8078SOL     OW25132   1.121   1.327   0.831
 8078SOL    HW125133   1.079   1.328   0.740
 8078SOL    HW225134   1.199   1.390   0.833
 8079SOL     OW25135   1.312   1.256   4.777
 8079SOL    HW125136   1.401   1.281   4.738
 8079SOL    HW225137   1.304   1.297   4.868
 8080SOL     OW25138   1.375   3.487   2.408
 8080SOL    HW125139   1.348   3.534   2.492
 8080SOL    HW225140   1.317   3.517   2.332
 8081SOL     OW25141   5.956   4.793   4.852
 8081SOL    HW125142   6.016   4.792   4.932
 8081SOL    HW225143   5.870   4.839   4.875
 8082SOL     OW25144   2.528   1.320   2.512
 8082SOL    HW125145   2.472   1.254   2.461
 8082SOL    HW225146   2.515   1.411   2.473
 8083SOL     OW25147   5.280   2.401   4.426
 8083SOL    HW125148   5.337   2.369   4.501
 8083SOL    HW225149   5.239   2.322   4.380
 8084SOL     OW25150   2.114   0.172   6.165
 8084SOL    HW125151   2.060   0.089   6.148
 8084SOL    HW225152   2.190   0.150   6.226
 8085SOL     OW25153   0.509   5.057   3.827
 8085SOL    HW125154   0.551   5.090   3.911
 8085SOL    HW225155   0.553   5.101   3.748
 8086SOL     OW25156   0.681   1.011   1.899
 8086SOL    HW125157   0.637   1.034   1.985
 8086SOL    HW225158   0.613   1.011   1.825
 8087SOL     OW25159   1.079   0.601   6.893
 8087SOL    HW125160   1.126   0.589   6.980
 8087SOL    HW225161   1.071   0.513   6.846
 8088SOL     OW25162   5.389   6.747   6.321
 8088SOL    HW125163   5.408   6.845   6.322
 8088SOL    HW225164   5.404   6.711   6.229
 8089SOL     OW25165   5.905   2.667   6.430
 8089SOL    HW125166   5.837   2.615   6.378
 8089SOL    HW225167   5.931   2.749   6.379
 8090SOL     OW25168   3.950   1.728   0.041
 8090SOL    HW125169   3.914   1.765   0.127
 8090SOL    HW225170   4.000   1.643   0.060
 8091SOL     OW25171   1.750   4.467   4.404
 8091SOL    HW125172   1.742   4.371   4.380
 8091SOL    HW225173   1.731   4.524   4.324
 8092SOL     OW25174   4.752   1.781   5.348
 8092SOL    HW125175   4.823   1.785   5.418
 8092SOL    HW225176   4.687   1.708   5.371
 8093SOL     OW25177   3.022   6.138   2.920
 8093SOL    HW125178   3.041   6.042   2.939
 8093SOL    HW225179   2.928   6.148   2.887
 8094SOL     OW25180   1.208   3.464   4.540
 8094SOL    HW125181   1.273   3.389   4.526
 8094SOL    HW225182   1.161   3.452   4.628
 8095SOL     OW25183   1.274   4.075   5.135
 8095SOL    HW125184   1.361   4.121   5.147
 8095SOL    HW225185   1.201   4.129   5.176
 8096SOL     OW25186   1.777   6.878   1.885
 8096SOL    HW125187   1.721   6.960   1.894
 8096SOL    HW225188   1.850   6.881   1.954
 8097SOL     OW25189   3.288   0.161   5.233
 8097SOL    HW125190   3.322   0.130   5.144
 8097SOL    HW225191   3.192   0.133   5.243
 8098SOL     OW25192   0.461   6.044   3.645
 8098SOL    HW125193   0.473   5.945   3.637
 8098SOL    HW225194   0.392   6.074   3.580
 8099SOL     OW25195   3.971   5.370   3.510
 8099SOL    HW125196   3.905   5.444   3.498
 8099SOL    HW225197   4.011   5.377   3.602
 8100SOL     OW25198   5.998   1.013   6.260
 8100SOL    HW125199   6.091   0.986   6.285
 8100SOL    HW225200   6.001   1.094   6.203
 8101SOL     OW25201   2.374   6.029   0.684
 8101SOL    HW125202   2.461   6.070   0.711
 8101SOL    HW225203   2.300   6.093   0.703
 8102SOL     OW25204   1.001   3.160   4.737
 8102SOL    HW125205   1.053   3.118   4.811
 8102SOL    HW225206   0.905   3.133   4.744
 8103SOL     OW25207   3.791   1.082   2.299
 8103SOL    HW125208   3.724   1.143   2.340
 8103SOL    HW225209   3.883   1.119   2.311
 8104SOL     OW25210   1.890   6.505   5.758
 8104SOL    HW125211   1.941   6.438   5.703
 8104SOL    HW225212   1.806   6.463   5.792
 8105SOL     OW25213   6.606   1.850   3.035
 8105SOL    HW125214   6.520   1.894   3.010
 8105SOL    HW225215   6.647   1.807   2.954
 8106SOL     OW25216   2.820   6.253   4.226
 8106SOL    HW125217   2.898   6.315   4.213
 8106SOL    HW225218   2.852   6.158   4.220
 8107SOL     OW25219   1.908   5.796   4.202
 8107SOL    HW125220   1.818   5.774   4.163
 8107SOL    HW225221   1.917   5.895   4.211
 8108SOL     OW25222   6.945   1.262   6.653
 8108SOL    HW125223   6.850   1.270   6.684
 8108SOL    HW225224   7.003   1.234   6.729
 8109SOL     OW25225   6.775   3.578   6.667
 8109SOL    HW125226   6.874   3.582   6.683
 8109SOL    HW225227   6.733   3.517   6.733
 8110SOL     OW25228   4.441   4.539   1.064
 8110SOL    HW125229   4.414   4.635   1.053
 8110SOL    HW225230   4.456   4.499   0.973
 8111SOL     OW25231   5.840   1.082   3.482
 8111SOL    HW125232   5.786   1.034   3.414
 8111SOL    HW225233   5.895   1.153   3.438
 8112SOL     OW25234   0.512   2.872   4.898
 8112SOL    HW125235   0.512   2.909   4.991
 8112SOL    HW225236   0.578   2.797   4.892
 8113SOL     OW25237   6.363   2.787   1.123
 8113SOL    HW125238   6.376   2.707   1.181
 8113SOL    HW225239   6.358   2.869   1.180
 8114SOL     OW25240   1.581   4.708   2.169
 8114SOL    HW125241   1.618   4.616   2.181
 8114SOL    HW225242   1.525   4.732   2.248
 8115SOL     OW25243   3.215   6.630   6.889
 8115SOL    HW125244   3.299   6.590   6.925
 8115SOL    HW225245   3.188   6.707   6.947
 8116SOL     OW25246   3.765   5.502   0.467
 8116SOL    HW125247   3.764   5.501   0.367
 8116SOL    HW225248   3.842   5.448   0.499
 8117SOL     OW25249   2.171   6.947   2.944
 8117SOL    HW125250   2.103   7.003   2.992
 8117SOL    HW225251   2.126   6.893   2.873
 8118SOL     OW25252   6.226   4.112   6.541
 8118SOL    HW125253   6.224   4.091   6.443
 8118SOL    HW225254   6.290   4.050   6.587
 8119SOL     OW25255   5.283   6.214   5.903
 8119SOL    HW125256   5.325   6.144   5.961
 8119SOL    HW225257   5.354   6.262   5.852
 8120SOL     OW25258   2.342   5.618   0.598
 8120SOL    HW125259   2.386   5.556   0.533
 8120SOL    HW225260   2.243   5.617   0.584
 8121SOL     OW25261   1.162   3.830   3.102
 8121SOL    HW125262   1.208   3.743   3.122
 8121SOL    HW225263   1.087   3.843   3.167
 8122SOL     OW25264   0.950   4.740   2.630
 8122SOL    HW125265   0.965   4.642   2.643
 8122SOL    HW225266   1.008   4.791   2.692
 8123SOL     OW25267   0.980   1.829   6.784
 8123SOL    HW125268   1.071   1.870   6.782
 8123SOL    HW225269   0.988   1.731   6.766
 8124SOL     OW25270   5.499   5.818   4.032
 8124SOL    HW125271   5.475   5.909   4.067
 8124SOL    HW225272   5.416   5.763   4.020
 8125SOL     OW25273   0.744   0.755   2.805
 8125SOL    HW125274   0.743   0.704   2.891
 8125SOL    HW225275   0.682   0.834   2.812
 8126SOL     OW25276   4.182   4.820   3.731
 8126SOL    HW125277   4.095   4.852   3.692
 8126SOL    HW225278   4.204   4.874   3.812
 8127SOL     OW25279   2.394   2.471   6.895
 8127SOL    HW125280   2.385   2.379   6.857
 8127SOL    HW225281   2.483   2.480   6.941
 8128SOL     OW25282   3.364   2.547   1.371
 8128SOL    HW125283   3.374   2.447   1.369
 8128SOL    HW225284   3.283   2.572   1.424
 8129SOL     OW25285   1.323   2.058   0.194
 8129SOL    HW125286   1.277   2.016   0.273
 8129SOL    HW225287   1.417   2.023   0.188
 8130SOL     OW25288   1.481   5.558   0.268
 8130SOL    HW125289   1.396   5.544   0.218
 8130SOL    HW225290   1.522   5.646   0.242
 8131SOL     OW25291   2.782   2.629   0.954
 8131SOL    HW125292   2.849   2.608   0.882
 8131SOL    HW225293   2.823   2.693   1.019
 8132SOL     OW25294   6.483   7.002   3.997
 8132SOL    HW125295   6.489   7.019   3.899
 8132SOL    HW225296   6.568   6.961   4.029
 8133SOL     OW25297   4.065   5.241   2.045
 8133SOL    HW125298   4.052   5.158   2.099
 8133SOL    HW225299   4.155   5.238   2.000
 8134SOL     OW25300   6.066   1.106   5.807
 8134SOL    HW125301   6.123   1.151   5.875
 8134SOL    HW225302   6.072   1.007   5.819
 8135SOL     OW25303   2.233   0.341   1.942
 8135SOL    HW125304   2.242   0.328   1.843
 8135SOL    HW225305   2.220   0.438   1.962
 8136SOL     OW25306   5.513   5.775   2.707
 8136SOL    HW125307   5.567   5.820   2.635
 8136SOL    HW225308   5.517   5.676   2.696
 8137SOL     OW25309   3.326   1.392   5.347
 8137SOL    HW125310   3.295   1.302   5.316
 8137SOL    HW225311   3.248   1.443   5.383
 8138SOL     OW25312   5.328   1.391   1.609
 8138SOL    HW125313   5.415   1.341   1.606
 8138SOL    HW225314   5.275   1.372   1.526
 8139SOL     OW25315   0.552   1.462   2.376
 8139SOL    HW125316   0.469   1.469   2.432
 8139SOL    HW225317   0.584   1.367   2.375
 8140SOL     OW25318   4.638   1.291   4.618
 8140SOL    HW125319   4.657   1.382   4.583
 8140SOL    HW225320   4.544   1.287   4.653
 8141SOL     OW25321   3.950   5.189   5.590
 8141SOL    HW125322   4.012   5.266   5.603
 8141SOL    HW225323   3.893   5.205   5.510
 8142SOL     OW25324   6.485   4.607   0.659
 8142SOL    HW125325   6.414   4.674   0.683
 8142SOL    HW225326   6.562   4.655   0.616
 8143SOL     OW25327   6.038   4.352   6.161
 8143SOL    HW125328   5.944   4.378   6.181
 8143SOL    HW225329   6.045   4.252   6.155
 8144SOL     OW25330   5.400   6.813   6.754
 8144SOL    HW125331   5.369   6.904   6.779
 8144SOL    HW225332   5.371   6.748   6.825
 8145SOL     OW25333   5.852   5.723   2.721
 8145SOL    HW125334   5.803   5.697   2.638
 8145SOL    HW225335   5.788   5.756   2.789
 8146SOL     OW25336   3.340   0.870   5.686
 8146SOL    HW125337   3.361   0.967   5.673
 8146SOL    HW225338   3.381   0.816   5.613
 8147SOL     OW25339   4.726   1.699   3.491
 8147SOL    HW125340   4.759   1.613   3.451
 8147SOL    HW225341   4.626   1.702   3.488
 8148SOL     OW25342   5.606   3.119   2.588
 8148SOL    HW125343   5.686   3.088   2.639
 8148SOL    HW225344   5.528   3.129   2.650
 8149SOL     OW25345   3.582   5.735   2.358
 8149SOL    HW125346   3.592   5.658   2.294
 8149SOL    HW225347   3.492   5.730   2.402
 8150SOL     OW25348   0.393   4.859   0.599
 8150SOL    HW125349   0.338   4.777   0.613
 8150SOL    HW225350   0.333   4.939   0.590
 8151SOL     OW25351   0.851   2.331   3.664
 8151SOL    HW125352   0.762   2.307   3.704
 8151SOL    HW225353   0.883   2.417   3.702
 8152SOL     OW25354   1.962   1.137   2.936
 8152SOL    HW125355   1.951   1.192   3.019
 8152SOL    HW225356   2.003   1.193   2.864
 8153SOL     OW25357   2.978   0.326   2.061
 8153SOL    HW125358   2.901   0.307   2.122
 8153SOL    HW225359   2.956   0.295   1.969
 8154SOL     OW25360   2.607   6.235   4.043
 8154SOL    HW125361   2.682   6.270   4.099
 8154SOL    HW225362   2.522   6.240   4.095
 8155SOL     OW25363   3.141   2.939   1.967
 8155SOL    HW125364   3.198   2.958   1.888
 8155SOL    HW225365   3.196   2.897   2.039
 8156SOL     OW25366   5.544   0.742   5.324
 8156SOL    HW125367   5.526   0.741   5.226
 8156SOL    HW225368   5.620   0.679   5.345
 8157SOL     OW25369   5.944   4.351   6.441
 8157SOL    HW125370   5.949   4.326   6.538
 8157SOL    HW225371   6.034   4.377   6.408
 8158SOL     OW25372   1.386   5.820   1.290
 8158SOL    HW125373   1.428   5.735   1.322
 8158SOL    HW225374   1.438   5.898   1.325
 8159SOL     OW25375   2.272   5.457   2.219
 8159SOL    HW125376   2.276   5.380   2.155
 8159SOL    HW225377   2.181   5.499   2.214
 8160SOL     OW25378   4.922   2.315   0.838
 8160SOL    HW125379   4.872   2.364   0.767
 8160SOL    HW225380   4.930   2.372   0.920
 8161SOL     OW25381   4.753   1.039   0.722
 8161SOL    HW125382   4.668   1.028   0.671
 8161SOL    HW225383   4.817   1.094   0.668
 8162SOL     OW25384   6.040   0.251   0.777
 8162SOL    HW125385   6.121   0.202   0.745
 8162SOL    HW225386   6.067   0.340   0.813
 8163SOL     OW25387   2.468   4.295   5.232
 8163SOL    HW125388   2.492   4.199   5.246
 8163SOL    HW225389   2.382   4.301   5.180
 8164SOL     OW25390   5.236   2.591   1.330
 8164SOL    HW125391   5.281   2.594   1.419
 8164SOL    HW225392   5.221   2.496   1.303
 8165SOL     OW25393   1.710   4.439   1.189
 8165SOL    HW125394   1.734   4.536   1.177
 8165SOL    HW225395   1.668   4.405   1.105
 8166SOL     OW25396   2.367   0.240   2.161
 8166SOL    HW125397   2.320   0.261   2.076
 8166SOL    HW225398   2.416   0.154   2.152
 8167SOL     OW25399   5.828   2.563   3.592
 8167SOL    HW125400   5.823   2.473   3.635
 8167SOL    HW225401   5.750   2.575   3.532
 8168SOL     OW25402   3.719   1.429   3.169
 8168SOL    HW125403   3.692   1.414   3.074
 8168SOL    HW225404   3.818   1.439   3.174
 8169SOL     OW25405   4.476   3.952   0.153
 8169SOL    HW125406   4.543   4.020   0.125
 8169SOL    HW225407   4.488   3.931   0.250
 8170SOL     OW25408   0.934   6.041   3.958
 8170SOL    HW125409   1.009   6.061   3.895
 8170SOL    HW225410   0.969   6.034   4.051
 8171SOL     OW25411   0.495   1.401   6.483
 8171SOL    HW125412   0.555   1.457   6.426
 8171SOL    HW225413   0.412   1.380   6.432
 8172SOL     OW25414   0.200   0.234   0.606
 8172SOL    HW125415   0.168   0.260   0.697
 8172SOL    HW225416   0.123   0.234   0.543
 8173SOL     OW25417   3.601   2.654   0.023
 8173SOL    HW125418   3.621   2.557   0.037
 8173SOL    HW225419   3.593   2.672   6.949
 8174SOL     OW25420   5.534   1.522   1.012
 8174SOL    HW125421   5.617   1.479   1.049
 8174SOL    HW225422   5.508   1.599   1.071
 8175SOL     OW25423   0.338   2.484   6.338
 8175SOL    HW125424   0.410   2.479   6.268
 8175SOL    HW225425   0.251   2.509   6.295
 8176SOL     OW25426   2.784   5.677   1.941
 8176SOL    HW125427   2.733   5.614   1.998
 8176SOL    HW225428   2.859   5.718   1.994
 8177SOL     OW25429   0.971   6.724   4.307
 8177SOL    HW125430   1.006   6.809   4.348
 8177SOL    HW225431   1.042   6.682   4.251
 8178SOL     OW25432   1.409   6.762   6.655
 8178SOL    HW125433   1.500   6.731   6.627
 8178SOL    HW225434   1.340   6.698   6.622
 8179SOL     OW25435   3.132   2.951   0.272
 8179SOL    HW125436   3.103   2.856   0.264
 8179SOL    HW225437   3.178   2.965   0.359
 8180SOL     OW25438   0.349   6.933   4.387
 8180SOL    HW125439   0.301   6.980   4.461
 8180SOL    HW225440   0.446   6.923   4.411
 8181SOL     OW25441   2.710   1.934   3.043
 8181SOL    HW125442   2.639   1.986   3.091
 8181SOL    HW225443   2.708   1.956   2.946
 8182SOL     OW25444   3.368   2.094   5.731
 8182SOL    HW125445   3.407   2.070   5.642
 8182SOL    HW225446   3.427   2.059   5.804
 8183SOL     OW25447   0.961   3.461   5.045
 8183SOL    HW125448   1.012   3.495   5.124
 8183SOL    HW225449   0.896   3.530   5.015
 8184SOL     OW25450   0.125   0.491   5.194
 8184SOL    HW125451   0.206   0.498   5.252
 8184SOL    HW225452   0.128   0.561   5.123
 8185SOL     OW25453   3.229   1.395   2.560
 8185SOL    HW125454   3.134   1.394   2.530
 8185SOL    HW225455   3.261   1.301   2.573
 8186SOL     OW25456   3.183   5.916   5.804
 8186SOL    HW125457   3.194   5.967   5.889
 8186SOL    HW225458   3.253   5.946   5.739
 8187SOL     OW25459   1.370   2.279   5.550
 8187SOL    HW125460   1.330   2.223   5.477
 8187SOL    HW225461   1.461   2.245   5.572
 8188SOL     OW25462   5.759   2.152   2.670
 8188SOL    HW125463   5.679   2.094   2.686
 8188SOL    HW225464   5.763   2.224   2.739
 8189SOL     OW25465   5.881   4.653   2.732
 8189SOL    HW125466   5.865   4.627   2.827
 8189SOL    HW225467   5.976   4.635   2.708
 8190SOL     OW25468   5.204   3.195   3.407
 8190SOL    HW125469   5.272   3.237   3.466
 8190SOL    HW225470   5.187   3.101   3.436
 8191SOL     OW25471   0.839   5.076   3.832
 8191SOL    HW125472   0.938   5.088   3.838
 8191SOL    HW225473   0.818   5.001   3.769
 8192SOL     OW25474   2.494   5.628   2.253
 8192SOL    HW125475   2.409   5.576   2.239
 8192SOL    HW225476   2.572   5.567   2.244
 8193SOL     OW25477   4.617   6.680   5.349
 8193SOL    HW125478   4.618   6.663   5.448
 8193SOL    HW225479   4.680   6.616   5.304
 8194SOL     OW25480   6.729   0.816   6.887
 8194SOL    HW125481   6.752   0.821   6.790
 8194SOL    HW225482   6.741   0.906   6.929
 8195SOL     OW25483   6.705   0.053   6.991
 8195SOL    HW125484   6.634   0.123   6.995
 8195SOL    HW225485   6.777   0.075   0.033
 8196SOL     OW25486   3.485   6.422   6.592
 8196SOL    HW125487   3.514   6.421   6.688
 8196SOL    HW225488   3.476   6.328   6.559
 8197SOL     OW25489   6.923   0.630   6.294
 8197SOL    HW125490   6.898   0.704   6.231
 8197SOL    HW225491   6.932   0.544   6.243
 8198SOL     OW25492   2.465   6.773   3.224
 8198SOL    HW125493   2.430   6.822   3.304
 8198SOL    HW225494   2.560   6.801   3.207
 8199SOL     OW25495   0.236   3.380   0.040
 8199SOL    HW125496   0.159   3.435   0.073
 8199SOL    HW225497   0.260   3.312   0.109
 8200SOL     OW25498   5.139   4.193   1.383
 8200SOL    HW125499   5.219   4.230   1.430
 8200SOL    HW225500   5.168   4.145   1.300
 8201SOL     OW25501   5.734   6.986   3.698
 8201SOL    HW125502   5.749   0.042   3.756
 8201SOL    HW225503   5.667   7.007   3.627
 8202SOL     OW25504   1.480   4.539   3.079
 8202SOL    HW125505   1.469   4.455   3.027
 8202SOL    HW225506   1.549   4.597   3.037
 8203SOL     OW25507   5.335   4.153   1.852
 8203SOL    HW125508   5.390   4.074   1.880
 8203SOL    HW225509   5.374   4.237   1.889
 8204SOL     OW25510   3.204   6.904   2.538
 8204SOL    HW125511   3.299   6.904   2.568
 8204SOL    HW225512   3.161   6.817   2.562
 8205SOL     OW25513   5.755   5.292   1.771
 8205SOL    HW125514   5.837   5.262   1.721
 8205SOL    HW225515   5.727   5.220   1.835
 8206SOL     OW25516   3.997   1.959   5.271
 8206SOL    HW125517   3.986   1.997   5.363
 8206SOL    HW225518   3.908   1.942   5.230
 8207SOL     OW25519   3.501   4.877   6.482
 8207SOL    HW125520   3.492   4.976   6.470
 8207SOL    HW225521   3.556   4.858   6.563
 8208SOL     OW25522   1.679   4.744   1.393
 8208SOL    HW125523   1.613   4.746   1.468
 8208SOL    HW225524   1.747   4.817   1.406
 8209SOL     OW25525   1.356   0.639   5.020
 8209SOL    HW125526   1.431   0.704   5.029
 8209SOL    HW225527   1.278   0.670   5.074
 8210SOL     OW25528   2.304   1.596   0.263
 8210SOL    HW125529   2.351   1.508   0.268
 8210SOL    HW225530   2.327   1.642   0.177
 8211SOL     OW25531   3.154   3.090   4.250
 8211SOL    HW125532   3.155   3.044   4.338
 8211SOL    HW225533   3.172   3.025   4.177
 8212SOL     OW25534   2.592   0.326   1.401
 8212SOL    HW125535   2.535   0.303   1.322
 8212SOL    HW225536   2.589   0.251   1.468
 8213SOL     OW25537   4.128   4.288   1.472
 8213SOL    HW125538   4.127   4.361   1.541
 8213SOL    HW225539   4.167   4.205   1.512
 8214SOL     OW25540   3.421   5.857   4.156
 8214SOL    HW125541   3.508   5.870   4.204
 8214SOL    HW225542   3.386   5.946   4.127
 8215SOL     OW25543   4.287   6.604   6.761
 8215SOL    HW125544   4.317   6.663   6.836
 8215SOL    HW225545   4.311   6.647   6.673
 8216SOL     OW25546   4.752   5.780   1.565
 8216SOL    HW125547   4.829   5.807   1.623
 8216SOL    HW225548   4.737   5.850   1.496
 8217SOL     OW25549   2.755   5.224   3.094
 8217SOL    HW125550   2.665   5.267   3.104
 8217SOL    HW225551   2.744   5.125   3.090
 8218SOL     OW25552   1.705   0.620   5.235
 8218SOL    HW125553   1.638   0.653   5.168
 8218SOL    HW225554   1.751   0.539   5.200
 8219SOL     OW25555   3.835   3.988   0.672
 8219SOL    HW125556   3.755   4.044   0.696
 8219SOL    HW225557   3.835   3.971   0.574
 8220SOL     OW25558   3.633   3.632   4.239
 8220SOL    HW125559   3.725   3.669   4.250
 8220SOL    HW225560   3.587   3.630   4.327
 8221SOL     OW25561   6.119   3.235   3.451
 8221SOL    HW125562   6.150   3.244   3.546
 8221SOL    HW225563   6.133   3.141   3.420
 8222SOL     OW25564   6.325   2.588   1.334
 8222SOL    HW125565   6.325   2.648   1.414
 8222SOL    HW225566   6.231   2.568   1.308
 8223SOL     OW25567   0.058   6.080   4.881
 8223SOL    HW125568   0.112   6.014   4.829
 8223SOL    HW225569   0.112   6.164   4.893
 8224SOL     OW25570   5.727   1.929   0.394
 8224SOL    HW125571   5.780   1.937   0.479
 8224SOL    HW225572   5.632   1.952   0.413
 8225SOL     OW25573   5.055   1.820   0.138
 8225SOL    HW125574   5.057   1.914   0.174
 8225SOL    HW225575   5.109   1.760   0.198
 8226SOL     OW25576   3.755   0.166   0.569
 8226SOL    HW125577   3.685   0.236   0.576
 8226SOL    HW225578   3.716   0.083   0.528
 8227SOL     OW25579   4.978   2.166   2.527
 8227SOL    HW125580   4.915   2.140   2.453
 8227SOL    HW225581   4.941   2.135   2.614
 8228SOL     OW25582   1.754   0.910   5.353
 8228SOL    HW125583   1.752   0.849   5.432
 8228SOL    HW225584   1.796   0.863   5.276
 8229SOL     OW25585   4.120   4.573   1.102
 8229SOL    HW125586   4.182   4.650   1.117
 8229SOL    HW225587   4.173   4.488   1.094
 8230SOL     OW25588   4.553   0.815   5.863
 8230SOL    HW125589   4.467   0.789   5.819
 8230SOL    HW225590   4.624   0.822   5.794
 8231SOL     OW25591   2.767   1.428   3.100
 8231SOL    HW125592   2.748   1.516   3.058
 8231SOL    HW225593   2.807   1.443   3.191
 8232SOL     OW25594   4.250   6.584   2.577
 8232SOL    HW125595   4.193   6.657   2.613
 8232SOL    HW225596   4.203   6.537   2.503
 8233SOL     OW25597   0.752   0.599   5.804
 8233SOL    HW125598   0.839   0.553   5.787
 8233SOL    HW225599   0.751   0.687   5.757
 8234SOL     OW25600   2.056   2.424   0.424
 8234SOL    HW125601   1.963   2.421   0.389
 8234SOL    HW225602   2.092   2.331   0.429
 8235SOL     OW25603   6.967   5.561   0.623
 8235SOL    HW125604   7.001   5.468   0.635
 8235SOL    HW225605   6.867   5.560   0.619
 8236SOL     OW25606   0.830   6.518   6.966
 8236SOL    HW125607   0.825   6.617   6.980
 8236SOL    HW225608   0.920   6.484   6.993
 8237SOL     OW25609   4.428   5.359   6.562
 8237SOL    HW125610   4.508   5.407   6.598
 8237SOL    HW225611   4.430   5.361   6.462
 8238SOL     OW25612   1.522   4.514   0.574
 8238SOL    HW125613   1.502   4.423   0.611
 8238SOL    HW225614   1.618   4.536   0.589
 8239SOL     OW25615   0.700   1.343   5.137
 8239SOL    HW125616   0.752   1.422   5.170
 8239SOL    HW225617   0.642   1.370   5.060
 8240SOL     OW25618   3.367   3.777   4.538
 8240SOL    HW125619   3.463   3.751   4.540
 8240SOL    HW225620   3.327   3.751   4.450
 8241SOL     OW25621   1.777   4.167   6.149
 8241SOL    HW125622   1.767   4.240   6.081
 8241SOL    HW225623   1.828   4.091   6.108
 8242SOL     OW25624   0.403   2.901   4.070
 8242SOL    HW125625   0.316   2.919   4.024
 8242SOL    HW225626   0.407   2.951   4.156
 8243SOL     OW25627   0.704   4.550   4.672
 8243SOL    HW125628   0.722   4.639   4.712
 8243SOL    HW225629   0.790   4.509   4.642
 8244SOL     OW25630   1.410   0.305   3.929
 8244SOL    HW125631   1.451   0.361   4.001
 8244SOL    HW225632   1.393   0.213   3.965
 8245SOL     OW25633   5.480   1.441   4.073
 8245SOL    HW125634   5.500   1.389   3.990
 8245SOL    HW225635   5.490   1.381   4.152
 8246SOL     OW25636   1.493   4.734   6.387
 8246SOL    HW125637   1.532   4.650   6.424
 8246SOL    HW225638   1.539   4.758   6.302
 8247SOL     OW25639   3.454   5.424   3.020
 8247SOL    HW125640   3.452   5.365   3.100
 8247SOL    HW225641   3.544   5.419   2.977
 8248SOL     OW25642   0.944   5.360   3.388
 8248SOL    HW125643   0.977   5.364   3.483
 8248SOL    HW225644   1.020   5.380   3.326
 8249SOL     OW25645   2.811   2.066   6.272
 8249SOL    HW125646   2.875   1.990   6.287
 8249SOL    HW225647   2.819   2.098   6.178
 8250SOL     OW25648   1.894   1.404   6.302
 8250SOL    HW125649   1.933   1.312   6.295
 8250SOL    HW225650   1.829   1.418   6.228
 8251SOL     OW25651   0.176   2.135   4.699
 8251SOL    HW125652   0.122   2.180   4.770
 8251SOL    HW225653   0.122   2.062   4.657
 8252SOL     OW25654   1.502   2.238   6.766
 8252SOL    HW125655   1.578   2.276   6.715
 8252SOL    HW225656   1.457   2.167   6.712
 8253SOL     OW25657   4.322   6.190   0.659
 8253SOL    HW125658   4.377   6.107   0.649
 8253SOL    HW225659   4.271   6.186   0.745
 8254SOL     OW25660   5.317   5.306   6.824
 8254SOL    HW125661   5.271   5.394   6.815
 8254SOL    HW225662   5.249   5.232   6.823
 8255SOL     OW25663   0.666   6.171   6.411
 8255SOL    HW125664   0.746   6.146   6.356
 8255SOL    HW225665   0.684   6.151   6.507
 8256SOL     OW25666   1.887   5.850   3.125
 8256SOL    HW125667   1.953   5.919   3.155
 8256SOL    HW225668   1.821   5.891   3.063
 8257SOL     OW25669   4.854   3.739   3.239
 8257SOL    HW125670   4.945   3.776   3.217
 8257SOL    HW225671   4.856   3.640   3.231
 8258SOL     OW25672   6.532   3.076   2.036
 8258SOL    HW125673   6.590   3.102   2.113
 8258SOL    HW225674   6.559   3.128   1.955
 8259SOL     OW25675   4.220   1.784   4.212
 8259SOL    HW125676   4.266   1.705   4.172
 8259SOL    HW225677   4.218   1.775   4.311
 8260SOL     OW25678   4.190   1.423   1.403
 8260SOL    HW125679   4.276   1.472   1.396
 8260SOL    HW225680   4.178   1.390   1.497
 8261SOL     OW25681   5.392   0.167   3.060
 8261SOL    HW125682   5.341   0.160   3.146
 8261SOL    HW225683   5.339   0.221   2.994
 8262SOL     OW25684   6.683   4.143   2.090
 8262SOL    HW125685   6.678   4.155   2.189
 8262SOL    HW225686   6.732   4.058   2.069
 8263SOL     OW25687   0.505   2.122   6.430
 8263SOL    HW125688   0.495   2.184   6.508
 8263SOL    HW225689   0.465   2.033   6.452
 8264SOL     OW25690   2.567   6.811   2.687
 8264SOL    HW125691   2.562   6.794   2.589
 8264SOL    HW225692   2.604   6.903   2.703
 8265SOL     OW25693   5.776   0.450   0.330
 8265SOL    HW125694   5.781   0.379   0.259
 8265SOL    HW225695   5.856   0.443   0.389
 8266SOL     OW25696   2.641   0.627   3.300
 8266SOL    HW125697   2.728   0.607   3.346
 8266SOL    HW225698   2.645   0.719   3.260
 8267SOL     OW25699   1.379   4.140   3.356
 8267SOL    HW125700   1.368   4.238   3.341
 8267SOL    HW225701   1.423   4.099   3.276
 8268SOL     OW25702   3.236   4.765   6.546
 8268SOL    HW125703   3.321   4.804   6.580
 8268SOL    HW225704   3.232   4.668   6.571
 8269SOL     OW25705   5.261   2.173   3.444
 8269SOL    HW125706   5.318   2.246   3.482
 8269SOL    HW225707   5.307   2.134   3.363
 8270SOL     OW25708   3.430   0.659   5.862
 8270SOL    HW125709   3.425   0.726   5.788
 8270SOL    HW225710   3.371   0.581   5.842
 8271SOL     OW25711   3.768   6.677   5.710
 8271SOL    HW125712   3.847   6.738   5.707
 8271SOL    HW225713   3.736   6.669   5.804
 8272SOL     OW25714   1.053   0.149   1.421
 8272SOL    HW125715   1.049   0.197   1.333
 8272SOL    HW225716   1.043   0.216   1.495
 8273SOL     OW25717   2.825   0.124   6.974
 8273SOL    HW125718   2.792   0.056   6.908
 8273SOL    HW225719   2.908   0.090   7.018
 8274SOL     OW25720   5.600   6.507   6.300
 8274SOL    HW125721   5.660   6.582   6.270
 8274SOL    HW225722   5.523   6.499   6.238
 8275SOL     OW25723   5.321   0.296   4.301
 8275SOL    HW125724   5.268   0.375   4.271
 8275SOL    HW225725   5.416   0.323   4.316
 8276SOL     OW25726   0.127   2.562   6.198
 8276SOL    HW125727   0.101   2.468   6.176
 8276SOL    HW225728   0.092   2.624   6.128
 8277SOL     OW25729   1.292   5.860   6.337
 8277SOL    HW125730   1.295   5.933   6.405
 8277SOL    HW225731   1.357   5.880   6.264
 8278SOL     OW25732   3.819   1.407   0.747
 8278SOL    HW125733   3.908   1.362   0.749
 8278SOL    HW225734   3.832   1.506   0.754
 8279SOL     OW25735   5.043   5.212   5.784
 8279SOL    HW125736   5.029   5.134   5.845
 8279SOL    HW225737   5.009   5.295   5.827
 8280SOL     OW25738   5.238   2.866   6.785
 8280SOL    HW125739   5.188   2.782   6.768
 8280SOL    HW225740   5.335   2.845   6.800
 8281SOL     OW25741   2.347   5.082   6.774
 8281SOL    HW125742   2.406   5.021   6.827
 8281SOL    HW225743   2.400   5.160   6.742
 8282SOL     OW25744   3.322   2.508   0.667
 8282SOL    HW125745   3.264   2.537   0.743
 8282SOL    HW225746   3.274   2.524   0.581
 8283SOL     OW25747   0.501   5.284   2.782
 8283SOL    HW125748   0.463   5.244   2.699
 8283SOL    HW225749   0.577   5.345   2.758
 8284SOL     OW25750   2.555   2.161   2.442
 8284SOL    HW125751   2.487   2.148   2.515
 8284SOL    HW225752   2.568   2.074   2.394
 8285SOL     OW25753   3.752   4.411   6.060
 8285SOL    HW125754   3.795   4.483   6.005
 8285SOL    HW225755   3.658   4.437   6.081
 8286SOL     OW25756   5.351   1.056   5.620
 8286SOL    HW125757   5.437   1.049   5.670
 8286SOL    HW225758   5.365   1.109   5.536
 8287SOL     OW25759   1.936   0.495   3.262
 8287SOL    HW125760   1.911   0.588   3.288
 8287SOL    HW225761   2.011   0.497   3.196
 8288SOL     OW25762   1.315   1.153   2.802
 8288SOL    HW125763   1.371   1.071   2.804
 8288SOL    HW225764   1.257   1.156   2.884
 8289SOL     OW25765   6.232   1.336   5.705
 8289SOL    HW125766   6.261   1.414   5.650
 8289SOL    HW225767   6.132   1.336   5.712
 8290SOL     OW25768   4.038   2.192   1.815
 8290SOL    HW125769   3.968   2.128   1.783
 8290SOL    HW225770   4.033   2.276   1.761
 8291SOL     OW25771   5.289   5.399   6.076
 8291SOL    HW125772   5.294   5.383   5.977
 8291SOL    HW225773   5.218   5.467   6.095
 8292SOL     OW25774   0.863   3.942   4.251
 8292SOL    HW125775   0.834   3.881   4.324
 8292SOL    HW225776   0.793   4.012   4.236
 8293SOL     OW25777   3.063   5.149   3.889
 8293SOL    HW125778   2.978   5.169   3.841
 8293SOL    HW225779   3.074   5.213   3.965
 8294SOL     OW25780   5.634   3.778   5.901
 8294SOL    HW125781   5.570   3.720   5.851
 8294SOL    HW225782   5.624   3.873   5.870
 8295SOL     OW25783   4.727   4.400   1.870
 8295SOL    HW125784   4.646   4.363   1.916
 8295SOL    HW225785   4.731   4.366   1.776
 8296SOL     OW25786   3.985   6.553   1.608
 8296SOL    HW125787   3.895   6.570   1.566
 8296SOL    HW225788   4.050   6.525   1.537
 8297SOL     OW25789   5.474   4.154   2.733
 8297SOL    HW125790   5.481   4.218   2.810
 8297SOL    HW225791   5.405   4.186   2.669
 8298SOL     OW25792   6.028   0.624   6.078
 8298SOL    HW125793   5.967   0.583   6.146
 8298SOL    HW225794   6.047   0.558   6.006
 8299SOL     OW25795   1.392   3.532   1.450
 8299SOL    HW125796   1.401   3.480   1.365
 8299SOL    HW225797   1.416   3.627   1.434
 8300SOL     OW25798   5.806   5.077   2.911
 8300SOL    HW125799   5.885   5.050   2.857
 8300SOL    HW225800   5.746   4.998   2.923
 8301SOL     OW25801   4.326   6.517   0.576
 8301SOL    HW125802   4.268   6.550   0.501
 8301SOL    HW225803   4.362   6.595   0.627
 8302SOL     OW25804   3.604   6.744   5.306
 8302SOL    HW125805   3.649   6.832   5.325
 8302SOL    HW225806   3.506   6.758   5.295
 8303SOL     OW25807   6.988   6.118   3.037
 8303SOL    HW125808   0.041   6.056   3.049
 8303SOL    HW225809   7.008   6.181   2.962
 8304SOL     OW25810   5.331   3.473   3.576
 8304SOL    HW125811   5.320   3.542   3.504
 8304SOL    HW225812   5.388   3.510   3.649
 8305SOL     OW25813   5.114   5.621   4.418
 8305SOL    HW125814   5.038   5.636   4.355
 8305SOL    HW225815   5.176   5.553   4.379
 8306SOL     OW25816   6.722   0.674   2.353
 8306SOL    HW125817   6.679   0.764   2.363
 8306SOL    HW225818   6.821   0.686   2.343
 8307SOL     OW25819   1.873   4.522   3.015
 8307SOL    HW125820   1.963   4.566   3.008
 8307SOL    HW225821   1.803   4.583   2.978
 8308SOL     OW25822   0.932   5.349   0.367
 8308SOL    HW125823   0.999   5.421   0.348
 8308SOL    HW225824   0.868   5.381   0.437
 8309SOL     OW25825   6.187   4.329   4.391
 8309SOL    HW125826   6.224   4.385   4.465
 8309SOL    HW225827   6.143   4.248   4.428
 8310SOL     OW25828   1.029   6.693   0.246
 8310SOL    HW125829   1.035   6.604   0.290
 8310SOL    HW225830   1.094   6.698   0.171
 8311SOL     OW25831   5.458   0.264   3.343
 8311SOL    HW125832   5.510   0.222   3.417
 8311SOL    HW225833   5.515   0.272   3.262
 8312SOL     OW25834   5.510   1.631   6.848
 8312SOL    HW125835   5.469   1.643   6.757
 8312SOL    HW225836   5.481   1.706   6.907
 8313SOL     OW25837   4.895   1.937   4.984
 8313SOL    HW125838   4.876   2.031   4.959
 8313SOL    HW225839   4.928   1.887   4.903
 8314SOL     OW25840   4.709   6.112   5.162
 8314SOL    HW125841   4.637   6.177   5.135
 8314SOL    HW225842   4.671   6.046   5.228
 8315SOL     OW25843   3.722   4.103   4.926
 8315SOL    HW125844   3.776   4.079   4.845
 8315SOL    HW225845   3.744   4.039   5.000
 8316SOL     OW25846   1.734   2.947   6.446
 8316SOL    HW125847   1.725   2.862   6.393
 8316SOL    HW225848   1.824   2.948   6.491
 8317SOL     OW25849   2.229   1.183   3.229
 8317SOL    HW125850   2.228   1.124   3.149
 8317SOL    HW225851   2.185   1.136   3.306
 8318SOL     OW25852   3.950   6.990   6.644
 8318SOL    HW125853   4.022   0.026   6.609
 8318SOL    HW225854   3.874   6.988   6.579
 8319SOL     OW25855   1.177   6.980   6.471
 8319SOL    HW125856   1.093   6.927   6.484
 8319SOL    HW225857   1.220   6.996   6.559
 8320SOL     OW25858   2.888   3.560   4.633
 8320SOL    HW125859   2.911   3.632   4.567
 8320SOL    HW225860   2.870   3.601   4.722
 8321SOL     OW25861   6.937   6.587   0.676
 8321SOL    HW125862   6.963   6.662   0.615
 8321SOL    HW225863   6.933   6.502   0.623
 8322SOL     OW25864   0.991   0.184   6.700
 8322SOL    HW125865   0.976   0.085   6.698
 8322SOL    HW225866   1.077   0.203   6.746
 8323SOL     OW25867   5.080   4.559   1.126
 8323SOL    HW125868   5.021   4.478   1.134
 8323SOL    HW225869   5.176   4.530   1.128
 8324SOL     OW25870   5.114   6.217   6.190
 8324SOL    HW125871   5.101   6.313   6.163
 8324SOL    HW225872   5.031   6.165   6.169
 8325SOL     OW25873   1.387   6.086   5.795
 8325SOL    HW125874   1.373   5.999   5.747
 8325SOL    HW225875   1.484   6.110   5.792
 8326SOL     OW25876   1.747   4.012   1.983
 8326SOL    HW125877   1.763   4.001   2.081
 8326SOL    HW225878   1.698   4.098   1.966
 8327SOL     OW25879   1.094   6.941   4.443
 8327SOL    HW125880   1.151   6.937   4.525
 8327SOL    HW225881   1.004   6.977   4.468
 8328SOL     OW25882   1.725   0.139   6.861
 8328SOL    HW125883   1.722   0.201   6.782
 8328SOL    HW225884   1.771   0.184   6.937
 8329SOL     OW25885   1.288   2.829   5.132
 8329SOL    HW125886   1.276   2.927   5.145
 8329SOL    HW225887   1.238   2.779   5.203
 8330SOL     OW25888   3.069   1.568   6.407
 8330SOL    HW125889   3.045   1.494   6.343
 8330SOL    HW225890   3.096   1.528   6.494
 8331SOL     OW25891   1.706   2.571   6.834
 8331SOL    HW125892   1.612   2.544   6.810
 8331SOL    HW225893   1.731   2.530   6.922
 8332SOL     OW25894   6.009   5.457   1.841
 8332SOL    HW125895   5.918   5.423   1.817
 8332SOL    HW225896   6.079   5.393   1.808
 8333SOL     OW25897   2.680   5.053   1.309
 8333SOL    HW125898   2.658   5.091   1.399
 8333SOL    HW225899   2.770   5.009   1.313
 8334SOL     OW25900   4.136   2.103   6.194
 8334SOL    HW125901   4.042   2.092   6.226
 8334SOL    HW225902   4.185   2.165   6.256
 8335SOL     OW25903   4.929   4.009   6.084
 8335SOL    HW125904   4.973   3.919   6.088
 8335SOL    HW225905   4.830   3.997   6.069
 8336SOL     OW25906   1.044   3.626   3.543
 8336SOL    HW125907   1.141   3.650   3.536
 8336SOL    HW225908   1.018   3.622   3.640
 8337SOL     OW25909   1.083   1.309   4.576
 8337SOL    HW125910   1.064   1.395   4.528
 8337SOL    HW225911   1.160   1.323   4.638
 8338SOL     OW25912   4.584   5.609   2.755
 8338SOL    HW125913   4.642   5.528   2.760
 8338SOL    HW225914   4.637   5.689   2.782
 8339SOL     OW25915   6.234   0.129   0.675
 8339SOL    HW125916   6.319   0.172   0.646
 8339SOL    HW225917   6.247   0.030   0.682
 8340SOL     OW25918   6.048   2.569   0.204
 8340SOL    HW125919   6.066   2.651   0.259
 8340SOL    HW225920   6.134   2.522   0.186
 8341SOL     OW25921   3.399   1.449   0.491
 8341SOL    HW125922   3.379   1.352   0.481
 8341SOL    HW225923   3.448   1.464   0.578
 8342SOL     OW25924   4.733   0.218   0.192
 8342SOL    HW125925   4.657   0.265   0.147
 8342SOL    HW225926   4.772   0.151   0.129
 8343SOL     OW25927   6.287   3.832   3.742
 8343SOL    HW125928   6.223   3.853   3.815
 8343SOL    HW225929   6.238   3.788   3.666
 8344SOL     OW25930   1.196   4.884   5.028
 8344SOL    HW125931   1.207   4.817   5.102
 8344SOL    HW225932   1.266   4.955   5.036
 8345SOL     OW25933   4.461   0.724   3.180
 8345SOL    HW125934   4.511   0.639   3.162
 8345SOL    HW225935   4.509   0.800   3.136
 8346SOL     OW25936   5.230   3.030   5.066
 8346SOL    HW125937   5.155   2.971   5.095
 8346SOL    HW225938   5.287   3.053   5.145
 8347SOL     OW25939   2.619   0.019   6.346
 8347SOL    HW125940   2.695   0.006   6.410
 8347SOL    HW225941   2.540   6.990   6.378
 8348SOL     OW25942   3.449   6.780   1.943
 8348SOL    HW125943   3.395   6.858   1.974
 8348SOL    HW225944   3.546   6.807   1.937
 8349SOL     OW25945   0.990   6.411   1.897
 8349SOL    HW125946   0.914   6.426   1.835
 8349SOL    HW225947   0.958   6.417   1.992
 8350SOL     OW25948   2.365   0.103   0.261
 8350SOL    HW125949   2.400   0.022   0.307
 8350SOL    HW225950   2.441   0.161   0.234
 8351SOL     OW25951   6.550   4.045   2.726
 8351SOL    HW125952   6.459   4.068   2.693
 8351SOL    HW225953   6.580   3.959   2.684
 8352SOL     OW25954   2.585   5.714   1.527
 8352SOL    HW125955   2.677   5.696   1.492
 8352SOL    HW225956   2.591   5.751   1.619
 8353SOL     OW25957   1.713   4.491   2.288
 8353SOL    HW125958   1.652   4.412   2.301
 8353SOL    HW225959   1.767   4.478   2.205
 8354SOL     OW25960   3.492   0.580   3.725
 8354SOL    HW125961   3.412   0.545   3.676
 8354SOL    HW225962   3.568   0.517   3.715
 8355SOL     OW25963   2.219   5.748   6.081
 8355SOL    HW125964   2.248   5.660   6.119
 8355SOL    HW225965   2.299   5.807   6.068
 8356SOL     OW25966   1.940   5.473   1.212
 8356SOL    HW125967   1.943   5.501   1.308
 8356SOL    HW225968   1.850   5.438   1.190
 8357SOL     OW25969   4.292   6.054   5.846
 8357SOL    HW125970   4.344   6.139   5.839
 8357SOL    HW225971   4.291   6.008   5.757
 8358SOL     OW25972   0.969   1.839   5.295
 8358SOL    HW125973   0.939   1.850   5.200
 8358SOL    HW225974   1.040   1.907   5.315
 8359SOL     OW25975   3.031   1.892   5.375
 8359SOL    HW125976   3.036   1.849   5.285
 8359SOL    HW225977   3.063   1.987   5.368
 8360SOL     OW25978   5.042   0.682   0.860
 8360SOL    HW125979   5.140   0.661   0.864
 8360SOL    HW225980   4.998   0.648   0.943
 8361SOL     OW25981   3.191   0.200   0.165
 8361SOL    HW125982   3.160   0.278   0.220
 8361SOL    HW225983   3.288   0.182   0.183
 8362SOL     OW25984   6.682   3.959   1.705
 8362SOL    HW125985   6.778   3.986   1.705
 8362SOL    HW225986   6.627   4.032   1.746
 8363SOL     OW25987   2.488   2.921   6.650
 8363SOL    HW125988   2.556   2.992   6.671
 8363SOL    HW225989   2.410   2.931   6.711
 8364SOL     OW25990   6.781   2.962   4.497
 8364SOL    HW125991   6.788   2.937   4.593
 8364SOL    HW225992   6.772   2.880   4.441
 8365SOL     OW25993   1.878   2.569   2.893
 8365SOL    HW125994   1.876   2.565   2.793
 8365SOL    HW225995   1.784   2.570   2.928
 8366SOL     OW25996   5.136   5.806   1.912
 8366SOL    HW125997   5.156   5.738   1.983
 8366SOL    HW225998   5.132   5.897   1.953
 8367SOL     OW25999   4.129   4.849   4.385
 8367SOL    HW126000   4.130   4.865   4.483
 8367SOL    HW226001   4.173   4.761   4.365
 8368SOL     OW26002   7.011   6.770   0.491
 8368SOL    HW126003   6.944   6.806   0.426
 8368SOL    HW226004   0.076   6.762   0.447
 8369SOL     OW26005   2.114   0.887   0.281
 8369SOL    HW126006   2.062   0.890   0.195
 8369SOL    HW226007   2.075   0.818   0.342
 8370SOL     OW26008   2.797   3.006   0.502
 8370SOL    HW126009   2.816   2.940   0.430
 8370SOL    HW226010   2.878   3.063   0.518
 8371SOL     OW26011   1.800   4.619   6.127
 8371SOL    HW126012   1.846   4.657   6.207
 8371SOL    HW226013   1.714   4.668   6.111
 8372SOL     OW26014   2.240   5.761   2.371
 8372SOL    HW126015   2.190   5.803   2.447
 8372SOL    HW226016   2.319   5.712   2.407
 8373SOL     OW26017   6.946   0.780   4.405
 8373SOL    HW126018   6.983   0.694   4.369
 8373SOL    HW226019   7.015   0.851   4.398
 8374SOL     OW26020   1.714   0.274   4.448
 8374SOL    HW126021   1.794   0.333   4.452
 8374SOL    HW226022   1.631   0.328   4.462
 8375SOL     OW26023   4.045   1.243   4.257
 8375SOL    HW126024   3.953   1.217   4.228
 8375SOL    HW226025   4.097   1.276   4.178
 8376SOL     OW26026   2.099   0.888   3.022
 8376SOL    HW126027   2.085   0.857   3.116
 8376SOL    HW226028   2.027   0.953   2.997
 8377SOL     OW26029   4.714   5.815   6.911
 8377SOL    HW126030   4.753   5.906   6.900
 8377SOL    HW226031   4.654   5.814   6.991
 8378SOL     OW26032   6.443   5.638   3.654
 8378SOL    HW126033   6.419   5.541   3.653
 8378SOL    HW226034   6.388   5.685   3.722
 8379SOL     OW26035   5.914   1.272   1.724
 8379SOL    HW126036   5.881   1.355   1.678
 8379SOL    HW226037   5.929   1.291   1.821
 8380SOL     OW26038   6.349   5.503   0.172
 8380SOL    HW126039   6.379   5.487   0.078
 8380SOL    HW226040   6.307   5.593   0.178
 8381SOL     OW26041   6.982   1.555   2.338
 8381SOL    HW126042   6.908   1.621   2.350
 8381SOL    HW226043   0.040   1.588   2.385
 8382SOL     OW26044   2.321   0.537   0.605
 8382SOL    HW126045   2.391   0.595   0.644
 8382SOL    HW226046   2.291   0.470   0.673
 8383SOL     OW26047   2.459   5.880   6.039
 8383SOL    HW126048   2.408   5.966   6.027
 8383SOL    HW226049   2.541   5.897   6.092
 8384SOL     OW26050   0.917   2.671   0.760
 8384SOL    HW126051   0.938   2.681   0.663
 8384SOL    HW226052   0.942   2.579   0.790
 8385SOL     OW26053   4.023   3.918   0.844
 8385SOL    HW126054   4.027   3.832   0.895
 8385SOL    HW226055   3.952   3.911   0.774
 8386SOL     OW26056   2.109   5.538   1.629
 8386SOL    HW126057   2.089   5.457   1.685
 8386SOL    HW226058   2.034   5.553   1.565
 8387SOL     OW26059   1.393   1.277   2.287
 8387SOL    HW126060   1.377   1.295   2.384
 8387SOL    HW226061   1.306   1.285   2.237
 8388SOL     OW26062   3.441   6.822   1.195
 8388SOL    HW126063   3.359   6.859   1.238
 8388SOL    HW226064   3.444   6.723   1.207
 8389SOL     OW26065   0.679   2.329   4.043
 8389SOL    HW126066   0.607   2.373   4.097
 8389SOL    HW226067   0.765   2.330   4.094
 8390SOL     OW26068   2.434   0.922   5.436
 8390SOL    HW126069   2.378   0.851   5.478
 8390SOL    HW226070   2.388   0.957   5.355
 8391SOL     OW26071   4.958   5.635   1.382
 8391SOL    HW126072   5.008   5.549   1.380
 8391SOL    HW226073   4.919   5.649   1.473
 8392SOL     OW26074   5.319   6.409   5.479
 8392SOL    HW126075   5.310   6.373   5.386
 8392SOL    HW226076   5.389   6.357   5.529
 8393SOL     OW26077   0.220   6.013   3.042
 8393SOL    HW126078   0.269   6.075   3.104
 8393SOL    HW226079   0.244   5.919   3.062
 8394SOL     OW26080   0.980   1.781   2.893
 8394SOL    HW126081   0.893   1.738   2.871
 8394SOL    HW226082   0.965   1.876   2.921
 8395SOL     OW26083   0.053   6.078   5.265
 8395SOL    HW126084   0.042   6.175   5.287
 8395SOL    HW226085   0.142   6.063   5.223
 8396SOL     OW26086   4.784   4.147   2.640
 8396SOL    HW126087   4.862   4.194   2.681
 8396SOL    HW226088   4.796   4.142   2.541
 8397SOL     OW26089   1.990   6.164   2.839
 8397SOL    HW126090   2.004   6.209   2.927
 8397SOL    HW226091   1.921   6.093   2.848
 8398SOL     OW26092   4.209   1.284   0.306
 8398SOL    HW126093   4.197   1.238   0.218
 8398SOL    HW226094   4.273   1.360   0.295
 8399SOL     OW26095   5.814   6.230   0.385
 8399SOL    HW126096   5.742   6.167   0.415
 8399SOL    HW226097   5.774   6.321   0.371
 8400SOL     OW26098   0.031   0.138   2.724
 8400SOL    HW126099   0.029   0.183   2.813
 8400SOL    HW226100   0.056   0.042   2.735
 8401SOL     OW26101   3.780   4.005   6.471
 8401SOL    HW126102   3.841   3.937   6.430
 8401SOL    HW226103   3.817   4.034   6.560
 8402SOL     OW26104   4.353   1.946   6.631
 8402SOL    HW126105   4.256   1.947   6.605
 8402SOL    HW226106   4.370   1.868   6.691
 8403SOL     OW26107   1.582   1.329   4.687
 8403SOL    HW126108   1.587   1.420   4.647
 8403SOL    HW226109   1.672   1.305   4.724
 8404SOL     OW26110   4.820   5.491   5.710
 8404SOL    HW126111   4.736   5.489   5.655
 8404SOL    HW226112   4.871   5.575   5.689
 8405SOL     OW26113   0.518   2.180   6.157
 8405SOL    HW126114   0.522   2.202   6.255
 8405SOL    HW226115   0.609   2.156   6.124
 8406SOL     OW26116   5.181   2.134   1.496
 8406SOL    HW126117   5.158   2.127   1.593
 8406SOL    HW226118   5.107   2.095   1.441
 8407SOL     OW26119   4.779   3.980   3.315
 8407SOL    HW126120   4.790   3.881   3.302
 8407SOL    HW226121   4.862   4.018   3.354
 8408SOL     OW26122   4.757   1.903   3.941
 8408SOL    HW126123   4.673   1.955   3.930
 8408SOL    HW226124   4.812   1.942   4.015
 8409SOL     OW26125   1.386   1.603   4.173
 8409SOL    HW126126   1.341   1.522   4.137
 8409SOL    HW226127   1.319   1.678   4.180
 8410SOL     OW26128   4.120   6.909   1.545
 8410SOL    HW126129   4.048   6.868   1.601
 8410SOL    HW226130   4.200   6.927   1.601
 8411SOL     OW26131   2.081   4.424   4.412
 8411SOL    HW126132   2.082   4.344   4.471
 8411SOL    HW226133   2.121   4.502   4.460
 8412SOL     OW26134   5.014   2.475   2.576
 8412SOL    HW126135   4.991   2.571   2.591
 8412SOL    HW226136   4.950   2.436   2.510
 8413SOL     OW26137   3.895   4.749   0.621
 8413SOL    HW126138   3.928   4.707   0.705
 8413SOL    HW226139   3.966   4.744   0.551
 8414SOL     OW26140   4.202   6.416   3.080
 8414SOL    HW126141   4.139   6.350   3.039
 8414SOL    HW226142   4.151   6.487   3.127
 8415SOL     OW26143   6.019   4.019   3.184
 8415SOL    HW126144   6.054   4.014   3.090
 8415SOL    HW226145   6.095   4.018   3.248
 8416SOL     OW26146   5.133   3.849   2.577
 8416SOL    HW126147   5.057   3.789   2.556
 8416SOL    HW226148   5.193   3.805   2.644
 8417SOL     OW26149   1.981   6.040   6.338
 8417SOL    HW126150   2.074   6.061   6.370
 8417SOL    HW226151   1.932   6.125   6.320
 8418SOL     OW26152   6.540   5.577   2.622
 8418SOL    HW126153   6.616   5.532   2.668
 8418SOL    HW226154   6.506   5.518   2.549
 8419SOL     OW26155   4.617   0.635   2.870
 8419SOL    HW126156   4.592   0.672   2.959
 8419SOL    HW226157   4.591   0.539   2.865
 8420SOL     OW26158   3.683   0.562   5.869
 8420SOL    HW126159   3.748   0.637   5.864
 8420SOL    HW226160   3.590   0.599   5.869
 8421SOL     OW26161   1.959   6.516   2.291
 8421SOL    HW126162   1.949   6.603   2.340
 8421SOL    HW226163   2.009   6.451   2.348
 8422SOL     OW26164   4.664   6.806   0.807
 8422SOL    HW126165   4.764   6.805   0.804
 8422SOL    HW226166   4.633   6.901   0.814
 8423SOL     OW26167   3.398   4.666   0.774
 8423SOL    HW126168   3.322   4.605   0.798
 8423SOL    HW226169   3.380   4.708   0.685
 8424SOL     OW26170   3.872   1.759   3.242
 8424SOL    HW126171   3.915   1.830   3.187
 8424SOL    HW226172   3.890   1.669   3.201
 8425SOL     OW26173   5.862   5.166   1.142
 8425SOL    HW126174   5.875   5.119   1.229
 8425SOL    HW226175   5.949   5.174   1.094
 8426SOL     OW26176   3.903   3.309   3.627
 8426SOL    HW126177   3.903   3.316   3.527
 8426SOL    HW226178   3.815   3.341   3.663
 8427SOL     OW26179   2.414   3.815   6.347
 8427SOL    HW126180   2.412   3.786   6.442
 8427SOL    HW226181   2.504   3.854   6.326
 8428SOL     OW26182   0.450   4.099   2.046
 8428SOL    HW126183   0.440   4.036   2.124
 8428SOL    HW226184   0.513   4.059   1.979
 8429SOL     OW26185   1.946   5.998   3.770
 8429SOL    HW126186   1.919   6.083   3.816
 8429SOL    HW226187   1.994   6.020   3.685
 8430SOL     OW26188   4.352   4.760   2.689
 8430SOL    HW126189   4.396   4.683   2.642
 8430SOL    HW226190   4.422   4.820   2.728
 8431SOL     OW26191   3.485   4.966   1.379
 8431SOL    HW126192   3.547   4.919   1.316
 8431SOL    HW226193   3.395   4.975   1.337
 8432SOL     OW26194   3.819   6.176   6.520
 8432SOL    HW126195   3.746   6.196   6.454
 8432SOL    HW226196   3.860   6.088   6.499
 8433SOL     OW26197   1.442   2.647   6.002
 8433SOL    HW126198   1.410   2.741   6.012
 8433SOL    HW226199   1.528   2.647   5.951
 8434SOL     OW26200   4.604   5.929   5.351
 8434SOL    HW126201   4.559   5.962   5.434
 8434SOL    HW226202   4.656   5.846   5.371
 8435SOL     OW26203   4.591   2.297   1.763
 8435SOL    HW126204   4.641   2.279   1.848
 8435SOL    HW226205   4.505   2.247   1.764
 8436SOL     OW26206   4.259   4.619   1.852
 8436SOL    HW126207   4.229   4.580   1.765
 8436SOL    HW226208   4.318   4.553   1.899
 8437SOL     OW26209   0.922   1.650   0.629
 8437SOL    HW126210   0.864   1.706   0.688
 8437SOL    HW226211   1.018   1.678   0.642
 8438SOL     OW26212   2.062   4.961   2.350
 8438SOL    HW126213   2.040   4.963   2.447
 8438SOL    HW226214   2.056   4.866   2.317
 8439SOL     OW26215   6.758   5.536   2.410
 8439SOL    HW126216   6.666   5.539   2.450
 8439SOL    HW226217   6.825   5.522   2.482
 8440SOL     OW26218   0.857   0.798   1.862
 8440SOL    HW126219   0.943   0.830   1.821
 8440SOL    HW226220   0.797   0.876   1.878
 8441SOL     OW26221   4.751   5.685   6.484
 8441SOL    HW126222   4.835   5.735   6.461
 8441SOL    HW226223   4.713   5.644   6.402
 8442SOL     OW26224   2.030   4.522   6.882
 8442SOL    HW126225   1.970   4.591   6.923
 8442SOL    HW226226   2.120   4.562   6.867
 8443SOL     OW26227   1.314   0.525   2.725
 8443SOL    HW126228   1.220   0.496   2.709
 8443SOL    HW226229   1.316   0.595   2.796
 8444SOL     OW26230   3.938   6.300   3.739
 8444SOL    HW126231   4.021   6.251   3.767
 8444SOL    HW226232   3.922   6.288   3.642
 8445SOL     OW26233   3.728   4.875   2.745
 8445SOL    HW126234   3.647   4.934   2.742
 8445SOL    HW226235   3.774   4.875   2.656
 8446SOL     OW26236   5.181   5.030   2.617
 8446SOL    HW126237   5.131   4.944   2.622
 8446SOL    HW226238   5.137   5.097   2.677
 8447SOL     OW26239   4.827   2.252   1.912
 8447SOL    HW126240   4.879   2.253   1.997
 8447SOL    HW226241   4.868   2.317   1.847
 8448SOL     OW26242   0.568   3.529   6.427
 8448SOL    HW126243   0.505   3.559   6.355
 8448SOL    HW226244   0.529   3.451   6.474
 8449SOL     OW26245   0.576   3.095   5.064
 8449SOL    HW126246   0.499   3.152   5.035
 8449SOL    HW226247   0.661   3.142   5.041
 8450SOL     OW26248   2.129   6.222   2.626
 8450SOL    HW126249   2.220   6.245   2.661
 8450SOL    HW226250   2.064   6.222   2.701
 8451SOL     OW26251   3.746   3.051   1.290
 8451SOL    HW126252   3.729   3.149   1.285
 8451SOL    HW226253   3.691   3.005   1.220
 8452SOL     OW26254   6.672   0.221   1.425
 8452SOL    HW126255   6.757   0.262   1.456
 8452SOL    HW226256   6.621   0.287   1.369
 8453SOL     OW26257   6.480   4.207   5.995
 8453SOL    HW126258   6.473   4.124   6.050
 8453SOL    HW226259   6.422   4.278   6.034
 8454SOL     OW26260   1.607   7.020   3.912
 8454SOL    HW126261   1.552   6.984   3.987
 8454SOL    HW226262   1.576   0.088   3.889
 8455SOL     OW26263   4.851   1.870   0.853
 8455SOL    HW126264   4.785   1.927   0.804
 8455SOL    HW226265   4.835   1.774   0.831
 8456SOL     OW26266   5.601   5.317   3.532
 8456SOL    HW126267   5.552   5.367   3.603
 8456SOL    HW226268   5.619   5.378   3.455
 8457SOL     OW26269   0.035   6.622   5.829
 8457SOL    HW126270   7.012   6.697   5.875
 8457SOL    HW226271   0.115   6.595   5.883
 8458SOL     OW26272   1.748   2.049   0.230
 8458SOL    HW126273   1.832   2.007   0.264
 8458SOL    HW226274   1.769   2.109   0.153
 8459SOL     OW26275   3.643   5.469   2.279
 8459SOL    HW126276   3.661   5.510   2.190
 8459SOL    HW226277   3.548   5.441   2.285
 8460SOL     OW26278   4.431   2.048   0.334
 8460SOL    HW126279   4.362   1.987   0.372
 8460SOL    HW226280   4.498   2.071   0.405
 8461SOL     OW26281   0.252   3.862   1.420
 8461SOL    HW126282   0.274   3.768   1.392
 8461SOL    HW226283   0.153   3.874   1.418
 8462SOL     OW26284   3.500   4.009   6.544
 8462SOL    HW126285   3.592   4.039   6.567
 8462SOL    HW226286   3.470   4.055   6.461
 8463SOL     OW26287   0.213   1.784   6.946
 8463SOL    HW126288   0.183   1.786   0.017
 8463SOL    HW226289   0.135   1.806   6.886
 8464SOL     OW26290   0.247   2.865   0.138
 8464SOL    HW126291   0.239   2.826   0.229
 8464SOL    HW226292   0.178   2.938   0.127
 8465SOL     OW26293   3.825   2.572   1.038
 8465SOL    HW126294   3.780   2.505   1.097
 8465SOL    HW226295   3.822   2.540   0.943
 8466SOL     OW26296   5.508   0.737   5.064
 8466SOL    HW126297   5.538   0.689   4.981
 8466SOL    HW226298   5.564   0.818   5.078
 8467SOL     OW26299   3.092   1.058   0.818
 8467SOL    HW126300   3.004   1.106   0.816
 8467SOL    HW226301   3.160   1.111   0.767
 8468SOL     OW26302   6.182   3.635   6.602
 8468SOL    HW126303   6.151   3.544   6.573
 8468SOL    HW226304   6.273   3.628   6.642
 8469SOL     OW26305   3.923   2.559   5.654
 8469SOL    HW126306   3.905   2.656   5.641
 8469SOL    HW226307   3.844   2.506   5.624
 8470SOL     OW26308   0.745   4.718   0.997
 8470SOL    HW126309   0.666   4.750   0.944
 8470SOL    HW226310   0.819   4.783   0.988
 8471SOL     OW26311   3.051   0.878   5.135
 8471SOL    HW126312   3.041   0.819   5.055
 8471SOL    HW226313   2.981   0.949   5.133
 8472SOL     OW26314   5.511   1.426   6.440
 8472SOL    HW126315   5.581   1.453   6.506
 8472SOL    HW226316   5.534   1.462   6.349
 8473SOL     OW26317   4.878   4.631   6.915
 8473SOL    HW126318   4.924   4.688   6.846
 8473SOL    HW226319   4.943   4.610   6.988
 8474SOL     OW26320   3.018   3.636   2.212
 8474SOL    HW126321   3.039   3.641   2.310
 8474SOL    HW226322   3.101   3.608   2.162
 8475SOL     OW26323   0.016   3.213   1.377
 8475SOL    HW126324   7.012   3.117   1.385
 8475SOL    HW226325   6.959   3.272   1.383
 8476SOL     OW26326   6.209   7.020   1.644
 8476SOL    HW126327   6.115   0.019   1.668
 8476SOL    HW226328   6.245   6.954   1.709
 8477SOL     OW26329   5.333   6.623   1.209
 8477SOL    HW126330   5.290   6.687   1.146
 8477SOL    HW226331   5.268   6.598   1.281
 8478SOL     OW26332   0.310   6.991   5.660
 8478SOL    HW126333   0.226   0.001   5.617
 8478SOL    HW226334   0.368   6.949   5.590
 8479SOL     OW26335   1.762   2.255   1.353
 8479SOL    HW126336   1.701   2.207   1.290
 8479SOL    HW226337   1.769   2.204   1.439
 8480SOL     OW26338   4.836   3.551   6.939
 8480SOL    HW126339   4.933   3.532   6.921
 8480SOL    HW226340   4.827   3.644   6.976
 8481SOL     OW26341   3.879   2.171   4.047
 8481SOL    HW126342   3.972   2.207   4.045
 8481SOL    HW226343   3.852   2.154   4.141
 8482SOL     OW26344   4.474   1.080   0.237
 8482SOL    HW126345   4.400   1.017   0.258
 8482SOL    HW226346   4.556   1.052   0.286
 8483SOL     OW26347   3.546   6.060   3.946
 8483SOL    HW126348   3.458   6.096   3.979
 8483SOL    HW226349   3.578   6.116   3.870
 8484SOL     OW26350   6.404   5.779   4.733
 8484SOL    HW126351   6.472   5.711   4.706
 8484SOL    HW226352   6.443   5.871   4.721
 8485SOL     OW26353   3.107   2.464   0.080
 8485SOL    HW126354   3.018   2.424   0.060
 8485SOL    HW226355   3.178   2.412   0.032
 8486SOL     OW26356   1.345   1.274   2.573
 8486SOL    HW126357   1.346   1.226   2.661
 8486SOL    HW226358   1.264   1.332   2.568
 8487SOL     OW26359   5.511   2.173   5.799
 8487SOL    HW126360   5.562   2.092   5.828
 8487SOL    HW226361   5.534   2.250   5.858
 8488SOL     OW26362   5.232   6.140   2.272
 8488SOL    HW126363   5.300   6.071   2.296
 8488SOL    HW226364   5.278   6.219   2.231
 8489SOL     OW26365   5.359   1.127   1.246
 8489SOL    HW126366   5.445   1.097   1.287
 8489SOL    HW226367   5.372   1.146   1.149
 8490SOL     OW26368   2.306   6.798   6.861
 8490SOL    HW126369   2.373   6.816   6.789
 8490SOL    HW226370   2.334   6.717   6.913
 8491SOL     OW26371   2.479   5.944   2.398
 8491SOL    HW126372   2.418   6.023   2.400
 8491SOL    HW226373   2.490   5.913   2.303
 8492SOL     OW26374   5.783   4.092   4.797
 8492SOL    HW126375   5.857   4.158   4.788
 8492SOL    HW226376   5.820   3.999   4.792
 8493SOL     OW26377   3.495   0.826   0.487
 8493SOL    HW126378   3.454   0.883   0.415
 8493SOL    HW226379   3.441   0.743   0.498
 8494SOL     OW26380   5.973   5.056   2.102
 8494SOL    HW126381   5.928   4.990   2.043
 8494SOL    HW226382   5.941   5.148   2.079
 8495SOL     OW26383   6.275   5.820   0.609
 8495SOL    HW126384   6.319   5.845   0.695
 8495SOL    HW226385   6.302   5.727   0.584
 8496SOL     OW26386   5.114   1.401   2.094
 8496SOL    HW126387   5.085   1.457   2.173
 8496SOL    HW226388   5.158   1.459   2.026
 8497SOL     OW26389   6.742   0.659   3.851
 8497SOL    HW126390   6.746   0.747   3.899
 8497SOL    HW226391   6.824   0.648   3.795
 8498SOL     OW26392   4.790   6.852   4.346
 8498SOL    HW126393   4.714   6.825   4.404
 8498SOL    HW226394   4.877   6.822   4.386
 8499SOL     OW26395   7.016   5.911   6.886
 8499SOL    HW126396   0.052   5.877   6.959
 8499SOL    HW226397   6.948   5.840   6.865
 8500SOL     OW26398   1.787   0.699   5.612
 8500SOL    HW126399   1.694   0.697   5.648
 8500SOL    HW226400   1.843   0.761   5.667
 8501SOL     OW26401   0.608   1.399   0.254
 8501SOL    HW126402   0.656   1.311   0.261
 8501SOL    HW226403   0.663   1.469   0.299
 8502SOL     OW26404   0.476   3.008   6.588
 8502SOL    HW126405   0.422   2.929   6.560
 8502SOL    HW226406   0.556   2.977   6.640
 8503SOL     OW26407   6.231   6.282   4.565
 8503SOL    HW126408   6.170   6.343   4.516
 8503SOL    HW226409   6.233   6.307   4.662
 8504SOL     OW26410   2.441   5.329   2.437
 8504SOL    HW126411   2.538   5.332   2.412
 8504SOL    HW226412   2.386   5.369   2.364
 8505SOL     OW26413   5.317   3.650   2.712
 8505SOL    HW126414   5.339   3.614   2.621
 8505SOL    HW226415   5.383   3.722   2.735
 8506SOL     OW26416   2.210   0.566   6.910
 8506SOL    HW126417   2.294   0.607   6.946
 8506SOL    HW226418   2.225   0.468   6.896
 8507SOL     OW26419   4.798   6.943   5.669
 8507SOL    HW126420   4.818   6.897   5.582
 8507SOL    HW226421   4.867   7.014   5.686
 8508SOL     OW26422   4.404   1.842   0.057
 8508SOL    HW126423   4.314   1.886   0.067
 8508SOL    HW226424   4.466   1.878   0.126
 8509SOL     OW26425   5.842   0.348   3.432
 8509SOL    HW126426   5.804   0.260   3.402
 8509SOL    HW226427   5.905   0.334   3.508
 8510SOL     OW26428   5.397   2.603   4.298
 8510SOL    HW126429   5.347   2.523   4.329
 8510SOL    HW226430   5.449   2.642   4.374
 8511SOL     OW26431   5.902   3.092   2.174
 8511SOL    HW126432   5.878   3.087   2.077
 8511SOL    HW226433   5.819   3.085   2.229
 8512SOL     OW26434   2.284   0.041   4.062
 8512SOL    HW126435   2.370   0.068   4.019
 8512SOL    HW226436   2.214   0.030   3.991
 8513SOL     OW26437   6.452   6.245   0.123
 8513SOL    HW126438   6.368   6.296   0.143
 8513SOL    HW226439   6.437   6.148   0.139
 8514SOL     OW26440   2.990   6.339   3.872
 8514SOL    HW126441   3.090   6.338   3.865
 8514SOL    HW226442   2.963   6.339   3.968
 8515SOL     OW26443   5.423   1.743   1.119
 8515SOL    HW126444   5.500   1.804   1.097
 8515SOL    HW226445   5.389   1.765   1.210
 8516SOL     OW26446   6.421   2.446   2.206
 8516SOL    HW126447   6.485   2.459   2.282
 8516SOL    HW226448   6.442   2.511   2.133
 8517SOL     OW26449   1.494   2.800   6.245
 8517SOL    HW126450   1.435   2.743   6.187
 8517SOL    HW226451   1.584   2.758   6.253
 8518SOL     OW26452   3.258   5.531   6.999
 8518SOL    HW126453   3.319   5.611   6.995
 8518SOL    HW226454   3.302   5.453   6.954
 8519SOL     OW26455   1.225   5.379   2.072
 8519SOL    HW126456   1.172   5.330   2.141
 8519SOL    HW226457   1.302   5.322   2.043
 8520SOL     OW26458   4.365   0.871   0.380
 8520SOL    HW126459   4.289   0.808   0.361
 8520SOL    HW226460   4.451   0.821   0.379
 8521SOL     OW26461   1.187   6.289   5.824
 8521SOL    HW126462   1.169   6.334   5.737
 8521SOL    HW226463   1.252   6.215   5.812
 8522SOL     OW26464   1.269   6.109   4.698
 8522SOL    HW126465   1.329   6.155   4.762
 8522SOL    HW226466   1.265   6.161   4.613
 8523SOL     OW26467   1.093   6.908   6.832
 8523SOL    HW126468   1.179   6.960   6.828
 8523SOL    HW226469   1.114   6.812   6.853
 8524SOL     OW26470   1.437   3.236   5.905
 8524SOL    HW126471   1.425   3.252   6.003
 8524SOL    HW226472   1.440   3.323   5.857
 8525SOL     OW26473   6.097   3.347   2.708
 8525SOL    HW126474   6.086   3.288   2.628
 8525SOL    HW226475   6.009   3.359   2.754
 8526SOL     OW26476   2.196   2.790   2.584
 8526SOL    HW126477   2.236   2.882   2.587
 8526SOL    HW226478   2.151   2.771   2.672
 8527SOL     OW26479   4.691   0.917   4.378
 8527SOL    HW126480   4.640   0.991   4.334
 8527SOL    HW226481   4.629   0.841   4.398
 8528SOL     OW26482   4.572   2.859   6.116
 8528SOL    HW126483   4.581   2.899   6.208
 8528SOL    HW226484   4.481   2.820   6.106
 8529SOL     OW26485   1.520   4.998   6.745
 8529SOL    HW126486   1.502   4.974   6.650
 8529SOL    HW226487   1.521   5.098   6.754
 8530SOL     OW26488   1.560   3.789   4.834
 8530SOL    HW126489   1.536   3.780   4.737
 8530SOL    HW226490   1.653   3.825   4.841
 8531SOL     OW26491   5.313   5.029   2.347
 8531SOL    HW126492   5.290   5.043   2.443
 8531SOL    HW226493   5.286   4.937   2.320
 8532SOL     OW26494   3.083   4.524   5.647
 8532SOL    HW126495   3.182   4.521   5.633
 8532SOL    HW226496   3.059   4.464   5.724
 8533SOL     OW26497   3.190   1.111   4.917
 8533SOL    HW126498   3.243   1.145   4.995
 8533SOL    HW226499   3.246   1.116   4.834
 8534SOL     OW26500   1.199   3.168   2.533
 8534SOL    HW126501   1.108   3.183   2.494
 8534SOL    HW226502   1.234   3.253   2.571
 8535SOL     OW26503   0.101   1.898   4.258
 8535SOL    HW126504   0.163   1.975   4.244
 8535SOL    HW226505   0.140   1.815   4.217
 8536SOL     OW26506   6.967   1.422   5.515
 8536SOL    HW126507   0.035   1.389   5.531
 8536SOL    HW226508   6.961   1.519   5.539
 8537SOL     OW26509   5.359   0.620   1.592
 8537SOL    HW126510   5.385   0.715   1.571
 8537SOL    HW226511   5.265   0.619   1.627
 8538SOL     OW26512   6.309   0.793   4.776
 8538SOL    HW126513   6.372   0.837   4.841
 8538SOL    HW226514   6.281   0.859   4.707
 8539SOL     OW26515   0.397   2.785   1.795
 8539SOL    HW126516   0.432   2.786   1.701
 8539SOL    HW226517   0.398   2.691   1.829
 8540SOL     OW26518   3.576   0.376   0.584
 8540SOL    HW126519   3.499   0.398   0.644
 8540SOL    HW226520   3.580   0.444   0.510
 8541SOL     OW26521   2.760   1.067   4.611
 8541SOL    HW126522   2.730   1.158   4.582
 8541SOL    HW226523   2.843   1.075   4.666
 8542SOL     OW26524   2.289   5.002   6.461
 8542SOL    HW126525   2.266   5.097   6.481
 8542SOL    HW226526   2.215   4.943   6.493
 8543SOL     OW26527   2.188   2.234   5.664
 8543SOL    HW126528   2.165   2.138   5.652
 8543SOL    HW226529   2.228   2.270   5.579
 8544SOL     OW26530   5.084   4.059   5.390
 8544SOL    HW126531   5.116   4.153   5.375
 8544SOL    HW226532   4.984   4.056   5.380
 8545SOL     OW26533   3.144   7.003   5.794
 8545SOL    HW126534   3.202   0.005   5.871
 8545SOL    HW226535   3.050   0.007   5.812
 8546SOL     OW26536   5.521   0.433   1.482
 8546SOL    HW126537   5.475   0.513   1.521
 8546SOL    HW226538   5.611   0.461   1.447
 8547SOL     OW26539   6.049   6.282   5.902
 8547SOL    HW126540   6.030   6.275   5.803
 8547SOL    HW226541   6.135   6.330   5.916
 8548SOL     OW26542   0.587   3.170   5.817
 8548SOL    HW126543   0.574   3.135   5.910
 8548SOL    HW226544   0.505   3.152   5.763
 8549SOL     OW26545   1.767   0.733   2.930
 8549SOL    HW126546   1.711   0.686   2.999
 8549SOL    HW226547   1.836   0.669   2.895
 8550SOL     OW26548   0.887   4.219   6.816
 8550SOL    HW126549   0.974   4.250   6.777
 8550SOL    HW226550   0.881   4.250   6.911
 8551SOL     OW26551   2.192   1.759   5.987
 8551SOL    HW126552   2.136   1.684   5.953
 8551SOL    HW226553   2.153   1.846   5.958
 8552SOL     OW26554   2.391   1.601   3.142
 8552SOL    HW126555   2.468   1.644   3.188
 8552SOL    HW226556   2.308   1.651   3.162
 8553SOL     OW26557   5.187   2.717   0.544
 8553SOL    HW126558   5.100   2.678   0.512
 8553SOL    HW226559   5.169   2.776   0.623
 8554SOL     OW26560   1.037   6.882   0.490
 8554SOL    HW126561   1.001   6.825   0.417
 8554SOL    HW226562   0.976   6.878   0.569
 8555SOL     OW26563   4.807   0.957   3.767
 8555SOL    HW126564   4.842   1.025   3.831
 8555SOL    HW226565   4.799   0.868   3.812
 8556SOL     OW26566   1.907   6.301   0.426
 8556SOL    HW126567   1.825   6.262   0.469
 8556SOL    HW226568   1.922   6.393   0.462
 8557SOL     OW26569   0.614   0.815   6.978
 8557SOL    HW126570   0.668   0.735   6.952
 8557SOL    HW226571   0.594   0.868   6.896
 8558SOL     OW26572   3.191   4.817   3.364
 8558SOL    HW126573   3.252   4.823   3.443
 8558SOL    HW226574   3.245   4.816   3.280
 8559SOL     OW26575   0.905   5.360   2.636
 8559SOL    HW126576   0.878   5.272   2.674
 8559SOL    HW226577   1.005   5.368   2.639
 8560SOL     OW26578   2.773   4.135   1.685
 8560SOL    HW126579   2.824   4.049   1.691
 8560SOL    HW226580   2.836   4.211   1.676
 8561SOL     OW26581   4.674   6.897   2.115
 8561SOL    HW126582   4.700   6.863   2.025
 8561SOL    HW226583   4.742   6.963   2.147
 8562SOL     OW26584   4.305   0.885   0.052
 8562SOL    HW126585   4.258   0.812   0.003
 8562SOL    HW226586   4.402   0.886   0.026
 8563SOL     OW26587   1.612   5.668   2.630
 8563SOL    HW126588   1.512   5.667   2.628
 8563SOL    HW226589   1.644   5.763   2.635
 8564SOL     OW26590   4.230   0.732   6.850
 8564SOL    HW126591   4.303   0.721   6.782
 8564SOL    HW226592   4.175   0.649   6.854
 8565SOL     OW26593   3.069   5.460   1.424
 8565SOL    HW126594   3.143   5.402   1.458
 8565SOL    HW226595   2.981   5.420   1.448
 8566SOL     OW26596   3.455   1.227   2.767
 8566SOL    HW126597   3.527   1.211   2.834
 8566SOL    HW226598   3.366   1.206   2.807
 8567SOL     OW26599   1.984   2.103   1.868
 8567SOL    HW126600   2.048   2.026   1.856
 8567SOL    HW226601   1.901   2.070   1.914
 8568SOL     OW26602   0.050   1.143   6.884
 8568SOL    HW126603   0.051   1.043   6.880
 8568SOL    HW226604   0.048   1.173   6.980
 8569SOL     OW26605   4.768   2.277   6.631
 8569SOL    HW126606   4.774   2.178   6.645
 8569SOL    HW226607   4.801   2.299   6.539
 8570SOL     OW26608   1.467   3.124   3.762
 8570SOL    HW126609   1.469   3.025   3.780
 8570SOL    HW226610   1.555   3.164   3.787
 8571SOL     OW26611   1.585   0.593   3.541
 8571SOL    HW126612   1.601   0.525   3.613
 8571SOL    HW226613   1.494   0.632   3.551
 8572SOL     OW26614   2.951   3.950   5.624
 8572SOL    HW126615   2.876   3.998   5.578
 8572SOL    HW226616   2.976   3.999   5.708
 8573SOL     OW26617   3.468   6.140   0.762
 8573SOL    HW126618   3.481   6.041   0.758
 8573SOL    HW226619   3.386   6.161   0.815
 8574SOL     OW26620   6.283   6.328   5.354
 8574SOL    HW126621   6.316   6.247   5.402
 8574SOL    HW226622   6.183   6.327   5.351
 8575SOL     OW26623   3.114   6.451   3.001
 8575SOL    HW126624   3.160   6.365   3.023
 8575SOL    HW226625   3.047   6.472   3.073
 8576SOL     OW26626   0.918   4.026   3.461
 8576SOL    HW126627   0.854   3.987   3.528
 8576SOL    HW226628   0.924   3.966   3.382
 8577SOL     OW26629   2.054   1.694   6.638
 8577SOL    HW126630   2.103   1.621   6.686
 8577SOL    HW226631   2.082   1.695   6.542
 8578SOL     OW26632   6.376   6.792   5.282
 8578SOL    HW126633   6.332   6.718   5.230
 8578SOL    HW226634   6.327   6.878   5.265
 8579SOL     OW26635   3.244   6.130   2.375
 8579SOL    HW126636   3.301   6.072   2.434
 8579SOL    HW226637   3.278   6.224   2.378
 8580SOL     OW26638   1.648   0.281   1.351
 8580SOL    HW126639   1.577   0.316   1.412
 8580SOL    HW226640   1.612   0.203   1.300
 8581SOL     OW26641   3.656   4.993   0.903
 8581SOL    HW126642   3.722   5.067   0.888
 8581SOL    HW226643   3.660   4.928   0.828
 8582SOL     OW26644   3.792   4.327   5.408
 8582SOL    HW126645   3.848   4.248   5.435
 8582SOL    HW226646   3.735   4.301   5.330
 8583SOL     OW26647   4.348   0.759   2.844
 8583SOL    HW126648   4.357   0.692   2.770
 8583SOL    HW226649   4.253   0.761   2.876
 8584SOL     OW26650   6.590   0.944   4.433
 8584SOL    HW126651   6.492   0.957   4.416
 8584SOL    HW226652   6.638   0.937   4.346
 8585SOL     OW26653   5.367   1.974   1.823
 8585SOL    HW126654   5.370   1.888   1.874
 8585SOL    HW226655   5.273   2.008   1.821
 8586SOL     OW26656   5.725   5.828   1.080
 8586SOL    HW126657   5.755   5.849   1.173
 8586SOL    HW226658   5.793   5.770   1.035
 8587SOL     OW26659   1.705   1.232   5.645
 8587SOL    HW126660   1.744   1.246   5.553
 8587SOL    HW226661   1.640   1.157   5.643
 8588SOL     OW26662   3.246   1.667   6.727
 8588SOL    HW126663   3.238   1.765   6.744
 8588SOL    HW226664   3.319   1.629   6.783
 8589SOL     OW26665   0.318   3.157   6.063
 8589SOL    HW126666   0.402   3.104   6.051
 8589SOL    HW226667   0.300   3.171   6.160
 8590SOL     OW26668   1.158   1.437   2.492
 8590SOL    HW126669   1.131   1.479   2.579
 8590SOL    HW226670   1.092   1.462   2.422
 8591SOL     OW26671   6.681   5.151   0.021
 8591SOL    HW126672   6.696   5.208   0.101
 8591SOL    HW226673   6.585   5.126   0.015
 8592SOL     OW26674   1.813   2.260   6.326
 8592SOL    HW126675   1.763   2.259   6.240
 8592SOL    HW226676   1.896   2.204   6.316
 8593SOL     OW26677   3.365   0.801   6.568
 8593SOL    HW126678   3.308   0.756   6.636
 8593SOL    HW226679   3.325   0.890   6.544
 8594SOL     OW26680   6.528   2.541   5.926
 8594SOL    HW126681   6.435   2.505   5.935
 8594SOL    HW226682   6.568   2.554   6.016
 8595SOL     OW26683   5.131   6.433   2.534
 8595SOL    HW126684   5.068   6.510   2.546
 8595SOL    HW226685   5.194   6.453   2.459
 8596SOL     OW26686   0.432   2.868   3.470
 8596SOL    HW126687   0.498   2.836   3.402
 8596SOL    HW226688   0.462   2.842   3.561
 8597SOL     OW26689   5.875   3.117   1.131
 8597SOL    HW126690   5.896   3.055   1.055
 8597SOL    HW226691   5.952   3.178   1.148
 8598SOL     OW26692   5.357   0.527   4.533
 8598SOL    HW126693   5.274   0.477   4.505
 8598SOL    HW226694   5.356   0.618   4.492
 8599SOL     OW26695   1.530   2.887   3.879
 8599SOL    HW126696   1.629   2.880   3.890
 8599SOL    HW226697   1.486   2.805   3.915
 8600SOL     OW26698   3.864   2.871   1.459
 8600SOL    HW126699   3.813   2.932   1.398
 8600SOL    HW226700   3.858   2.907   1.553
 8601SOL     OW26701   0.917   0.379   3.669
 8601SOL    HW126702   0.857   0.300   3.659
 8601SOL    HW226703   0.915   0.411   3.764
 8602SOL     OW26704   2.667   6.595   4.352
 8602SOL    HW126705   2.710   6.505   4.346
 8602SOL    HW226706   2.649   6.617   4.448
 8603SOL     OW26707   6.933   0.931   0.575
 8603SOL    HW126708   6.852   0.930   0.517
 8603SOL    HW226709   6.911   0.893   0.665
 8604SOL     OW26710   0.379   4.069   6.389
 8604SOL    HW126711   0.307   4.119   6.341
 8604SOL    HW226712   0.340   4.019   6.466
 8605SOL     OW26713   0.023   5.039   4.386
 8605SOL    HW126714   0.103   5.056   4.330
 8605SOL    HW226715   7.007   5.127   4.414
 8606SOL     OW26716   1.986   2.316   6.961
 8606SOL    HW126717   2.054   2.387   6.944
 8606SOL    HW226718   1.944   2.288   6.874
 8607SOL     OW26719   2.540   4.724   1.283
 8607SOL    HW126720   2.463   4.785   1.265
 8607SOL    HW226721   2.530   4.642   1.226
 8608SOL     OW26722   2.570   5.139   3.408
 8608SOL    HW126723   2.515   5.180   3.336
 8608SOL    HW226724   2.532   5.051   3.434
 8609SOL     OW26725   4.515   1.137   3.895
 8609SOL    HW126726   4.614   1.130   3.893
 8609SOL    HW226727   4.478   1.115   3.805
 8610SOL     OW26728   0.620   6.866   2.971
 8610SOL    HW126729   0.712   6.861   3.010
 8610SOL    HW226730   0.607   6.792   2.905
 8611SOL     OW26731   3.001   1.539   4.197
 8611SOL    HW126732   2.908   1.567   4.217
 8611SOL    HW226733   3.059   1.620   4.185
 8612SOL     OW26734   3.794   2.954   3.281
 8612SOL    HW126735   3.737   3.033   3.304
 8612SOL    HW226736   3.868   2.946   3.347
 8613SOL     OW26737   3.323   2.946   0.773
 8613SOL    HW126738   3.323   2.934   0.873
 8613SOL    HW226739   3.408   2.990   0.745
 8614SOL     OW26740   1.390   2.561   1.889
 8614SOL    HW126741   1.360   2.643   1.938
 8614SOL    HW226742   1.430   2.588   1.801
 8615SOL     OW26743   4.148   1.649   3.852
 8615SOL    HW126744   4.203   1.656   3.935
 8615SOL    HW226745   4.205   1.618   3.776
 8616SOL     OW26746   4.411   4.959   2.457
 8616SOL    HW126747   4.328   4.994   2.501
 8616SOL    HW226748   4.394   4.945   2.360
 8617SOL     OW26749   4.526   0.394   4.532
 8617SOL    HW126750   4.587   0.351   4.465
 8617SOL    HW226751   4.545   0.358   4.623
 8618SOL     OW26752   5.362   3.727   1.185
 8618SOL    HW126753   5.342   3.802   1.249
 8618SOL    HW226754   5.301   3.734   1.106
 8619SOL     OW26755   5.852   4.546   1.597
 8619SOL    HW126756   5.814   4.636   1.620
 8619SOL    HW226757   5.785   4.495   1.542
 8620SOL     OW26758   1.924   0.904   4.378
 8620SOL    HW126759   1.887   0.830   4.324
 8620SOL    HW226760   2.020   0.918   4.354
 8621SOL     OW26761   5.096   2.588   1.925
 8621SOL    HW126762   5.031   2.600   1.999
 8621SOL    HW226763   5.050   2.603   1.837
 8622SOL     OW26764   6.531   5.019   2.980
 8622SOL    HW126765   6.622   4.991   3.010
 8622SOL    HW226766   6.485   5.066   3.055
 8623SOL     OW26767   6.356   3.244   5.156
 8623SOL    HW126768   6.431   3.299   5.193
 8623SOL    HW226769   6.380   3.147   5.163
 8624SOL     OW26770   2.832   3.759   6.008
 8624SOL    HW126771   2.820   3.664   6.037
 8624SOL    HW226772   2.901   3.803   6.066
 8625SOL     OW26773   4.144   1.670   5.517
 8625SOL    HW126774   4.088   1.653   5.598
 8625SOL    HW226775   4.137   1.766   5.491
 8626SOL     OW26776   4.633   4.031   0.700
 8626SOL    HW126777   4.600   4.095   0.770
 8626SOL    HW226778   4.606   3.938   0.725
 8627SOL     OW26779   1.604   0.767   2.666
 8627SOL    HW126780   1.596   0.674   2.703
 8627SOL    HW226781   1.700   0.796   2.668
 8628SOL     OW26782   0.683   6.506   0.251
 8628SOL    HW126783   0.709   6.505   0.348
 8628SOL    HW226784   0.641   6.594   0.229
 8629SOL     OW26785   0.258   0.013   4.625
 8629SOL    HW126786   0.232   0.003   4.721
 8629SOL    HW226787   0.274   0.109   4.605
 8630SOL     OW26788   4.938   3.021   2.641
 8630SOL    HW126789   4.849   2.996   2.680
 8630SOL    HW226790   5.004   3.034   2.716
 8631SOL     OW26791   2.798   5.919   6.849
 8631SOL    HW126792   2.833   6.001   6.893
 8631SOL    HW226793   2.822   5.920   6.752
 8632SOL     OW26794   4.808   4.526   5.208
 8632SOL    HW126795   4.822   4.609   5.262
 8632SOL    HW226796   4.811   4.446   5.269
 8633SOL     OW26797   5.713   3.826   5.632
 8633SOL    HW126798   5.658   3.909   5.624
 8633SOL    HW226799   5.725   3.803   5.728
 8634SOL     OW26800   5.494   4.925   0.942
 8634SOL    HW126801   5.457   4.924   1.035
 8634SOL    HW226802   5.569   4.990   0.937
 8635SOL     OW26803   5.829   2.693   6.725
 8635SOL    HW126804   5.927   2.709   6.740
 8635SOL    HW226805   5.809   2.704   6.628
 8636SOL     OW26806   5.033   6.483   1.202
 8636SOL    HW126807   5.060   6.388   1.222
 8636SOL    HW226808   4.992   6.524   1.283
 8637SOL     OW26809   2.366   1.929   6.429
 8637SOL    HW126810   2.321   2.000   6.482
 8637SOL    HW226811   2.465   1.940   6.436
 8638SOL     OW26812   4.348   3.146   5.397
 8638SOL    HW126813   4.436   3.113   5.364
 8638SOL    HW226814   4.275   3.104   5.344
 8639SOL     OW26815   4.147   3.027   6.407
 8639SOL    HW126816   4.163   3.045   6.310
 8639SOL    HW226817   4.148   3.113   6.458
 8640SOL     OW26818   2.726   3.499   1.442
 8640SOL    HW126819   2.719   3.554   1.359
 8640SOL    HW226820   2.665   3.536   1.512
 8641SOL     OW26821   4.539   5.909   2.514
 8641SOL    HW126822   4.629   5.921   2.554
 8641SOL    HW226823   4.528   5.813   2.485
 8642SOL     OW26824   1.519   6.721   4.667
 8642SOL    HW126825   1.437   6.689   4.713
 8642SOL    HW226826   1.509   6.818   4.645
 8643SOL     OW26827   2.911   0.246   0.493
 8643SOL    HW126828   2.827   0.226   0.543
 8643SOL    HW226829   2.974   0.169   0.502
 8644SOL     OW26830   6.096   1.411   6.693
 8644SOL    HW126831   6.046   1.345   6.637
 8644SOL    HW226832   6.114   1.372   6.783
 8645SOL     OW26833   5.951   4.209   2.216
 8645SOL    HW126834   5.995   4.290   2.255
 8645SOL    HW226835   6.010   4.168   2.147
 8646SOL     OW26836   0.216   1.756   5.603
 8646SOL    HW126837   0.283   1.830   5.609
 8646SOL    HW226838   0.172   1.744   5.693
 8647SOL     OW26839   2.470   4.787   1.617
 8647SOL    HW126840   2.428   4.862   1.566
 8647SOL    HW226841   2.458   4.702   1.567
 8648SOL     OW26842   5.791   5.435   1.215
 8648SOL    HW126843   5.812   5.342   1.185
 8648SOL    HW226844   5.718   5.473   1.158
 8649SOL     OW26845   4.449   6.740   0.671
 8649SOL    HW126846   4.452   6.774   0.577
 8649SOL    HW226847   4.522   6.782   0.724
 8650SOL     OW26848   2.061   6.722   4.083
 8650SOL    HW126849   2.053   6.647   4.017
 8650SOL    HW226850   2.157   6.737   4.105
 8651SOL     OW26851   2.949   1.713   1.143
 8651SOL    HW126852   2.976   1.620   1.169
 8651SOL    HW226853   2.949   1.721   1.044
 8652SOL     OW26854   1.793   4.092   4.131
 8652SOL    HW126855   1.739   4.072   4.213
 8652SOL    HW226856   1.758   4.039   4.054
 8653SOL     OW26857   0.102   1.366   6.065
 8653SOL    HW126858   0.038   1.321   6.127
 8653SOL    HW226859   0.115   1.462   6.093
 8654SOL     OW26860   1.120   4.907   1.704
 8654SOL    HW126861   1.188   4.887   1.633
 8654SOL    HW226862   1.045   4.960   1.664
 8655SOL     OW26863   6.916   1.052   5.259
 8655SOL    HW126864   6.842   1.002   5.214
 8655SOL    HW226865   6.877   1.124   5.316
 8656SOL     OW26866   5.023   0.205   1.278
 8656SOL    HW126867   4.993   0.174   1.368
 8656SOL    HW226868   5.048   0.302   1.282
 8657SOL     OW26869   5.609   0.830   2.479
 8657SOL    HW126870   5.585   0.840   2.382
 8657SOL    HW226871   5.680   0.760   2.488
 8658SOL     OW26872   6.737   5.290   0.776
 8658SOL    HW126873   6.835   5.310   0.784
 8658SOL    HW226874   6.724   5.218   0.708
 8659SOL     OW26875   4.759   1.426   2.080
 8659SOL    HW126876   4.729   1.331   2.068
 8659SOL    HW226877   4.725   1.460   2.168
 8660SOL     OW26878   0.637   3.256   1.277
 8660SOL    HW126879   0.566   3.258   1.207
 8660SOL    HW226880   0.633   3.340   1.331
 8661SOL     OW26881   6.080   3.690   2.930
 8661SOL    HW126882   6.132   3.659   2.851
 8661SOL    HW226883   6.138   3.683   3.012
 8662SOL     OW26884   3.181   5.348   3.015
 8662SOL    HW126885   3.184   5.277   2.945
 8662SOL    HW226886   3.257   5.411   3.002
 8663SOL     OW26887   3.692   5.662   3.273
 8663SOL    HW126888   3.686   5.761   3.258
 8663SOL    HW226889   3.758   5.623   3.210
 8664SOL     OW26890   2.709   5.653   2.961
 8664SOL    HW126891   2.718   5.554   2.948
 8664SOL    HW226892   2.767   5.683   3.036
 8665SOL     OW26893   5.981   3.803   6.089
 8665SOL    HW126894   5.968   3.887   6.036
 8665SOL    HW226895   6.036   3.823   6.170
 8666SOL     OW26896   4.946   7.016   3.280
 8666SOL    HW126897   5.038   0.012   3.315
 8666SOL    HW226898   4.953   6.949   3.206
 8667SOL     OW26899   4.940   1.765   4.142
 8667SOL    HW126900   5.025   1.812   4.166
 8667SOL    HW226901   4.884   1.755   4.224
 8668SOL     OW26902   4.989   2.879   5.132
 8668SOL    HW126903   4.963   2.952   5.195
 8668SOL    HW226904   5.014   2.797   5.184
 8669SOL     OW26905   6.152   6.438   6.253
 8669SOL    HW126906   6.243   6.423   6.214
 8669SOL    HW226907   6.088   6.463   6.180
 8670SOL     OW26908   6.217   4.584   5.956
 8670SOL    HW126909   6.163   4.565   5.873
 8670SOL    HW226910   6.275   4.664   5.939
 8671SOL     OW26911   0.290   2.024   2.666
 8671SOL    HW126912   0.203   2.004   2.622
 8671SOL    HW226913   0.274   2.050   2.762
 8672SOL     OW26914   6.810   0.959   3.616
 8672SOL    HW126915   6.857   0.875   3.587
 8672SOL    HW226916   6.817   0.968   3.715
 8673SOL     OW26917   0.939   1.988   0.756
 8673SOL    HW126918   0.944   1.964   0.659
 8673SOL    HW226919   0.985   1.917   0.810
 8674SOL     OW26920   0.103   4.800   2.723
 8674SOL    HW126921   0.196   4.800   2.762
 8674SOL    HW226922   0.105   4.845   2.634
 8675SOL     OW26923   4.176   2.029   5.759
 8675SOL    HW126924   4.254   1.968   5.745
 8675SOL    HW226925   4.093   1.984   5.726
 8676SOL     OW26926   5.841   0.732   0.901
 8676SOL    HW126927   5.871   0.817   0.858
 8676SOL    HW226928   5.894   0.717   0.985
 8677SOL     OW26929   1.498   6.748   5.668
 8677SOL    HW126930   1.468   6.656   5.642
 8677SOL    HW226931   1.596   6.757   5.648
 8678SOL     OW26932   1.769   0.901   1.118
 8678SOL    HW126933   1.796   0.806   1.134
 8678SOL    HW226934   1.721   0.906   1.030
 8679SOL     OW26935   2.158   1.415   4.129
 8679SOL    HW126936   2.203   1.372   4.208
 8679SOL    HW226937   2.061   1.428   4.149
 8680SOL     OW26938   6.840   2.339   6.200
 8680SOL    HW126939   6.840   2.434   6.232
 8680SOL    HW226940   6.750   2.298   6.216
 8681SOL     OW26941   5.584   5.587   1.093
 8681SOL    HW126942   5.490   5.576   1.123
 8681SOL    HW226943   5.613   5.682   1.108
 8682SOL     OW26944   0.565   0.520   1.118
 8682SOL    HW126945   0.528   0.612   1.111
 8682SOL    HW226946   0.554   0.473   1.031
 8683SOL     OW26947   2.063   4.495   4.727
 8683SOL    HW126948   2.137   4.459   4.783
 8683SOL    HW226949   1.995   4.423   4.711
 8684SOL     OW26950   0.309   3.733   4.591
 8684SOL    HW126951   0.296   3.832   4.580
 8684SOL    HW226952   0.281   3.707   4.683
 8685SOL     OW26953   4.699   2.498   5.484
 8685SOL    HW126954   4.663   2.405   5.492
 8685SOL    HW226955   4.638   2.562   5.531
 8686SOL     OW26956   6.473   6.071   2.585
 8686SOL    HW126957   6.520   6.004   2.527
 8686SOL    HW226958   6.531   6.152   2.596
 8687SOL     OW26959   6.189   3.411   3.276
 8687SOL    HW126960   6.167   3.332   3.334
 8687SOL    HW226961   6.162   3.391   3.182
 8688SOL     OW26962   1.109   3.908   6.288
 8688SOL    HW126963   1.190   3.931   6.342
 8688SOL    HW226964   1.029   3.904   6.348
 8689SOL     OW26965   4.574   3.760   6.979
 8689SOL    HW126966   4.635   3.795   0.026
 8689SOL    HW226967   4.505   3.700   7.019
 8690SOL     OW26968   2.012   1.944   3.356
 8690SOL    HW126969   1.966   1.983   3.277
 8690SOL    HW226970   1.945   1.917   3.425
 8691SOL     OW26971   2.656   2.355   5.055
 8691SOL    HW126972   2.647   2.370   4.957
 8691SOL    HW226973   2.637   2.440   5.104
 8692SOL     OW26974   4.415   2.182   5.898
 8692SOL    HW126975   4.389   2.274   5.929
 8692SOL    HW226976   4.406   2.176   5.799
 8693SOL     OW26977   6.221   0.768   6.215
 8693SOL    HW126978   6.142   0.736   6.162
 8693SOL    HW226979   6.278   0.690   6.241
 8694SOL     OW26980   5.756   3.185   4.071
 8694SOL    HW126981   5.823   3.214   4.139
 8694SOL    HW226982   5.664   3.189   4.110
 8695SOL     OW26983   3.999   3.881   6.369
 8695SOL    HW126984   4.047   3.920   6.290
 8695SOL    HW226985   4.038   3.919   6.453
 8696SOL     OW26986   3.173   5.660   5.919
 8696SOL    HW126987   3.221   5.680   6.005
 8696SOL    HW226988   3.150   5.746   5.873
 8697SOL     OW26989   1.479   4.151   5.722
 8697SOL    HW126990   1.515   4.135   5.630
 8697SOL    HW226991   1.382   4.174   5.715
 8698SOL     OW26992   5.394   5.971   5.108
 8698SOL    HW126993   5.299   5.960   5.078
 8698SOL    HW226994   5.453   5.908   5.057
 8699SOL     OW26995   1.859   3.303   0.202
 8699SOL    HW126996   1.788   3.239   0.231
 8699SOL    HW226997   1.839   3.336   0.110
 8700SOL     OW26998   0.798   0.158   5.042
 8700SOL    HW126999   0.830   0.195   5.129
 8700SOL    HW227000   0.871   0.169   4.974
 8701SOL     OW27001   1.191   2.024   6.595
 8701SOL    HW127002   1.151   1.938   6.566
 8701SOL    HW227003   1.120   2.083   6.634
 8702SOL     OW27004   5.660   4.289   1.611
 8702SOL    HW127005   5.626   4.356   1.676
 8702SOL    HW227006   5.760   4.283   1.619
 8703SOL     OW27007   2.774   4.691   1.413
 8703SOL    HW127008   2.685   4.692   1.368
 8703SOL    HW227009   2.807   4.785   1.422
 8704SOL     OW27010   0.913   1.871   3.746
 8704SOL    HW127011   0.865   1.813   3.680
 8704SOL    HW227012   0.966   1.940   3.696
 8705SOL     OW27013   4.221   2.685   0.054
 8705SOL    HW127014   4.265   2.611   0.106
 8705SOL    HW227015   4.267   2.695   6.990
 8706SOL     OW27016   4.642   2.950   6.369
 8706SOL    HW127017   4.688   2.913   6.450
 8706SOL    HW227018   4.566   3.008   6.398
 8707SOL     OW27019   1.353   2.147   4.236
 8707SOL    HW127020   1.432   2.189   4.190
 8707SOL    HW227021   1.383   2.111   4.325
 8708SOL     OW27022   5.911   2.480   2.418
 8708SOL    HW127023   5.966   2.431   2.350
 8708SOL    HW227024   5.816   2.448   2.413
 8709SOL     OW27025   6.590   0.207   5.464
 8709SOL    HW127026   6.609   0.119   5.506
 8709SOL    HW227027   6.526   0.258   5.522
 8710SOL     OW27028   2.440   1.279   3.622
 8710SOL    HW127029   2.363   1.256   3.682
 8710SOL    HW227030   2.526   1.255   3.667
 8711SOL     OW27031   1.423   0.432   1.876
 8711SOL    HW127032   1.380   0.403   1.961
 8711SOL    HW227033   1.470   0.355   1.833
 8712SOL     OW27034   1.732   3.003   5.390
 8712SOL    HW127035   1.825   2.968   5.375
 8712SOL    HW227036   1.667   2.944   5.343
 8713SOL     OW27037   0.791   4.843   1.650
 8713SOL    HW127038   0.771   4.897   1.568
 8713SOL    HW227039   0.784   4.902   1.730
 8714SOL     OW27040   6.841   6.664   6.703
 8714SOL    HW127041   6.829   6.576   6.748
 8714SOL    HW227042   6.795   6.735   6.756
 8715SOL     OW27043   2.669   2.265   0.398
 8715SOL    HW127044   2.673   2.294   0.303
 8715SOL    HW227045   2.579   2.288   0.436
 8716SOL     OW27046   6.724   6.770   1.540
 8716SOL    HW127047   6.753   6.711   1.464
 8716SOL    HW227048   6.748   6.865   1.520
 8717SOL     OW27049   2.638   4.927   0.348
 8717SOL    HW127050   2.556   4.949   0.296
 8717SOL    HW227051   2.695   4.863   0.297
 8718SOL     OW27052   2.121   4.654   6.192
 8718SOL    HW127053   2.075   4.576   6.233
 8718SOL    HW227054   2.058   4.732   6.188
 8719SOL     OW27055   3.663   0.988   5.644
 8719SOL    HW127056   3.716   1.065   5.679
 8719SOL    HW227057   3.567   1.015   5.635
 8720SOL     OW27058   6.865   4.352   5.063
 8720SOL    HW127059   6.837   4.431   5.008
 8720SOL    HW227060   6.892   4.382   5.154
 8721SOL     OW27061   0.025   6.892   6.624
 8721SOL    HW127062   6.982   6.939   6.682
 8721SOL    HW227063   7.022   6.796   6.613
 8722SOL     OW27064   4.053   1.106   1.692
 8722SOL    HW127065   4.064   1.120   1.790
 8722SOL    HW227066   3.997   1.179   1.654
 8723SOL     OW27067   5.043   6.892   2.274
 8723SOL    HW127068   5.099   6.866   2.353
 8723SOL    HW227069   4.964   6.946   2.305
 8724SOL     OW27070   3.709   0.748   4.916
 8724SOL    HW127071   3.643   0.714   4.984
 8724SOL    HW227072   3.691   0.705   4.828
 8725SOL     OW27073   0.355   6.452   4.262
 8725SOL    HW127074   0.407   6.371   4.287
 8725SOL    HW227075   0.264   6.426   4.230
 8726SOL     OW27076   0.974   1.094   0.553
 8726SOL    HW127077   1.024   1.085   0.467
 8726SOL    HW227078   0.938   1.187   0.561
 8727SOL     OW27079   5.108   5.590   6.004
 8727SOL    HW127080   5.114   5.614   5.907
 8727SOL    HW227081   5.131   5.670   6.059
 8728SOL     OW27082   6.357   0.514   3.033
 8728SOL    HW127083   6.328   0.550   2.945
 8728SOL    HW227084   6.309   0.428   3.051
 8729SOL     OW27085   3.549   5.167   6.543
 8729SOL    HW127086   3.492   5.248   6.528
 8729SOL    HW227087   3.645   5.193   6.537
 8730SOL     OW27088   4.780   4.949   1.772
 8730SOL    HW127089   4.737   4.859   1.780
 8730SOL    HW227090   4.791   4.972   1.675
 8731SOL     OW27091   0.274   1.886   3.300
 8731SOL    HW127092   0.209   1.915   3.370
 8731SOL    HW227093   0.361   1.932   3.314
 8732SOL     OW27094   5.136   5.520   0.939
 8732SOL    HW127095   5.036   5.528   0.931
 8732SOL    HW227096   5.179   5.571   0.865
 8733SOL     OW27097   0.151   4.916   2.153
 8733SOL    HW127098   0.059   4.878   2.164
 8733SOL    HW227099   0.208   4.851   2.103
 8734SOL     OW27100   6.981   3.373   2.035
 8734SOL    HW127101   6.996   3.381   2.133
 8734SOL    HW227102   0.046   3.377   1.988
 8735SOL     OW27103   1.692   3.815   5.712
 8735SOL    HW127104   1.782   3.823   5.669
 8735SOL    HW227105   1.673   3.897   5.766
 8736SOL     OW27106   0.753   5.804   2.592
 8736SOL    HW127107   0.759   5.903   2.584
 8736SOL    HW227108   0.738   5.778   2.687
 8737SOL     OW27109   1.468   5.474   6.585
 8737SOL    HW127110   1.465   5.396   6.522
 8737SOL    HW227111   1.375   5.493   6.618
 8738SOL     OW27112   1.312   3.585   3.446
 8738SOL    HW127113   1.352   3.521   3.512
 8738SOL    HW227114   1.353   3.675   3.460
 8739SOL     OW27115   5.458   4.385   5.162
 8739SOL    HW127116   5.484   4.341   5.248
 8739SOL    HW227117   5.482   4.326   5.085
 8740SOL     OW27118   3.432   1.480   4.155
 8740SOL    HW127119   3.519   1.519   4.123
 8740SOL    HW227120   3.399   1.532   4.234
 8741SOL     OW27121   0.964   0.033   2.324
 8741SOL    HW127122   0.957   0.092   2.244
 8741SOL    HW227123   1.025   6.981   2.305
 8742SOL     OW27124   3.251   1.500   2.814
 8742SOL    HW127125   3.202   1.469   2.896
 8742SOL    HW227126   3.234   1.437   2.739
 8743SOL     OW27127   1.886   0.748   1.916
 8743SOL    HW127128   1.833   0.664   1.905
 8743SOL    HW227129   1.842   0.806   1.985
 8744SOL     OW27130   3.857   4.077   6.719
 8744SOL    HW127131   3.802   4.042   6.794
 8744SOL    HW227132   3.897   4.165   6.745
 8745SOL     OW27133   6.640   1.296   6.122
 8745SOL    HW127134   6.687   1.382   6.106
 8745SOL    HW227135   6.602   1.296   6.215
 8746SOL     OW27136   4.837   5.119   4.488
 8746SOL    HW127137   4.917   5.102   4.430
 8746SOL    HW227138   4.815   5.036   4.539
 8747SOL     OW27139   6.782   0.695   1.812
 8747SOL    HW127140   6.841   0.632   1.863
 8747SOL    HW227141   6.827   0.719   1.726
 8748SOL     OW27142   1.033   2.124   3.686
 8748SOL    HW127143   1.121   2.124   3.734
 8748SOL    HW227144   0.973   2.191   3.730
 8749SOL     OW27145   2.586   1.421   5.345
 8749SOL    HW127146   2.644   1.420   5.427
 8749SOL    HW227147   2.557   1.515   5.325
 8750SOL     OW27148   4.336   2.746   6.133
 8750SOL    HW127149   4.335   2.647   6.146
 8750SOL    HW227150   4.299   2.790   6.215
 8751SOL     OW27151   0.426   6.340   2.283
 8751SOL    HW127152   0.488   6.342   2.362
 8751SOL    HW227153   0.333   6.319   2.314
 8752SOL     OW27154   4.618   3.190   6.721
 8752SOL    HW127155   4.542   3.153   6.775
 8752SOL    HW227156   4.676   3.246   6.780
 8753SOL     OW27157   1.596   3.174   0.038
 8753SOL    HW127158   1.554   3.263   0.055
 8753SOL    HW227159   1.529   3.113   7.020
 8754SOL     OW27160   2.862   5.370   6.887
 8754SOL    HW127161   2.894   5.440   6.823
 8754SOL    HW227162   2.909   5.284   6.870
 8755SOL     OW27163   0.231   1.702   2.338
 8755SOL    HW127164   0.320   1.695   2.292
 8755SOL    HW227165   0.163   1.736   2.273
 8756SOL     OW27166   2.099   2.558   3.580
 8756SOL    HW127167   2.163   2.631   3.559
 8756SOL    HW227168   2.041   2.539   3.501
 8757SOL     OW27169   4.953   6.242   5.233
 8757SOL    HW127170   4.868   6.219   5.187
 8757SOL    HW227171   4.968   6.178   5.308
 8758SOL     OW27172   3.775   0.021   3.908
 8758SOL    HW127173   3.677   0.037   3.919
 8758SOL    HW227174   3.826   0.104   3.930
 8759SOL     OW27175   6.337   1.096   0.503
 8759SOL    HW127176   6.238   1.108   0.495
 8759SOL    HW227177   6.382   1.130   0.421
 8760SOL     OW27178   2.041   2.212   4.572
 8760SOL    HW127179   1.971   2.206   4.501
 8760SOL    HW227180   2.012   2.278   4.641
 8761SOL     OW27181   4.569   0.951   2.202
 8761SOL    HW127182   4.662   0.915   2.215
 8761SOL    HW227183   4.570   1.025   2.135
 8762SOL     OW27184   1.396   4.977   3.081
 8762SOL    HW127185   1.411   4.978   2.982
 8762SOL    HW227186   1.315   5.032   3.103
 8763SOL     OW27187   0.402   1.004   5.668
 8763SOL    HW127188   0.392   1.094   5.624
 8763SOL    HW227189   0.353   0.936   5.613
 8764SOL     OW27190   3.626   4.742   5.579
 8764SOL    HW127191   3.677   4.785   5.504
 8764SOL    HW227192   3.666   4.652   5.600
 8765SOL     OW27193   5.168   6.504   4.802
 8765SOL    HW127194   5.194   6.572   4.870
 8765SOL    HW227195   5.074   6.520   4.773
 8766SOL     OW27196   4.578   4.651   5.679
 8766SOL    HW127197   4.571   4.630   5.776
 8766SOL    HW227198   4.673   4.640   5.649
 8767SOL     OW27199   3.230   0.685   3.585
 8767SOL    HW127200   3.212   0.703   3.682
 8767SOL    HW227201   3.268   0.767   3.542
 8768SOL     OW27202   6.641   2.562   0.558
 8768SOL    HW127203   6.720   2.506   0.534
 8768SOL    HW227204   6.639   2.576   0.657
 8769SOL     OW27205   7.010   1.165   0.438
 8769SOL    HW127206   0.033   1.139   0.354
 8769SOL    HW227207   6.993   1.083   0.493
 8770SOL     OW27208   4.927   3.448   2.373
 8770SOL    HW127209   4.998   3.519   2.375
 8770SOL    HW227210   4.938   3.393   2.291
 8771SOL     OW27211   0.120   3.113   6.515
 8771SOL    HW127212   0.165   3.175   6.579
 8771SOL    HW227213   0.021   3.128   6.518
 8772SOL     OW27214   5.559   0.172   4.192
 8772SOL    HW127215   5.638   0.121   4.157
 8772SOL    HW227216   5.477   0.115   4.187
 8773SOL     OW27217   0.165   1.433   4.311
 8773SOL    HW127218   0.102   1.511   4.304
 8773SOL    HW227219   0.129   1.357   4.257
 8774SOL     OW27220   1.720   0.413   0.657
 8774SOL    HW127221   1.637   0.406   0.603
 8774SOL    HW227222   1.799   0.394   0.600
 8775SOL     OW27223   5.170   2.068   4.508
 8775SOL    HW127224   5.171   2.096   4.412
 8775SOL    HW227225   5.089   2.105   4.553
 8776SOL     OW27226   4.658   3.020   0.242
 8776SOL    HW127227   4.623   3.077   0.167
 8776SOL    HW227228   4.729   3.071   0.292
 8777SOL     OW27229   1.105   1.979   3.467
 8777SOL    HW127230   1.181   1.936   3.517
 8777SOL    HW227231   1.068   2.054   3.521
 8778SOL     OW27232   4.220   4.579   5.947
 8778SOL    HW127233   4.194   4.509   6.014
 8778SOL    HW227234   4.169   4.663   5.965
 8779SOL     OW27235   3.550   4.929   3.307
 8779SOL    HW127236   3.633   4.894   3.350
 8779SOL    HW227237   3.471   4.904   3.363
 8780SOL     OW27238   6.322   5.387   3.227
 8780SOL    HW127239   6.385   5.459   3.199
 8780SOL    HW227240   6.283   5.343   3.146
 8781SOL     OW27241   3.945   6.172   2.394
 8781SOL    HW127242   3.938   6.146   2.298
 8781SOL    HW227243   3.878   6.120   2.448
 8782SOL     OW27244   4.679   0.594   1.704
 8782SOL    HW127245   4.626   0.518   1.666
 8782SOL    HW227246   4.617   0.657   1.751
 8783SOL     OW27247   4.925   3.316   5.021
 8783SOL    HW127248   4.878   3.403   5.009
 8783SOL    HW227249   4.890   3.249   4.955
 8784SOL     OW27250   5.688   6.513   0.655
 8784SOL    HW127251   5.620   6.586   0.657
 8784SOL    HW227252   5.687   6.465   0.743
 8785SOL     OW27253   0.765   5.647   6.027
 8785SOL    HW127254   0.743   5.597   6.110
 8785SOL    HW227255   0.852   5.695   6.040
 8786SOL     OW27256   3.977   1.828   2.154
 8786SOL    HW127257   3.933   1.763   2.092
 8786SOL    HW227258   3.957   1.922   2.124
 8787SOL     OW27259   3.691   0.488   1.599
 8787SOL    HW127260   3.621   0.522   1.535
 8787SOL    HW227261   3.770   0.456   1.548
 8788SOL     OW27262   0.628   0.055   4.622
 8788SOL    HW127263   0.620   0.146   4.581
 8788SOL    HW227264   0.594   7.011   4.557
 8789SOL     OW27265   0.413   3.060   4.740
 8789SOL    HW127266   0.477   3.133   4.718
 8789SOL    HW227267   0.454   2.999   4.808
 8790SOL     OW27268   5.474   2.781   6.443
 8790SOL    HW127269   5.566   2.819   6.453
 8790SOL    HW227270   5.466   2.698   6.498
 8791SOL     OW27271   4.038   5.511   5.321
 8791SOL    HW127272   4.126   5.489   5.278
 8791SOL    HW227273   4.031   5.464   5.409
 8792SOL     OW27274   5.143   5.431   1.351
 8792SOL    HW127275   5.175   5.476   1.267
 8792SOL    HW227276   5.212   5.367   1.383
 8793SOL     OW27277   0.287   4.723   4.460
 8793SOL    HW127278   0.258   4.691   4.550
 8793SOL    HW227279   0.380   4.760   4.466
 8794SOL     OW27280   0.346   0.320   1.509
 8794SOL    HW127281   0.323   0.369   1.594
 8794SOL    HW227282   0.439   0.344   1.481
 8795SOL     OW27283   1.685   5.571   5.408
 8795SOL    HW127284   1.744   5.650   5.393
 8795SOL    HW227285   1.702   5.534   5.499
 8796SOL     OW27286   0.056   3.725   3.547
 8796SOL    HW127287   0.032   3.629   3.531
 8796SOL    HW227288   0.150   3.732   3.580
 8797SOL     OW27289   5.783   6.846   3.979
 8797SOL    HW127290   5.843   6.886   3.910
 8797SOL    HW227291   5.694   6.824   3.937
 8798SOL     OW27292   4.293   6.365   5.870
 8798SOL    HW127293   4.305   6.450   5.819
 8798SOL    HW227294   4.383   6.324   5.887
 8799SOL     OW27295   2.258   5.287   1.982
 8799SOL    HW127296   2.242   5.287   1.883
 8799SOL    HW227297   2.210   5.209   2.023
 8800SOL     OW27298   6.964   5.753   5.240
 8800SOL    HW127299   7.022   5.795   5.310
 8800SOL    HW227300   7.018   5.733   5.159
 8801SOL     OW27301   5.960   2.294   5.311
 8801SOL    HW127302   6.049   2.271   5.351
 8801SOL    HW227303   5.904   2.340   5.380
 8802SOL     OW27304   1.629   6.324   5.525
 8802SOL    HW127305   1.547   6.268   5.510
 8802SOL    HW227306   1.652   6.323   5.622
 8803SOL     OW27307   6.373   0.424   6.111
 8803SOL    HW127308   6.396   0.477   6.193
 8803SOL    HW227309   6.335   0.335   6.138
 8804SOL     OW27310   1.348   5.622   2.057
 8804SOL    HW127311   1.292   5.540   2.061
 8804SOL    HW227312   1.296   5.697   2.016
 8805SOL     OW27313   4.913   5.494   2.573
 8805SOL    HW127314   4.986   5.555   2.543
 8805SOL    HW227315   4.905   5.498   2.673
 8806SOL     OW27316   2.127   6.848   0.257
 8806SOL    HW127317   2.223   6.827   0.241
 8806SOL    HW227318   2.100   6.815   0.347
 8807SOL     OW27319   4.991   2.460   1.049
 8807SOL    HW127320   4.945   2.482   1.135
 8807SOL    HW227321   5.058   2.531   1.027
 8808SOL     OW27322   2.433   2.130   0.947
 8808SOL    HW127323   2.368   2.129   1.023
 8808SOL    HW227324   2.384   2.146   0.861
 8809SOL     OW27325   1.404   3.824   3.397
 8809SOL    HW127326   1.391   3.907   3.343
 8809SOL    HW227327   1.502   3.803   3.404
 8810SOL     OW27328   0.207   1.376   5.575
 8810SOL    HW127329   0.220   1.355   5.672
 8810SOL    HW227330   0.274   1.444   5.546
 8811SOL     OW27331   4.216   5.953   2.211
 8811SOL    HW127332   4.304   5.997   2.194
 8811SOL    HW227333   4.212   5.924   2.307
 8812SOL     OW27334   3.840   1.363   6.662
 8812SOL    HW127335   3.845   1.320   6.753
 8812SOL    HW227336   3.877   1.455   6.667
 8813SOL     OW27337   2.532   4.494   3.228
 8813SOL    HW127338   2.473   4.422   3.265
 8813SOL    HW227339   2.558   4.557   3.302
 8814SOL     OW27340   5.671   6.806   6.724
 8814SOL    HW127341   5.678   6.710   6.697
 8814SOL    HW227342   5.580   6.840   6.703
 8815SOL     OW27343   5.270   1.217   0.337
 8815SOL    HW127344   5.224   1.153   0.399
 8815SOL    HW227345   5.298   1.168   0.254
 8816SOL     OW27346   0.648   6.391   5.368
 8816SOL    HW127347   0.567   6.344   5.401
 8816SOL    HW227348   0.659   6.373   5.270
 8817SOL     OW27349   1.553   3.058   4.165
 8817SOL    HW127350   1.605   3.075   4.082
 8817SOL    HW227351   1.466   3.016   4.142
 8818SOL     OW27352   2.337   6.791   4.030
 8818SOL    HW127353   2.418   6.748   3.989
 8818SOL    HW227354   2.337   6.888   4.009
 8819SOL     OW27355   5.372   4.302   6.113
 8819SOL    HW127356   5.367   4.360   6.195
 8819SOL    HW227357   5.372   4.206   6.141
 8820SOL     OW27358   3.330   0.853   4.355
 8820SOL    HW127359   3.288   0.855   4.264
 8820SOL    HW227360   3.398   0.780   4.359
 8821SOL     OW27361   0.921   4.666   0.393
 8821SOL    HW127362   0.928   4.730   0.317
 8821SOL    HW227363   0.867   4.707   0.467
 8822SOL     OW27364   6.763   6.474   3.752
 8822SOL    HW127365   6.690   6.539   3.729
 8822SOL    HW227366   6.821   6.461   3.672
 8823SOL     OW27367   3.637   1.161   2.955
 8823SOL    HW127368   3.612   1.095   3.026
 8823SOL    HW227369   3.727   1.138   2.919
 8824SOL     OW27370   2.353   0.988   1.667
 8824SOL    HW127371   2.324   1.009   1.574
 8824SOL    HW227372   2.278   1.007   1.730
 8825SOL     OW27373   0.099   0.050   0.046
 8825SOL    HW127374   0.170   7.016   0.006
 8825SOL    HW227375   0.142   0.128   0.092
 8826SOL     OW27376   0.813   3.288   0.962
 8826SOL    HW127377   0.882   3.302   1.034
 8826SOL    HW227378   0.852   3.234   0.888
 8827SOL     OW27379   4.220   0.146   2.465
 8827SOL    HW127380   4.219   0.221   2.398
 8827SOL    HW227381   4.285   0.076   2.436
 8828SOL     OW27382   4.208   3.080   6.145
 8828SOL    HW127383   4.174   3.052   6.055
 8828SOL    HW227384   4.303   3.052   6.154
 8829SOL     OW27385   7.022   1.809   2.004
 8829SOL    HW127386   6.967   1.774   1.928
 8829SOL    HW227387   0.088   1.836   1.971
 8830SOL     OW27388   2.961   1.931   3.375
 8830SOL    HW127389   2.981   1.880   3.291
 8830SOL    HW227390   2.911   1.871   3.439
 8831SOL     OW27391   0.195   2.287   1.780
 8831SOL    HW127392   0.229   2.244   1.863
 8831SOL    HW227393   0.097   2.270   1.770
 8832SOL     OW27394   6.719   0.125   4.229
 8832SOL    HW127395   6.698   0.212   4.184
 8832SOL    HW227396   6.730   0.054   4.160
 8833SOL     OW27397   3.607   2.535   0.500
 8833SOL    HW127398   3.530   2.522   0.562
 8833SOL    HW227399   3.641   2.445   0.471
 8834SOL     OW27400   5.324   3.951   5.508
 8834SOL    HW127401   5.318   3.851   5.504
 8834SOL    HW227402   5.238   3.991   5.476
 8835SOL     OW27403   5.975   0.835   5.384
 8835SOL    HW127404   5.932   0.836   5.294
 8835SOL    HW227405   6.014   0.925   5.404
 8836SOL     OW27406   5.160   1.772   6.928
 8836SOL    HW127407   5.127   1.790   7.021
 8836SOL    HW227408   5.101   1.819   6.862
 8837SOL     OW27409   5.630   6.787   1.482
 8837SOL    HW127410   5.600   6.792   1.387
 8837SOL    HW227411   5.691   6.864   1.501
 8838SOL     OW27412   0.142   4.127   2.938
 8838SOL    HW127413   0.139   4.033   2.970
 8838SOL    HW227414   0.154   4.189   3.015
 8839SOL     OW27415   5.114   6.296   3.270
 8839SOL    HW127416   5.211   6.295   3.247
 8839SOL    HW227417   5.102   6.313   3.367
 8840SOL     OW27418   0.182   0.928   1.406
 8840SOL    HW127419   0.123   0.984   1.348
 8840SOL    HW227420   0.214   0.849   1.354
 8841SOL     OW27421   3.486   1.663   1.933
 8841SOL    HW127422   3.402   1.677   1.986
 8841SOL    HW227423   3.561   1.643   1.996
 8842SOL     OW27424   3.946   3.119   4.220
 8842SOL    HW127425   3.902   3.043   4.268
 8842SOL    HW227426   3.886   3.199   4.223
 8843SOL     OW27427   2.120   4.333   5.483
 8843SOL    HW127428   2.163   4.247   5.454
 8843SOL    HW227429   2.094   4.327   5.579
 8844SOL     OW27430   5.127   1.792   5.238
 8844SOL    HW127431   5.046   1.747   5.200
 8844SOL    HW227432   5.099   1.855   5.311
 8845SOL     OW27433   1.098   5.400   1.761
 8845SOL    HW127434   1.073   5.445   1.846
 8845SOL    HW227435   1.165   5.328   1.779
 8846SOL     OW27436   5.448   4.847   2.959
 8846SOL    HW127437   5.548   4.838   2.961
 8846SOL    HW227438   5.412   4.829   3.050
 8847SOL     OW27439   2.459   2.060   2.693
 8847SOL    HW127440   2.410   2.119   2.757
 8847SOL    HW227441   2.547   2.034   2.733
 8848SOL     OW27442   3.607   1.797   1.163
 8848SOL    HW127443   3.574   1.738   1.237
 8848SOL    HW227444   3.530   1.824   1.105
 8849SOL     OW27445   3.283   5.483   4.379
 8849SOL    HW127446   3.307   5.408   4.441
 8849SOL    HW227447   3.238   5.447   4.298
 8850SOL     OW27448   3.273   1.983   0.648
 8850SOL    HW127449   3.195   1.920   0.654
 8850SOL    HW227450   3.350   1.936   0.606
 8851SOL     OW27451   0.651   4.938   3.320
 8851SOL    HW127452   0.650   4.863   3.253
 8851SOL    HW227453   0.579   5.004   3.298
 8852SOL     OW27454   5.504   2.702   5.854
 8852SOL    HW127455   5.448   2.642   5.797
 8852SOL    HW227456   5.445   2.763   5.906
 8853SOL     OW27457   4.299   0.823   5.514
 8853SOL    HW127458   4.342   0.890   5.453
 8853SOL    HW227459   4.202   0.813   5.490
 8854SOL     OW27460   1.857   2.121   5.907
 8854SOL    HW127461   1.915   2.079   5.977
 8854SOL    HW227462   1.908   2.130   5.822
 8855SOL     OW27463   6.069   5.860   6.690
 8855SOL    HW127464   6.153   5.910   6.709
 8855SOL    HW227465   5.996   5.893   6.750
 8856SOL     OW27466   6.015   1.177   5.024
 8856SOL    HW127467   5.951   1.193   5.099
 8856SOL    HW227468   5.966   1.177   4.937
 8857SOL     OW27469   6.019   1.903   3.852
 8857SOL    HW127470   5.921   1.902   3.834
 8857SOL    HW227471   6.046   1.993   3.885
 8858SOL     OW27472   0.798   3.883   6.044
 8858SOL    HW127473   0.768   3.904   5.951
 8858SOL    HW227474   0.878   3.940   6.066
 8859SOL     OW27475   1.204   6.063   5.522
 8859SOL    HW127476   1.210   5.965   5.540
 8859SOL    HW227477   1.121   6.082   5.468
 8860SOL     OW27478   1.114   2.066   2.678
 8860SOL    HW127479   1.134   2.160   2.651
 8860SOL    HW227480   1.083   2.065   2.773
 8861SOL     OW27481   4.298   3.457   0.561
 8861SOL    HW127482   4.223   3.496   0.615
 8861SOL    HW227483   4.383   3.464   0.612
 8862SOL     OW27484   5.788   1.480   4.518
 8862SOL    HW127485   5.807   1.538   4.439
 8862SOL    HW227486   5.869   1.478   4.577
 8863SOL     OW27487   2.031   5.899   4.877
 8863SOL    HW127488   2.051   5.981   4.931
 8863SOL    HW227489   2.113   5.873   4.826
 8864SOL     OW27490   1.826   3.100   6.183
 8864SOL    HW127491   1.862   3.055   6.265
 8864SOL    HW227492   1.890   3.170   6.153
 8865SOL     OW27493   2.630   2.115   5.716
 8865SOL    HW127494   2.679   2.164   5.788
 8865SOL    HW227495   2.696   2.069   5.657
 8866SOL     OW27496   3.738   6.797   3.420
 8866SOL    HW127497   3.731   6.717   3.360
 8866SOL    HW227498   3.670   6.789   3.494
 8867SOL     OW27499   5.845   2.125   3.273
 8867SOL    HW127500   5.798   2.103   3.188
 8867SOL    HW227501   5.871   2.221   3.274
 8868SOL     OW27502   4.948   4.323   0.935
 8868SOL    HW127503   4.878   4.300   1.002
 8868SOL    HW227504   4.905   4.361   0.853
 8869SOL     OW27505   4.828   3.227   3.188
 8869SOL    HW127506   4.784   3.261   3.105
 8869SOL    HW227507   4.831   3.127   3.185
 8870SOL     OW27508   4.192   1.763   0.754
 8870SOL    HW127509   4.161   1.746   0.847
 8870SOL    HW227510   4.159   1.690   0.694
 8871SOL     OW27511   2.298   1.676   3.468
 8871SOL    HW127512   2.276   1.738   3.392
 8871SOL    HW227513   2.270   1.583   3.444
 8872SOL     OW27514   1.835   3.997   4.493
 8872SOL    HW127515   1.847   4.010   4.591
 8872SOL    HW227516   1.764   4.059   4.459
 8873SOL     OW27517   0.557   5.255   4.378
 8873SOL    HW127518   0.649   5.293   4.380
 8873SOL    HW227519   0.556   5.166   4.425
 8874SOL     OW27520   2.438   0.797   0.754
 8874SOL    HW127521   2.446   0.894   0.733
 8874SOL    HW227522   2.528   0.760   0.777
 8875SOL     OW27523   1.378   2.830   4.430
 8875SOL    HW127524   1.345   2.922   4.450
 8875SOL    HW227525   1.472   2.820   4.465
 8876SOL     OW27526   0.867   0.755   4.757
 8876SOL    HW127527   0.948   0.763   4.699
 8876SOL    HW227528   0.785   0.755   4.700
 8877SOL     OW27529   3.031   0.726   4.305
 8877SOL    HW127530   3.097   0.787   4.349
 8877SOL    HW227531   2.943   0.733   4.352
 8878SOL     OW27532   0.013   4.044   6.993
 8878SOL    HW127533   6.968   3.972   6.998
 8878SOL    HW227534   0.060   4.039   6.905
 8879SOL     OW27535   5.631   6.383   6.910
 8879SOL    HW127536   5.599   6.359   7.002
 8879SOL    HW227537   5.649   6.482   6.906
 8880SOL     OW27538   6.764   4.639   4.338
 8880SOL    HW127539   6.840   4.593   4.383
 8880SOL    HW227540   6.771   4.628   4.239
 8881SOL     OW27541   0.318   1.283   1.699
 8881SOL    HW127542   0.338   1.314   1.792
 8881SOL    HW227543   0.219   1.271   1.689
 8882SOL     OW27544   5.378   2.014   6.637
 8882SOL    HW127545   5.404   2.054   6.549
 8882SOL    HW227546   5.448   2.036   6.705
 8883SOL     OW27547   6.188   0.503   5.692
 8883SOL    HW127548   6.259   0.498   5.762
 8883SOL    HW227549   6.101   0.525   5.736
 8884SOL     OW27550   5.669   0.066   6.017
 8884SOL    HW127551   5.723   0.132   5.965
 8884SOL    HW227552   5.729   0.013   6.077
 8885SOL     OW27553   5.448   3.827   1.776
 8885SOL    HW127554   5.509   3.871   1.710
 8885SOL    HW227555   5.490   3.743   1.810
 8886SOL     OW27556   2.794   6.696   6.004
 8886SOL    HW127557   2.733   6.715   6.082
 8886SOL    HW227558   2.740   6.694   5.920
 8887SOL     OW27559   3.087   1.002   1.127
 8887SOL    HW127560   3.123   0.983   1.036
 8887SOL    HW227561   3.140   1.075   1.170
 8888SOL     OW27562   2.608   1.419   1.817
 8888SOL    HW127563   2.619   1.446   1.721
 8888SOL    HW227564   2.689   1.368   1.847
 8889SOL     OW27565   4.583   6.923   4.791
 8889SOL    HW127566   4.562   6.867   4.871
 8889SOL    HW227567   4.664   6.979   4.811
 8890SOL     OW27568   0.560   5.424   4.843
 8890SOL    HW127569   0.634   5.434   4.910
 8890SOL    HW227570   0.590   5.362   4.771
 8891SOL     OW27571   4.971   2.970   6.509
 8891SOL    HW127572   4.888   2.935   6.554
 8891SOL    HW227573   5.043   2.901   6.516
 8892SOL     OW27574   1.749   0.672   3.318
 8892SOL    HW127575   1.696   0.672   3.233
 8892SOL    HW227576   1.694   0.633   3.392
 8893SOL     OW27577   0.313   1.441   0.743
 8893SOL    HW127578   0.275   1.355   0.711
 8893SOL    HW227579   0.252   1.516   0.719
 8894SOL     OW27580   4.345   2.430   6.168
 8894SOL    HW127581   4.245   2.426   6.174
 8894SOL    HW227582   4.386   2.362   6.229
 8895SOL     OW27583   0.906   6.789   1.757
 8895SOL    HW127584   0.860   6.700   1.754
 8895SOL    HW227585   1.001   6.777   1.728
 8896SOL     OW27586   1.914   4.093   4.748
 8896SOL    HW127587   1.872   4.183   4.735
 8896SOL    HW227588   2.010   4.104   4.772
 8897SOL     OW27589   1.532   1.542   1.553
 8897SOL    HW127590   1.573   1.574   1.638
 8897SOL    HW227591   1.594   1.478   1.508
 8898SOL     OW27592   6.085   3.553   4.312
 8898SOL    HW127593   6.112   3.556   4.215
 8898SOL    HW227594   6.132   3.626   4.361
 8899SOL     OW27595   1.994   4.847   0.177
 8899SOL    HW127596   2.080   4.819   0.134
 8899SOL    HW227597   2.015   4.900   0.260
 8900SOL     OW27598   4.643   2.366   3.084
 8900SOL    HW127599   4.638   2.275   3.042
 8900SOL    HW227600   4.552   2.393   3.116
 8901SOL     OW27601   1.368   0.305   2.522
 8901SOL    HW127602   1.322   0.312   2.434
 8901SOL    HW227603   1.301   0.285   2.593
 8902SOL     OW27604   1.601   5.681   6.134
 8902SOL    HW127605   1.544   5.655   6.213
 8902SOL    HW227606   1.621   5.600   6.079
 8903SOL     OW27607   1.976   1.637   3.917
 8903SOL    HW127608   1.899   1.587   3.957
 8903SOL    HW227609   1.954   1.662   3.823
 8904SOL     OW27610   0.040   5.781   4.016
 8904SOL    HW127611   6.980   5.763   4.066
 8904SOL    HW227612   0.019   5.836   3.935
 8905SOL     OW27613   2.468   3.106   5.665
 8905SOL    HW127614   2.398   3.178   5.666
 8905SOL    HW227615   2.522   3.110   5.749
 8906SOL     OW27616   6.841   6.032   5.937
 8906SOL    HW127617   6.886   6.046   5.849
 8906SOL    HW227618   6.890   6.084   6.008
 8907SOL     OW27619   3.232   2.633   5.326
 8907SOL    HW127620   3.219   2.551   5.271
 8907SOL    HW227621   3.329   2.657   5.326
 8908SOL     OW27622   1.430   2.116   1.435
 8908SOL    HW127623   1.356   2.181   1.451
 8908SOL    HW227624   1.472   2.090   1.522
 8909SOL     OW27625   2.427   0.930   6.160
 8909SOL    HW127626   2.386   0.938   6.070
 8909SOL    HW227627   2.516   0.976   6.162
 8910SOL     OW27628   2.650   3.125   6.717
 8910SOL    HW127629   2.590   3.139   6.796
 8910SOL    HW227630   2.694   3.212   6.694
 8911SOL     OW27631   3.414   2.170   4.550
 8911SOL    HW127632   3.471   2.208   4.477
 8911SOL    HW227633   3.444   2.205   4.638
 8912SOL     OW27634   4.552   1.865   6.254
 8912SOL    HW127635   4.549   1.918   6.339
 8912SOL    HW227636   4.512   1.919   6.180
 8913SOL     OW27637   4.914   4.325   1.397
 8913SOL    HW127638   5.000   4.275   1.387
 8913SOL    HW227639   4.844   4.263   1.433
 8914SOL     OW27640   3.595   1.762   5.020
 8914SOL    HW127641   3.502   1.735   4.999
 8914SOL    HW227642   3.645   1.779   4.935
 8915SOL     OW27643   1.808   3.302   3.052
 8915SOL    HW127644   1.874   3.250   3.106
 8915SOL    HW227645   1.718   3.257   3.057
 8916SOL     OW27646   6.669   4.713   2.912
 8916SOL    HW127647   6.573   4.694   2.889
 8916SOL    HW227648   6.673   4.787   2.979
 8917SOL     OW27649   6.197   6.158   6.935
 8917SOL    HW127650   6.156   6.166   0.002
 8917SOL    HW227651   6.241   6.245   6.911
 8918SOL     OW27652   5.349   6.036   6.157
 8918SOL    HW127653   5.276   6.090   6.200
 8918SOL    HW227654   5.416   6.011   6.227
 8919SOL     OW27655   3.639   4.850   1.168
 8919SOL    HW127656   3.587   4.779   1.121
 8919SOL    HW227657   3.685   4.908   1.101
 8920SOL     OW27658   6.213   5.000   5.787
 8920SOL    HW127659   6.131   5.055   5.778
 8920SOL    HW227660   6.294   5.057   5.770
 8921SOL     OW27661   1.205   0.771   3.936
 8921SOL    HW127662   1.150   0.807   3.860
 8921SOL    HW227663   1.179   0.676   3.954
 8922SOL     OW27664   1.585   4.783   0.975
 8922SOL    HW127665   1.601   4.749   0.883
 8922SOL    HW227666   1.518   4.724   1.021
 8923SOL     OW27667   1.766   4.078   6.415
 8923SOL    HW127668   1.808   4.155   6.463
 8923SOL    HW227669   1.751   4.104   6.319
 8924SOL     OW27670   3.431   5.012   5.089
 8924SOL    HW127671   3.340   4.969   5.084
 8924SOL    HW227672   3.421   5.111   5.088
 8925SOL     OW27673   6.788   7.004   2.046
 8925SOL    HW127674   6.836   6.940   2.106
 8925SOL    HW227675   6.775   0.067   2.093
 8926SOL     OW27676   5.368   2.163   2.061
 8926SOL    HW127677   5.459   2.192   2.089
 8926SOL    HW227678   5.374   2.110   1.976
 8927SOL     OW27679   2.235   2.653   4.851
 8927SOL    HW127680   2.329   2.631   4.823
 8927SOL    HW227681   2.181   2.673   4.769
 8928SOL     OW27682   0.636   0.370   5.932
 8928SOL    HW127683   0.541   0.343   5.914
 8928SOL    HW227684   0.663   0.443   5.870
 8929SOL     OW27685   7.011   3.569   4.057
 8929SOL    HW127686   7.009   3.636   4.132
 8929SOL    HW227687   7.013   3.617   3.969
 8930SOL     OW27688   1.392   4.988   4.612
 8930SOL    HW127689   1.430   5.025   4.697
 8930SOL    HW227690   1.344   5.060   4.563
 8931SOL     OW27691   4.639   1.486   1.295
 8931SOL    HW127692   4.668   1.426   1.369
 8931SOL    HW227693   4.679   1.577   1.308
 8932SOL     OW27694   6.103   0.484   6.384
 8932SOL    HW127695   6.099   0.433   6.298
 8932SOL    HW227696   6.125   0.421   6.459
 8933SOL     OW27697   1.789   0.524   4.781
 8933SOL    HW127698   1.733   0.475   4.849
 8933SOL    HW227699   1.860   0.463   4.746
 8934SOL     OW27700   3.352   5.665   2.873
 8934SOL    HW127701   3.282   5.640   2.806
 8934SOL    HW227702   3.399   5.582   2.904
 8935SOL     OW27703   4.208   2.213   2.644
 8935SOL    HW127704   4.263   2.201   2.561
 8935SOL    HW227705   4.124   2.160   2.636
 8936SOL     OW27706   0.716   5.007   1.440
 8936SOL    HW127707   0.771   5.088   1.423
 8936SOL    HW227708   0.727   4.942   1.365
 8937SOL     OW27709   0.096   6.583   3.870
 8937SOL    HW127710   0.159   6.631   3.808
 8937SOL    HW227711   0.119   6.486   3.871
 8938SOL     OW27712   6.552   1.038   0.682
 8938SOL    HW127713   6.610   1.118   0.668
 8938SOL    HW227714   6.479   1.037   0.614
 8939SOL     OW27715   7.023   2.488   3.967
 8939SOL    HW127716   0.056   2.489   4.050
 8939SOL    HW227717   7.002   2.582   3.940
 8940SOL     OW27718   6.692   3.035   1.016
 8940SOL    HW127719   6.609   3.016   0.963
 8940SOL    HW227720   6.725   2.950   1.057
 8941SOL     OW27721   5.207   2.391   2.114
 8941SOL    HW127722   5.265   2.323   2.069
 8941SOL    HW227723   5.181   2.461   2.048
 8942SOL     OW27724   6.398   4.544   3.653
 8942SOL    HW127725   6.462   4.618   3.632
 8942SOL    HW227726   6.333   4.535   3.578
 8943SOL     OW27727   4.537   4.038   6.870
 8943SOL    HW127728   4.601   4.114   6.882
 8943SOL    HW227729   4.525   3.990   6.957
 8944SOL     OW27730   4.888   5.091   4.114
 8944SOL    HW127731   4.919   5.168   4.058
 8944SOL    HW227732   4.860   5.016   4.055
 8945SOL     OW27733   6.031   4.242   5.197
 8945SOL    HW127734   5.965   4.249   5.271
 8945SOL    HW227735   6.007   4.164   5.138
 8946SOL     OW27736   5.219   1.200   4.391
 8946SOL    HW127737   5.273   1.282   4.410
 8946SOL    HW227738   5.142   1.195   4.455
 8947SOL     OW27739   1.415   5.243   5.972
 8947SOL    HW127740   1.411   5.163   6.031
 8947SOL    HW227741   1.381   5.219   5.881
 8948SOL     OW27742   6.594   0.448   3.402
 8948SOL    HW127743   6.668   0.474   3.464
 8948SOL    HW227744   6.539   0.529   3.380
 8949SOL     OW27745   2.959   6.118   6.922
 8949SOL    HW127746   2.971   6.174   7.004
 8949SOL    HW227747   3.024   6.147   6.851
 8950SOL     OW27748   4.739   4.093   1.473
 8950SOL    HW127749   4.639   4.091   1.469
 8950SOL    HW227750   4.776   4.047   1.391
 8951SOL     OW27751   1.793   1.580   4.481
 8951SOL    HW127752   1.833   1.628   4.560
 8951SOL    HW227753   1.694   1.586   4.486
 8952SOL     OW27754   2.029   4.963   3.817
 8952SOL    HW127755   1.991   4.963   3.910
 8952SOL    HW227756   2.091   5.041   3.807
 8953SOL     OW27757   2.115   5.089   2.109
 8953SOL    HW127758   2.152   5.017   2.051
 8953SOL    HW227759   2.103   5.055   2.202
 8954SOL     OW27760   1.239   5.271   5.200
 8954SOL    HW127761   1.310   5.200   5.198
 8954SOL    HW227762   1.234   5.311   5.292
 8955SOL     OW27763   5.055   2.407   3.596
 8955SOL    HW127764   5.147   2.370   3.584
 8955SOL    HW227765   5.029   2.400   3.692
 8956SOL     OW27766   1.359   5.778   5.815
 8956SOL    HW127767   1.431   5.715   5.847
 8956SOL    HW227768   1.321   5.827   5.893
 8957SOL     OW27769   0.897   5.450   2.382
 8957SOL    HW127770   0.897   5.405   2.471
 8957SOL    HW227771   0.948   5.395   2.316
 8958SOL     OW27772   1.520   3.913   5.106
 8958SOL    HW127773   1.546   3.878   5.016
 8958SOL    HW227774   1.443   3.860   5.142
 8959SOL     OW27775   0.334   3.171   2.599
 8959SOL    HW127776   0.330   3.231   2.679
 8959SOL    HW227777   0.418   3.191   2.547
 8960SOL     OW27778   5.605   4.235   4.405
 8960SOL    HW127779   5.575   4.327   4.382
 8960SOL    HW227780   5.549   4.168   4.355
 8961SOL     OW27781   3.429   0.057   5.018
 8961SOL    HW127782   3.525   0.035   5.003
 8961SOL    HW227783   3.372   7.011   4.974
 8962SOL     OW27784   0.953   5.609   1.374
 8962SOL    HW127785   0.936   5.602   1.275
 8962SOL    HW227786   0.867   5.604   1.423
 8963SOL     OW27787   3.506   6.126   4.334
 8963SOL    HW127788   3.559   6.093   4.256
 8963SOL    HW227789   3.419   6.163   4.302
 8964SOL     OW27790   0.036   2.915   4.400
 8964SOL    HW127791   0.058   3.013   4.396
 8964SOL    HW227792   6.967   2.904   4.436
 8965SOL     OW27793   4.611   5.258   0.229
 8965SOL    HW127794   4.621   5.162   0.204
 8965SOL    HW227795   4.587   5.312   0.148
 8966SOL     OW27796   4.888   5.377   6.017
 8966SOL    HW127797   4.795   5.388   5.984
 8966SOL    HW227798   4.935   5.465   6.015
 8967SOL     OW27799   3.390   0.115   3.059
 8967SOL    HW127800   3.478   0.129   3.105
 8967SOL    HW227801   3.323   0.179   3.097
 8968SOL     OW27802   3.534   4.991   1.934
 8968SOL    HW127803   3.597   5.065   1.911
 8968SOL    HW227804   3.586   4.907   1.948
 8969SOL     OW27805   6.885   1.156   3.231
 8969SOL    HW127806   6.787   1.156   3.213
 8969SOL    HW227807   6.903   1.199   3.320
 8970SOL     OW27808   1.754   1.020   6.123
 8970SOL    HW127809   1.853   1.009   6.126
 8970SOL    HW227810   1.712   0.935   6.092
 8971SOL     OW27811   4.354   5.640   0.508
 8971SOL    HW127812   4.454   5.640   0.514
 8971SOL    HW227813   4.319   5.717   0.561
 8972SOL     OW27814   6.595   4.171   0.749
 8972SOL    HW127815   6.553   4.081   0.761
 8972SOL    HW227816   6.570   4.230   0.826
 8973SOL     OW27817   0.357   2.527   2.082
 8973SOL    HW127818   0.330   2.453   2.143
 8973SOL    HW227819   0.305   2.610   2.105
 8974SOL     OW27820   2.219   4.199   4.520
 8974SOL    HW127821   2.250   4.140   4.444
 8974SOL    HW227822   2.213   4.144   4.603
 8975SOL     OW27823   0.368   6.949   6.278
 8975SOL    HW127824   0.410   6.965   6.367
 8975SOL    HW227825   0.269   6.960   6.285
 8976SOL     OW27826   6.527   6.448   2.017
 8976SOL    HW127827   6.625   6.441   2.037
 8976SOL    HW227828   6.513   6.506   1.936
 8977SOL     OW27829   0.182   4.876   6.102
 8977SOL    HW127830   0.206   4.905   6.010
 8977SOL    HW227831   0.261   4.887   6.163
 8978SOL     OW27832   5.713   5.429   5.592
 8978SOL    HW127833   5.810   5.429   5.614
 8978SOL    HW227834   5.701   5.457   5.496
 8979SOL     OW27835   1.055   5.187   5.720
 8979SOL    HW127836   0.961   5.154   5.705
 8979SOL    HW227837   1.052   5.282   5.751
 8980SOL     OW27838   3.538   0.603   5.098
 8980SOL    HW127839   3.587   0.579   5.182
 8980SOL    HW227840   3.446   0.635   5.122
 8981SOL     OW27841   4.226   3.118   0.020
 8981SOL    HW127842   4.139   3.164   0.039
 8981SOL    HW227843   4.257   3.072   0.103
 8982SOL     OW27844   0.696   1.269   1.308
 8982SOL    HW127845   0.597   1.269   1.297
 8982SOL    HW227846   0.731   1.362   1.299
 8983SOL     OW27847   0.876   6.897   3.013
 8983SOL    HW127848   0.922   6.897   2.925
 8983SOL    HW227849   0.934   6.853   3.081
 8984SOL     OW27850   5.842   0.072   4.144
 8984SOL    HW127851   5.836   6.997   4.159
 8984SOL    HW227852   5.932   0.105   4.171
 8985SOL     OW27853   4.659   2.720   0.825
 8985SOL    HW127854   4.567   2.735   0.788
 8985SOL    HW227855   4.658   2.737   0.924
 8986SOL     OW27856   6.995   4.972   0.696
 8986SOL    HW127857   6.944   5.027   0.631
 8986SOL    HW227858   6.934   4.941   0.769
 8987SOL     OW27859   2.188   0.202   1.259
 8987SOL    HW127860   2.209   0.114   1.301
 8987SOL    HW227861   2.089   0.217   1.260
 8988SOL     OW27862   0.863   5.417   1.052
 8988SOL    HW127863   0.910   5.505   1.065
 8988SOL    HW227864   0.917   5.344   1.094
 8989SOL     OW27865   5.588   1.547   1.950
 8989SOL    HW127866   5.506   1.603   1.957
 8989SOL    HW227867   5.628   1.557   1.859
 8990SOL     OW27868   3.453   0.227   2.226
 8990SOL    HW127869   3.434   0.134   2.257
 8990SOL    HW227870   3.408   0.292   2.288
 8991SOL     OW27871   2.263   2.516   0.659
 8991SOL    HW127872   2.170   2.484   0.640
 8991SOL    HW227873   2.289   2.490   0.752
 8992SOL     OW27874   0.385   3.217   0.222
 8992SOL    HW127875   0.405   3.150   0.294
 8992SOL    HW227876   0.465   3.227   0.163
 8993SOL     OW27877   5.695   2.331   3.747
 8993SOL    HW127878   5.665   2.329   3.843
 8993SOL    HW227879   5.791   2.305   3.742
 8994SOL     OW27880   0.968   4.916   3.270
 8994SOL    HW127881   1.012   4.855   3.336
 8994SOL    HW227882   0.869   4.912   3.282
 8995SOL     OW27883   1.833   3.873   4.840
 8995SOL    HW127884   1.864   3.960   4.802
 8995SOL    HW227885   1.913   3.817   4.865
 8996SOL     OW27886   0.411   3.946   2.820
 8996SOL    HW127887   0.409   3.875   2.891
 8996SOL    HW227888   0.357   4.025   2.851
 8997SOL     OW27889   4.349   1.676   5.253
 8997SOL    HW127890   4.310   1.590   5.286
 8997SOL    HW227891   4.337   1.681   5.154
 8998SOL     OW27892   1.619   2.183   5.619
 8998SOL    HW127893   1.717   2.206   5.613
 8998SOL    HW227894   1.608   2.084   5.626
 8999SOL     OW27895   6.393   1.218   4.609
 8999SOL    HW127896   6.363   1.213   4.705
 8999SOL    HW227897   6.352   1.299   4.567
 9000SOL     OW27898   2.907   4.405   0.343
 9000SOL    HW127899   2.894   4.489   0.396
 9000SOL    HW227900   2.851   4.332   0.383
 9001SOL     OW27901   1.855   5.433   3.755
 9001SOL    HW127902   1.912   5.412   3.835
 9001SOL    HW227903   1.897   5.508   3.705
 9002SOL     OW27904   5.754   4.415   6.125
 9002SOL    HW127905   5.712   4.400   6.035
 9002SOL    HW227906   5.690   4.386   6.197
 9003SOL     OW27907   5.677   2.590   6.911
 9003SOL    HW127908   5.745   2.628   6.848
 9003SOL    HW227909   5.708   2.602   7.005
 9004SOL     OW27910   4.624   6.612   1.002
 9004SOL    HW127911   4.637   6.687   0.937
 9004SOL    HW227912   4.615   6.526   0.953
 9005SOL     OW27913   4.813   1.951   3.381
 9005SOL    HW127914   4.890   1.996   3.426
 9005SOL    HW227915   4.806   1.856   3.412
 9006SOL     OW27916   1.086   5.238   1.109
 9006SOL    HW127917   1.126   5.313   1.162
 9006SOL    HW227918   1.159   5.175   1.081
 9007SOL     OW27919   3.248   6.519   4.072
 9007SOL    HW127920   3.331   6.463   4.072
 9007SOL    HW227921   3.237   6.561   3.982
 9008SOL     OW27922   0.143   4.644   2.386
 9008SOL    HW127923   0.179   4.561   2.344
 9008SOL    HW227924   0.165   4.644   2.483
 9009SOL     OW27925   2.999   6.352   0.185
 9009SOL    HW127926   2.973   6.341   0.281
 9009SOL    HW227927   3.074   6.289   0.163
 9010SOL     OW27928   1.310   6.229   5.168
 9010SOL    HW127929   1.366   6.233   5.086
 9010SOL    HW227930   1.235   6.164   5.154
 9011SOL     OW27931   4.646   1.835   0.599
 9011SOL    HW127932   4.604   1.780   0.671
 9011SOL    HW227933   4.694   1.775   0.535
 9012SOL     OW27934   0.491   4.816   1.548
 9012SOL    HW127935   0.556   4.890   1.534
 9012SOL    HW227936   0.399   4.846   1.522
 9013SOL     OW27937   6.420   5.965   3.275
 9013SOL    HW127938   6.476   5.966   3.191
 9013SOL    HW227939   6.358   6.043   3.275
 9014SOL     OW27940   2.044   1.064   0.887
 9014SOL    HW127941   2.138   1.087   0.912
 9014SOL    HW227942   1.997   1.023   0.965
 9015SOL     OW27943   0.310   0.955   6.038
 9015SOL    HW127944   0.219   0.917   6.021
 9015SOL    HW227945   0.377   0.911   5.978
 9016SOL     OW27946   6.098   6.202   6.455
 9016SOL    HW127947   6.089   6.241   6.363
 9016SOL    HW227948   6.011   6.164   6.484
 9017SOL     OW27949   6.332   2.216   3.777
 9017SOL    HW127950   6.315   2.237   3.873
 9017SOL    HW227951   6.398   2.141   3.770
 9018SOL     OW27952   3.756   2.401   5.373
 9018SOL    HW127953   3.658   2.380   5.380
 9018SOL    HW227954   3.768   2.495   5.341
 9019SOL     OW27955   2.259   0.206   0.511
 9019SOL    HW127956   2.268   0.191   0.413
 9019SOL    HW227957   2.349   0.214   0.553
 9020SOL     OW27958   1.069   4.482   2.673
 9020SOL    HW127959   1.158   4.437   2.671
 9020SOL    HW227960   1.003   4.424   2.720
 9021SOL     OW27961   6.709   5.844   5.265
 9021SOL    HW127962   6.686   5.904   5.188
 9021SOL    HW227963   6.806   5.821   5.261
 9022SOL     OW27964   2.548   1.070   0.158
 9022SOL    HW127965   2.497   1.076   0.072
 9022SOL    HW227966   2.532   0.980   0.199
 9023SOL     OW27967   3.855   3.032   3.542
 9023SOL    HW127968   3.867   3.131   3.549
 9023SOL    HW227969   3.762   3.007   3.569
 9024SOL     OW27970   1.761   6.714   6.761
 9024SOL    HW127971   1.785   6.770   6.682
 9024SOL    HW227972   1.750   6.772   6.841
 9025SOL     OW27973   6.107   5.329   1.356
 9025SOL    HW127974   6.094   5.253   1.419
 9025SOL    HW227975   6.043   5.403   1.380
 9026SOL     OW27976   3.444   2.873   5.003
 9026SOL    HW127977   3.487   2.786   5.029
 9026SOL    HW227978   3.345   2.865   5.012
 9027SOL     OW27979   2.792   2.373   3.408
 9027SOL    HW127980   2.863   2.342   3.345
 9027SOL    HW227981   2.741   2.447   3.366
 9028SOL     OW27982   2.950   4.795   5.225
 9028SOL    HW127983   2.914   4.731   5.292
 9028SOL    HW227984   2.938   4.759   5.133
 9029SOL     OW27985   4.631   6.432   3.278
 9029SOL    HW127986   4.629   6.337   3.246
 9029SOL    HW227987   4.555   6.482   3.236
 9030SOL     OW27988   2.383   0.651   2.240
 9030SOL    HW127989   2.434   0.714   2.182
 9030SOL    HW227990   2.347   0.700   2.319
 9031SOL     OW27991   2.704   5.911   6.134
 9031SOL    HW127992   2.690   6.008   6.155
 9031SOL    HW227993   2.796   5.883   6.161
 9032SOL     OW27994   2.407   1.698   1.616
 9032SOL    HW127995   2.384   1.705   1.713
 9032SOL    HW227996   2.409   1.789   1.575
 9033SOL     OW27997   1.861   3.564   3.067
 9033SOL    HW127998   1.940   3.574   3.127
 9033SOL    HW227999   1.834   3.467   3.063
 9034SOL     OW28000   3.283   6.463   5.969
 9034SOL    HW128001   3.189   6.486   5.994
 9034SOL    HW228002   3.334   6.547   5.951
 9035SOL     OW28003   0.173   1.060   4.503
 9035SOL    HW128004   0.150   1.073   4.406
 9035SOL    HW228005   0.228   1.138   4.534
 9036SOL     OW28006   0.839   3.075   5.717
 9036SOL    HW128007   0.916   3.123   5.760
 9036SOL    HW228008   0.754   3.117   5.747
 9037SOL     OW28009   2.390   4.315   6.402
 9037SOL    HW128010   2.350   4.291   6.314
 9037SOL    HW228011   2.368   4.244   6.469
 9038SOL     OW28012   4.443   6.117   5.498
 9038SOL    HW128013   4.392   6.093   5.416
 9038SOL    HW228014   4.435   6.216   5.515
 9039SOL     OW28015   1.989   5.370   4.900
 9039SOL    HW128016   1.967   5.273   4.903
 9039SOL    HW228017   1.981   5.403   4.806
 9040SOL     OW28018   1.840   1.510   2.538
 9040SOL    HW128019   1.770   1.439   2.527
 9040SOL    HW228020   1.868   1.515   2.634
 9041SOL     OW28021   1.337   3.180   0.829
 9041SOL    HW128022   1.379   3.128   0.904
 9041SOL    HW228023   1.324   3.275   0.858
 9042SOL     OW28024   2.883   4.754   3.110
 9042SOL    HW128025   2.953   4.685   3.090
 9042SOL    HW228026   2.907   4.802   3.194
 9043SOL     OW28027   0.774   2.685   5.890
 9043SOL    HW128028   0.718   2.730   5.960
 9043SOL    HW228029   0.747   2.718   5.800
 9044SOL     OW28030   6.397   0.704   1.144
 9044SOL    HW128031   6.327   0.719   1.213
 9044SOL    HW228032   6.464   0.637   1.177
 9045SOL     OW28033   2.672   6.933   3.277
 9045SOL    HW128034   2.624   7.021   3.269
 9045SOL    HW228035   2.694   6.915   3.373
 9046SOL     OW28036   3.365   4.100   5.030
 9046SOL    HW128037   3.276   4.090   4.986
 9046SOL    HW228038   3.356   4.155   5.112
 9047SOL     OW28039   1.221   4.454   4.331
 9047SOL    HW128040   1.173   4.382   4.382
 9047SOL    HW228041   1.209   4.541   4.378
 9048SOL     OW28042   0.597   3.821   4.595
 9048SOL    HW128043   0.615   3.846   4.690
 9048SOL    HW228044   0.510   3.772   4.590
 9049SOL     OW28045   5.773   6.718   6.269
 9049SOL    HW128046   5.758   6.811   6.237
 9049SOL    HW228047   5.764   6.714   6.368
 9050SOL     OW28048   6.920   4.581   6.625
 9050SOL    HW128049   6.984   4.504   6.624
 9050SOL    HW228050   6.867   4.579   6.710
 9051SOL     OW28051   5.731   6.148   6.846
 9051SOL    HW128052   5.694   6.240   6.861
 9051SOL    HW228053   5.657   6.081   6.846
 9052SOL     OW28054   2.401   5.283   4.491
 9052SOL    HW128055   2.490   5.248   4.464
 9052SOL    HW228056   2.368   5.348   4.423
 9053SOL     OW28057   2.311   2.736   4.026
 9053SOL    HW128058   2.390   2.682   4.056
 9053SOL    HW228059   2.313   2.825   4.070
 9054SOL     OW28060   2.251   0.316   1.655
 9054SOL    HW128061   2.186   0.248   1.620
 9054SOL    HW228062   2.229   0.406   1.617
 9055SOL     OW28063   0.615   2.301   3.777
 9055SOL    HW128064   0.588   2.382   3.727
 9055SOL    HW228065   0.619   2.322   3.875
 9056SOL     OW28066   5.192   0.365   2.939
 9056SOL    HW128067   5.148   0.288   2.985
 9056SOL    HW228068   5.190   0.445   2.999
 9057SOL     OW28069   6.342   6.159   6.523
 9057SOL    HW128070   6.394   6.244   6.525
 9057SOL    HW228071   6.246   6.179   6.504
 9058SOL     OW28072   1.846   2.978   5.106
 9058SOL    HW128073   1.876   2.954   5.014
 9058SOL    HW228074   1.770   3.042   5.101
 9059SOL     OW28075   6.388   2.067   2.748
 9059SOL    HW128076   6.481   2.076   2.711
 9059SOL    HW228077   6.345   1.984   2.711
 9060SOL     OW28078   0.402   3.516   1.848
 9060SOL    HW128079   0.401   3.485   1.752
 9060SOL    HW228080   0.352   3.601   1.856
 9061SOL     OW28081   5.019   5.508   1.812
 9061SOL    HW128082   5.055   5.429   1.860
 9061SOL    HW228083   5.093   5.557   1.766
 9062SOL     OW28084   0.591   4.560   3.643
 9062SOL    HW128085   0.516   4.626   3.644
 9062SOL    HW228086   0.557   4.472   3.610
 9063SOL     OW28087   2.892   0.784   2.441
 9063SOL    HW128088   2.961   0.735   2.388
 9063SOL    HW228089   2.820   0.721   2.468
 9064SOL     OW28090   0.586   3.976   3.517
 9064SOL    HW128091   0.509   4.003   3.575
 9064SOL    HW228092   0.635   3.900   3.559
 9065SOL     OW28093   2.597   5.709   4.880
 9065SOL    HW128094   2.686   5.692   4.923
 9065SOL    HW228095   2.548   5.623   4.870
 9066SOL     OW28096   5.286   4.987   6.029
 9066SOL    HW128097   5.327   5.074   6.058
 9066SOL    HW228098   5.356   4.929   5.987
 9067SOL     OW28099   6.427   0.350   4.919
 9067SOL    HW128100   6.500   0.379   4.857
 9067SOL    HW228101   6.396   0.258   4.895
 9068SOL     OW28102   4.919   0.066   4.519
 9068SOL    HW128103   5.015   0.087   4.539
 9068SOL    HW228104   4.893   0.107   4.432
 9069SOL     OW28105   4.608   1.843   2.042
 9069SOL    HW128106   4.535   1.784   2.007
 9069SOL    HW228107   4.693   1.791   2.047
 9070SOL     OW28108   1.292   1.793   5.453
 9070SOL    HW128109   1.386   1.785   5.485
 9070SOL    HW228110   1.255   1.703   5.434
 9071SOL     OW28111   4.959   1.438   5.799
 9071SOL    HW128112   4.943   1.458   5.895
 9071SOL    HW228113   5.021   1.360   5.791
 9072SOL     OW28114   5.397   0.483   2.223
 9072SOL    HW128115   5.378   0.436   2.136
 9072SOL    HW228116   5.410   0.581   2.206
 9073SOL     OW28117   3.910   1.160   6.857
 9073SOL    HW128118   3.885   1.166   6.954
 9073SOL    HW228119   3.993   1.106   6.848
 9074SOL     OW28120   1.298   6.832   1.243
 9074SOL    HW128121   1.281   6.811   1.146
 9074SOL    HW228122   1.312   6.747   1.293
 9075SOL     OW28123   6.839   0.821   1.531
 9075SOL    HW128124   6.741   0.844   1.535
 9075SOL    HW228125   6.877   0.856   1.445
 9076SOL     OW28126   5.893   0.015   2.490
 9076SOL    HW128127   5.858   0.104   2.460
 9076SOL    HW228128   5.991   0.009   2.470
 9077SOL     OW28129   5.800   1.382   6.101
 9077SOL    HW128130   5.786   1.324   6.021
 9077SOL    HW228131   5.712   1.420   6.130
 9078SOL     OW28132   4.900   6.047   6.914
 9078SOL    HW128133   4.940   6.125   6.864
 9078SOL    HW228134   4.948   6.036   7.001
 9079SOL     OW28135   1.263   0.366   5.727
 9079SOL    HW128136   1.319   0.420   5.789
 9079SOL    HW228137   1.232   0.283   5.773
 9080SOL     OW28138   6.396   3.675   1.002
 9080SOL    HW128139   6.448   3.711   1.080
 9080SOL    HW228140   6.337   3.747   0.967
 9081SOL     OW28141   3.824   1.967   1.251
 9081SOL    HW128142   3.796   1.911   1.172
 9081SOL    HW228143   3.826   2.063   1.224
 9082SOL     OW28144   3.208   6.052   6.103
 9082SOL    HW128145   3.146   6.107   6.048
 9082SOL    HW228146   3.199   6.077   6.199
 9083SOL     OW28147   4.723   4.768   6.241
 9083SOL    HW128148   4.736   4.692   6.306
 9083SOL    HW228149   4.659   4.834   6.279
 9084SOL     OW28150   0.683   2.803   5.645
 9084SOL    HW128151   0.776   2.825   5.616
 9084SOL    HW228152   0.626   2.884   5.639
 9085SOL     OW28153   3.144   5.149   0.097
 9085SOL    HW128154   3.231   5.116   0.134
 9085SOL    HW228155   3.104   5.216   0.160
 9086SOL     OW28156   6.856   4.919   0.338
 9086SOL    HW128157   6.843   4.946   0.243
 9086SOL    HW228158   6.929   4.851   0.344
 9087SOL     OW28159   5.893   2.024   1.926
 9087SOL    HW128160   5.903   2.074   1.840
 9087SOL    HW228161   5.916   1.928   1.911
 9088SOL     OW28162   6.117   0.574   1.959
 9088SOL    HW128163   6.180   0.559   1.883
 9088SOL    HW228164   6.135   0.664   1.999
 9089SOL     OW28165   4.291   5.400   3.414
 9089SOL    HW128166   4.230   5.380   3.491
 9089SOL    HW228167   4.334   5.316   3.383
 9090SOL     OW28168   5.825   6.339   4.737
 9090SOL    HW128169   5.820   6.251   4.785
 9090SOL    HW228170   5.841   6.323   4.640
 9091SOL     OW28171   2.912   2.259   0.011
 9091SOL    HW128172   2.887   2.252   6.939
 9091SOL    HW228173   2.840   2.219   0.068
 9092SOL     OW28174   1.426   6.527   5.524
 9092SOL    HW128175   1.349   6.464   5.511
 9092SOL    HW228176   1.511   6.483   5.493
 9093SOL     OW28177   1.523   5.638   0.555
 9093SOL    HW128178   1.508   5.618   0.458
 9093SOL    HW228179   1.617   5.614   0.580
 9094SOL     OW28180   0.097   5.793   2.269
 9094SOL    HW128181   0.107   5.775   2.367
 9094SOL    HW228182   0.180   5.837   2.234
 9095SOL     OW28183   4.799   3.309   6.501
 9095SOL    HW128184   4.851   3.374   6.556
 9095SOL    HW228185   4.760   3.238   6.560
 9096SOL     OW28186   5.832   3.053   2.730
 9096SOL    HW128187   5.817   2.966   2.776
 9096SOL    HW228188   5.880   3.115   2.792
 9097SOL     OW28189   0.396   3.847   0.049
 9097SOL    HW128190   0.486   3.882   0.023
 9097SOL    HW228191   0.352   3.806   6.994
 9098SOL     OW28192   3.711   3.883   2.360
 9098SOL    HW128193   3.730   3.974   2.397
 9098SOL    HW228194   3.798   3.835   2.344
 9099SOL     OW28195   2.833   3.316   0.767
 9099SOL    HW128196   2.753   3.302   0.709
 9099SOL    HW228197   2.912   3.339   0.710
 9100SOL     OW28198   0.758   3.527   1.383
 9100SOL    HW128199   0.851   3.530   1.345
 9100SOL    HW228200   0.695   3.572   1.319
 9101SOL     OW28201   1.539   2.604   2.648
 9101SOL    HW128202   1.527   2.613   2.747
 9101SOL    HW228203   1.564   2.693   2.610
 9102SOL     OW28204   3.732   5.632   2.087
 9102SOL    HW128205   3.827   5.640   2.119
 9102SOL    HW228206   3.731   5.609   1.990
 9103SOL     OW28207   0.070   3.944   1.094
 9103SOL    HW128208   0.121   3.998   1.160
 9103SOL    HW228209   0.120   3.941   1.007
 9104SOL     OW28210   4.228   5.986   1.802
 9104SOL    HW128211   4.237   5.897   1.847
 9104SOL    HW228212   4.219   6.058   1.871
 9105SOL     OW28213   1.629   0.336   6.349
 9105SOL    HW128214   1.710   0.283   6.373
 9105SOL    HW228215   1.637   0.428   6.387
 9106SOL     OW28216   5.872   4.512   0.631
 9106SOL    HW128217   5.870   4.610   0.613
 9106SOL    HW228218   5.924   4.465   0.560
 9107SOL     OW28219   4.023   6.995   6.916
 9107SOL    HW128220   4.004   6.989   6.818
 9107SOL    HW228221   4.027   6.903   6.954
 9108SOL     OW28222   5.153   4.312   5.285
 9108SOL    HW128223   5.078   4.300   5.220
 9108SOL    HW228224   5.236   4.339   5.236
 9109SOL     OW28225   2.704   2.059   3.453
 9109SOL    HW128226   2.781   2.123   3.451
 9109SOL    HW228227   2.733   1.972   3.493
 9110SOL     OW28228   2.517   4.879   3.517
 9110SOL    HW128229   2.451   4.902   3.446
 9110SOL    HW228230   2.545   4.783   3.507
 9111SOL     OW28231   3.457   4.280   1.585
 9111SOL    HW128232   3.498   4.368   1.606
 9111SOL    HW228233   3.492   4.246   1.498
 9112SOL     OW28234   0.684   3.331   3.649
 9112SOL    HW128235   0.626   3.317   3.729
 9112SOL    HW228236   0.630   3.318   3.566
 9113SOL     OW28237   5.009   1.030   0.119
 9113SOL    HW128238   4.990   0.949   0.176
 9113SOL    HW228239   4.974   1.112   0.164
 9114SOL     OW28240   2.494   4.517   2.149
 9114SOL    HW128241   2.489   4.538   2.051
 9114SOL    HW228242   2.442   4.584   2.201
 9115SOL     OW28243   1.042   5.354   4.169
 9115SOL    HW128244   1.091   5.292   4.230
 9115SOL    HW228245   0.948   5.322   4.157
 9116SOL     OW28246   6.918   1.659   6.375
 9116SOL    HW128247   6.885   1.754   6.376
 9116SOL    HW228248   7.009   1.655   6.414
 9117SOL     OW28249   6.396   3.086   6.459
 9117SOL    HW128250   6.399   3.095   6.559
 9117SOL    HW228251   6.302   3.096   6.428
 9118SOL     OW28252   6.458   0.142   0.989
 9118SOL    HW128253   6.394   0.169   1.061
 9118SOL    HW228254   6.508   0.061   1.019
 9119SOL     OW28255   5.876   1.143   2.108
 9119SOL    HW128256   5.931   1.208   2.056
 9119SOL    HW228257   5.787   1.184   2.129
 9120SOL     OW28258   5.686   2.785   6.074
 9120SOL    HW128259   5.668   2.705   6.130
 9120SOL    HW228260   5.630   2.781   5.991
 9121SOL     OW28261   0.319   3.335   5.287
 9121SOL    HW128262   0.313   3.317   5.188
 9121SOL    HW228263   0.392   3.280   5.326
 9122SOL     OW28264   1.807   2.475   2.131
 9122SOL    HW128265   1.783   2.431   2.045
 9122SOL    HW228266   1.881   2.541   2.116
 9123SOL     OW28267   3.352   6.413   5.437
 9123SOL    HW128268   3.449   6.435   5.427
 9123SOL    HW228269   3.307   6.486   5.488
 9124SOL     OW28270   6.118   5.551   5.434
 9124SOL    HW128271   6.101   5.631   5.377
 9124SOL    HW228272   6.199   5.502   5.401
 9125SOL     OW28273   4.675   4.322   3.744
 9125SOL    HW128274   4.675   4.322   3.644
 9125SOL    HW228275   4.705   4.232   3.777
 9126SOL     OW28276   6.216   1.387   2.160
 9126SOL    HW128277   6.136   1.377   2.220
 9126SOL    HW228278   6.255   1.478   2.171
 9127SOL     OW28279   5.952   6.962   5.635
 9127SOL    HW128280   6.007   6.901   5.579
 9127SOL    HW228281   5.881   6.910   5.683
 9128SOL     OW28282   4.022   1.597   5.135
 9128SOL    HW128283   3.962   1.545   5.073
 9128SOL    HW228284   4.105   1.546   5.152
 9129SOL     OW28285   1.977   3.616   0.388
 9129SOL    HW128286   2.049   3.548   0.375
 9129SOL    HW228287   1.962   3.632   0.485
 9130SOL     OW28288   0.106   4.374   6.646
 9130SOL    HW128289   0.119   4.352   6.743
 9130SOL    HW228290   0.194   4.369   6.599
 9131SOL     OW28291   0.179   4.217   4.847
 9131SOL    HW128292   0.226   4.248   4.930
 9131SOL    HW228293   0.084   4.196   4.868
 9132SOL     OW28294   6.677   3.995   3.783
 9132SOL    HW128295   6.627   4.072   3.742
 9132SOL    HW228296   6.618   3.915   3.788
 9133SOL     OW28297   3.098   5.008   0.923
 9133SOL    HW128298   3.047   5.093   0.933
 9133SOL    HW228299   3.194   5.028   0.906
 9134SOL     OW28300   3.237   6.980   0.722
 9134SOL    HW128301   3.219   0.027   0.655
 9134SOL    HW228302   3.329   6.942   0.706
 9135SOL     OW28303   0.140   6.586   2.117
 9135SOL    HW128304   0.177   6.522   2.049
 9135SOL    HW228305   0.057   6.629   2.080
 9136SOL     OW28306   4.668   5.121   5.717
 9136SOL    HW128307   4.748   5.094   5.662
 9136SOL    HW228308   4.612   5.185   5.664
 9137SOL     OW28309   5.705   1.195   0.878
 9137SOL    HW128310   5.802   1.213   0.862
 9137SOL    HW228311   5.693   1.102   0.910
 9138SOL     OW28312   6.651   4.831   5.900
 9138SOL    HW128313   6.686   4.743   5.932
 9138SOL    HW228314   6.670   4.901   5.969
 9139SOL     OW28315   2.234   1.338   4.744
 9139SOL    HW128316   2.332   1.337   4.724
 9139SOL    HW228317   2.218   1.300   4.836
 9140SOL     OW28318   6.587   2.309   2.663
 9140SOL    HW128319   6.563   2.388   2.606
 9140SOL    HW228320   6.576   2.225   2.610
 9141SOL     OW28321   5.683   6.562   6.585
 9141SOL    HW128322   5.593   6.543   6.546
 9141SOL    HW228323   5.754   6.518   6.530
 9142SOL     OW28324   0.290   2.573   5.268
 9142SOL    HW128325   0.289   2.665   5.308
 9142SOL    HW228326   0.355   2.516   5.318
 9143SOL     OW28327   4.854   3.781   0.086
 9143SOL    HW128328   4.846   3.880   0.077
 9143SOL    HW228329   4.947   3.757   0.113
 9144SOL     OW28330   2.175   5.239   6.223
 9144SOL    HW128331   2.151   5.217   6.318
 9144SOL    HW228332   2.181   5.338   6.212
 9145SOL     OW28333   0.162   5.132   0.962
 9145SOL    HW128334   0.183   5.124   1.060
 9145SOL    HW228335   0.247   5.142   0.911
 9146SOL     OW28336   4.939   1.797   1.530
 9146SOL    HW128337   5.013   1.730   1.516
 9146SOL    HW228338   4.941   1.828   1.625
 9147SOL     OW28339   5.660   6.844   4.525
 9147SOL    HW128340   5.703   6.933   4.508
 9147SOL    HW228341   5.585   6.855   4.589
 9148SOL     OW28342   5.685   6.875   1.148
 9148SOL    HW128343   5.770   6.849   1.194
 9148SOL    HW228344   5.646   6.795   1.103
 9149SOL     OW28345   5.139   2.599   4.540
 9149SOL    HW128346   5.135   2.671   4.471
 9149SOL    HW228347   5.181   2.517   4.502
 9150SOL     OW28348   3.776   5.566   3.521
 9150SOL    HW128349   3.800   5.637   3.588
 9150SOL    HW228350   3.741   5.609   3.438
 9151SOL     OW28351   1.301   4.133   2.797
 9151SOL    HW128352   1.223   4.177   2.842
 9151SOL    HW228353   1.289   4.033   2.801
 9152SOL     OW28354   2.546   5.559   4.397
 9152SOL    HW128355   2.502   5.631   4.343
 9152SOL    HW228356   2.637   5.540   4.360
 9153SOL     OW28357   1.599   3.437   0.803
 9153SOL    HW128358   1.619   3.438   0.705
 9153SOL    HW228359   1.504   3.413   0.818
 9154SOL     OW28360   2.755   4.975   6.874
 9154SOL    HW128361   2.793   5.017   6.957
 9154SOL    HW228362   2.817   4.904   6.842
 9155SOL     OW28363   2.033   3.942   0.348
 9155SOL    HW128364   2.034   3.846   0.378
 9155SOL    HW228365   2.061   3.948   0.253
 9156SOL     OW28366   3.090   3.028   1.071
 9156SOL    HW128367   3.020   3.000   1.005
 9156SOL    HW228368   3.080   3.126   1.091
 9157SOL     OW28369   6.056   4.807   5.659
 9157SOL    HW128370   6.113   4.727   5.676
 9157SOL    HW228371   6.107   4.890   5.682
 9158SOL     OW28372   6.263   3.422   4.938
 9158SOL    HW128373   6.167   3.436   4.918
 9158SOL    HW228374   6.274   3.403   5.036
 9159SOL     OW28375   1.107   6.471   3.992
 9159SOL    HW128376   1.177   6.543   3.993
 9159SOL    HW228377   1.132   6.400   4.058
 9160SOL     OW28378   6.648   0.395   5.106
 9160SOL    HW128379   6.704   0.429   5.030
 9160SOL    HW228380   6.554   0.382   5.076
 9161SOL     OW28381   4.788   4.094   3.877
 9161SOL    HW128382   4.718   4.036   3.921
 9161SOL    HW228383   4.849   4.131   3.947
 9162SOL     OW28384   4.824   1.706   3.750
 9162SOL    HW128385   4.781   1.778   3.805
 9162SOL    HW228386   4.786   1.708   3.657
 9163SOL     OW28387   1.925   3.133   3.702
 9163SOL    HW128388   1.896   3.054   3.647
 9163SOL    HW228389   1.885   3.216   3.664
 9164SOL     OW28390   3.103   0.946   6.854
 9164SOL    HW128391   3.083   1.021   6.917
 9164SOL    HW228392   3.128   0.984   6.765
 9165SOL     OW28393   6.393   1.125   5.799
 9165SOL    HW128394   6.341   1.202   5.760
 9165SOL    HW228395   6.422   1.064   5.725
 9166SOL     OW28396   4.926   6.243   0.962
 9166SOL    HW128397   4.848   6.182   0.979
 9166SOL    HW228398   4.960   6.279   1.048
 9167SOL     OW28399   1.668   3.169   6.591
 9167SOL    HW128400   1.738   3.237   6.568
 9167SOL    HW228401   1.688   3.083   6.544
 9168SOL     OW28402   0.771   6.791   5.639
 9168SOL    HW128403   0.675   6.783   5.666
 9168SOL    HW228404   0.787   6.738   5.556
 9169SOL     OW28405   6.988   1.378   4.696
 9169SOL    HW128406   6.935   1.295   4.679
 9169SOL    HW228407   0.040   1.383   4.631
 9170SOL     OW28408   0.459   4.708   0.222
 9170SOL    HW128409   0.507   4.679   0.139
 9170SOL    HW228410   0.473   4.806   0.236
 9171SOL     OW28411   3.160   5.508   0.227
 9171SOL    HW128412   3.081   5.449   0.211
 9171SOL    HW228413   3.212   5.519   0.142
 9172SOL     OW28414   3.024   0.738   4.909
 9172SOL    HW128415   3.018   0.783   4.820
 9172SOL    HW228416   2.978   0.649   4.905
 9173SOL     OW28417   6.283   3.924   5.044
 9173SOL    HW128418   6.268   3.987   5.121
 9173SOL    HW228419   6.261   3.971   4.958
 9174SOL     OW28420   6.671   4.392   1.024
 9174SOL    HW128421   6.588   4.390   1.080
 9174SOL    HW228422   6.690   4.486   0.995
 9175SOL     OW28423   1.667   0.023   4.945
 9175SOL    HW128424   1.605   0.012   4.868
 9175SOL    HW228425   1.711   6.959   4.964
 9176SOL     OW28426   2.589   0.949   5.196
 9176SOL    HW128427   2.678   0.993   5.185
 9176SOL    HW228428   2.592   0.889   5.276
 9177SOL     OW28429   1.659   5.339   4.754
 9177SOL    HW128430   1.710   5.263   4.714
 9177SOL    HW228431   1.647   5.412   4.686
 9178SOL     OW28432   1.781   5.637   0.894
 9178SOL    HW128433   1.818   5.642   0.986
 9178SOL    HW228434   1.773   5.729   0.855
 9179SOL     OW28435   3.543   5.605   3.764
 9179SOL    HW128436   3.558   5.704   3.767
 9179SOL    HW228437   3.610   5.563   3.703
 9180SOL     OW28438   5.719   2.090   3.046
 9180SOL    HW128439   5.690   2.156   2.977
 9180SOL    HW228440   5.676   2.001   3.027
 9181SOL     OW28441   3.990   2.139   3.571
 9181SOL    HW128442   3.929   2.159   3.648
 9181SOL    HW228443   4.009   2.041   3.567
 9182SOL     OW28444   2.387   6.529   2.386
 9182SOL    HW128445   2.407   6.455   2.451
 9182SOL    HW228446   2.418   6.616   2.426
 9183SOL     OW28447   4.975   6.756   0.239
 9183SOL    HW128448   5.018   6.667   0.258
 9183SOL    HW228449   5.035   6.810   0.181
 9184SOL     OW28450   5.060   1.522   6.979
 9184SOL    HW128451   5.106   1.610   6.976
 9184SOL    HW228452   5.075   1.479   0.044
 9185SOL     OW28453   4.533   6.357   5.109
 9185SOL    HW128454   4.488   6.413   5.178
 9185SOL    HW228455   4.467   6.294   5.069
 9186SOL     OW28456   5.854   0.441   4.081
 9186SOL    HW128457   5.944   0.449   4.039
 9186SOL    HW228458   5.865   0.422   4.179
 9187SOL     OW28459   2.640   0.963   1.335
 9187SOL    HW128460   2.694   0.898   1.389
 9187SOL    HW228461   2.630   1.049   1.385
 9188SOL     OW28462   2.430   6.643   2.126
 9188SOL    HW128463   2.424   6.576   2.052
 9188SOL    HW228464   2.426   6.596   2.214
 9189SOL     OW28465   5.671   6.037   1.611
 9189SOL    HW128466   5.764   6.003   1.602
 9189SOL    HW228467   5.673   6.133   1.640
 9190SOL     OW28468   1.897   5.020   7.002
 9190SOL    HW128469   1.958   4.963   0.034
 9190SOL    HW228470   1.943   5.043   6.917
 9191SOL     OW28471   5.613   0.658   5.991
 9191SOL    HW128472   5.571   0.629   6.077
 9191SOL    HW228473   5.697   0.708   6.011
 9192SOL     OW28474   0.551   4.338   5.920
 9192SOL    HW128475   0.631   4.348   5.981
 9192SOL    HW228476   0.517   4.429   5.897
 9193SOL     OW28477   4.801   4.952   0.636
 9193SOL    HW128478   4.772   4.913   0.723
 9193SOL    HW228479   4.825   4.878   0.573
 9194SOL     OW28480   2.742   0.482   3.093
 9194SOL    HW128481   2.699   0.472   3.003
 9194SOL    HW228482   2.687   0.543   3.150
 9195SOL     OW28483   1.683   2.323   4.355
 9195SOL    HW128484   1.767   2.268   4.352
 9195SOL    HW228485   1.667   2.365   4.265
 9196SOL     OW28486   4.223   0.507   4.028
 9196SOL    HW128487   4.188   0.486   4.120
 9196SOL    HW228488   4.317   0.475   4.019
 9197SOL     OW28489   2.081   4.635   1.801
 9197SOL    HW128490   1.983   4.618   1.800
 9197SOL    HW228491   2.129   4.564   1.750
 9198SOL     OW28492   6.486   4.697   6.166
 9198SOL    HW128493   6.410   4.731   6.111
 9198SOL    HW228494   6.520   4.612   6.127
 9199SOL     OW28495   1.183   3.405   6.199
 9199SOL    HW128496   1.217   3.323   6.152
 9199SOL    HW228497   1.231   3.414   6.287
 9200SOL     OW28498   2.521   0.282   0.513
 9200SOL    HW128499   2.532   0.381   0.525
 9200SOL    HW228500   2.521   0.260   0.416
 9201SOL     OW28501   0.587   2.706   0.629
 9201SOL    HW128502   0.573   2.623   0.682
 9201SOL    HW228503   0.502   2.759   0.628
 9202SOL     OW28504   1.688   6.567   3.045
 9202SOL    HW128505   1.715   6.609   3.132
 9202SOL    HW228506   1.642   6.635   2.988
 9203SOL     OW28507   0.677   5.011   7.011
 9203SOL    HW128508   0.642   4.987   0.077
 9203SOL    HW228509   0.776   5.015   7.013
 9204SOL     OW28510   4.016   2.568   6.914
 9204SOL    HW128511   3.965   2.511   6.979
 9204SOL    HW228512   4.084   2.622   6.964
 9205SOL     OW28513   5.418   4.782   2.442
 9205SOL    HW128514   5.433   4.849   2.515
 9205SOL    HW228515   5.474   4.807   2.363
 9206SOL     OW28516   4.078   5.357   1.803
 9206SOL    HW128517   4.040   5.321   1.717
 9206SOL    HW228518   4.020   5.328   1.879
 9207SOL     OW28519   4.383   4.980   6.863
 9207SOL    HW128520   4.436   4.996   6.780
 9207SOL    HW228521   4.418   4.899   6.911
 9208SOL     OW28522   5.928   3.999   4.104
 9208SOL    HW128523   5.892   3.944   4.028
 9208SOL    HW228524   6.006   3.951   4.145
 9209SOL     OW28525   2.973   0.766   0.061
 9209SOL    HW128526   3.000   0.857   0.090
 9209SOL    HW228527   3.005   0.749   6.992
 9210SOL     OW28528   6.640   1.160   3.110
 9210SOL    HW128529   6.609   1.255   3.117
 9210SOL    HW228530   6.560   1.100   3.105
 9211SOL     OW28531   6.304   3.243   4.643
 9211SOL    HW128532   6.314   3.169   4.576
 9211SOL    HW228533   6.261   3.206   4.726
 9212SOL     OW28534   4.409   5.108   4.186
 9212SOL    HW128535   4.472   5.141   4.115
 9212SOL    HW228536   4.422   5.163   4.268
 9213SOL     OW28537   5.210   3.610   6.010
 9213SOL    HW128538   5.261   3.536   6.054
 9213SOL    HW228539   5.203   3.591   5.912
 9214SOL     OW28540   0.171   5.856   5.899
 9214SOL    HW128541   0.271   5.852   5.909
 9214SOL    HW228542   0.128   5.813   5.979
 9215SOL     OW28543   1.419   2.626   0.009
 9215SOL    HW128544   1.348   2.687   6.996
 9215SOL    HW228545   1.466   2.580   6.959
 9216SOL     OW28546   2.665   0.423   2.794
 9216SOL    HW128547   2.587   0.477   2.763
 9216SOL    HW228548   2.726   0.406   2.717
 9217SOL     OW28549   0.723   0.912   6.305
 9217SOL    HW128550   0.754   0.931   6.212
 9217SOL    HW228551   0.623   0.917   6.309
 9218SOL     OW28552   3.595   6.406   0.709
 9218SOL    HW128553   3.505   6.371   0.684
 9218SOL    HW228554   3.666   6.346   0.673
 9219SOL     OW28555   7.013   2.627   0.855
 9219SOL    HW128556   6.975   2.556   0.797
 9219SOL    HW228557   0.011   2.589   0.945
 9220SOL     OW28558   2.156   6.815   1.009
 9220SOL    HW128559   2.157   6.909   0.975
 9220SOL    HW228560   2.062   6.783   1.020
 9221SOL     OW28561   2.955   0.893   4.061
 9221SOL    HW128562   2.963   0.893   4.160
 9221SOL    HW228563   2.899   0.816   4.031
 9222SOL     OW28564   2.378   6.917   6.428
 9222SOL    HW128565   2.371   7.016   6.441
 9222SOL    HW228566   2.337   6.870   6.506
 9223SOL     OW28567   1.596   1.857   4.284
 9223SOL    HW128568   1.622   1.894   4.195
 9223SOL    HW228569   1.549   1.769   4.271
 9224SOL     OW28570   2.642   5.351   5.173
 9224SOL    HW128571   2.553   5.312   5.193
 9224SOL    HW228572   2.663   5.422   5.241
 9225SOL     OW28573   3.739   6.963   5.984
 9225SOL    HW128574   3.806   0.011   6.000
 9225SOL    HW228575   3.682   6.952   6.065
 9226SOL     OW28576   5.543   0.052   1.936
 9226SOL    HW128577   5.479   7.008   1.972
 9226SOL    HW228578   5.597   0.090   2.011
 9227SOL     OW28579   0.875   5.231   1.420
 9227SOL    HW128580   0.962   5.187   1.396
 9227SOL    HW228581   0.892   5.312   1.475
 9228SOL     OW28582   1.664   0.763   6.022
 9228SOL    HW128583   1.720   0.682   6.008
 9228SOL    HW228584   1.581   0.739   6.072
 9229SOL     OW28585   1.359   5.572   4.788
 9229SOL    HW128586   1.363   5.512   4.868
 9229SOL    HW228587   1.317   5.659   4.813
 9230SOL     OW28588   6.144   0.798   3.275
 9230SOL    HW128589   6.105   0.725   3.331
 9230SOL    HW228590   6.071   0.860   3.247
 9231SOL     OW28591   1.421   4.730   4.529
 9231SOL    HW128592   1.478   4.735   4.447
 9231SOL    HW228593   1.408   4.822   4.567
 9232SOL     OW28594   3.217   5.311   0.743
 9232SOL    HW128595   3.201   5.253   0.663
 9232SOL    HW228596   3.268   5.260   0.812
 9233SOL     OW28597   5.265   5.513   1.644
 9233SOL    HW128598   5.274   5.595   1.586
 9233SOL    HW228599   5.253   5.433   1.586
 9234SOL     OW28600   3.844   5.464   4.992
 9234SOL    HW128601   3.943   5.452   4.989
 9234SOL    HW228602   3.812   5.494   4.903
 9235SOL     OW28603   1.415   2.628   3.733
 9235SOL    HW128604   1.326   2.645   3.692
 9235SOL    HW228605   1.408   2.636   3.833
 9236SOL     OW28606   2.714   4.216   5.683
 9236SOL    HW128607   2.714   4.145   5.612
 9236SOL    HW228608   2.741   4.303   5.642
 9237SOL     OW28609   2.239   4.958   5.264
 9237SOL    HW128610   2.334   4.957   5.232
 9237SOL    HW228611   2.190   4.879   5.228
 9238SOL     OW28612   4.157   1.599   6.160
 9238SOL    HW128613   4.143   1.694   6.131
 9238SOL    HW228614   4.088   1.574   6.228
 9239SOL     OW28615   0.726   3.930   1.342
 9239SOL    HW128616   0.645   3.904   1.393
 9239SOL    HW228617   0.715   3.904   1.246
 9240SOL     OW28618   5.570   1.793   0.795
 9240SOL    HW128619   5.507   1.718   0.814
 9240SOL    HW228620   5.525   1.861   0.738
 9241SOL     OW28621   0.622   5.630   6.415
 9241SOL    HW128622   0.582   5.721   6.401
 9241SOL    HW228623   0.676   5.631   6.500
 9242SOL     OW28624   6.588   5.820   1.017
 9242SOL    HW128625   6.613   5.753   0.947
 9242SOL    HW228626   6.526   5.776   1.083
 9243SOL     OW28627   5.880   6.253   2.689
 9243SOL    HW128628   5.910   6.322   2.623
 9243SOL    HW228629   5.939   6.172   2.682
 9244SOL     OW28630   4.619   5.450   5.982
 9244SOL    HW128631   4.586   5.356   5.979
 9244SOL    HW228632   4.661   5.474   5.895
 9245SOL     OW28633   1.357   5.607   3.143
 9245SOL    HW128634   1.281   5.597   3.079
 9245SOL    HW228635   1.443   5.584   3.097
 9246SOL     OW28636   6.980   4.921   2.951
 9246SOL    HW128637   7.019   4.847   3.007
 9246SOL    HW228638   6.990   4.899   2.854
 9247SOL     OW28639   1.261   7.014   3.338
 9247SOL    HW128640   1.308   6.927   3.327
 9247SOL    HW228641   1.293   0.055   3.270
 9248SOL     OW28642   1.742   2.716   6.250
 9248SOL    HW128643   1.810   2.699   6.321
 9248SOL    HW228644   1.747   2.645   6.181
 9249SOL     OW28645   5.349   3.281   6.303
 9249SOL    HW128646   5.381   3.186   6.302
 9249SOL    HW228647   5.261   3.286   6.350
 9250SOL     OW28648   5.185   3.368   5.008
 9250SOL    HW128649   5.087   3.351   5.019
 9250SOL    HW228650   5.216   3.329   4.921
 9251SOL     OW28651   3.573   2.007   3.249
 9251SOL    HW128652   3.661   2.047   3.222
 9251SOL    HW228653   3.500   2.049   3.196
 9252SOL     OW28654   6.340   0.097   4.235
 9252SOL    HW128655   6.394   0.158   4.292
 9252SOL    HW228656   6.395   0.066   4.157
 9253SOL     OW28657   4.715   5.783   6.013
 9253SOL    HW128658   4.621   5.788   5.978
 9253SOL    HW228659   4.768   5.722   5.954
 9254SOL     OW28660   6.104   4.597   1.773
 9254SOL    HW128661   6.155   4.683   1.774
 9254SOL    HW228662   6.089   4.568   1.679
 9255SOL     OW28663   5.651   2.862   0.299
 9255SOL    HW128664   5.607   2.882   0.387
 9255SOL    HW228665   5.660   2.946   0.246
 9256SOL     OW28666   4.038   4.780   2.769
 9256SOL    HW128667   3.992   4.743   2.850
 9256SOL    HW228668   3.974   4.784   2.693
 9257SOL     OW28669   0.716   3.705   2.853
 9257SOL    HW128670   0.815   3.688   2.850
 9257SOL    HW228671   0.688   3.751   2.769
 9258SOL     OW28672   4.125   3.639   4.130
 9258SOL    HW128673   4.201   3.635   4.195
 9258SOL    HW228674   4.070   3.556   4.138
 9259SOL     OW28675   1.780   2.239   1.048
 9259SOL    HW128676   1.836   2.250   1.130
 9259SOL    HW228677   1.713   2.167   1.063
 9260SOL     OW28678   5.181   1.515   5.669
 9260SOL    HW128679   5.090   1.486   5.696
 9260SOL    HW228680   5.188   1.517   5.570
 9261SOL     OW28681   4.737   0.638   6.589
 9261SOL    HW128682   4.735   0.732   6.556
 9261SOL    HW228683   4.759   0.576   6.513
 9262SOL     OW28684   6.301   3.090   5.555
 9262SOL    HW128685   6.218   3.139   5.527
 9262SOL    HW228686   6.382   3.142   5.527
 9263SOL     OW28687   6.389   4.042   1.029
 9263SOL    HW128688   6.416   4.037   1.125
 9263SOL    HW228689   6.297   4.079   1.021
 9264SOL     OW28690   5.532   4.104   0.353
 9264SOL    HW128691   5.491   4.147   0.272
 9264SOL    HW228692   5.516   4.006   0.350
 9265SOL     OW28693   3.291   1.724   0.430
 9265SOL    HW128694   3.351   1.649   0.456
 9265SOL    HW228695   3.214   1.729   0.494
 9266SOL     OW28696   1.809   5.914   1.964
 9266SOL    HW128697   1.750   5.993   1.980
 9266SOL    HW228698   1.755   5.837   1.931
 9267SOL     OW28699   6.724   4.095   5.595
 9267SOL    HW128700   6.673   4.016   5.561
 9267SOL    HW228701   6.661   4.167   5.622
 9268SOL     OW28702   1.056   5.941   1.260
 9268SOL    HW128703   1.026   5.927   1.354
 9268SOL    HW228704   1.154   5.959   1.258
 9269SOL     OW28705   3.307   2.642   6.292
 9269SOL    HW128706   3.343   2.559   6.250
 9269SOL    HW228707   3.349   2.655   6.382
 9270SOL     OW28708   5.009   0.131   5.584
 9270SOL    HW128709   5.027   0.082   5.499
 9270SOL    HW228710   4.924   0.183   5.575
 9271SOL     OW28711   1.585   5.811   0.202
 9271SOL    HW128712   1.648   5.872   0.248
 9271SOL    HW228713   1.618   5.791   0.110
 9272SOL     OW28714   3.309   5.087   5.685
 9272SOL    HW128715   3.328   5.006   5.630
 9272SOL    HW228716   3.212   5.089   5.711
 9273SOL     OW28717   5.075   5.857   3.703
 9273SOL    HW128718   5.146   5.905   3.652
 9273SOL    HW228719   5.025   5.922   3.760
 9274SOL     OW28720   6.428   2.768   0.171
 9274SOL    HW128721   6.405   2.713   0.090
 9274SOL    HW228722   6.391   2.724   0.253
 9275SOL     OW28723   0.460   1.681   6.881
 9275SOL    HW128724   0.544   1.731   6.861
 9275SOL    HW228725   0.386   1.747   6.898
 9276SOL     OW28726   2.861   4.811   4.079
 9276SOL    HW128727   2.816   4.763   4.154
 9276SOL    HW228728   2.793   4.857   4.022
 9277SOL     OW28729   3.906   3.360   0.167
 9277SOL    HW128730   3.841   3.289   0.140
 9277SOL    HW228731   3.880   3.447   0.125
 9278SOL     OW28732   1.884   1.208   4.029
 9278SOL    HW128733   1.931   1.197   3.942
 9278SOL    HW228734   1.840   1.298   4.031
 9279SOL     OW28735   4.495   0.410   1.631
 9279SOL    HW128736   4.413   0.369   1.671
 9279SOL    HW228737   4.472   0.448   1.541
 9280SOL     OW28738   1.831   0.345   3.480
 9280SOL    HW128739   1.880   0.384   3.558
 9280SOL    HW228740   1.859   0.392   3.397
 9281SOL     OW28741   3.273   4.116   1.178
 9281SOL    HW128742   3.182   4.156   1.172
 9281SOL    HW228743   3.270   4.021   1.149
 9282SOL     OW28744   4.232   2.047   4.593
 9282SOL    HW128745   4.138   2.019   4.570
 9282SOL    HW228746   4.233   2.144   4.615
 9283SOL     OW28747   5.809   0.855   2.886
 9283SOL    HW128748   5.808   0.788   2.961
 9283SOL    HW228749   5.717   0.863   2.848
 9284SOL     OW28750   3.727   5.248   6.906
 9284SOL    HW128751   3.720   5.238   7.005
 9284SOL    HW228752   3.657   5.313   6.874
 9285SOL     OW28753   4.949   3.357   0.142
 9285SOL    HW128754   4.886   3.338   0.067
 9285SOL    HW228755   4.964   3.456   0.148
 9286SOL     OW28756   5.270   0.275   5.641
 9286SOL    HW128757   5.257   0.370   5.610
 9286SOL    HW228758   5.329   0.274   5.722
 9287SOL     OW28759   2.990   6.022   0.517
 9287SOL    HW128760   2.970   5.954   0.447
 9287SOL    HW228761   2.918   6.020   0.587
 9288SOL     OW28762   2.791   1.700   5.142
 9288SOL    HW128763   2.811   1.759   5.064
 9288SOL    HW228764   2.875   1.658   5.176
 9289SOL     OW28765   3.569   1.840   2.271
 9289SOL    HW128766   3.588   1.762   2.330
 9289SOL    HW228767   3.512   1.811   2.194
 9290SOL     OW28768   4.667   1.975   4.309
 9290SOL    HW128769   4.581   2.026   4.305
 9290SOL    HW228770   4.680   1.938   4.401
 9291SOL     OW28771   2.504   0.236   4.929
 9291SOL    HW128772   2.408   0.242   4.899
 9291SOL    HW228773   2.561   0.294   4.872
 9292SOL     OW28774   6.801   3.360   6.198
 9292SOL    HW128775   6.757   3.377   6.287
 9292SOL    HW228776   6.895   3.394   6.200
 9293SOL     OW28777   6.378   4.024   1.298
 9293SOL    HW128778   6.336   4.100   1.348
 9293SOL    HW228779   6.416   3.959   1.364
 9294SOL     OW28780   3.480   6.245   6.003
 9294SOL    HW128781   3.405   6.304   5.973
 9294SOL    HW228782   3.545   6.299   6.057
 9295SOL     OW28783   4.948   2.044   3.804
 9295SOL    HW128784   5.042   2.015   3.787
 9295SOL    HW228785   4.902   1.976   3.861
 9296SOL     OW28786   0.227   5.983   6.444
 9296SOL    HW128787   0.141   5.948   6.481
 9296SOL    HW228788   0.302   5.925   6.475
 9297SOL     OW28789   6.973   0.595   1.084
 9297SOL    HW128790   0.016   0.635   1.022
 9297SOL    HW228791   6.927   0.519   1.037
 9298SOL     OW28792   2.112   6.614   5.494
 9298SOL    HW128793   2.146   6.646   5.583
 9298SOL    HW228794   2.184   6.563   5.447
 9299SOL     OW28795   0.811   2.620   4.414
 9299SOL    HW128796   0.822   2.523   4.438
 9299SOL    HW228797   0.736   2.659   4.468
 9300SOL     OW28798   0.339   4.861   4.769
 9300SOL    HW128799   0.304   4.916   4.693
 9300SOL    HW228800   0.287   4.775   4.773
 9301SOL     OW28801   4.703   4.590   3.688
 9301SOL    HW128802   4.677   4.505   3.733
 9301SOL    HW228803   4.716   4.574   3.590
 9302SOL     OW28804   2.202   3.209   4.376
 9302SOL    HW128805   2.173   3.180   4.467
 9302SOL    HW228806   2.166   3.300   4.357
 9303SOL     OW28807   3.705   6.146   0.894
 9303SOL    HW128808   3.739   6.239   0.905
 9303SOL    HW228809   3.627   6.145   0.832
 9304SOL     OW28810   4.352   3.980   1.052
 9304SOL    HW128811   4.262   3.978   1.094
 9304SOL    HW228812   4.347   3.942   0.959
 9305SOL     OW28813   4.044   1.581   1.771
 9305SOL    HW128814   4.084   1.670   1.749
 9305SOL    HW228815   3.958   1.570   1.720
 9306SOL     OW28816   0.515   4.820   5.033
 9306SOL    HW128817   0.464   4.823   4.947
 9306SOL    HW228818   0.595   4.880   5.026
 9307SOL     OW28819   1.407   3.484   1.720
 9307SOL    HW128820   1.409   3.483   1.620
 9307SOL    HW228821   1.497   3.508   1.755
 9308SOL     OW28822   1.138   3.916   1.083
 9308SOL    HW128823   1.081   3.864   1.020
 9308SOL    HW228824   1.230   3.878   1.084
 9309SOL     OW28825   3.477   5.180   5.512
 9309SOL    HW128826   3.505   5.097   5.464
 9309SOL    HW228827   3.408   5.158   5.581
 9310SOL     OW28828   4.498   5.829   6.221
 9310SOL    HW128829   4.452   5.758   6.273
 9310SOL    HW228830   4.579   5.791   6.176
 9311SOL     OW28831   6.032   4.927   1.673
 9311SOL    HW128832   6.089   4.941   1.593
 9311SOL    HW228833   6.086   4.883   1.745
 9312SOL     OW28834   1.613   4.063   1.411
 9312SOL    HW128835   1.667   4.016   1.341
 9312SOL    HW228836   1.643   4.158   1.418
 9313SOL     OW28837   0.434   0.761   1.006
 9313SOL    HW128838   0.427   0.760   0.906
 9313SOL    HW228839   0.531   0.763   1.032
 9314SOL     OW28840   3.889   5.376   5.889
 9314SOL    HW128841   3.887   5.475   5.906
 9314SOL    HW228842   3.867   5.358   5.793
 9315SOL     OW28843   6.446   0.822   5.280
 9315SOL    HW128844   6.442   0.724   5.263
 9315SOL    HW228845   6.536   0.847   5.315
 9316SOL     OW28846   4.137   5.113   5.217
 9316SOL    HW128847   4.061   5.168   5.181
 9316SOL    HW228848   4.124   5.017   5.193
 9317SOL     OW28849   6.551   5.537   3.186
 9317SOL    HW128850   6.515   5.591   3.262
 9317SOL    HW228851   6.550   5.592   3.102
 9318SOL     OW28852   6.655   1.099   4.852
 9318SOL    HW128853   6.672   1.025   4.787
 9318SOL    HW228854   6.611   1.175   4.804
 9319SOL     OW28855   0.435   2.700   5.582
 9319SOL    HW128856   0.378   2.755   5.520
 9319SOL    HW228857   0.529   2.734   5.580
 9320SOL     OW28858   4.664   1.896   6.738
 9320SOL    HW128859   4.737   1.874   6.674
 9320SOL    HW228860   4.610   1.813   6.756
 9321SOL     OW28861   6.048   6.947   2.752
 9321SOL    HW128862   6.054   6.953   2.653
 9321SOL    HW228863   5.960   6.906   2.777
 9322SOL     OW28864   6.902   6.118   6.456
 9322SOL    HW128865   6.808   6.141   6.481
 9322SOL    HW228866   6.958   6.112   6.539
 9323SOL     OW28867   2.019   0.045   5.590
 9323SOL    HW128868   2.012   0.142   5.566
 9323SOL    HW228869   1.950   0.022   5.658
 9324SOL     OW28870   1.755   5.383   0.543
 9324SOL    HW128871   1.804   5.304   0.580
 9324SOL    HW228872   1.674   5.352   0.494
 9325SOL     OW28873   5.411   1.814   0.022
 9325SOL    HW128874   5.322   1.815   7.001
 9325SOL    HW228875   5.401   1.778   0.115
 9326SOL     OW28876   2.217   0.069   0.954
 9326SOL    HW128877   2.200   0.155   0.906
 9326SOL    HW228878   2.314   0.045   0.945
 9327SOL     OW28879   4.823   6.614   2.541
 9327SOL    HW128880   4.836   6.713   2.542
 9327SOL    HW228881   4.727   6.592   2.530
 9328SOL     OW28882   3.715   0.884   6.253
 9328SOL    HW128883   3.679   0.791   6.243
 9328SOL    HW228884   3.809   0.887   6.219
 9329SOL     OW28885   0.133   4.085   2.214
 9329SOL    HW128886   0.182   3.999   2.198
 9329SOL    HW228887   0.173   4.132   2.292
 9330SOL     OW28888   0.338   5.996   7.011
 9330SOL    HW128889   0.373   6.054   0.061
 9330SOL    HW228890   0.355   6.040   6.923
 9331SOL     OW28891   1.363   1.498   5.843
 9331SOL    HW128892   1.288   1.480   5.778
 9331SOL    HW228893   1.349   1.442   5.925
 9332SOL     OW28894   3.768   3.924   2.935
 9332SOL    HW128895   3.713   3.861   2.990
 9332SOL    HW228896   3.779   4.011   2.984
 9333SOL     OW28897   4.645   3.761   1.550
 9333SOL    HW128898   4.600   3.768   1.461
 9333SOL    HW228899   4.636   3.847   1.599
 9334SOL     OW28900   3.968   0.205   3.984
 9334SOL    HW128901   4.055   0.235   4.022
 9334SOL    HW228902   3.896   0.216   4.052
 9335SOL     OW28903   1.139   1.130   6.123
 9335SOL    HW128904   1.162   1.226   6.138
 9335SOL    HW228905   1.117   1.088   6.211
 9336SOL     OW28906   3.487   5.630   6.549
 9336SOL    HW128907   3.442   5.678   6.474
 9336SOL    HW228908   3.569   5.680   6.576
 9337SOL     OW28909   5.151   0.828   3.486
 9337SOL    HW128910   5.207   0.911   3.491
 9337SOL    HW228911   5.069   0.846   3.432
 9338SOL     OW28912   4.260   0.904   1.855
 9338SOL    HW128913   4.182   0.842   1.857
 9338SOL    HW228914   4.262   0.953   1.768
 9339SOL     OW28915   5.374   6.714   0.702
 9339SOL    HW128916   5.445   6.773   0.662
 9339SOL    HW228917   5.286   6.736   0.661
 9340SOL     OW28918   5.030   3.613   5.171
 9340SOL    HW128919   4.967   3.579   5.101
 9340SOL    HW228920   5.002   3.579   5.261
 9341SOL     OW28921   0.444   5.440   6.408
 9341SOL    HW128922   0.490   5.529   6.398
 9341SOL    HW228923   0.418   5.427   6.503
 9342SOL     OW28924   2.214   0.977   3.947
 9342SOL    HW128925   2.300   0.994   3.995
 9342SOL    HW228926   2.233   0.961   3.850
 9343SOL     OW28927   6.107   4.454   3.087
 9343SOL    HW128928   6.088   4.368   3.135
 9343SOL    HW228929   6.187   4.498   3.128
 9344SOL     OW28930   4.490   5.686   1.522
 9344SOL    HW128931   4.414   5.737   1.482
 9344SOL    HW228932   4.575   5.737   1.510
 9345SOL     OW28933   6.139   3.832   1.613
 9345SOL    HW128934   6.227   3.787   1.602
 9345SOL    HW228935   6.127   3.858   1.709
 9346SOL     OW28936   6.262   1.017   1.224
 9346SOL    HW128937   6.241   1.016   1.126
 9346SOL    HW228938   6.242   0.927   1.262
 9347SOL     OW28939   1.357   5.481   0.899
 9347SOL    HW128940   1.288   5.439   0.839
 9347SOL    HW228941   1.314   5.553   0.954
 9348SOL     OW28942   4.121   5.480   1.428
 9348SOL    HW128943   4.122   5.385   1.398
 9348SOL    HW228944   4.141   5.540   1.350
 9349SOL     OW28945   0.392   0.058   2.471
 9349SOL    HW128946   0.372   6.994   2.513
 9349SOL    HW228947   0.436   0.044   2.382
 9350SOL     OW28948   0.480   3.010   5.460
 9350SOL    HW128949   0.543   3.081   5.428
 9350SOL    HW228950   0.477   2.936   5.394
 9351SOL     OW28951   3.282   1.094   6.363
 9351SOL    HW128952   3.222   1.087   6.284
 9351SOL    HW228953   3.369   1.049   6.343
 9352SOL     OW28954   2.686   3.630   0.308
 9352SOL    HW128955   2.728   3.540   0.317
 9352SOL    HW228956   2.747   3.690   0.256
 9353SOL     OW28957   0.839   5.421   1.662
 9353SOL    HW128958   0.928   5.413   1.707
 9353SOL    HW228959   0.783   5.341   1.682
 9354SOL     OW28960   6.849   2.196   6.627
 9354SOL    HW128961   6.759   2.154   6.617
 9354SOL    HW228962   6.887   2.216   6.537
 9355SOL     OW28963   0.794   2.378   5.025
 9355SOL    HW128964   0.726   2.334   4.966
 9355SOL    HW228965   0.751   2.452   5.077
 9356SOL     OW28966   3.632   0.226   1.249
 9356SOL    HW128967   3.547   0.226   1.301
 9356SOL    HW228968   3.702   0.278   1.300
 9357SOL     OW28969   1.121   2.865   6.317
 9357SOL    HW128970   1.071   2.878   6.232
 9357SOL    HW228971   1.079   2.791   6.370
 9358SOL     OW28972   0.712   4.050   2.266
 9358SOL    HW128973   0.738   4.096   2.182
 9358SOL    HW228974   0.757   3.960   2.271
 9359SOL     OW28975   1.800   5.526   6.357
 9359SOL    HW128976   1.875   5.489   6.413
 9359SOL    HW228977   1.831   5.535   6.262
 9360SOL     OW28978   1.458   6.327   6.445
 9360SOL    HW128979   1.493   6.350   6.536
 9360SOL    HW228980   1.431   6.231   6.443
 9361SOL     OW28981   2.110   6.001   3.145
 9361SOL    HW128982   2.133   5.924   3.086
 9361SOL    HW228983   2.182   6.015   3.212
 9362SOL     OW28984   1.597   1.750   2.263
 9362SOL    HW128985   1.498   1.752   2.270
 9362SOL    HW228986   1.637   1.764   2.354
 9363SOL     OW28987   3.256   5.221   1.724
 9363SOL    HW128988   3.258   5.164   1.806
 9363SOL    HW228989   3.167   5.214   1.680
 9364SOL     OW28990   2.511   2.914   1.711
 9364SOL    HW128991   2.477   2.848   1.778
 9364SOL    HW228992   2.441   2.930   1.642
 9365SOL     OW28993   2.798   2.008   4.359
 9365SOL    HW128994   2.824   1.989   4.264
 9365SOL    HW228995   2.716   2.066   4.360
 9366SOL     OW28996   3.305   5.942   0.134
 9366SOL    HW128997   3.243   5.874   0.173
 9366SOL    HW228998   3.373   5.968   0.203
 9367SOL     OW28999   5.480   0.738   1.297
 9367SOL    HW129000   5.437   0.649   1.313
 9367SOL    HW229001   5.569   0.724   1.253
 9368SOL     OW29002   3.711   0.000   2.592
 9368SOL    HW129003   3.762   0.041   2.666
 9368SOL    HW229004   3.713   0.060   2.512
 9369SOL     OW29005   0.551   5.838   4.977
 9369SOL    HW129006   0.558   5.818   5.075
 9369SOL    HW229007   0.477   5.904   4.962
 9370SOL     OW29008   4.877   1.120   3.546
 9370SOL    HW129009   4.894   1.219   3.542
 9370SOL    HW229010   4.885   1.090   3.641
 9371SOL     OW29011   3.492   5.253   1.278
 9371SOL    HW129012   3.441   5.168   1.260
 9371SOL    HW229013   3.479   5.316   1.201
 9372SOL     OW29014   4.539   0.073   1.423
 9372SOL    HW129015   4.550   0.032   1.333
 9372SOL    HW229016   4.545   0.002   1.493
 9373SOL     OW29017   6.377   2.624   0.428
 9373SOL    HW129018   6.451   2.643   0.493
 9373SOL    HW229019   6.303   2.576   0.474
 9374SOL     OW29020   0.654   4.247   5.658
 9374SOL    HW129021   0.667   4.266   5.755
 9374SOL    HW229022   0.575   4.298   5.624
 9375SOL     OW29023   0.129   1.901   0.209
 9375SOL    HW129024   0.216   1.852   0.215
 9375SOL    HW229025   0.145   1.993   0.172
 9376SOL     OW29026   2.073   3.585   2.174
 9376SOL    HW129027   2.135   3.550   2.105
 9376SOL    HW229028   2.066   3.684   2.166
 9377SOL     OW29029   2.598   4.906   2.617
 9377SOL    HW129030   2.556   4.978   2.673
 9377SOL    HW229031   2.579   4.817   2.658
 9378SOL     OW29032   3.589   0.839   3.575
 9378SOL    HW129033   3.689   0.842   3.583
 9378SOL    HW229034   3.550   0.789   3.652
 9379SOL     OW29035   4.567   6.618   4.703
 9379SOL    HW129036   4.569   6.680   4.624
 9379SOL    HW229037   4.641   6.551   4.693
 9380SOL     OW29038   3.656   5.381   5.735
 9380SOL    HW129039   3.639   5.449   5.664
 9380SOL    HW229040   3.578   5.319   5.742
 9381SOL     OW29041   4.929   1.806   4.474
 9381SOL    HW129042   4.978   1.867   4.536
 9381SOL    HW229043   4.831   1.807   4.496
 9382SOL     OW29044   3.668   0.828   4.069
 9382SOL    HW129045   3.656   0.864   4.162
 9382SOL    HW229046   3.764   0.804   4.055
 9383SOL     OW29047   5.010   3.996   3.492
 9383SOL    HW129048   5.043   3.902   3.498
 9383SOL    HW229049   5.074   4.051   3.439
 9384SOL     OW29050   2.073   6.891   2.073
 9384SOL    HW129051   2.089   6.982   2.035
 9384SOL    HW229052   2.114   6.822   2.013
 9385SOL     OW29053   3.856   1.392   4.049
 9385SOL    HW129054   3.840   1.373   3.952
 9385SOL    HW229055   3.953   1.407   4.065
 9386SOL     OW29056   3.591   6.223   5.127
 9386SOL    HW129057   3.530   6.147   5.150
 9386SOL    HW229058   3.559   6.267   5.044
 9387SOL     OW29059   4.119   2.168   0.206
 9387SOL    HW129060   4.121   2.162   0.106
 9387SOL    HW229061   4.144   2.079   0.245
 9388SOL     OW29062   1.621   0.103   4.248
 9388SOL    HW129063   1.691   0.092   4.178
 9388SOL    HW229064   1.660   0.143   4.330
 9389SOL     OW29065   3.512   5.265   2.573
 9389SOL    HW129066   3.414   5.268   2.594
 9389SOL    HW229067   3.528   5.197   2.501
 9390SOL     OW29068   5.092   4.728   5.489
 9390SOL    HW129069   5.102   4.631   5.508
 9390SOL    HW229070   5.170   4.778   5.528
 9391SOL     OW29071   1.031   6.644   4.759
 9391SOL    HW129072   1.016   6.670   4.855
 9391SOL    HW229073   0.947   6.605   4.721
 9392SOL     OW29074   5.274   4.239   3.573
 9392SOL    HW129075   5.262   4.231   3.474
 9392SOL    HW229076   5.188   4.215   3.619
 9393SOL     OW29077   3.137   6.476   6.328
 9393SOL    HW129078   3.052   6.445   6.371
 9393SOL    HW229079   3.202   6.401   6.322
 9394SOL     OW29080   5.757   0.577   1.417
 9394SOL    HW129081   5.767   0.625   1.330
 9394SOL    HW229082   5.821   0.616   1.484
 9395SOL     OW29083   3.111   1.697   0.670
 9395SOL    HW129084   3.154   1.718   0.758
 9395SOL    HW229085   3.028   1.751   0.660
 9396SOL     OW29086   1.667   6.039   6.482
 9396SOL    HW129087   1.604   5.982   6.431
 9396SOL    HW229088   1.715   6.100   6.419
 9397SOL     OW29089   3.590   0.347   6.194
 9397SOL    HW129090   3.525   0.291   6.245
 9397SOL    HW229091   3.683   0.326   6.225
 9398SOL     OW29092   6.372   0.942   6.576
 9398SOL    HW129093   6.454   0.911   6.527
 9398SOL    HW229094   6.367   0.896   6.665
 9399SOL     OW29095   1.783   2.914   3.999
 9399SOL    HW129096   1.816   3.007   4.017
 9399SOL    HW229097   1.853   2.862   3.950
 9400SOL     OW29098   5.325   1.417   0.161
 9400SOL    HW129099   5.383   1.369   0.094
 9400SOL    HW229100   5.302   1.354   0.235
 9401SOL     OW29101   0.806   2.695   2.601
 9401SOL    HW129102   0.765   2.662   2.686
 9401SOL    HW229103   0.829   2.618   2.542
 9402SOL     OW29104   1.607   5.531   3.043
 9402SOL    HW129105   1.661   5.582   2.976
 9402SOL    HW229106   1.669   5.483   3.105
 9403SOL     OW29107   6.552   1.232   2.107
 9403SOL    HW129108   6.484   1.287   2.058
 9403SOL    HW229109   6.531   1.135   2.097
 9404SOL     OW29110   1.556   3.349   1.102
 9404SOL    HW129111   1.466   3.329   1.138
 9404SOL    HW229112   1.557   3.441   1.063
 9405SOL     OW29113   0.401   4.637   5.218
 9405SOL    HW129114   0.378   4.558   5.161
 9405SOL    HW229115   0.426   4.714   5.160
 9406SOL     OW29116   0.567   3.123   6.319
 9406SOL    HW129117   0.518   3.089   6.400
 9406SOL    HW229118   0.663   3.138   6.342
 9407SOL     OW29119   2.278   5.355   4.914
 9407SOL    HW129120   2.198   5.415   4.913
 9407SOL    HW229121   2.251   5.263   4.884
 9408SOL     OW29122   6.772   4.286   5.421
 9408SOL    HW129123   6.687   4.336   5.404
 9408SOL    HW229124   6.761   4.229   5.503
 9409SOL     OW29125   6.585   5.395   2.046
 9409SOL    HW129126   6.653   5.462   2.017
 9409SOL    HW229127   6.582   5.320   1.981
 9410SOL     OW29128   4.362   0.519   1.931
 9410SOL    HW129129   4.284   0.555   1.983
 9410SOL    HW229130   4.432   0.590   1.922
 9411SOL     OW29131   4.072   3.329   3.884
 9411SOL    HW129132   4.064   3.244   3.935
 9411SOL    HW229133   4.011   3.328   3.805
 9412SOL     OW29134   0.308   0.724   1.241
 9412SOL    HW129135   0.335   0.746   1.147
 9412SOL    HW229136   0.283   0.628   1.247
 9413SOL     OW29137   4.310   5.029   3.908
 9413SOL    HW129138   4.402   4.990   3.899
 9413SOL    HW229139   4.279   5.018   4.002
 9414SOL     OW29140   2.389   2.306   5.133
 9414SOL    HW129141   2.444   2.389   5.140
 9414SOL    HW229142   2.295   2.330   5.110
 9415SOL     OW29143   3.701   0.355   2.177
 9415SOL    HW129144   3.743   0.362   2.087
 9415SOL    HW229145   3.609   0.317   2.168
 9416SOL     OW29146   0.154   6.055   6.189
 9416SOL    HW129147   0.153   6.147   6.152
 9416SOL    HW229148   0.198   6.056   6.279
 9417SOL     OW29149   2.869   6.597   0.831
 9417SOL    HW129150   2.903   6.503   0.836
 9417SOL    HW229151   2.943   6.658   0.801
 9418SOL     OW29152   3.033   1.815   4.306
 9418SOL    HW129153   2.956   1.871   4.335
 9418SOL    HW229154   3.113   1.873   4.291
 9419SOL     OW29155   3.096   2.408   6.694
 9419SOL    HW129156   2.998   2.394   6.701
 9419SOL    HW229157   3.138   2.329   6.649
 9420SOL     OW29158   5.368   3.289   0.180
 9420SOL    HW129159   5.360   3.210   0.240
 9420SOL    HW229160   5.311   3.276   0.099
 9421SOL     OW29161   3.796   6.250   5.640
 9421SOL    HW129162   3.896   6.252   5.638
 9421SOL    HW229163   3.763   6.182   5.575
 9422SOL     OW29164   2.770   5.990   4.288
 9422SOL    HW129165   2.683   5.996   4.337
 9422SOL    HW229166   2.845   5.980   4.354
 9423SOL     OW29167   3.929   5.925   3.111
 9423SOL    HW129168   3.933   6.006   3.053
 9423SOL    HW229169   4.018   5.879   3.112
 9424SOL     OW29170   5.509   0.983   4.534
 9424SOL    HW129171   5.586   0.953   4.591
 9424SOL    HW229172   5.454   1.049   4.585
 9425SOL     OW29173   6.681   4.832   0.535
 9425SOL    HW129174   6.744   4.884   0.477
 9425SOL    HW229175   6.639   4.760   0.481
 9426SOL     OW29176   0.531   1.851   6.205
 9426SOL    HW129177   0.523   1.924   6.137
 9426SOL    HW229178   0.610   1.793   6.183
 9427SOL     OW29179   3.846   5.690   2.864
 9427SOL    HW129180   3.812   5.713   2.956
 9427SOL    HW229181   3.945   5.683   2.866
 9428SOL     OW29182   6.522   0.068   6.686
 9428SOL    HW129183   6.528   0.016   6.601
 9428SOL    HW229184   6.607   0.056   6.738
 9429SOL     OW29185   1.141   2.228   4.059
 9429SOL    HW129186   1.197   2.282   3.998
 9429SOL    HW229187   1.197   2.190   4.132
 9430SOL     OW29188   0.383   2.036   4.260
 9430SOL    HW129189   0.416   1.944   4.283
 9430SOL    HW229190   0.434   2.071   4.182
 9431SOL     OW29191   6.784   4.607   6.879
 9431SOL    HW129192   6.760   4.510   6.878
 9431SOL    HW229193   6.761   4.646   6.968
 9432SOL     OW29194   6.591   1.668   3.462
 9432SOL    HW129195   6.677   1.695   3.417
 9432SOL    HW229196   6.514   1.709   3.414
 9433SOL     OW29197   4.152   6.360   2.763
 9433SOL    HW129198   4.170   6.372   2.665
 9433SOL    HW229199   4.153   6.449   2.809
 9434SOL     OW29200   4.896   5.647   3.909
 9434SOL    HW129201   4.905   5.578   3.837
 9434SOL    HW229202   4.841   5.723   3.874
 9435SOL     OW29203   0.515   2.512   1.856
 9435SOL    HW129204   0.601   2.563   1.861
 9435SOL    HW229205   0.472   2.511   1.946
 9436SOL     OW29206   0.598   0.985   2.696
 9436SOL    HW129207   0.504   1.007   2.722
 9436SOL    HW229208   0.661   1.037   2.753
 9437SOL     OW29209   0.240   5.055   4.561
 9437SOL    HW129210   0.253   5.085   4.467
 9437SOL    HW229211   0.158   4.998   4.567
 9438SOL     OW29212   2.187   6.375   1.776
 9438SOL    HW129213   2.137   6.379   1.862
 9438SOL    HW229214   2.206   6.280   1.752
 9439SOL     OW29215   0.670   2.961   6.971
 9439SOL    HW129216   0.675   2.942   6.873
 9439SOL    HW229217   0.759   2.945   7.013
 9440SOL     OW29218   3.378   4.916   3.544
 9440SOL    HW129219   3.354   5.013   3.539
 9440SOL    HW229220   3.438   4.899   3.622
 9441SOL     OW29221   6.782   5.820   4.102
 9441SOL    HW129222   6.706   5.834   4.039
 9441SOL    HW229223   6.749   5.822   4.196
 9442SOL     OW29224   4.586   3.678   0.496
 9442SOL    HW129225   4.638   3.641   0.419
 9442SOL    HW229226   4.595   3.616   0.575
 9443SOL     OW29227   2.847   4.764   2.507
 9443SOL    HW129228   2.762   4.785   2.556
 9443SOL    HW229229   2.827   4.746   2.411
 9444SOL     OW29230   2.288   4.139   0.399
 9444SOL    HW129231   2.195   4.125   0.367
 9444SOL    HW229232   2.348   4.068   0.363
 9445SOL     OW29233   0.349   1.412   3.974
 9445SOL    HW129234   0.434   1.415   3.921
 9445SOL    HW229235   0.340   1.322   4.016
 9446SOL     OW29236   6.279   4.832   3.594
 9446SOL    HW129237   6.215   4.756   3.589
 9446SOL    HW229238   6.324   4.833   3.683
 9447SOL     OW29239   5.727   5.287   2.728
 9447SOL    HW129240   5.696   5.231   2.651
 9447SOL    HW229241   5.747   5.228   2.806
 9448SOL     OW29242   5.733   0.490   5.791
 9448SOL    HW129243   5.710   0.553   5.865
 9448SOL    HW229244   5.747   0.542   5.706
 9449SOL     OW29245   5.953   6.791   1.273
 9449SOL    HW129246   5.961   6.720   1.203
 9449SOL    HW229247   5.998   6.761   1.357
 9450SOL     OW29248   1.406   5.843   4.309
 9450SOL    HW129249   1.390   5.942   4.317
 9450SOL    HW229250   1.381   5.798   4.395
 9451SOL     OW29251   3.564   5.401   6.424
 9451SOL    HW129252   3.518   5.486   6.448
 9451SOL    HW229253   3.655   5.400   6.466
 9452SOL     OW29254   0.153   4.180   1.180
 9452SOL    HW129255   0.088   4.241   1.226
 9452SOL    HW229256   0.158   4.203   1.083
 9453SOL     OW29257   3.882   5.256   2.919
 9453SOL    HW129258   3.969   5.284   2.959
 9453SOL    HW229259   3.826   5.211   2.989
 9454SOL     OW29260   4.485   4.391   0.792
 9454SOL    HW129261   4.389   4.382   0.766
 9454SOL    HW229262   4.516   4.307   0.837
 9455SOL     OW29263   2.707   2.328   2.195
 9455SOL    HW129264   2.656   2.414   2.202
 9455SOL    HW229265   2.791   2.344   2.144
 9456SOL     OW29266   6.136   3.245   2.167
 9456SOL    HW129267   6.128   3.264   2.070
 9456SOL    HW229268   6.053   3.201   2.201
 9457SOL     OW29269   1.083   4.793   3.823
 9457SOL    HW129270   0.989   4.771   3.848
 9457SOL    HW229271   1.138   4.709   3.824
 9458SOL     OW29272   6.586   3.817   0.294
 9458SOL    HW129273   6.492   3.806   0.324
 9458SOL    HW229274   6.625   3.901   0.332
 9459SOL     OW29275   5.083   4.709   4.699
 9459SOL    HW129276   5.149   4.770   4.654
 9459SOL    HW229277   5.041   4.757   4.776
 9460SOL     OW29278   0.938   2.724   3.129
 9460SOL    HW129279   0.932   2.808   3.074
 9460SOL    HW229280   0.918   2.645   3.071
 9461SOL     OW29281   1.847   2.208   1.639
 9461SOL    HW129282   1.905   2.194   1.719
 9461SOL    HW229283   1.786   2.285   1.654
 9462SOL     OW29284   2.100   1.761   4.292
 9462SOL    HW129285   2.098   1.795   4.386
 9462SOL    HW229286   2.151   1.825   4.235
 9463SOL     OW29287   5.503   6.722   0.960
 9463SOL    HW129288   5.455   6.746   1.044
 9463SOL    HW229289   5.438   6.718   0.884
 9464SOL     OW29290   0.298   0.823   1.797
 9464SOL    HW129291   0.211   0.869   1.780
 9464SOL    HW229292   0.313   0.816   1.896
 9465SOL     OW29293   0.534   4.181   1.578
 9465SOL    HW129294   0.584   4.145   1.499
 9465SOL    HW229295   0.440   4.203   1.551
 9466SOL     OW29296   4.079   5.080   6.700
 9466SOL    HW129297   4.064   5.008   6.632
 9466SOL    HW229298   4.031   5.057   6.784
 9467SOL     OW29299   2.250   3.197   0.813
 9467SOL    HW129300   2.315   3.127   0.842
 9467SOL    HW229301   2.210   3.241   0.894
 9468SOL     OW29302   6.429   3.128   0.431
 9468SOL    HW129303   6.494   3.203   0.423
 9468SOL    HW229304   6.426   3.097   0.526
 9469SOL     OW29305   0.038   5.892   0.667
 9469SOL    HW129306   6.984   5.846   0.711
 9469SOL    HW229307   0.075   5.832   0.596
 9470SOL     OW29308   4.896   3.908   0.610
 9470SOL    HW129309   4.868   3.819   0.647
 9470SOL    HW229310   4.828   3.977   0.636
 9471SOL     OW29311   6.100   2.021   5.036
 9471SOL    HW129312   6.137   2.059   5.120
 9471SOL    HW229313   6.167   1.960   4.994
 9472SOL     OW29314   1.456   4.059   6.116
 9472SOL    HW129315   1.437   4.141   6.169
 9472SOL    HW229316   1.373   4.003   6.109
 9473SOL     OW29317   2.830   4.627   0.455
 9473SOL    HW129318   2.772   4.568   0.511
 9473SOL    HW229319   2.873   4.695   0.513
 9474SOL     OW29320   5.584   3.592   1.846
 9474SOL    HW129321   5.680   3.617   1.850
 9474SOL    HW229322   5.571   3.521   1.776
 9475SOL     OW29323   4.957   3.783   5.692
 9475SOL    HW129324   5.014   3.776   5.774
 9475SOL    HW229325   4.875   3.728   5.704
 9476SOL     OW29326   3.663   4.243   5.858
 9476SOL    HW129327   3.689   4.312   5.926
 9476SOL    HW229328   3.582   4.195   5.891
 9477SOL     OW29329   2.111   3.951   1.618
 9477SOL    HW129330   2.143   3.967   1.711
 9477SOL    HW229331   2.042   3.877   1.618
 9478SOL     OW29332   5.329   2.536   0.355
 9478SOL    HW129333   5.254   2.599   0.375
 9478SOL    HW229334   5.373   2.562   0.269
 9479SOL     OW29335   4.282   1.039   1.586
 9479SOL    HW129336   4.348   1.114   1.591
 9479SOL    HW229337   4.190   1.075   1.602
 9480SOL     OW29338   6.343   6.389   6.868
 9480SOL    HW129339   6.437   6.360   6.852
 9480SOL    HW229340   6.294   6.395   6.781
 9481SOL     OW29341   4.454   1.774   3.396
 9481SOL    HW129342   4.483   1.841   3.464
 9481SOL    HW229343   4.369   1.803   3.353
 9482SOL     OW29344   5.921   0.992   0.720
 9482SOL    HW129345   5.846   1.037   0.672
 9482SOL    HW229346   6.008   1.033   0.694
 9483SOL     OW29347   0.784   0.644   0.375
 9483SOL    HW129348   0.779   0.710   0.300
 9483SOL    HW229349   0.866   0.660   0.429
 9484SOL     OW29350   3.158   6.107   4.506
 9484SOL    HW129351   3.208   6.077   4.587
 9484SOL    HW229352   3.078   6.049   4.493
 9485SOL     OW29353   6.596   1.438   7.001
 9485SOL    HW129354   6.507   1.445   0.021
 9485SOL    HW229355   6.668   1.442   0.046
 9486SOL     OW29356   4.568   5.755   0.114
 9486SOL    HW129357   4.608   5.733   0.203
 9486SOL    HW229358   4.471   5.772   0.124
 9487SOL     OW29359   2.992   3.286   4.226
 9487SOL    HW129360   2.914   3.256   4.170
 9487SOL    HW229361   3.055   3.210   4.238
 9488SOL     OW29362   1.573   1.228   1.114
 9488SOL    HW129363   1.517   1.147   1.134
 9488SOL    HW229364   1.589   1.279   1.198
 9489SOL     OW29365   5.110   3.992   0.747
 9489SOL    HW129366   5.027   3.976   0.694
 9489SOL    HW229367   5.179   4.037   0.689
 9490SOL     OW29368   6.096   4.324   3.681
 9490SOL    HW129369   5.998   4.337   3.693
 9490SOL    HW229370   6.112   4.239   3.631
 9491SOL     OW29371   5.050   6.890   3.517
 9491SOL    HW129372   5.121   6.828   3.482
 9491SOL    HW229373   5.091   6.955   3.581
 9492SOL     OW29374   4.908   3.067   4.467
 9492SOL    HW129375   4.853   2.992   4.503
 9492SOL    HW229376   4.918   3.137   4.538
 9493SOL     OW29377   4.230   6.485   3.991
 9493SOL    HW129378   4.273   6.573   4.014
 9493SOL    HW229379   4.137   6.502   3.958
 9494SOL     OW29380   5.192   2.925   2.128
 9494SOL    HW129381   5.200   3.024   2.134
 9494SOL    HW229382   5.117   2.901   2.066
 9495SOL     OW29383   0.740   0.390   2.031
 9495SOL    HW129384   0.755   0.437   1.944
 9495SOL    HW229385   0.643   0.371   2.042
 9496SOL     OW29386   4.110   1.830   2.484
 9496SOL    HW129387   4.151   1.841   2.394
 9496SOL    HW229388   4.027   1.886   2.490
 9497SOL     OW29389   5.838   5.479   4.797
 9497SOL    HW129390   5.873   5.454   4.887
 9497SOL    HW229391   5.738   5.484   4.800
 9498SOL     OW29392   6.911   5.287   4.509
 9498SOL    HW129393   6.996   5.340   4.509
 9498SOL    HW229394   6.849   5.324   4.578
 9499SOL     OW29395   6.420   5.608   5.785
 9499SOL    HW129396   6.342   5.546   5.779
 9499SOL    HW229397   6.503   5.560   5.756
 9500SOL     OW29398   4.446   0.270   0.885
 9500SOL    HW129399   4.505   0.295   0.961
 9500SOL    HW229400   4.472   0.322   0.804
 9501SOL     OW29401   1.529   1.592   4.536
 9501SOL    HW129402   1.486   1.515   4.489
 9501SOL    HW229403   1.469   1.672   4.530
 9502SOL     OW29404   5.460   4.720   5.863
 9502SOL    HW129405   5.426   4.747   5.773
 9502SOL    HW229406   5.415   4.635   5.892
 9503SOL     OW29407   0.523   2.069   0.029
 9503SOL    HW129408   0.446   2.093   6.995
 9503SOL    HW229409   0.605   2.058   6.997
 9504SOL     OW29410   6.639   4.847   1.600
 9504SOL    HW129411   6.584   4.772   1.564
 9504SOL    HW229412   6.579   4.919   1.635
 9505SOL     OW29413   4.579   4.726   5.285
 9505SOL    HW129414   4.660   4.784   5.282
 9505SOL    HW229415   4.530   4.740   5.371
 9506SOL     OW29416   3.107   2.185   1.094
 9506SOL    HW129417   3.034   2.173   1.027
 9506SOL    HW229418   3.072   2.162   1.185
 9507SOL     OW29419   5.926   7.022   1.828
 9507SOL    HW129420   5.967   0.082   1.864
 9507SOL    HW229421   5.879   6.974   1.902
 9508SOL     OW29422   4.619   1.532   2.787
 9508SOL    HW129423   4.675   1.451   2.805
 9508SOL    HW229424   4.672   1.615   2.806
 9509SOL     OW29425   6.401   0.316   2.754
 9509SOL    HW129426   6.403   0.273   2.845
 9509SOL    HW229427   6.480   0.376   2.745
 9510SOL     OW29428   0.105   2.976   3.924
 9510SOL    HW129429   0.143   3.042   3.859
 9510SOL    HW229430   0.082   2.891   3.876
 9511SOL     OW29431   1.338   1.122   0.672
 9511SOL    HW129432   1.400   1.137   0.749
 9511SOL    HW229433   1.267   1.056   0.697
 9512SOL     OW29434   6.454   2.995   0.930
 9512SOL    HW129435   6.375   3.056   0.924
 9512SOL    HW229436   6.424   2.905   0.960
 9513SOL     OW29437   4.552   4.945   6.416
 9513SOL    HW129438   4.472   4.971   6.469
 9513SOL    HW229439   4.610   4.884   6.470
 9514SOL     OW29440   3.117   3.223   6.906
 9514SOL    HW129441   3.025   3.241   6.941
 9514SOL    HW229442   3.140   3.289   6.835
 9515SOL     OW29443   2.777   5.193   3.794
 9515SOL    HW129444   2.810   5.185   3.700
 9515SOL    HW229445   2.745   5.286   3.811
 9516SOL     OW29446   6.244   3.835   0.145
 9516SOL    HW129447   6.251   3.764   0.075
 9516SOL    HW229448   6.148   3.845   0.172
 9517SOL     OW29449   0.983   4.124   1.076
 9517SOL    HW129450   1.046   4.049   1.100
 9517SOL    HW229451   1.027   4.212   1.095
 9518SOL     OW29452   2.433   1.451   0.591
 9518SOL    HW129453   2.517   1.505   0.579
 9518SOL    HW229454   2.441   1.396   0.674
 9519SOL     OW29455   0.697   3.157   5.407
 9519SOL    HW129456   0.717   3.072   5.359
 9519SOL    HW229457   0.780   3.192   5.449
 9520SOL     OW29458   2.439   0.077   3.119
 9520SOL    HW129459   2.507   0.134   3.073
 9520SOL    HW229460   2.407   0.006   3.056
 9521SOL     OW29461   5.759   5.743   4.186
 9521SOL    HW129462   5.715   5.796   4.113
 9521SOL    HW229463   5.725   5.773   4.275
 9522SOL     OW29464   3.323   5.794   1.179
 9522SOL    HW129465   3.238   5.798   1.126
 9522SOL    HW229466   3.398   5.768   1.119
 9523SOL     OW29467   3.540   5.247   4.589
 9523SOL    HW129468   3.533   5.188   4.669
 9523SOL    HW229469   3.456   5.241   4.536
 9524SOL     OW29470   3.494   3.221   1.100
 9524SOL    HW129471   3.574   3.256   1.051
 9524SOL    HW229472   3.511   3.226   1.199
 9525SOL     OW29473   2.008   0.867   5.702
 9525SOL    HW129474   2.076   0.813   5.752
 9525SOL    HW229475   1.997   0.956   5.746
 9526SOL     OW29476   4.635   6.181   3.205
 9526SOL    HW129477   4.591   6.142   3.124
 9526SOL    HW229478   4.710   6.122   3.233
 9527SOL     OW29479   1.189   1.005   1.957
 9527SOL    HW129480   1.137   1.020   2.041
 9527SOL    HW229481   1.286   1.026   1.974
 9528SOL     OW29482   6.290   0.384   1.485
 9528SOL    HW129483   6.193   0.399   1.464
 9528SOL    HW229484   6.311   0.286   1.478
 9529SOL     OW29485   0.869   3.196   6.398
 9529SOL    HW129486   0.905   3.275   6.348
 9529SOL    HW229487   0.910   3.112   6.362
 9530SOL     OW29488   1.531   2.524   3.124
 9530SOL    HW129489   1.460   2.541   3.192
 9530SOL    HW229490   1.619   2.556   3.158
 9531SOL     OW29491   3.398   0.250   3.345
 9531SOL    HW129492   3.463   0.314   3.303
 9531SOL    HW229493   3.436   0.218   3.432
 9532SOL     OW29494   1.903   0.245   1.294
 9532SOL    HW129495   1.809   0.264   1.323
 9532SOL    HW229496   1.903   0.171   1.227
 9533SOL     OW29497   1.512   1.049   5.676
 9533SOL    HW129498   1.462   1.068   5.590
 9533SOL    HW229499   1.477   0.964   5.716
 9534SOL     OW29500   5.158   2.245   4.796
 9534SOL    HW129501   5.159   2.345   4.787
 9534SOL    HW229502   5.215   2.218   4.874
 9535SOL     OW29503   2.452   1.296   5.568
 9535SOL    HW129504   2.487   1.293   5.474
 9535SOL    HW229505   2.437   1.391   5.596
 9536SOL     OW29506   1.916   5.793   5.601
 9536SOL    HW129507   1.982   5.721   5.580
 9536SOL    HW229508   1.853   5.761   5.671
 9537SOL     OW29509   3.062   0.461   2.368
 9537SOL    HW129510   2.972   0.477   2.328
 9537SOL    HW229511   3.131   0.461   2.295
 9538SOL     OW29512   6.622   2.215   4.554
 9538SOL    HW129513   6.698   2.150   4.558
 9538SOL    HW229514   6.588   2.232   4.647
 9539SOL     OW29515   0.688   6.023   7.009
 9539SOL    HW129516   0.785   6.003   6.994
 9539SOL    HW229517   0.678   6.101   0.046
 9540SOL     OW29518   4.249   5.094   4.875
 9540SOL    HW129519   4.198   5.014   4.907
 9540SOL    HW229520   4.328   5.064   4.821
 9541SOL     OW29521   1.870   2.794   4.299
 9541SOL    HW129522   1.903   2.826   4.388
 9541SOL    HW229523   1.831   2.871   4.248
 9542SOL     OW29524   4.901   3.221   4.728
 9542SOL    HW129525   4.873   3.316   4.745
 9542SOL    HW229526   4.984   3.201   4.779
 9543SOL     OW29527   4.925   1.184   3.148
 9543SOL    HW129528   4.912   1.253   3.076
 9543SOL    HW229529   4.917   1.228   3.237
 9544SOL     OW29530   5.211   1.274   2.355
 9544SOL    HW129531   5.306   1.254   2.335
 9544SOL    HW229532   5.196   1.266   2.454
 9545SOL     OW29533   6.798   0.359   3.229
 9545SOL    HW129534   6.703   0.385   3.248
 9545SOL    HW229535   6.801   0.306   3.144
 9546SOL     OW29536   2.614   5.482   6.880
 9546SOL    HW129537   2.598   5.571   6.921
 9546SOL    HW229538   2.704   5.448   6.907
 9547SOL     OW29539   0.512   6.202   4.791
 9547SOL    HW129540   0.498   6.301   4.800
 9547SOL    HW229541   0.551   6.167   4.876
 9548SOL     OW29542   5.255   5.713   3.960
 9548SOL    HW129543   5.185   5.701   3.890
 9548SOL    HW229544   5.277   5.625   4.002
 9549SOL     OW29545   2.349   5.873   0.469
 9549SOL    HW129546   2.360   5.778   0.498
 9549SOL    HW229547   2.350   5.932   0.549
 9550SOL     OW29548   1.373   1.770   0.295
 9550SOL    HW129549   1.367   1.838   0.367
 9550SOL    HW229550   1.418   1.810   0.215
 9551SOL     OW29551   0.632   6.833   4.863
 9551SOL    HW129552   0.693   6.801   4.935
 9551SOL    HW229553   0.620   6.932   4.872
 9552SOL     OW29554   2.005   6.276   3.172
 9552SOL    HW129555   1.995   6.178   3.188
 9552SOL    HW229556   2.074   6.313   3.234
 9553SOL     OW29557   6.059   4.277   5.871
 9553SOL    HW129558   6.130   4.293   5.803
 9553SOL    HW229559   6.082   4.327   5.955
 9554SOL     OW29560   2.297   1.297   2.052
 9554SOL    HW129561   2.313   1.308   1.954
 9554SOL    HW229562   2.232   1.367   2.083
 9555SOL     OW29563   6.782   2.022   0.806
 9555SOL    HW129564   6.864   2.065   0.767
 9555SOL    HW229565   6.736   1.968   0.736
 9556SOL     OW29566   2.674   1.172   1.519
 9556SOL    HW129567   2.750   1.215   1.568
 9556SOL    HW229568   2.594   1.170   1.577
 9557SOL     OW29569   5.219   0.234   2.326
 9557SOL    HW129570   5.238   0.161   2.261
 9557SOL    HW229571   5.303   0.282   2.349
 9558SOL     OW29572   6.753   4.888   2.725
 9558SOL    HW129573   6.738   4.825   2.802
 9558SOL    HW229574   6.777   4.835   2.644
 9559SOL     OW29575   6.746   3.062   1.449
 9559SOL    HW129576   6.822   2.999   1.432
 9559SOL    HW229577   6.768   3.152   1.412
 9560SOL     OW29578   2.824   1.200   3.401
 9560SOL    HW129579   2.762   1.270   3.365
 9560SOL    HW229580   2.900   1.187   3.337
 9561SOL     OW29581   4.287   6.817   0.913
 9561SOL    HW129582   4.261   6.722   0.932
 9561SOL    HW229583   4.343   6.820   0.831
 9562SOL     OW29584   4.900   5.191   2.583
 9562SOL    HW129585   4.934   5.277   2.544
 9562SOL    HW229586   4.950   5.170   2.666
 9563SOL     OW29587   6.731   5.751   6.570
 9563SOL    HW129588   6.733   5.758   6.470
 9563SOL    HW229589   6.714   5.841   6.610
 9564SOL     OW29590   3.121   6.829   0.024
 9564SOL    HW129591   3.123   6.764   0.100
 9564SOL    HW229592   3.026   6.856   0.006
 9565SOL     OW29593   3.534   5.883   4.493
 9565SOL    HW129594   3.538   5.967   4.439
 9565SOL    HW229595   3.461   5.889   4.560
 9566SOL     OW29596   2.829   4.466   5.586
 9566SOL    HW129597   2.781   4.505   5.507
 9566SOL    HW229598   2.925   4.495   5.584
 9567SOL     OW29599   6.003   5.884   6.028
 9567SOL    HW129600   6.001   5.788   5.998
 9567SOL    HW229601   6.071   5.934   5.975
 9568SOL     OW29602   4.777   3.730   6.715
 9568SOL    HW129603   4.686   3.766   6.692
 9568SOL    HW229604   4.768   3.653   6.778
 9569SOL     OW29605   6.334   0.748   7.022
 9569SOL    HW129606   6.308   0.655   0.022
 9569SOL    HW229607   6.311   0.809   0.074
 9570SOL     OW29608   1.367   1.175   0.252
 9570SOL    HW129609   1.427   1.096   0.266
 9570SOL    HW229610   1.413   1.241   0.192
 9571SOL     OW29611   2.275   3.779   0.036
 9571SOL    HW129612   2.368   3.815   0.032
 9571SOL    HW229613   2.277   3.683   0.062
 9572SOL     OW29614   1.416   4.373   1.875
 9572SOL    HW129615   1.371   4.350   1.788
 9572SOL    HW229616   1.497   4.317   1.886
 9573SOL     OW29617   2.059   1.665   0.340
 9573SOL    HW129618   2.156   1.652   0.319
 9573SOL    HW229619   2.005   1.597   0.290
 9574SOL     OW29620   2.919   2.988   5.840
 9574SOL    HW129621   2.878   2.926   5.773
 9574SOL    HW229622   2.872   2.976   5.928
 9575SOL     OW29623   5.217   0.656   2.427
 9575SOL    HW129624   5.265   0.593   2.488
 9575SOL    HW229625   5.182   0.606   2.348
 9576SOL     OW29626   2.839   1.047   5.103
 9576SOL    HW129627   2.832   1.146   5.089
 9576SOL    HW229628   2.835   1.001   5.014
 9577SOL     OW29629   0.680   6.240   3.112
 9577SOL    HW129630   0.600   6.298   3.098
 9577SOL    HW229631   0.717   6.214   3.023
 9578SOL     OW29632   6.169   2.802   2.134
 9578SOL    HW129633   6.119   2.723   2.098
 9578SOL    HW229634   6.116   2.845   2.206
 9579SOL     OW29635   0.979   6.828   2.520
 9579SOL    HW129636   0.913   6.877   2.463
 9579SOL    HW229637   0.941   6.814   2.611
 9580SOL     OW29638   4.210   3.546   5.960
 9580SOL    HW129639   4.200   3.608   6.037
 9580SOL    HW229640   4.176   3.591   5.877
 9581SOL     OW29641   1.109   4.342   6.093
 9581SOL    HW129642   1.107   4.408   6.018
 9581SOL    HW229643   1.041   4.271   6.076
 9582SOL     OW29644   4.295   4.668   4.312
 9582SOL    HW129645   4.370   4.610   4.344
 9582SOL    HW229646   4.293   4.667   4.212
 9583SOL     OW29647   2.112   4.414   2.093
 9583SOL    HW129648   2.177   4.487   2.073
 9583SOL    HW229649   2.132   4.335   2.035
 9584SOL     OW29650   6.178   5.620   6.655
 9584SOL    HW129651   6.173   5.598   6.557
 9584SOL    HW229652   6.142   5.713   6.670
 9585SOL     OW29653   5.853   0.448   4.380
 9585SOL    HW129654   5.830   0.353   4.398
 9585SOL    HW229655   5.771   0.505   4.386
 9586SOL     OW29656   5.616   3.164   3.190
 9586SOL    HW129657   5.563   3.243   3.222
 9586SOL    HW229658   5.566   3.080   3.212
 9587SOL     OW29659   5.141   0.005   2.552
 9587SOL    HW129660   5.176   0.068   2.482
 9587SOL    HW229661   5.059   0.044   2.593
 9588SOL     OW29662   0.992   0.692   1.525
 9588SOL    HW129663   1.025   0.763   1.589
 9588SOL    HW229664   0.990   0.604   1.572
 9589SOL     OW29665   2.749   1.080   6.747
 9589SOL    HW129666   2.830   1.137   6.758
 9589SOL    HW229667   2.776   0.984   6.744
 9590SOL     OW29668   0.069   4.178   3.364
 9590SOL    HW129669   0.024   4.259   3.403
 9590SOL    HW229670   0.142   4.207   3.302
 9591SOL     OW29671   1.475   5.255   1.092
 9591SOL    HW129672   1.445   5.160   1.102
 9591SOL    HW229673   1.412   5.303   1.030
 9592SOL     OW29674   4.959   5.584   2.125
 9592SOL    HW129675   4.914   5.618   2.042
 9592SOL    HW229676   5.023   5.512   2.100
 9593SOL     OW29677   6.841   2.442   4.864
 9593SOL    HW129678   6.821   2.513   4.797
 9593SOL    HW229679   6.786   2.361   4.845
 9594SOL     OW29680   6.145   6.962   2.514
 9594SOL    HW129681   6.171   6.871   2.480
 9594SOL    HW229682   6.228   7.012   2.540
 9595SOL     OW29683   1.642   5.769   4.146
 9595SOL    HW129684   1.590   5.812   4.220
 9595SOL    HW229685   1.586   5.765   4.064
 9596SOL     OW29686   5.770   6.244   5.153
 9596SOL    HW129687   5.796   6.161   5.202
 9596SOL    HW229688   5.730   6.219   5.065
 9597SOL     OW29689   1.941   4.020   1.378
 9597SOL    HW129690   1.912   4.114   1.362
 9597SOL    HW229691   1.988   4.013   1.465
 9598SOL     OW29692   7.007   5.272   5.983
 9598SOL    HW129693   0.081   5.290   5.985
 9598SOL    HW229694   6.957   5.359   5.984
 9599SOL     OW29695   4.705   1.650   5.854
 9599SOL    HW129696   4.776   1.592   5.813
 9599SOL    HW229697   4.675   1.718   5.787
 9600SOL     OW29698   1.402   0.531   6.703
 9600SOL    HW129699   1.418   0.461   6.773
 9600SOL    HW229700   1.489   0.574   6.680
 9601SOL     OW29701   0.308   5.502   5.219
 9601SOL    HW129702   0.244   5.461   5.283
 9601SOL    HW229703   0.264   5.513   5.130
 9602SOL     OW29704   1.291   5.516   0.048
 9602SOL    HW129705   1.338   5.430   0.028
 9602SOL    HW229706   1.330   5.588   7.014
 9603SOL     OW29707   1.816   5.974   4.668
 9603SOL    HW129708   1.904   5.938   4.637
 9603SOL    HW229709   1.831   6.059   4.718
 9604SOL     OW29710   6.013   1.420   6.956
 9604SOL    HW129711   6.005   1.338   7.012
 9604SOL    HW229712   5.922   1.450   6.928
 9605SOL     OW29713   1.933   5.929   6.587
 9605SOL    HW129714   1.946   6.010   6.645
 9605SOL    HW229715   1.912   5.958   6.494
 9606SOL     OW29716   6.584   6.380   4.181
 9606SOL    HW129717   6.489   6.370   4.151
 9606SOL    HW229718   6.627   6.290   4.188
 9607SOL     OW29719   1.033   2.317   1.950
 9607SOL    HW129720   1.118   2.341   1.995
 9607SOL    HW229721   0.963   2.297   2.018
 9608SOL     OW29722   0.713   6.823   2.256
 9608SOL    HW129723   0.638   6.879   2.219
 9608SOL    HW229724   0.793   6.832   2.196
 9609SOL     OW29725   1.626   4.150   4.373
 9609SOL    HW129726   1.582   4.117   4.289
 9609SOL    HW229727   1.557   4.161   4.444
 9610SOL     OW29728   2.463   1.804   6.042
 9610SOL    HW129729   2.483   1.899   6.067
 9610SOL    HW229730   2.366   1.795   6.019
 9611SOL     OW29731   6.203   0.460   0.885
 9611SOL    HW129732   6.294   0.421   0.900
 9611SOL    HW229733   6.157   0.470   0.974
 9612SOL     OW29734   5.833   2.867   1.811
 9612SOL    HW129735   5.931   2.852   1.824
 9612SOL    HW229736   5.789   2.781   1.786
 9613SOL     OW29737   6.211   6.613   5.173
 9613SOL    HW129738   6.148   6.647   5.102
 9613SOL    HW229739   6.160   6.567   5.244
 9614SOL     OW29740   3.776   3.572   2.464
 9614SOL    HW129741   3.692   3.572   2.409
 9614SOL    HW229742   3.751   3.571   2.561
 9615SOL     OW29743   1.027   5.856   2.928
 9615SOL    HW129744   0.982   5.898   2.849
 9615SOL    HW229745   1.123   5.883   2.929
 9616SOL     OW29746   3.818   3.247   0.507
 9616SOL    HW129747   3.837   3.152   0.483
 9616SOL    HW229748   3.865   3.308   0.443
 9617SOL     OW29749   0.798   3.449   4.021
 9617SOL    HW129750   0.838   3.360   4.043
 9617SOL    HW229751   0.843   3.520   4.073
 9618SOL     OW29752   4.097   6.431   6.759
 9618SOL    HW129753   4.173   6.491   6.780
 9618SOL    HW229754   4.015   6.462   6.808
 9619SOL     OW29755   2.632   6.563   0.346
 9619SOL    HW129756   2.665   6.592   0.436
 9619SOL    HW229757   2.693   6.598   0.275
 9620SOL     OW29758   3.024   1.324   6.268
 9620SOL    HW129759   3.078   1.242   6.250
 9620SOL    HW229760   2.927   1.300   6.271
 9621SOL     OW29761   0.800   0.416   1.222
 9621SOL    HW129762   0.896   0.444   1.216
 9621SOL    HW229763   0.742   0.490   1.190
 9622SOL     OW29764   5.993   0.272   6.225
 9622SOL    HW129765   5.976   0.207   6.299
 9622SOL    HW229766   5.905   0.303   6.188
 9623SOL     OW29767   4.395   6.077   6.109
 9623SOL    HW129768   4.472   6.017   6.134
 9623SOL    HW229769   4.354   6.043   6.024
 9624SOL     OW29770   3.761   4.992   4.769
 9624SOL    HW129771   3.758   4.931   4.690
 9624SOL    HW229772   3.668   5.022   4.791
 9625SOL     OW29773   5.041   4.507   5.935
 9625SOL    HW129774   5.010   4.583   5.992
 9625SOL    HW229775   4.993   4.423   5.962
 9626SOL     OW29776   2.547   4.243   5.889
 9626SOL    HW129777   2.605   4.271   5.812
 9626SOL    HW229778   2.587   4.278   5.974
 9627SOL     OW29779   0.709   5.379   0.141
 9627SOL    HW129780   0.664   5.371   0.230
 9627SOL    HW229781   0.779   5.309   0.132
 9628SOL     OW29782   5.721   2.934   6.479
 9628SOL    HW129783   5.744   2.989   6.398
 9628SOL    HW229784   5.801   2.881   6.507
 9629SOL     OW29785   0.205   5.462   3.696
 9629SOL    HW129786   0.138   5.536   3.688
 9629SOL    HW229787   0.281   5.479   3.633
 9630SOL     OW29788   6.590   6.071   6.406
 9630SOL    HW129789   6.493   6.088   6.428
 9630SOL    HW229790   6.596   6.018   6.321
 9631SOL     OW29791   4.075   0.950   0.671
 9631SOL    HW129792   4.171   0.959   0.645
 9631SOL    HW229793   4.065   0.878   0.740
 9632SOL     OW29794   3.585   6.398   1.534
 9632SOL    HW129795   3.642   6.357   1.606
 9632SOL    HW229796   3.505   6.440   1.575
 9633SOL     OW29797   2.981   3.254   2.583
 9633SOL    HW129798   3.045   3.244   2.506
 9633SOL    HW229799   2.888   3.266   2.548
 9634SOL     OW29800   5.143   4.392   2.365
 9634SOL    HW129801   5.179   4.410   2.274
 9634SOL    HW229802   5.063   4.333   2.358
 9635SOL     OW29803   0.759   3.814   3.692
 9635SOL    HW129804   0.763   3.863   3.780
 9635SOL    HW229805   0.783   3.718   3.707
 9636SOL     OW29806   4.849   2.495   4.784
 9636SOL    HW129807   4.871   2.428   4.712
 9636SOL    HW229808   4.751   2.515   4.781
 9637SOL     OW29809   2.478   3.141   0.383
 9637SOL    HW129810   2.398   3.101   0.427
 9637SOL    HW229811   2.518   3.074   0.321
 9638SOL     OW29812   0.116   4.374   5.552
 9638SOL    HW129813   0.075   4.299   5.500
 9638SOL    HW229814   0.135   4.451   5.490
 9639SOL     OW29815   4.210   1.640   2.680
 9639SOL    HW129816   4.173   1.682   2.597
 9639SOL    HW229817   4.256   1.554   2.657
 9640SOL     OW29818   3.457   0.585   2.545
 9640SOL    HW129819   3.486   0.677   2.571
 9640SOL    HW229820   3.463   0.575   2.446
 9641SOL     OW29821   6.148   4.624   2.670
 9641SOL    HW129822   6.218   4.566   2.714
 9641SOL    HW229823   6.186   4.715   2.655
 9642SOL     OW29824   2.068   0.439   3.694
 9642SOL    HW129825   2.122   0.384   3.757
 9642SOL    HW229826   2.060   0.532   3.729
 9643SOL     OW29827   5.512   4.479   4.310
 9643SOL    HW129828   5.455   4.417   4.256
 9643SOL    HW229829   5.461   4.509   4.391
 9644SOL     OW29830   1.374   5.430   5.010
 9644SOL    HW129831   1.308   5.403   5.080
 9644SOL    HW229832   1.439   5.355   4.995
 9645SOL     OW29833   0.613   5.761   0.068
 9645SOL    HW129834   0.632   5.857   0.046
 9645SOL    HW229835   0.685   5.703   0.030
 9646SOL     OW29836   3.557   6.144   5.730
 9646SOL    HW129837   3.525   6.150   5.824
 9646SOL    HW229838   3.642   6.195   5.720
 9647SOL     OW29839   6.184   6.767   3.673
 9647SOL    HW129840   6.280   6.771   3.704
 9647SOL    HW229841   6.181   6.728   3.581
 9648SOL     OW29842   4.616   2.385   1.270
 9648SOL    HW129843   4.566   2.442   1.204
 9648SOL    HW229844   4.639   2.298   1.227
 9649SOL     OW29845   1.995   4.363   0.096
 9649SOL    HW129846   2.028   4.421   0.021
 9649SOL    HW229847   1.915   4.311   0.064
 9650SOL     OW29848   6.984   4.815   4.731
 9650SOL    HW129849   7.002   4.913   4.720
 9650SOL    HW229850   6.895   4.793   4.691
 9651SOL     OW29851   3.555   1.090   0.581
 9651SOL    HW129852   3.575   0.992   0.573
 9651SOL    HW229853   3.565   1.118   0.676
 9652SOL     OW29854   6.870   3.656   0.689
 9652SOL    HW129855   6.833   3.585   0.748
 9652SOL    HW229856   6.814   3.664   0.606
 9653SOL     OW29857   4.228   3.615   6.482
 9653SOL    HW129858   4.194   3.647   6.571
 9653SOL    HW229859   4.153   3.572   6.432
 9654SOL     OW29860   3.654   3.421   3.717
 9654SOL    HW129861   3.706   3.507   3.715
 9654SOL    HW229862   3.610   3.407   3.628
 9655SOL     OW29863   4.397   1.247   1.811
 9655SOL    HW129864   4.406   1.229   1.713
 9655SOL    HW229865   4.326   1.316   1.826
 9656SOL     OW29866   5.818   4.039   1.454
 9656SOL    HW129867   5.826   4.077   1.362
 9656SOL    HW229868   5.807   4.114   1.520
 9657SOL     OW29869   5.836   3.209   3.402
 9657SOL    HW129870   5.814   3.277   3.332
 9657SOL    HW229871   5.934   3.210   3.420
 9658SOL     OW29872   4.976   1.940   2.251
 9658SOL    HW129873   4.890   1.964   2.295
 9658SOL    HW229874   4.992   1.842   2.259
 9659SOL     OW29875   3.021   3.139   0.543
 9659SOL    HW129876   3.026   3.238   0.559
 9659SOL    HW229877   3.109   3.106   0.509
 9660SOL     OW29878   0.289   5.720   1.350
 9660SOL    HW129879   0.190   5.726   1.348
 9660SOL    HW229880   0.329   5.810   1.336
 9661SOL     OW29881   4.649   4.724   0.789
 9661SOL    HW129882   4.670   4.639   0.838
 9661SOL    HW229883   4.630   4.796   0.855
 9662SOL     OW29884   5.117   4.317   6.660
 9662SOL    HW129885   5.203   4.348   6.620
 9662SOL    HW229886   5.134   4.283   6.753
 9663SOL     OW29887   0.832   4.685   3.711
 9663SOL    HW129888   0.738   4.653   3.699
 9663SOL    HW229889   0.839   4.780   3.680
 9664SOL     OW29890   5.563   3.974   3.426
 9664SOL    HW129891   5.637   3.977   3.359
 9664SOL    HW229892   5.475   3.983   3.379
 9665SOL     OW29893   5.425   6.008   6.456
 9665SOL    HW129894   5.361   5.992   6.531
 9665SOL    HW229895   5.507   6.054   6.491
 9666SOL     OW29896   5.918   3.709   0.708
 9666SOL    HW129897   5.999   3.693   0.765
 9666SOL    HW229898   5.907   3.633   0.644
 9667SOL     OW29899   5.371   5.777   0.128
 9667SOL    HW129900   5.431   5.709   0.089
 9667SOL    HW229901   5.423   5.839   0.187
 9668SOL     OW29902   0.755   0.049   5.626
 9668SOL    HW129903   0.719   0.065   5.718
 9668SOL    HW229904   0.794   6.981   5.621
 9669SOL     OW29905   3.624   6.990   0.436
 9669SOL    HW129906   3.582   6.951   0.518
 9669SOL    HW229907   3.555   0.016   0.384
 9670SOL     OW29908   0.313   0.232   6.416
 9670SOL    HW129909   0.378   0.192   6.352
 9670SOL    HW229910   0.361   0.262   6.498
 9671SOL     OW29911   1.201   5.113   6.345
 9671SOL    HW129912   1.130   5.166   6.298
 9671SOL    HW229913   1.274   5.092   6.281
 9672SOL     OW29914   0.186   3.749   4.850
 9672SOL    HW129915   0.103   3.802   4.833
 9672SOL    HW229916   0.169   3.684   4.924
 9673SOL     OW29917   2.352   4.177   1.087
 9673SOL    HW129918   2.392   4.099   1.039
 9673SOL    HW229919   2.355   4.160   1.186
 9674SOL     OW29920   3.443   6.512   3.698
 9674SOL    HW129921   3.534   6.489   3.731
 9674SOL    HW229922   3.449   6.547   3.605
 9675SOL     OW29923   4.593   3.956   1.729
 9675SOL    HW129924   4.682   3.940   1.772
 9675SOL    HW229925   4.554   4.041   1.765
 9676SOL     OW29926   1.292   3.090   5.601
 9676SOL    HW129927   1.362   3.141   5.552
 9676SOL    HW229928   1.264   3.141   5.683
 9677SOL     OW29929   6.407   4.960   0.487
 9677SOL    HW129930   6.449   4.895   0.423
 9677SOL    HW229931   6.411   4.923   0.580
 9678SOL     OW29932   3.565   3.671   4.893
 9678SOL    HW129933   3.544   3.588   4.944
 9678SOL    HW229934   3.564   3.750   4.954
 9679SOL     OW29935   1.920   1.401   4.955
 9679SOL    HW129936   1.873   1.345   4.886
 9679SOL    HW229937   1.996   1.450   4.913
 9680SOL     OW29938   4.150   6.086   2.827
 9680SOL    HW129939   4.138   6.169   2.774
 9680SOL    HW229940   4.229   6.035   2.792
 9681SOL     OW29941   2.080   1.881   2.388
 9681SOL    HW129942   1.987   1.844   2.383
 9681SOL    HW229943   2.102   1.905   2.482
 9682SOL     OW29944   5.512   5.827   4.927
 9682SOL    HW129945   5.440   5.781   4.875
 9682SOL    HW229946   5.585   5.855   4.865
 9683SOL     OW29947   2.774   6.758   1.207
 9683SOL    HW129948   2.789   6.853   1.180
 9683SOL    HW229949   2.851   6.702   1.176
 9684SOL     OW29950   1.223   4.235   5.704
 9684SOL    HW129951   1.244   4.235   5.607
 9684SOL    HW229952   1.198   4.327   5.733
 9685SOL     OW29953   3.815   4.861   1.584
 9685SOL    HW129954   3.776   4.801   1.514
 9685SOL    HW229955   3.915   4.856   1.581
 9686SOL     OW29956   6.855   1.817   5.829
 9686SOL    HW129957   6.800   1.898   5.847
 9686SOL    HW229958   6.812   1.736   5.870
 9687SOL     OW29959   5.886   0.456   2.162
 9687SOL    HW129960   5.941   0.530   2.124
 9687SOL    HW229961   5.930   0.422   2.246
 9688SOL     OW29962   1.113   4.405   1.370
 9688SOL    HW129963   1.022   4.407   1.412
 9688SOL    HW229964   1.108   4.356   1.282
 9689SOL     OW29965   1.206   6.290   0.683
 9689SOL    HW129966   1.237   6.275   0.777
 9689SOL    HW229967   1.207   6.387   0.662
 9690SOL     OW29968   5.792   5.558   5.336
 9690SOL    HW129969   5.813   5.626   5.406
 9690SOL    HW229970   5.802   5.599   5.245
 9691SOL     OW29971   3.261   3.233   2.175
 9691SOL    HW129972   3.177   3.208   2.126
 9691SOL    HW229973   3.340   3.207   2.119
 9692SOL     OW29974   4.673   5.226   0.479
 9692SOL    HW129975   4.634   5.257   0.392
 9692SOL    HW229976   4.643   5.133   0.498
 9693SOL     OW29977   5.428   3.925   4.037
 9693SOL    HW129978   5.426   3.844   4.095
 9693SOL    HW229979   5.513   3.928   3.985
 9694SOL     OW29980   3.377   6.489   2.013
 9694SOL    HW129981   3.399   6.582   1.986
 9694SOL    HW229982   3.382   6.481   2.113
 9695SOL     OW29983   0.545   2.561   3.662
 9695SOL    HW129984   0.568   2.556   3.565
 9695SOL    HW229985   0.541   2.657   3.691
 9696SOL     OW29986   5.778   1.803   2.739
 9696SOL    HW129987   5.698   1.841   2.692
 9696SOL    HW229988   5.857   1.863   2.725
 9697SOL     OW29989   0.117   5.979   0.153
 9697SOL    HW129990   0.187   5.962   0.083
 9697SOL    HW229991   0.118   6.075   0.179
 9698SOL     OW29992   5.370   3.681   0.001
 9698SOL    HW129993   5.316   3.763   7.001
 9698SOL    HW229994   5.354   3.610   6.957
 9699SOL     OW29995   0.996   5.114   0.462
 9699SOL    HW129996   1.075   5.072   0.417
 9699SOL    HW229997   0.984   5.207   0.427
 9700SOL     OW29998   5.680   6.544   4.602
 9700SOL    HW129999   5.735   6.525   4.683
 9700SOL    HW230000   5.668   6.643   4.592
 9701SOL     OW30001   4.767   3.194   6.257
 9701SOL    HW130002   4.768   3.264   6.328
 9701SOL    HW230003   4.778   3.104   6.299
 9702SOL     OW30004   3.076   3.329   1.075
 9702SOL    HW130005   3.117   3.316   1.166
 9702SOL    HW230006   2.986   3.370   1.084
 9703SOL     OW30007   6.182   3.648   5.130
 9703SOL    HW130008   6.204   3.699   5.047
 9703SOL    HW230009   6.103   3.589   5.112
 9704SOL     OW30010   2.681   4.662   2.717
 9704SOL    HW130011   2.719   4.662   2.810
 9704SOL    HW230012   2.749   4.626   2.653
 9705SOL     OW30013   5.854   4.168   5.684
 9705SOL    HW130014   5.771   4.134   5.728
 9705SOL    HW230015   5.908   4.220   5.751
 9706SOL     OW30016   1.314   1.730   2.261
 9706SOL    HW130017   1.246   1.727   2.188
 9706SOL    HW230018   1.275   1.690   2.344
 9707SOL     OW30019   6.353   4.884   2.322
 9707SOL    HW130020   6.337   4.925   2.412
 9707SOL    HW230021   6.436   4.829   2.326
 9708SOL     OW30022   2.217   0.610   2.009
 9708SOL    HW130023   2.271   0.614   2.093
 9708SOL    HW230024   2.218   0.699   1.963
 9709SOL     OW30025   5.646   2.636   2.487
 9709SOL    HW130026   5.642   2.538   2.505
 9709SOL    HW230027   5.555   2.676   2.501
 9710SOL     OW30028   6.297   5.711   5.097
 9710SOL    HW130029   6.308   5.687   5.193
 9710SOL    HW230030   6.218   5.772   5.087
 9711SOL     OW30031   3.853   6.513   6.865
 9711SOL    HW130032   3.788   6.580   6.902
 9711SOL    HW230033   3.823   6.487   6.773
 9712SOL     OW30034   6.391   2.115   0.417
 9712SOL    HW130035   6.308   2.061   0.402
 9712SOL    HW230036   6.464   2.056   0.450
 9713SOL     OW30037   1.856   6.569   3.746
 9713SOL    HW130038   1.859   6.526   3.656
 9713SOL    HW230039   1.836   6.501   3.816
 9714SOL     OW30040   3.288   5.010   4.702
 9714SOL    HW130041   3.275   4.989   4.605
 9714SOL    HW230042   3.227   4.954   4.757
 9715SOL     OW30043   6.065   4.309   1.105
 9715SOL    HW130044   6.135   4.372   1.071
 9715SOL    HW230045   5.975   4.350   1.092
 9716SOL     OW30046   2.936   4.789   6.832
 9716SOL    HW130047   2.982   4.797   6.744
 9716SOL    HW230048   2.999   4.818   6.905
 9717SOL     OW30049   4.030   0.959   5.592
 9717SOL    HW130050   3.991   0.934   5.681
 9717SOL    HW230051   3.979   0.915   5.519
 9718SOL     OW30052   3.293   1.735   0.107
 9718SOL    HW130053   3.387   1.743   0.075
 9718SOL    HW230054   3.292   1.715   0.205
 9719SOL     OW30055   4.358   6.055   5.232
 9719SOL    HW130056   4.432   5.990   5.214
 9719SOL    HW230057   4.312   6.077   5.146
 9720SOL     OW30058   1.663   4.680   2.913
 9720SOL    HW130059   1.693   4.681   2.818
 9720SOL    HW230060   1.692   4.764   2.959
 9721SOL     OW30061   0.942   2.195   0.231
 9721SOL    HW130062   1.035   2.232   0.227
 9721SOL    HW230063   0.889   2.244   0.301
 9722SOL     OW30064   3.763   3.023   5.182
 9722SOL    HW130065   3.797   3.011   5.276
 9722SOL    HW230066   3.728   2.936   5.148
 9723SOL     OW30067   6.323   5.159   4.920
 9723SOL    HW130068   6.275   5.094   4.860
 9723SOL    HW230069   6.420   5.162   4.895
 9724SOL     OW30070   0.804   5.841   0.258
 9724SOL    HW130071   0.842   5.760   0.212
 9724SOL    HW230072   0.879   5.905   0.279
 9725SOL     OW30073   3.101   5.407   5.030
 9725SOL    HW130074   3.054   5.321   5.011
 9725SOL    HW230075   3.098   5.425   5.129
 9726SOL     OW30076   6.232   1.136   4.197
 9726SOL    HW130077   6.198   1.117   4.104
 9726SOL    HW230078   6.247   1.234   4.207
 9727SOL     OW30079   0.967   1.556   6.667
 9727SOL    HW130080   1.045   1.516   6.715
 9727SOL    HW230081   0.883   1.530   6.713
 9728SOL     OW30082   5.208   0.543   5.962
 9728SOL    HW130083   5.174   0.496   6.043
 9728SOL    HW230084   5.280   0.488   5.919
 9729SOL     OW30085   0.674   4.709   3.178
 9729SOL    HW130086   0.671   4.641   3.251
 9729SOL    HW230087   0.751   4.689   3.117
 9730SOL     OW30088   0.942   4.401   3.107
 9730SOL    HW130089   0.903   4.493   3.118
 9730SOL    HW230090   0.975   4.368   3.196
 9731SOL     OW30091   5.124   3.965   2.924
 9731SOL    HW130092   5.150   4.015   2.841
 9731SOL    HW230093   5.029   3.935   2.917
 9732SOL     OW30094   1.309   2.881   2.333
 9732SOL    HW130095   1.210   2.865   2.331
 9732SOL    HW230096   1.326   2.979   2.322
 9733SOL     OW30097   6.420   5.231   2.715
 9733SOL    HW130098   6.332   5.235   2.667
 9733SOL    HW230099   6.487   5.287   2.666
 9734SOL     OW30100   6.098   6.908   6.737
 9734SOL    HW130101   6.169   6.929   6.670
 9734SOL    HW230102   6.125   6.945   6.826
 9735SOL     OW30103   0.786   1.919   2.275
 9735SOL    HW130104   0.714   1.850   2.266
 9735SOL    HW230105   0.785   1.954   2.369
 9736SOL     OW30106   4.589   2.440   5.204
 9736SOL    HW130107   4.499   2.404   5.229
 9736SOL    HW230108   4.642   2.368   5.159
 9737SOL     OW30109   5.997   2.146   2.524
 9737SOL    HW130110   5.909   2.155   2.570
 9737SOL    HW230111   6.064   2.206   2.568
 9738SOL     OW30112   1.999   5.704   1.116
 9738SOL    HW130113   2.076   5.687   1.055
 9738SOL    HW230114   1.977   5.621   1.166
 9739SOL     OW30115   5.259   0.118   0.039
 9739SOL    HW130116   5.211   0.204   0.021
 9739SOL    HW230117   5.283   0.114   0.136
 9740SOL     OW30118   6.862   0.463   2.924
 9740SOL    HW130119   6.839   0.463   2.827
 9740SOL    HW230120   6.780   0.482   2.978
 9741SOL     OW30121   3.032   1.316   4.628
 9741SOL    HW130122   3.045   1.242   4.694
 9741SOL    HW230123   3.101   1.308   4.555
 9742SOL     OW30124   3.950   1.816   6.095
 9742SOL    HW130125   3.957   1.913   6.121
 9742SOL    HW230126   3.901   1.766   6.166
 9743SOL     OW30127   6.172   2.947   3.365
 9743SOL    HW130128   6.268   2.920   3.358
 9743SOL    HW230129   6.124   2.885   3.427
 9744SOL     OW30130   1.781   6.853   3.649
 9744SOL    HW130131   1.791   6.767   3.700
 9744SOL    HW230132   1.714   6.911   3.696
 9745SOL     OW30133   5.866   0.852   5.852
 9745SOL    HW130134   5.957   0.816   5.832
 9745SOL    HW230135   5.849   0.933   5.797
 9746SOL     OW30136   4.981   5.733   6.314
 9746SOL    HW130137   4.958   5.635   6.307
 9746SOL    HW230138   5.047   5.756   6.243
 9747SOL     OW30139   2.385   2.286   2.247
 9747SOL    HW130140   2.467   2.264   2.299
 9747SOL    HW230141   2.344   2.202   2.212
 9748SOL     OW30142   1.101   0.540   3.000
 9748SOL    HW130143   1.081   0.522   2.904
 9748SOL    HW230144   1.015   0.548   3.051
 9749SOL     OW30145   0.063   1.681   2.879
 9749SOL    HW130146   0.024   1.600   2.922
 9749SOL    HW230147   0.116   1.654   2.798
 9750SOL     OW30148   6.432   4.563   3.951
 9750SOL    HW130149   6.463   4.540   4.043
 9750SOL    HW230150   6.362   4.498   3.922
 9751SOL     OW30151   2.589   0.880   1.796
 9751SOL    HW130152   2.684   0.911   1.783
 9751SOL    HW230153   2.528   0.937   1.741
 9752SOL     OW30154   4.405   2.734   0.754
 9752SOL    HW130155   4.358   2.749   0.667
 9752SOL    HW230156   4.356   2.664   0.807
 9753SOL     OW30157   6.576   6.152   6.020
 9753SOL    HW130158   6.591   6.149   5.922
 9753SOL    HW230159   6.663   6.167   6.067
 9754SOL     OW30160   3.872   0.496   1.135
 9754SOL    HW130161   3.927   0.420   1.171
 9754SOL    HW230162   3.859   0.484   1.037
 9755SOL     OW30163   3.267   4.038   5.937
 9755SOL    HW130164   3.268   4.130   5.977
 9755SOL    HW230165   3.361   4.008   5.922
 9756SOL     OW30166   5.725   0.994   6.360
 9756SOL    HW130167   5.818   0.986   6.326
 9756SOL    HW230168   5.679   1.071   6.316
 9757SOL     OW30169   5.184   3.997   3.935
 9757SOL    HW130170   5.269   3.980   3.986
 9757SOL    HW230171   5.198   3.972   3.839
 9758SOL     OW30172   1.719   0.965   0.587
 9758SOL    HW130173   1.783   0.913   0.531
 9758SOL    HW230174   1.751   1.059   0.595
 9759SOL     OW30175   1.567   1.885   0.818
 9759SOL    HW130176   1.526   1.805   0.775
 9759SOL    HW230177   1.537   1.890   0.914
 9760SOL     OW30178   4.865   2.266   6.980
 9760SOL    HW130179   4.796   2.194   6.976
 9760SOL    HW230180   4.820   2.355   6.970
 9761SOL     OW30181   1.447   1.018   1.989
 9761SOL    HW130182   1.526   1.072   1.959
 9761SOL    HW230183   1.441   1.019   2.088
 9762SOL     OW30184   3.020   1.634   5.236
 9762SOL    HW130185   3.061   1.547   5.208
 9762SOL    HW230186   3.032   1.645   5.335
 9763SOL     OW30187   6.071   1.107   1.589
 9763SOL    HW130188   6.159   1.119   1.633
 9763SOL    HW230189   6.000   1.156   1.640
 9764SOL     OW30190   5.532   1.850   2.621
 9764SOL    HW130191   5.491   1.763   2.595
 9764SOL    HW230192   5.462   1.911   2.658
 9765SOL     OW30193   6.807   1.368   2.066
 9765SOL    HW130194   6.734   1.310   2.102
 9765SOL    HW230195   6.891   1.353   2.119
 9766SOL     OW30196   1.991   0.939   3.688
 9766SOL    HW130197   1.919   0.971   3.749
 9766SOL    HW230198   2.026   0.851   3.721
 9767SOL     OW30199   1.928   3.068   5.767
 9767SOL    HW130200   1.992   3.120   5.824
 9767SOL    HW230201   1.895   2.989   5.818
 9768SOL     OW30202   6.117   2.185   0.726
 9768SOL    HW130203   6.020   2.208   0.732
 9768SOL    HW230204   6.172   2.264   0.752
 9769SOL     OW30205   2.859   1.906   4.954
 9769SOL    HW130206   2.866   1.816   4.911
 9769SOL    HW230207   2.828   1.973   4.887
 9770SOL     OW30208   3.376   2.391   6.467
 9770SOL    HW130209   3.278   2.409   6.460
 9770SOL    HW230210   3.404   2.392   6.563
 9771SOL     OW30211   2.684   6.293   2.589
 9771SOL    HW130212   2.722   6.215   2.639
 9771SOL    HW230213   2.725   6.378   2.622
 9772SOL     OW30214   1.212   5.774   1.861
 9772SOL    HW130215   1.112   5.768   1.864
 9772SOL    HW230216   1.244   5.752   1.769
 9773SOL     OW30217   5.194   5.406   2.067
 9773SOL    HW130218   5.171   5.314   2.033
 9773SOL    HW230219   5.293   5.419   2.061
 9774SOL     OW30220   0.397   5.678   4.265
 9774SOL    HW130221   0.495   5.694   4.263
 9774SOL    HW230222   0.355   5.720   4.184
 9775SOL     OW30223   2.409   0.932   3.543
 9775SOL    HW130224   2.432   0.981   3.459
 9775SOL    HW230225   2.490   0.925   3.601
 9776SOL     OW30226   1.574   5.664   6.406
 9776SOL    HW130227   1.530   5.616   6.481
 9776SOL    HW230228   1.660   5.620   6.383
 9777SOL     OW30229   5.412   0.013   6.483
 9777SOL    HW130230   5.350   0.053   6.415
 9777SOL    HW230231   5.362   7.020   6.567
 9778SOL     OW30232   0.548   1.886   4.933
 9778SOL    HW130233   0.592   1.936   5.008
 9778SOL    HW230234   0.619   1.852   4.870
 9779SOL     OW30235   0.755   1.722   3.581
 9779SOL    HW130236   0.666   1.747   3.544
 9779SOL    HW230237   0.819   1.706   3.506
 9780SOL     OW30238   1.858   1.551   1.194
 9780SOL    HW130239   1.790   1.563   1.122
 9780SOL    HW230240   1.921   1.478   1.168
 9781SOL     OW30241   1.643   3.698   3.309
 9781SOL    HW130242   1.667   3.604   3.335
 9781SOL    HW230243   1.630   3.702   3.210
 9782SOL     OW30244   0.705   2.347   0.712
 9782SOL    HW130245   0.679   2.251   0.708
 9782SOL    HW230246   0.625   2.402   0.738
 9783SOL     OW30247   3.570   1.360   3.399
 9783SOL    HW130248   3.559   1.418   3.479
 9783SOL    HW230249   3.608   1.414   3.324
 9784SOL     OW30250   2.674   1.696   0.105
 9784SOL    HW130251   2.692   1.698   0.203
 9784SOL    HW230252   2.742   1.752   0.057
 9785SOL     OW30253   0.054   2.293   4.881
 9785SOL    HW130254   0.125   2.349   4.924
 9785SOL    HW230255   7.001   2.351   4.855
 9786SOL     OW30256   2.362   4.619   0.805
 9786SOL    HW130257   2.285   4.660   0.757
 9786SOL    HW230258   2.355   4.520   0.801
 9787SOL     OW30259   3.571   3.194   2.881
 9787SOL    HW130260   3.484   3.188   2.832
 9787SOL    HW230261   3.623   3.110   2.867
 9788SOL     OW30262   0.594   6.086   2.253
 9788SOL    HW130263   0.671   6.053   2.199
 9788SOL    HW230264   0.530   6.135   2.194
 9789SOL     OW30265   3.083   6.845   6.671
 9789SOL    HW130266   3.123   6.855   6.580
 9789SOL    HW230267   3.122   6.765   6.716
 9790SOL     OW30268   6.952   3.751   4.258
 9790SOL    HW130269   6.856   3.761   4.232
 9790SOL    HW230270   6.958   3.700   4.344
 9791SOL     OW30271   0.803   6.468   0.495
 9791SOL    HW130272   0.782   6.516   0.580
 9791SOL    HW230273   0.827   6.373   0.515
 9792SOL     OW30274   3.749   5.438   0.938
 9792SOL    HW130275   3.750   5.535   0.912
 9792SOL    HW230276   3.667   5.419   0.991
 9793SOL     OW30277   4.596   1.468   2.289
 9793SOL    HW130278   4.673   1.510   2.337
 9793SOL    HW230279   4.512   1.486   2.341
 9794SOL     OW30280   4.744   4.926   4.640
 9794SOL    HW130281   4.789   4.937   4.728
 9794SOL    HW230282   4.649   4.957   4.647
 9795SOL     OW30283   0.827   2.808   3.569
 9795SOL    HW130284   0.902   2.847   3.516
 9795SOL    HW230285   0.753   2.781   3.508
 9796SOL     OW30286   3.359   4.107   3.596
 9796SOL    HW130287   3.343   4.099   3.694
 9796SOL    HW230288   3.457   4.107   3.577
 9797SOL     OW30289   2.783   5.956   6.525
 9797SOL    HW130290   2.808   5.872   6.477
 9797SOL    HW230291   2.703   5.997   6.481
 9798SOL     OW30292   1.309   2.770   1.288
 9798SOL    HW130293   1.233   2.716   1.325
 9798SOL    HW230294   1.321   2.749   1.191
 9799SOL     OW30295   2.899   5.716   6.420
 9799SOL    HW130296   2.840   5.637   6.435
 9799SOL    HW230297   2.984   5.686   6.375
 9800SOL     OW30298   5.357   3.091   4.028
 9800SOL    HW130299   5.299   3.010   4.037
 9800SOL    HW230300   5.301   3.174   4.043
 9801SOL     OW30301   5.829   4.652   6.490
 9801SOL    HW130302   5.811   4.596   6.572
 9801SOL    HW230303   5.804   4.600   6.408
 9802SOL     OW30304   4.342   5.321   1.187
 9802SOL    HW130305   4.252   5.357   1.161
 9802SOL    HW230306   4.335   5.277   1.277
 9803SOL     OW30307   1.453   3.654   6.466
 9803SOL    HW130308   1.490   3.729   6.411
 9803SOL    HW230309   1.528   3.604   6.510
 9804SOL     OW30310   6.821   5.525   3.151
 9804SOL    HW130311   6.722   5.530   3.163
 9804SOL    HW230312   6.861   5.472   3.226
 9805SOL     OW30313   0.446   6.532   3.835
 9805SOL    HW130314   0.439   6.433   3.823
 9805SOL    HW230315   0.501   6.552   3.915
 9806SOL     OW30316   4.130   2.503   5.859
 9806SOL    HW130317   4.067   2.514   5.782
 9806SOL    HW230318   4.128   2.408   5.891
 9807SOL     OW30319   2.989   3.170   2.203
 9807SOL    HW130320   2.937   3.150   2.120
 9807SOL    HW230321   2.961   3.259   2.239
 9808SOL     OW30322   4.624   6.300   3.904
 9808SOL    HW130323   4.599   6.299   3.807
 9808SOL    HW230324   4.542   6.310   3.960
 9809SOL     OW30325   0.528   3.279   0.769
 9809SOL    HW130326   0.524   3.310   0.864
 9809SOL    HW230327   0.618   3.239   0.751
 9810SOL     OW30328   2.409   1.613   5.602
 9810SOL    HW130329   2.367   1.621   5.512
 9810SOL    HW230330   2.474   1.689   5.616
 9811SOL     OW30331   6.572   3.793   4.341
 9811SOL    HW130332   6.537   3.882   4.372
 9811SOL    HW230333   6.620   3.804   4.254
 9812SOL     OW30334   2.141   6.730   4.672
 9812SOL    HW130335   2.227   6.769   4.704
 9812SOL    HW230336   2.077   6.803   4.651
 9813SOL     OW30337   5.546   2.537   0.523
 9813SOL    HW130338   5.616   2.495   0.464
 9813SOL    HW230339   5.456   2.525   0.480
 9814SOL     OW30340   5.857   1.811   6.889
 9814SOL    HW130341   5.805   1.726   6.883
 9814SOL    HW230342   5.842   1.854   6.978
 9815SOL     OW30343   4.765   2.948   4.697
 9815SOL    HW130344   4.742   2.926   4.792
 9815SOL    HW230345   4.810   3.037   4.693
 9816SOL     OW30346   1.220   0.515   0.416
 9816SOL    HW130347   1.238   0.442   0.482
 9816SOL    HW230348   1.151   0.576   0.453
 9817SOL     OW30349   0.413   0.334   3.166
 9817SOL    HW130350   0.322   0.294   3.157
 9817SOL    HW230351   0.416   0.394   3.246
 9818SOL     OW30352   6.032   1.684   4.849
 9818SOL    HW130353   6.105   1.750   4.864
 9818SOL    HW230354   5.944   1.724   4.873
 9819SOL     OW30355   3.881   1.561   3.478
 9819SOL    HW130356   3.978   1.582   3.464
 9819SOL    HW230357   3.826   1.639   3.450
 9820SOL     OW30358   3.401   4.215   5.554
 9820SOL    HW130359   3.420   4.145   5.624
 9820SOL    HW230360   3.435   4.304   5.586
 9821SOL     OW30361   5.258   6.161   6.991
 9821SOL    HW130362   5.169   6.131   0.002
 9821SOL    HW230363   5.252   6.172   6.892
 9822SOL     OW30364   0.260   6.985   2.980
 9822SOL    HW130365   0.299   6.936   2.902
 9822SOL    HW230366   0.252   0.058   2.958
 9823SOL     OW30367   3.226   0.463   2.095
 9823SOL    HW130368   3.149   0.405   2.068
 9823SOL    HW230369   3.233   0.540   2.032
 9824SOL     OW30370   0.811   4.250   5.433
 9824SOL    HW130371   0.768   4.254   5.524
 9824SOL    HW230372   0.852   4.160   5.420
 9825SOL     OW30373   3.759   5.265   5.366
 9825SOL    HW130374   3.761   5.362   5.341
 9825SOL    HW230375   3.674   5.245   5.415
 9826SOL     OW30376   4.446   5.752   5.920
 9826SOL    HW130377   4.401   5.768   6.008
 9826SOL    HW230378   4.401   5.677   5.873
 9827SOL     OW30379   1.764   4.339   4.785
 9827SOL    HW130380   1.688   4.365   4.725
 9827SOL    HW230381   1.794   4.420   4.836
 9828SOL     OW30382   3.454   3.077   6.585
 9828SOL    HW130383   3.415   3.027   6.662
 9828SOL    HW230384   3.539   3.121   6.612
 9829SOL     OW30385   3.423   6.293   0.484
 9829SOL    HW130386   3.523   6.292   0.490
 9829SOL    HW230387   3.388   6.203   0.506
 9830SOL     OW30388   6.062   1.741   0.994
 9830SOL    HW130389   6.019   1.827   0.967
 9830SOL    HW230390   6.141   1.724   0.936
 9831SOL     OW30391   0.914   6.061   1.064
 9831SOL    HW130392   0.955   6.007   1.137
 9831SOL    HW230393   0.868   6.000   0.999
 9832SOL     OW30394   4.614   5.017   2.620
 9832SOL    HW130395   4.642   5.112   2.604
 9832SOL    HW230396   4.536   4.994   2.562
 9833SOL     OW30397   3.446   3.470   5.038
 9833SOL    HW130398   3.430   3.530   5.117
 9833SOL    HW230399   3.494   3.388   5.067
 9834SOL     OW30400   2.565   3.470   5.825
 9834SOL    HW130401   2.619   3.526   5.762
 9834SOL    HW230402   2.485   3.433   5.778
 9835SOL     OW30403   4.908   1.552   3.985
 9835SOL    HW130404   4.912   1.626   4.053
 9835SOL    HW230405   4.853   1.582   3.907
 9836SOL     OW30406   5.738   3.532   3.342
 9836SOL    HW130407   5.717   3.524   3.245
 9836SOL    HW230408   5.808   3.602   3.356
 9837SOL     OW30409   2.075   0.041   3.887
 9837SOL    HW130410   2.138   0.103   3.841
 9837SOL    HW230411   2.059   6.985   3.829
 9838SOL     OW30412   0.883   6.536   5.856
 9838SOL    HW130413   0.841   6.540   5.765
 9838SOL    HW230414   0.968   6.589   5.857
 9839SOL     OW30415   6.587   1.167   2.627
 9839SOL    HW130416   6.552   1.073   2.622
 9839SOL    HW230417   6.590   1.206   2.535
 9840SOL     OW30418   0.524   0.562   0.526
 9840SOL    HW130419   0.535   0.467   0.556
 9840SOL    HW230420   0.610   0.594   0.486
 9841SOL     OW30421   1.635   4.584   4.628
 9841SOL    HW130422   1.587   4.667   4.601
 9841SOL    HW230423   1.684   4.547   4.549
 9842SOL     OW30424   3.581   2.994   3.589
 9842SOL    HW130425   3.535   3.014   3.675
 9842SOL    HW230426   3.523   2.936   3.532
 9843SOL     OW30427   6.645   2.284   1.340
 9843SOL    HW130428   6.707   2.215   1.378
 9843SOL    HW230429   6.587   2.319   1.413
 9844SOL     OW30430   4.339   6.801   2.829
 9844SOL    HW130431   4.294   6.859   2.897
 9844SOL    HW230432   4.386   6.726   2.876
 9845SOL     OW30433   2.125   1.574   4.829
 9845SOL    HW130434   2.182   1.653   4.807
 9845SOL    HW230435   2.172   1.490   4.801
 9846SOL     OW30436   2.970   3.714   3.454
 9846SOL    HW130437   2.912   3.684   3.530
 9846SOL    HW230438   3.032   3.786   3.486
 9847SOL     OW30439   2.480   2.918   6.128
 9847SOL    HW130440   2.386   2.932   6.095
 9847SOL    HW230441   2.492   2.822   6.155
 9848SOL     OW30442   3.753   2.332   6.598
 9848SOL    HW130443   3.702   2.377   6.525
 9848SOL    HW230444   3.836   2.291   6.561
 9849SOL     OW30445   5.387   0.481   6.571
 9849SOL    HW130446   5.471   0.444   6.610
 9849SOL    HW230447   5.398   0.579   6.555
 9850SOL     OW30448   4.666   5.982   2.106
 9850SOL    HW130449   4.737   5.947   2.045
 9850SOL    HW230450   4.708   6.036   2.179
 9851SOL     OW30451   4.434   1.956   5.230
 9851SOL    HW130452   4.530   1.978   5.240
 9851SOL    HW230453   4.422   1.857   5.226
 9852SOL     OW30454   4.238   1.482   3.060
 9852SOL    HW130455   4.254   1.581   3.058
 9852SOL    HW230456   4.269   1.445   3.147
 9853SOL     OW30457   4.745   4.176   3.111
 9853SOL    HW130458   4.678   4.245   3.137
 9853SOL    HW230459   4.740   4.099   3.175
 9854SOL     OW30460   6.017   5.085   5.395
 9854SOL    HW130461   6.032   5.148   5.318
 9854SOL    HW230462   5.960   5.009   5.364
 9855SOL     OW30463   0.571   4.593   1.388
 9855SOL    HW130464   0.545   4.656   1.461
 9855SOL    HW230465   0.542   4.500   1.411
 9856SOL     OW30466   4.274   3.977   6.792
 9856SOL    HW130467   4.240   4.070   6.775
 9856SOL    HW230468   4.371   3.982   6.816
 9857SOL     OW30469   5.382   2.169   3.011
 9857SOL    HW130470   5.291   2.210   3.006
 9857SOL    HW230471   5.382   2.096   3.079
 9858SOL     OW30472   5.084   0.939   1.618
 9858SOL    HW130473   5.128   0.851   1.602
 9858SOL    HW230474   5.080   0.990   1.532
 9859SOL     OW30475   6.620   6.961   1.067
 9859SOL    HW130476   6.592   6.887   1.007
 9859SOL    HW230477   6.719   6.974   1.061
 9860SOL     OW30478   0.766   1.057   1.483
 9860SOL    HW130479   0.696   1.067   1.554
 9860SOL    HW230480   0.748   1.122   1.409
 9861SOL     OW30481   3.713   6.753   4.559
 9861SOL    HW130482   3.737   6.846   4.587
 9861SOL    HW230483   3.797   6.701   4.542
 9862SOL     OW30484   2.613   3.839   0.516
 9862SOL    HW130485   2.527   3.820   0.563
 9862SOL    HW230486   2.640   3.759   0.463
 9863SOL     OW30487   2.973   6.953   3.244
 9863SOL    HW130488   2.935   7.010   3.171
 9863SOL    HW230489   2.924   6.970   3.329
 9864SOL     OW30490   4.212   6.017   3.586
 9864SOL    HW130491   4.126   5.977   3.554
 9864SOL    HW230492   4.194   6.076   3.665
 9865SOL     OW30493   0.579   1.346   3.835
 9865SOL    HW130494   0.617   1.255   3.851
 9865SOL    HW230495   0.561   1.357   3.737
 9866SOL     OW30496   4.871   4.216   4.823
 9866SOL    HW130497   4.794   4.230   4.761
 9866SOL    HW230498   4.948   4.272   4.793
 9867SOL     OW30499   4.104   0.903   1.245
 9867SOL    HW130500   4.132   0.825   1.301
 9867SOL    HW230501   4.117   0.882   1.148
 9868SOL     OW30502   1.560   4.800   6.130
 9868SOL    HW130503   1.623   4.853   6.073
 9868SOL    HW230504   1.497   4.748   6.071
 9869SOL     OW30505   2.051   3.675   2.695
 9869SOL    HW130506   1.992   3.711   2.767
 9869SOL    HW230507   2.074   3.580   2.715
 9870SOL     OW30508   4.099   5.773   1.996
 9870SOL    HW130509   4.097   5.850   2.060
 9870SOL    HW230510   4.138   5.693   2.041
 9871SOL     OW30511   0.963   6.867   6.197
 9871SOL    HW130512   0.888   6.816   6.155
 9871SOL    HW230513   1.041   6.806   6.210
 9872SOL     OW30514   2.886   5.394   2.920
 9872SOL    HW130515   2.843   5.328   2.982
 9872SOL    HW230516   2.981   5.366   2.903
 9873SOL     OW30517   2.092   2.289   1.268
 9873SOL    HW130518   2.088   2.388   1.267
 9873SOL    HW230519   2.045   2.254   1.349
 9874SOL     OW30520   0.444   2.167   4.495
 9874SOL    HW130521   0.387   2.243   4.528
 9874SOL    HW230522   0.394   2.113   4.428
 9875SOL     OW30523   0.147   6.916   2.350
 9875SOL    HW130524   0.176   6.972   2.273
 9875SOL    HW230525   0.196   6.829   2.349
 9876SOL     OW30526   0.002   0.754   2.344
 9876SOL    HW130527   0.051   0.833   2.383
 9876SOL    HW230528   0.026   0.745   2.247
 9877SOL     OW30529   1.429   5.872   2.431
 9877SOL    HW130530   1.508   5.917   2.390
 9877SOL    HW230531   1.399   5.797   2.372
 9878SOL     OW30532   2.355   5.315   5.256
 9878SOL    HW130533   2.266   5.295   5.298
 9878SOL    HW230534   2.352   5.406   5.214
 9879SOL     OW30535   5.615   5.030   5.111
 9879SOL    HW130536   5.680   5.078   5.171
 9879SOL    HW230537   5.545   5.093   5.080
 9880SOL     OW30538   1.765   2.599   5.140
 9880SOL    HW130539   1.763   2.682   5.085
 9880SOL    HW230540   1.674   2.582   5.178
 9881SOL     OW30541   1.866   2.123   5.106
 9881SOL    HW130542   1.777   2.101   5.147
 9881SOL    HW230543   1.921   2.040   5.098
 9882SOL     OW30544   1.290   2.100   3.795
 9882SOL    HW130545   1.344   2.184   3.789
 9882SOL    HW230546   1.298   2.062   3.887
 9883SOL     OW30547   1.106   5.610   0.703
 9883SOL    HW130548   1.041   5.665   0.652
 9883SOL    HW230549   1.058   5.536   0.750
 9884SOL     OW30550   4.311   1.757   3.083
 9884SOL    HW130551   4.394   1.763   3.027
 9884SOL    HW230552   4.231   1.776   3.026
 9885SOL     OW30553   0.190   3.426   5.518
 9885SOL    HW130554   0.222   3.505   5.570
 9885SOL    HW230555   0.245   3.417   5.435
 9886SOL     OW30556   0.774   4.437   2.126
 9886SOL    HW130557   0.785   4.341   2.103
 9886SOL    HW230558   0.862   4.484   2.116
 9887SOL     OW30559   3.511   1.754   6.268
 9887SOL    HW130560   3.432   1.696   6.248
 9887SOL    HW230561   3.513   1.775   6.365
 9888SOL     OW30562   0.031   4.476   0.661
 9888SOL    HW130563   0.037   4.387   0.705
 9888SOL    HW230564   0.022   4.548   0.730
 9889SOL     OW30565   6.789   4.987   1.094
 9889SOL    HW130566   6.770   4.958   1.000
 9889SOL    HW230567   6.768   5.084   1.104
 9890SOL     OW30568   1.741   2.491   0.082
 9890SOL    HW130569   1.781   2.433   0.154
 9890SOL    HW230570   1.670   2.549   0.122
 9891SOL     OW30571   5.686   2.769   1.256
 9891SOL    HW130572   5.696   2.853   1.203
 9891SOL    HW230573   5.606   2.777   1.316
 9892SOL     OW30574   6.447   5.405   0.404
 9892SOL    HW130575   6.390   5.437   0.329
 9892SOL    HW230576   6.541   5.394   0.373
 9893SOL     OW30577   1.210   0.315   0.621
 9893SOL    HW130578   1.199   0.371   0.703
 9893SOL    HW230579   1.181   0.221   0.641
 9894SOL     OW30580   2.147   1.911   1.650
 9894SOL    HW130581   2.062   1.859   1.644
 9894SOL    HW230582   2.214   1.860   1.704
 9895SOL     OW30583   5.493   3.651   5.710
 9895SOL    HW130584   5.467   3.555   5.717
 9895SOL    HW230585   5.528   3.669   5.618
 9896SOL     OW30586   6.228   6.830   5.879
 9896SOL    HW130587   6.221   6.918   5.926
 9896SOL    HW230588   6.140   6.784   5.881
 9897SOL     OW30589   5.661   5.614   3.698
 9897SOL    HW130590   5.564   5.591   3.690
 9897SOL    HW230591   5.709   5.538   3.741
 9898SOL     OW30592   2.347   5.365   5.987
 9898SOL    HW130593   2.366   5.268   5.977
 9898SOL    HW230594   2.412   5.417   5.932
 9899SOL     OW30595   0.172   5.577   6.957
 9899SOL    HW130596   0.250   5.637   6.940
 9899SOL    HW230597   0.094   5.607   6.902
 9900SOL     OW30598   2.088   3.886   3.631
 9900SOL    HW130599   2.073   3.887   3.532
 9900SOL    HW230600   2.167   3.943   3.654
 9901SOL     OW30601   2.778   1.640   6.390
 9901SOL    HW130602   2.768   1.672   6.296
 9901SOL    HW230603   2.869   1.601   6.403
 9902SOL     OW30604   3.143   4.883   6.982
 9902SOL    HW130605   3.164   4.981   6.990
 9902SOL    HW230606   3.214   4.838   6.928
 9903SOL     OW30607   4.823   0.825   1.650
 9903SOL    HW130608   4.916   0.863   1.652
 9903SOL    HW230609   4.826   0.731   1.618
 9904SOL     OW30610   0.686   3.338   6.830
 9904SOL    HW130611   0.693   3.294   6.920
 9904SOL    HW230612   0.739   3.287   6.763
 9905SOL     OW30613   2.725   0.632   6.761
 9905SOL    HW130614   2.768   0.722   6.754
 9905SOL    HW230615   2.792   0.565   6.791
 9906SOL     OW30616   2.789   3.225   1.885
 9906SOL    HW130617   2.690   3.227   1.878
 9906SOL    HW230618   2.823   3.136   1.855
 9907SOL     OW30619   6.517   0.780   0.759
 9907SOL    HW130620   6.532   0.879   0.753
 9907SOL    HW230621   6.492   0.745   0.669
 9908SOL     OW30622   5.686   1.626   4.069
 9908SOL    HW130623   5.603   1.572   4.087
 9908SOL    HW230624   5.743   1.627   4.151
 9909SOL     OW30625   3.872   0.686   3.731
 9909SOL    HW130626   3.847   0.737   3.648
 9909SOL    HW230627   3.970   0.691   3.745
 9910SOL     OW30628   0.975   3.623   2.901
 9910SOL    HW130629   0.998   3.541   2.952
 9910SOL    HW230630   1.021   3.702   2.941
 9911SOL     OW30631   3.660   6.565   2.197
 9911SOL    HW130632   3.732   6.530   2.138
 9911SOL    HW230633   3.617   6.489   2.247
 9912SOL     OW30634   3.806   1.701   1.965
 9912SOL    HW130635   3.823   1.778   1.903
 9912SOL    HW230636   3.826   1.615   1.918
 9913SOL     OW30637   6.453   4.351   0.540
 9913SOL    HW130638   6.491   4.437   0.575
 9913SOL    HW230639   6.511   4.275   0.570
 9914SOL     OW30640   5.057   2.622   5.210
 9914SOL    HW130641   5.015   2.532   5.196
 9914SOL    HW230642   5.156   2.613   5.204
 9915SOL     OW30643   5.602   0.917   3.730
 9915SOL    HW130644   5.625   0.966   3.645
 9915SOL    HW230645   5.626   0.821   3.720
 9916SOL     OW30646   2.033   2.695   3.298
 9916SOL    HW130647   2.016   2.596   3.302
 9916SOL    HW230648   2.070   2.718   3.208
 9917SOL     OW30649   5.852   3.799   0.182
 9917SOL    HW130650   5.904   3.879   0.211
 9917SOL    HW230651   5.897   3.716   0.213
 9918SOL     OW30652   3.127   1.455   3.085
 9918SOL    HW130653   3.089   1.539   3.047
 9918SOL    HW230654   3.200   1.478   3.150
 9919SOL     OW30655   6.115   5.157   1.015
 9919SOL    HW130656   6.196   5.146   1.073
 9919SOL    HW230657   6.096   5.070   0.970
 9920SOL     OW30658   4.901   1.907   1.798
 9920SOL    HW130659   4.862   1.997   1.777
 9920SOL    HW230660   4.869   1.878   1.888
 9921SOL     OW30661   4.792   6.453   6.262
 9921SOL    HW130662   4.780   6.371   6.318
 9921SOL    HW230663   4.710   6.510   6.270
 9922SOL     OW30664   2.093   4.625   0.737
 9922SOL    HW130665   2.054   4.715   0.718
 9922SOL    HW230666   2.049   4.587   0.818
 9923SOL     OW30667   5.073   4.840   0.452
 9923SOL    HW130668   5.049   4.933   0.478
 9923SOL    HW230669   5.121   4.842   0.364
 9924SOL     OW30670   6.339   2.213   4.895
 9924SOL    HW130671   6.333   2.155   4.975
 9924SOL    HW230672   6.257   2.270   4.888
 9925SOL     OW30673   6.807   3.383   3.818
 9925SOL    HW130674   6.884   3.348   3.871
 9925SOL    HW230675   6.754   3.307   3.781
 9926SOL     OW30676   3.449   3.210   0.327
 9926SOL    HW130677   3.396   3.179   0.248
 9926SOL    HW230678   3.444   3.309   0.334
 9927SOL     OW30679   0.152   0.288   1.127
 9927SOL    HW130680   0.234   0.239   1.099
 9927SOL    HW230681   0.177   0.368   1.182
 9928SOL     OW30682   5.237   6.469   1.812
 9928SOL    HW130683   5.273   6.421   1.892
 9928SOL    HW230684   5.206   6.401   1.745
 9929SOL     OW30685   2.530   5.435   4.885
 9929SOL    HW130686   2.440   5.395   4.900
 9929SOL    HW230687   2.598   5.390   4.944
 9930SOL     OW30688   6.475   6.972   4.671
 9930SOL    HW130689   6.516   6.998   4.583
 9930SOL    HW230690   6.492   6.875   4.688
 9931SOL     OW30691   1.165   4.660   4.498
 9931SOL    HW130692   1.102   4.694   4.568
 9931SOL    HW230693   1.259   4.671   4.529
 9932SOL     OW30694   2.230   5.284   6.502
 9932SOL    HW130695   2.147   5.282   6.557
 9932SOL    HW230696   2.305   5.322   6.556
 9933SOL     OW30697   1.253   4.960   3.446
 9933SOL    HW130698   1.236   5.007   3.360
 9933SOL    HW230699   1.218   4.866   3.440
 9934SOL     OW30700   5.527   1.513   5.686
 9934SOL    HW130701   5.515   1.458   5.604
 9934SOL    HW230702   5.518   1.455   5.767
 9935SOL     OW30703   3.200   6.938   0.390
 9935SOL    HW130704   3.212   6.846   0.427
 9935SOL    HW230705   3.284   6.968   0.347
 9936SOL     OW30706   6.742   4.914   6.224
 9936SOL    HW130707   6.735   4.976   6.145
 9936SOL    HW230708   6.837   4.884   6.235
 9937SOL     OW30709   6.725   1.531   6.537
 9937SOL    HW130710   6.778   1.510   6.619
 9937SOL    HW230711   6.784   1.574   6.468
 9938SOL     OW30712   6.859   5.244   3.016
 9938SOL    HW130713   6.817   5.334   3.031
 9938SOL    HW230714   6.913   5.219   3.096
 9939SOL     OW30715   4.252   2.306   0.384
 9939SOL    HW130716   4.182   2.296   0.454
 9939SOL    HW230717   4.227   2.251   0.304
 9940SOL     OW30718   1.049   0.861   1.138
 9940SOL    HW130719   1.127   0.838   1.080
 9940SOL    HW230720   1.018   0.954   1.116
 9941SOL     OW30721   3.236   3.825   5.062
 9941SOL    HW130722   3.278   3.878   5.135
 9941SOL    HW230723   3.203   3.887   4.991
 9942SOL     OW30724   2.504   5.553   2.649
 9942SOL    HW130725   2.456   5.641   2.648
 9942SOL    HW230726   2.457   5.489   2.588
 9943SOL     OW30727   6.972   5.613   5.715
 9943SOL    HW130728   6.932   5.693   5.759
 9943SOL    HW230729   6.931   5.600   5.625
 9944SOL     OW30730   1.899   5.181   6.114
 9944SOL    HW130731   1.888   5.200   6.017
 9944SOL    HW230732   1.996   5.173   6.136
 9945SOL     OW30733   6.416   5.750   6.769
 9945SOL    HW130734   6.397   5.845   6.743
 9945SOL    HW230735   6.336   5.693   6.749
 9946SOL     OW30736   4.701   1.224   4.890
 9946SOL    HW130737   4.640   1.262   4.959
 9946SOL    HW230738   4.681   1.265   4.801
 9947SOL     OW30739   1.349   3.714   5.234
 9947SOL    HW130740   1.412   3.654   5.284
 9947SOL    HW230741   1.268   3.662   5.207
 9948SOL     OW30742   5.902   4.784   4.392
 9948SOL    HW130743   5.837   4.778   4.317
 9948SOL    HW230744   5.911   4.694   4.436
 9949SOL     OW30745   5.288   5.078   3.539
 9949SOL    HW130746   5.261   4.986   3.568
 9949SOL    HW230747   5.280   5.141   3.617
 9950SOL     OW30748   5.815   5.963   5.205
 9950SOL    HW130749   5.826   5.911   5.120
 9950SOL    HW230750   5.826   5.901   5.283
 9951SOL     OW30751   6.030   1.523   4.645
 9951SOL    HW130752   6.120   1.480   4.638
 9951SOL    HW230753   6.029   1.588   4.720
 9952SOL     OW30754   0.567   3.430   0.971
 9952SOL    HW130755   0.542   3.477   1.056
 9952SOL    HW230756   0.663   3.403   0.976
 9953SOL     OW30757   6.007   2.447   4.116
 9953SOL    HW130758   5.908   2.461   4.115
 9953SOL    HW230759   6.050   2.507   4.049
 9954SOL     OW30760   6.144   0.033   6.004
 9954SOL    HW130761   6.140   0.101   5.931
 9954SOL    HW230762   6.239   0.023   6.036
 9955SOL     OW30763   5.940   3.506   5.518
 9955SOL    HW130764   5.868   3.439   5.536
 9955SOL    HW230765   5.903   3.581   5.462
 9956SOL     OW30766   1.937   6.927   1.597
 9956SOL    HW130767   1.840   6.936   1.618
 9956SOL    HW230768   1.981   6.871   1.668
 9957SOL     OW30769   5.871   5.614   2.982
 9957SOL    HW130770   5.955   5.634   2.931
 9957SOL    HW230771   5.824   5.700   3.004
 9958SOL     OW30772   3.010   5.479   0.633
 9958SOL    HW130773   2.934   5.421   0.602
 9958SOL    HW230774   3.073   5.426   0.689
 9959SOL     OW30775   4.124   3.679   5.741
 9959SOL    HW130776   4.060   3.711   5.672
 9959SOL    HW230777   4.200   3.631   5.697
 9960SOL     OW30778   6.930   6.848   2.204
 9960SOL    HW130779   7.019   6.866   2.245
 9960SOL    HW230780   6.896   6.759   2.234
 9961SOL     OW30781   1.523   5.896   3.737
 9961SOL    HW130782   1.541   5.991   3.764
 9961SOL    HW230783   1.607   5.842   3.744
 9962SOL     OW30784   6.688   6.829   2.945
 9962SOL    HW130785   6.624   6.902   2.970
 9962SOL    HW230786   6.722   6.843   2.852
 9963SOL     OW30787   3.122   2.810   6.925
 9963SOL    HW130788   3.062   2.881   6.889
 9963SOL    HW230789   3.101   2.794   7.021
 9964SOL     OW30790   4.618   5.258   5.294
 9964SOL    HW130791   4.584   5.351   5.281
 9964SOL    HW230792   4.550   5.193   5.260
 9965SOL     OW30793   3.732   6.790   0.019
 9965SOL    HW130794   3.725   6.835   0.109
 9965SOL    HW230795   3.682   6.843   6.975
 9966SOL     OW30796   1.421   5.134   1.407
 9966SOL    HW130797   1.513   5.174   1.414
 9966SOL    HW230798   1.425   5.051   1.352
 9967SOL     OW30799   0.316   5.949   2.335
 9967SOL    HW130800   0.361   5.927   2.422
 9967SOL    HW230801   0.385   5.961   2.264
 9968SOL     OW30802   3.750   3.984   1.231
 9968SOL    HW130803   3.798   4.062   1.191
 9968SOL    HW230804   3.660   4.013   1.262
 9969SOL     OW30805   1.630   3.528   2.339
 9969SOL    HW130806   1.666   3.487   2.255
 9969SOL    HW230807   1.533   3.504   2.348
 9970SOL     OW30808   5.175   4.306   2.939
 9970SOL    HW130809   5.275   4.318   2.936
 9970SOL    HW230810   5.148   4.240   2.869
 9971SOL     OW30811   2.307   4.845   1.218
 9971SOL    HW130812   2.325   4.906   1.140
 9971SOL    HW230813   2.225   4.792   1.200
 9972SOL     OW30814   5.711   5.077   0.928
 9972SOL    HW130815   5.760   4.994   0.900
 9972SOL    HW230816   5.759   5.119   1.005
 9973SOL     OW30817   6.016   1.743   3.270
 9973SOL    HW130818   5.920   1.760   3.292
 9973SOL    HW230819   6.022   1.666   3.207
 9974SOL     OW30820   0.837   2.469   2.420
 9974SOL    HW130821   0.831   2.381   2.467
 9974SOL    HW230822   0.754   2.484   2.365
 9975SOL     OW30823   6.169   3.225   0.551
 9975SOL    HW130824   6.136   3.134   0.578
 9975SOL    HW230825   6.258   3.217   0.506
 9976SOL     OW30826   1.124   6.042   5.144
 9976SOL    HW130827   1.164   5.964   5.193
 9976SOL    HW230828   1.040   6.012   5.099
 9977SOL     OW30829   6.411   5.821   5.653
 9977SOL    HW130830   6.354   5.895   5.691
 9977SOL    HW230831   6.417   5.747   5.720
 9978SOL     OW30832   1.132   3.044   4.959
 9978SOL    HW130833   1.082   2.957   4.956
 9978SOL    HW230834   1.127   3.082   5.052
 9979SOL     OW30835   6.694   4.882   5.575
 9979SOL    HW130836   6.754   4.904   5.498
 9979SOL    HW230837   6.604   4.857   5.541
 9980SOL     OW30838   2.620   0.268   6.825
 9980SOL    HW130839   2.707   0.316   6.828
 9980SOL    HW230840   2.635   0.173   6.798
 9981SOL     OW30841   2.362   1.739   2.905
 9981SOL    HW130842   2.407   1.681   2.973
 9981SOL    HW230843   2.338   1.827   2.946
 9982SOL     OW30844   6.182   5.926   4.189
 9982SOL    HW130845   6.141   5.848   4.142
 9982SOL    HW230846   6.230   5.896   4.271
 9983SOL     OW30847   0.664   2.121   3.091
 9983SOL    HW130848   0.579   2.165   3.064
 9983SOL    HW230849   0.646   2.027   3.119
 9984SOL     OW30850   2.617   1.933   6.853
 9984SOL    HW130851   2.653   1.987   6.777
 9984SOL    HW230852   2.692   1.903   6.912
 9985SOL     OW30853   2.174   0.994   0.569
 9985SOL    HW130854   2.117   1.038   0.638
 9985SOL    HW230855   2.169   0.895   0.580
 9986SOL     OW30856   6.519   3.948   5.837
 9986SOL    HW130857   6.425   3.920   5.855
 9986SOL    HW230858   6.520   4.045   5.812
 9987SOL     OW30859   5.961   3.028   5.251
 9987SOL    HW130860   6.024   3.103   5.230
 9987SOL    HW230861   5.877   3.039   5.198
 9988SOL     OW30862   0.472   5.780   4.556
 9988SOL    HW130863   0.513   5.698   4.517
 9988SOL    HW230864   0.411   5.755   4.631
 9989SOL     OW30865   6.698   3.169   3.666
 9989SOL    HW130866   6.694   3.211   3.576
 9989SOL    HW230867   6.709   3.070   3.656
 9990SOL     OW30868   2.126   5.154   3.342
 9990SOL    HW130869   2.048   5.118   3.393
 9990SOL    HW230870   2.200   5.087   3.342
 9991SOL     OW30871   2.979   2.260   4.597
 9991SOL    HW130872   3.020   2.194   4.535
 9991SOL    HW230873   2.880   2.264   4.581
 9992SOL     OW30874   5.632   4.881   0.063
 9992SOL    HW130875   5.548   4.902   0.012
 9992SOL    HW230876   5.690   4.962   0.065
 9993SOL     OW30877   2.922   1.264   0.825
 9993SOL    HW130878   2.972   1.302   0.748
 9993SOL    HW230879   2.956   1.304   0.910
 9994SOL     OW30880   6.092   4.368   2.835
 9994SOL    HW130881   5.994   4.384   2.828
 9994SOL    HW230882   6.126   4.402   2.922
 9995SOL     OW30883   4.519   1.378   3.263
 9995SOL    HW130884   4.428   1.397   3.298
 9995SOL    HW230885   4.578   1.348   3.338
 9996SOL     OW30886   2.954   4.041   6.924
 9996SOL    HW130887   3.026   3.972   6.914
 9996SOL    HW230888   2.974   4.100   7.002
 9997SOL     OW30889   2.744   1.655   5.688
 9997SOL    HW130890   2.829   1.707   5.691
 9997SOL    HW230891   2.675   1.707   5.640
 9998SOL     OW30892   5.754   4.938   5.360
 9998SOL    HW130893   5.748   5.038   5.359
 9998SOL    HW230894   5.662   4.900   5.362
 9999SOL     OW30895   6.427   2.930   5.817
 9999SOL    HW130896   6.417   2.903   5.913
 9999SOL    HW230897   6.437   3.029   5.811
10000SOL     OW30898   6.428   3.543   0.084
10000SOL    HW130899   6.395   3.530   0.178
10000SOL    HW230900   6.363   3.598   0.033
10001SOL     OW30901   4.846   0.023   2.366
10001SOL    HW130902   4.823   6.987   2.442
10001SOL    HW230903   4.772   0.089   2.352
10002SOL     OW30904   1.602   6.654   1.848
10002SOL    HW130905   1.669   6.728   1.843
10002SOL    HW230906   1.518   6.689   1.888
10003SOL     OW30907   3.370   2.076   3.856
10003SOL    HW130908   3.462   2.085   3.895
10003SOL    HW230909   3.356   1.982   3.825
10004SOL     OW30910   6.858   2.840   4.726
10004SOL    HW130911   6.769   2.830   4.771
10004SOL    HW230912   6.883   2.753   4.683
10005SOL     OW30913   5.701   0.627   3.695
10005SOL    HW130914   5.663   0.582   3.776
10005SOL    HW230915   5.801   0.621   3.698
10006SOL     OW30916   4.661   6.581   4.181
10006SOL    HW130917   4.662   6.680   4.167
10006SOL    HW230918   4.717   6.536   4.110
10007SOL     OW30919   0.105   3.572   5.050
10007SOL    HW130920   0.189   3.587   5.101
10007SOL    HW230921   0.028   3.612   5.100
10008SOL     OW30922   3.845   1.149   4.721
10008SOL    HW130923   3.932   1.101   4.728
10008SOL    HW230924   3.785   1.100   4.658
10009SOL     OW30925   1.810   3.958   2.326
10009SOL    HW130926   1.791   4.028   2.395
10009SOL    HW230927   1.908   3.937   2.327
10010SOL     OW30928   2.188   0.628   6.532
10010SOL    HW130929   2.145   0.660   6.448
10010SOL    HW230930   2.277   0.673   6.543
10011SOL     OW30931   6.755   0.421   5.381
10011SOL    HW130932   6.744   0.426   5.282
10011SOL    HW230933   6.703   0.343   5.416
10012SOL     OW30934   5.898   0.404   2.776
10012SOL    HW130935   5.808   0.388   2.735
10012SOL    HW230936   5.965   0.343   2.735
10013SOL     OW30937   0.221   1.203   3.034
10013SOL    HW130938   0.138   1.148   3.047
10013SOL    HW230939   0.286   1.152   2.978
10014SOL     OW30940   0.667   4.288   6.680
10014SOL    HW130941   0.752   4.274   6.730
10014SOL    HW230942   0.674   4.247   6.589
10015SOL     OW30943   2.480   5.423   0.449
10015SOL    HW130944   2.511   5.499   0.393
10015SOL    HW230945   2.518   5.337   0.414
10016SOL     OW30946   1.742   1.408   6.053
10016SOL    HW130947   1.695   1.337   5.999
10016SOL    HW230948   1.771   1.481   5.992
10017SOL     OW30949   2.954   2.258   4.229
10017SOL    HW130950   2.929   2.276   4.324
10017SOL    HW230951   3.000   2.170   4.223
10018SOL     OW30952   5.335   0.043   6.768
10018SOL    HW130953   5.347   0.132   6.725
10018SOL    HW230954   5.246   0.039   6.814
10019SOL     OW30955   1.049   1.503   2.759
10019SOL    HW130956   0.955   1.479   2.736
10019SOL    HW230957   1.054   1.600   2.781
10020SOL     OW30958   0.784   2.859   1.677
10020SOL    HW130959   0.751   2.789   1.614
10020SOL    HW230960   0.883   2.870   1.666
10021SOL     OW30961   6.828   3.490   1.109
10021SOL    HW130962   6.822   3.485   1.009
10021SOL    HW230963   6.769   3.563   1.143
10022SOL     OW30964   2.746   1.435   6.064
10022SOL    HW130965   2.675   1.471   6.003
10022SOL    HW230966   2.804   1.510   6.096
10023SOL     OW30967   6.477   4.148   0.354
10023SOL    HW130968   6.570   4.137   0.321
10023SOL    HW230969   6.459   4.244   0.373
10024SOL     OW30970   1.226   6.023   3.887
10024SOL    HW130971   1.303   6.076   3.921
10024SOL    HW230972   1.259   5.954   3.823
10025SOL     OW30973   1.986   0.654   1.710
10025SOL    HW130974   1.956   0.684   1.800
10025SOL    HW230975   1.907   0.620   1.658
10026SOL     OW30976   5.446   0.491   3.660
10026SOL    HW130977   5.438   0.474   3.758
10026SOL    HW230978   5.540   0.515   3.637
10027SOL     OW30979   5.308   3.536   4.221
10027SOL    HW130980   5.286   3.448   4.264
10027SOL    HW230981   5.401   3.533   4.184
10028SOL     OW30982   1.252   0.835   0.979
10028SOL    HW130983   1.244   0.856   0.882
10028SOL    HW230984   1.326   0.770   0.993
10029SOL     OW30985   5.527   1.925   3.407
10029SOL    HW130986   5.505   1.987   3.483
10029SOL    HW230987   5.470   1.843   3.414
10030SOL     OW30988   2.163   1.029   3.460
10030SOL    HW130989   2.102   1.063   3.531
10030SOL    HW230990   2.257   1.031   3.493
10031SOL     OW30991   5.382   4.712   3.688
10031SOL    HW130992   5.345   4.790   3.738
10031SOL    HW230993   5.309   4.645   3.674
10032SOL     OW30994   2.418   1.971   5.273
10032SOL    HW130995   2.486   2.032   5.233
10032SOL    HW230996   2.327   2.011   5.262
10033SOL     OW30997   6.222   2.941   4.177
10033SOL    HW130998   6.242   2.898   4.089
10033SOL    HW230999   6.289   2.911   4.245
10034SOL     OW31000   3.704   0.945   4.566
10034SOL    HW131001   3.643   0.905   4.635
10034SOL    HW231002   3.797   0.910   4.579
10035SOL     OW31003   6.965   5.099   2.025
10035SOL    HW131004   0.009   5.027   2.038
10035SOL    HW231005   6.982   5.173   2.090
10036SOL     OW31006   6.601   1.931   0.368
10036SOL    HW131007   6.553   1.858   0.321
10036SOL    HW231008   6.678   1.962   0.312
10037SOL     OW31009   6.798   0.730   6.012
10037SOL    HW131010   6.773   0.635   5.995
10037SOL    HW231011   6.723   0.777   6.059
10038SOL     OW31012   6.652   0.350   0.988
10038SOL    HW131013   6.741   0.340   1.032
10038SOL    HW231014   6.601   0.264   0.996
10039SOL     OW31015   2.940   0.330   3.265
10039SOL    HW131016   2.856   0.363   3.224
10039SOL    HW231017   3.018   0.360   3.210
10040SOL     OW31018   6.335   3.772   0.400
10040SOL    HW131019   6.284   3.810   0.477
10040SOL    HW231020   6.297   3.807   0.314
10041SOL     OW31021   3.435   6.281   0.175
10041SOL    HW131022   3.515   6.328   0.137
10041SOL    HW231023   3.437   6.286   0.275
10042SOL     OW31024   6.649   2.055   3.264
10042SOL    HW131025   6.646   2.000   3.180
10042SOL    HW231026   6.726   2.119   3.259
10043SOL     OW31027   0.096   1.762   5.869
10043SOL    HW131028   0.133   1.717   5.950
10043SOL    HW231029   0.009   1.806   5.892
10044SOL     OW31030   2.568   2.807   5.787
10044SOL    HW131031   2.491   2.853   5.832
10044SOL    HW231032   2.542   2.714   5.764
10045SOL     OW31033   4.162   0.808   0.994
10045SOL    HW131034   4.251   0.793   0.951
10045SOL    HW231035   4.090   0.787   0.928
10046SOL     OW31036   0.670   4.811   1.248
10046SOL    HW131037   0.663   4.734   1.312
10046SOL    HW231038   0.687   4.777   1.156
10047SOL     OW31039   0.859   3.131   6.063
10047SOL    HW131040   0.862   3.229   6.084
10047SOL    HW231041   0.765   3.098   6.071
10048SOL     OW31042   6.156   6.689   2.811
10048SOL    HW131043   6.130   6.780   2.780
10048SOL    HW231044   6.076   6.641   2.846
10049SOL     OW31045   0.241   2.493   5.635
10049SOL    HW131046   0.169   2.536   5.580
10049SOL    HW231047   0.329   2.536   5.613
10050SOL     OW31048   5.442   3.410   5.121
10050SOL    HW131049   5.368   3.406   5.053
10050SOL    HW231050   5.461   3.318   5.155
10051SOL     OW31051   0.638   4.125   4.531
10051SOL    HW131052   0.659   4.086   4.441
10051SOL    HW231053   0.596   4.055   4.589
10052SOL     OW31054   0.883   0.683   3.602
10052SOL    HW131055   0.802   0.702   3.656
10052SOL    HW231056   0.911   0.588   3.615
10053SOL     OW31057   4.871   5.430   4.351
10053SOL    HW131058   4.793   5.380   4.312
10053SOL    HW231059   4.873   5.416   4.450
10054SOL     OW31060   5.272   3.785   4.602
10054SOL    HW131061   5.228   3.839   4.673
10054SOL    HW231062   5.370   3.777   4.622
10055SOL     OW31063   6.651   2.037   6.542
10055SOL    HW131064   6.607   1.974   6.477
10055SOL    HW231065   6.585   2.065   6.611
10056SOL     OW31066   5.089   3.052   2.853
10056SOL    HW131067   5.062   3.136   2.900
10056SOL    HW231068   5.115   2.982   2.919
10057SOL     OW31069   5.273   4.428   6.323
10057SOL    HW131070   5.276   4.376   6.408
10057SOL    HW231071   5.344   4.499   6.326
10058SOL     OW31072   5.926   3.103   4.884
10058SOL    HW131073   5.869   3.099   4.802
10058SOL    HW231074   5.875   3.064   4.961
10059SOL     OW31075   6.715   1.586   6.828
10059SOL    HW131076   6.801   1.541   6.850
10059SOL    HW231077   6.641   1.548   6.884
10060SOL     OW31078   2.379   1.797   2.624
10060SOL    HW131079   2.374   1.776   2.722
10060SOL    HW231080   2.418   1.888   2.612
10061SOL     OW31081   3.762   0.703   3.178
10061SOL    HW131082   3.850   0.656   3.185
10061SOL    HW231083   3.703   0.673   3.253
10062SOL     OW31084   0.214   0.264   4.206
10062SOL    HW131085   0.115   0.254   4.211
10062SOL    HW231086   0.253   0.252   4.297
10063SOL     OW31087   1.633   3.163   5.059
10063SOL    HW131088   1.659   3.245   5.008
10063SOL    HW231089   1.543   3.133   5.029
10064SOL     OW31090   2.999   6.839   0.682
10064SOL    HW131091   3.080   6.896   0.687
10064SOL    HW231092   2.978   6.817   0.587
10065SOL     OW31093   0.650   0.928   2.178
10065SOL    HW131094   0.717   0.864   2.140
10065SOL    HW231095   0.657   0.928   2.278
10066SOL     OW31096   6.551   3.304   4.924
10066SOL    HW131097   6.587   3.211   4.913
10066SOL    HW231098   6.451   3.301   4.922
10067SOL     OW31099   6.627   2.309   5.183
10067SOL    HW131100   6.541   2.345   5.219
10067SOL    HW231101   6.644   2.218   5.223
10068SOL     OW31102   2.606   2.464   2.861
10068SOL    HW131103   2.528   2.525   2.845
10068SOL    HW231104   2.648   2.439   2.773
10069SOL     OW31105   3.526   5.448   1.092
10069SOL    HW131106   3.436   5.437   1.052
10069SOL    HW231107   3.534   5.538   1.134
10070SOL     OW31108   3.617   5.889   5.308
10070SOL    HW131109   3.531   5.938   5.295
10070SOL    HW231110   3.640   5.839   5.225
10071SOL     OW31111   6.433   0.257   3.270
10071SOL    HW131112   6.487   0.307   3.337
10071SOL    HW231113   6.394   0.175   3.312
10072SOL     OW31114   6.726   1.650   2.383
10072SOL    HW131115   6.703   1.647   2.480
10072SOL    HW231116   6.720   1.744   2.350
10073SOL     OW31117   6.213   3.884   4.438
10073SOL    HW131118   6.295   3.941   4.438
10073SOL    HW231119   6.227   3.806   4.500
10074SOL     OW31120   1.665   4.932   0.403
10074SOL    HW131121   1.708   4.940   0.313
10074SOL    HW231122   1.590   4.866   0.399
10075SOL     OW31123   2.015   3.196   1.714
10075SOL    HW131124   2.076   3.213   1.636
10075SOL    HW231125   1.986   3.284   1.753
10076SOL     OW31126   5.075   5.105   3.749
10076SOL    HW131127   5.076   5.108   3.849
10076SOL    HW231128   5.016   5.178   3.714
10077SOL     OW31129   6.289   2.785   6.413
10077SOL    HW131130   6.355   2.754   6.482
10077SOL    HW231131   6.338   2.819   6.333
10078SOL     OW31132   0.100   6.791   5.323
10078SOL    HW131133   0.103   6.710   5.263
10078SOL    HW231134   0.121   6.763   5.417
10079SOL     OW31135   4.378   2.426   3.129
10079SOL    HW131136   4.375   2.358   3.201
10079SOL    HW231137   4.335   2.390   3.047
10080SOL     OW31138   5.517   0.195   6.197
10080SOL    HW131139   5.429   0.150   6.211
10080SOL    HW231140   5.580   0.132   6.152
10081SOL     OW31141   1.973   2.680   0.586
10081SOL    HW131142   1.993   2.593   0.540
10081SOL    HW231143   1.990   2.671   0.684
10082SOL     OW31144   1.469   4.648   1.900
10082SOL    HW131145   1.442   4.552   1.888
10082SOL    HW231146   1.500   4.662   1.994
10083SOL     OW31147   3.710   5.111   3.592
10083SOL    HW131148   3.793   5.165   3.610
10083SOL    HW231149   3.657   5.155   3.520
10084SOL     OW31150   1.271   0.581   4.768
10084SOL    HW131151   1.300   0.606   4.860
10084SOL    HW231152   1.237   0.487   4.768
10085SOL     OW31153   4.452   0.129   0.502
10085SOL    HW131154   4.440   0.178   0.416
10085SOL    HW231155   4.537   0.076   0.498
10086SOL     OW31156   0.176   6.248   1.597
10086SOL    HW131157   0.080   6.274   1.589
10086SOL    HW231158   0.218   6.249   1.506
10087SOL     OW31159   1.665   6.359   4.879
10087SOL    HW131160   1.720   6.440   4.863
10087SOL    HW231161   1.725   6.278   4.884
10088SOL     OW31162   0.287   2.767   0.374
10088SOL    HW131163   0.336   2.826   0.439
10088SOL    HW231164   0.247   2.689   0.423
10089SOL     OW31165   3.871   1.657   2.346
10089SOL    HW131166   3.902   1.734   2.289
10089SOL    HW231167   3.799   1.688   2.408
10090SOL     OW31168   2.159   6.156   1.361
10090SOL    HW131169   2.134   6.106   1.444
10090SOL    HW231170   2.162   6.254   1.380
10091SOL     OW31171   6.202   4.389   5.446
10091SOL    HW131172   6.145   4.390   5.364
10091SOL    HW231173   6.187   4.305   5.497
10092SOL     OW31174   0.405   2.235   5.088
10092SOL    HW131175   0.341   2.259   5.161
10092SOL    HW231176   0.366   2.163   5.031
10093SOL     OW31177   5.725   4.400   5.617
10093SOL    HW131178   5.781   4.317   5.621
10093SOL    HW231179   5.751   4.454   5.537
10094SOL     OW31180   3.288   0.687   1.144
10094SOL    HW131181   3.309   0.613   1.208
10094SOL    HW231182   3.191   0.711   1.152
10095SOL     OW31183   4.884   2.948   5.389
10095SOL    HW131184   4.820   3.024   5.395
10095SOL    HW231185   4.850   2.871   5.443
10096SOL     OW31186   5.292   1.320   3.056
10096SOL    HW131187   5.211   1.332   2.999
10096SOL    HW231188   5.286   1.232   3.104
10097SOL     OW31189   1.118   1.799   0.196
10097SOL    HW131190   1.204   1.826   0.238
10097SOL    HW231191   1.129   1.791   0.097
10098SOL     OW31192   3.613   5.866   3.756
10098SOL    HW131193   3.593   5.939   3.821
10098SOL    HW231194   3.712   5.857   3.747
10099SOL     OW31195   6.898   4.901   1.576
10099SOL    HW131196   6.798   4.897   1.579
10099SOL    HW231197   6.927   4.919   1.482
10100SOL     OW31198   4.401   5.239   4.452
10100SOL    HW131199   4.303   5.221   4.461
10100SOL    HW231200   4.441   5.255   4.542
10101SOL     OW31201   1.056   2.144   1.744
10101SOL    HW131202   0.959   2.126   1.723
10101SOL    HW231203   1.061   2.202   1.826
10102SOL     OW31204   6.440   6.288   1.649
10102SOL    HW131205   6.469   6.381   1.625
10102SOL    HW231206   6.474   6.266   1.740
10103SOL     OW31207   6.985   6.366   6.323
10103SOL    HW131208   0.007   6.334   6.241
10103SOL    HW231209   6.982   6.292   6.391
10104SOL     OW31210   1.989   0.292   4.752
10104SOL    HW131211   1.970   0.312   4.655
10104SOL    HW231212   1.962   0.198   4.772
10105SOL     OW31213   2.711   0.739   6.133
10105SOL    HW131214   2.685   0.819   6.186
10105SOL    HW231215   2.805   0.749   6.101
10106SOL     OW31216   5.137   5.891   1.271
10106SOL    HW131217   5.054   5.836   1.259
10106SOL    HW231218   5.154   5.943   1.188
10107SOL     OW31219   5.111   4.522   0.102
10107SOL    HW131220   5.113   4.487   0.196
10107SOL    HW231221   5.156   4.612   0.099
10108SOL     OW31222   2.045   2.599   0.130
10108SOL    HW131223   1.972   2.658   0.166
10108SOL    HW231224   2.111   2.580   0.202
10109SOL     OW31225   1.249   1.885   1.333
10109SOL    HW131226   1.166   1.911   1.284
10109SOL    HW231227   1.289   1.966   1.377
10110SOL     OW31228   4.746   6.168   2.588
10110SOL    HW131229   4.667   6.191   2.646
10110SOL    HW231230   4.801   6.098   2.633
10111SOL     OW31231   1.361   1.318   1.965
10111SOL    HW131232   1.455   1.299   1.991
10111SOL    HW231233   1.353   1.314   1.865
10112SOL     OW31234   6.499   1.990   3.744
10112SOL    HW131235   6.437   1.911   3.737
10112SOL    HW231236   6.531   2.015   3.652
10113SOL     OW31237   6.249   1.019   6.338
10113SOL    HW131238   6.257   0.941   6.276
10113SOL    HW231239   6.311   1.005   6.416
10114SOL     OW31240   5.026   1.646   2.285
10114SOL    HW131241   5.105   1.607   2.332
10114SOL    HW231242   4.943   1.598   2.314
10115SOL     OW31243   3.420   2.704   6.027
10115SOL    HW131244   3.418   2.773   5.954
10115SOL    HW231245   3.369   2.738   6.106
10116SOL     OW31246   6.178   6.934   5.103
10116SOL    HW131247   6.120   7.002   5.148
10116SOL    HW231248   6.120   6.859   5.070
10117SOL     OW31249   6.263   4.338   3.896
10117SOL    HW131250   6.301   4.246   3.905
10117SOL    HW231251   6.208   4.344   3.812
10118SOL     OW31252   3.879   5.252   4.760
10118SOL    HW131253   3.904   5.204   4.675
10118SOL    HW231254   3.823   5.193   4.817
10119SOL     OW31255   0.055   5.419   5.371
10119SOL    HW131256   7.003   5.445   5.431
10119SOL    HW231257   0.020   5.367   5.293
10120SOL     OW31258   1.907   3.007   2.498
10120SOL    HW131259   1.938   2.915   2.476
10120SOL    HW231260   1.936   3.070   2.427
10121SOL     OW31261   6.463   3.907   0.782
10121SOL    HW131262   6.438   3.924   0.878
10121SOL    HW231263   6.380   3.898   0.727
10122SOL     OW31264   1.251   0.496   3.769
10122SOL    HW131265   1.159   0.503   3.808
10122SOL    HW231266   1.300   0.419   3.812
10123SOL     OW31267   5.510   5.527   6.770
10123SOL    HW131268   5.486   5.598   6.703
10123SOL    HW231269   5.598   5.487   6.746
10124SOL     OW31270   1.181   4.858   2.788
10124SOL    HW131271   1.276   4.890   2.779
10124SOL    HW231272   1.180   4.773   2.840
10125SOL     OW31273   1.351   1.323   6.079
10125SOL    HW131274   1.360   1.347   6.176
10125SOL    HW231275   1.426   1.262   6.053
10126SOL     OW31276   6.126   0.236   6.586
10126SOL    HW131277   6.219   0.235   6.549
10126SOL    HW231278   6.127   0.272   6.679
10127SOL     OW31279   1.733   5.669   5.792
10127SOL    HW131280   1.771   5.677   5.884
10127SOL    HW231281   1.641   5.631   5.797
10128SOL     OW31282   3.015   1.540   6.766
10128SOL    HW131283   3.096   1.591   6.737
10128SOL    HW231284   2.933   1.594   6.747
10129SOL     OW31285   5.830   1.142   4.091
10129SOL    HW131286   5.773   1.211   4.136
10129SOL    HW231287   5.772   1.072   4.050
10130SOL     OW31288   1.313   1.909   2.783
10130SOL    HW131289   1.250   1.974   2.739
10130SOL    HW231290   1.285   1.815   2.759
10131SOL     OW31291   1.860   7.013   4.500
10131SOL    HW131292   1.958   7.016   4.482
10131SOL    HW231293   1.817   6.945   4.440
10132SOL     OW31294   6.465   0.791   1.822
10132SOL    HW131295   6.494   0.698   1.843
10132SOL    HW231296   6.538   0.838   1.772
10133SOL     OW31297   5.729   6.933   0.235
10133SOL    HW131298   5.678   7.013   0.267
10133SOL    HW231299   5.766   6.951   0.144
10134SOL     OW31300   5.873   6.844   2.026
10134SOL    HW131301   5.777   6.822   2.039
10134SOL    HW231302   5.905   6.804   1.940
10135SOL     OW31303   6.425   6.892   2.843
10135SOL    HW131304   6.412   6.798   2.811
10135SOL    HW231305   6.444   6.952   2.765
10136SOL     OW31306   5.674   1.552   2.708
10136SOL    HW131307   5.719   1.635   2.740
10136SOL    HW231308   5.583   1.575   2.672
10137SOL     OW31309   6.318   5.256   5.647
10137SOL    HW131310   6.284   5.316   5.719
10137SOL    HW231311   6.367   5.310   5.579
10138SOL     OW31312   7.018   1.731   0.364
10138SOL    HW131313   0.026   1.772   0.450
10138SOL    HW231314   0.040   1.776   0.287
10139SOL     OW31315   3.516   3.075   6.310
10139SOL    HW131316   3.465   3.101   6.392
10139SOL    HW231317   3.540   2.978   6.316
10140SOL     OW31318   0.293   6.267   5.837
10140SOL    HW131319   0.314   6.278   5.934
10140SOL    HW231320   0.378   6.270   5.784
10141SOL     OW31321   2.123   2.641   4.610
10141SOL    HW131322   2.139   2.557   4.558
10141SOL    HW231323   2.032   2.677   4.588
10142SOL     OW31324   4.825   6.149   4.333
10142SOL    HW131325   4.792   6.109   4.419
10142SOL    HW231326   4.809   6.248   4.335
10143SOL     OW31327   5.134   3.344   6.735
10143SOL    HW131328   5.175   3.254   6.721
10143SOL    HW231329   5.055   3.355   6.674
10144SOL     OW31330   3.543   6.923   6.161
10144SOL    HW131331   3.540   6.824   6.150
10144SOL    HW231332   3.547   6.946   6.259
10145SOL     OW31333   5.351   5.736   6.620
10145SOL    HW131334   5.301   5.714   6.537
10145SOL    HW231335   5.446   5.758   6.597
10146SOL     OW31336   0.050   2.437   4.397
10146SOL    HW131337   0.114   2.372   4.437
10146SOL    HW231338   0.101   2.502   4.340
10147SOL     OW31339   4.829   5.135   6.131
10147SOL    HW131340   4.856   5.224   6.096
10147SOL    HW231341   4.875   5.063   6.080
10148SOL     OW31342   1.430   4.729   0.400
10148SOL    HW131343   1.473   4.673   0.472
10148SOL    HW231344   1.417   4.672   0.319
10149SOL     OW31345   3.837   4.489   0.016
10149SOL    HW131346   3.885   4.550   6.977
10149SOL    HW231347   3.742   4.519   0.026
10150SOL     OW31348   4.049   4.328   0.155
10150SOL    HW131349   4.030   4.251   0.216
10150SOL    HW231350   3.964   4.376   0.133
10151SOL     OW31351   5.491   6.958   5.685
10151SOL    HW131352   5.446   6.964   5.774
10151SOL    HW231353   5.423   6.940   5.614
10152SOL     OW31354   4.497   6.944   2.666
10152SOL    HW131355   4.441   6.905   2.739
10152SOL    HW231356   4.522   6.872   2.601
10153SOL     OW31357   4.561   4.361   3.174
10153SOL    HW131358   4.512   4.420   3.239
10153SOL    HW231359   4.502   4.344   3.094
10154SOL     OW31360   5.353   5.314   5.454
10154SOL    HW131361   5.406   5.372   5.393
10154SOL    HW231362   5.410   5.289   5.533
10155SOL     OW31363   4.136   1.257   4.874
10155SOL    HW131364   4.095   1.170   4.849
10155SOL    HW231365   4.070   1.311   4.926
10156SOL     OW31366   5.054   1.947   6.742
10156SOL    HW131367   5.070   1.999   6.826
10156SOL    HW231368   5.131   1.961   6.679
10157SOL     OW31369   0.729   3.010   1.191
10157SOL    HW131370   0.679   3.031   1.108
10157SOL    HW231371   0.699   3.071   1.265
10158SOL     OW31372   5.907   5.045   0.657
10158SOL    HW131373   5.809   5.065   0.653
10158SOL    HW231374   5.958   5.129   0.637
10159SOL     OW31375   3.288   3.541   2.497
10159SOL    HW131376   3.266   3.453   2.455
10159SOL    HW231377   3.239   3.549   2.584
10160SOL     OW31378   1.188   5.113   3.187
10160SOL    HW131379   1.106   5.056   3.198
10160SOL    HW231380   1.162   5.209   3.184
10161SOL     OW31381   5.332   3.148   5.561
10161SOL    HW131382   5.239   3.174   5.587
10161SOL    HW231383   5.397   3.210   5.604
10162SOL     OW31384   1.262   2.942   2.664
10162SOL    HW131385   1.223   2.999   2.591
10162SOL    HW231386   1.353   2.910   2.637
10163SOL     OW31387   1.705   6.017   5.127
10163SOL    HW131388   1.750   6.058   5.206
10163SOL    HW231389   1.658   5.933   5.155
10164SOL     OW31390   1.154   2.334   3.325
10164SOL    HW131391   1.188   2.245   3.297
10164SOL    HW231392   1.128   2.331   3.422
10165SOL     OW31393   6.946   3.345   4.551
10165SOL    HW131394   7.014   3.390   4.608
10165SOL    HW231395   6.867   3.320   4.607
10166SOL     OW31396   2.160   1.064   1.427
10166SOL    HW131397   2.155   0.997   1.352
10166SOL    HW231398   2.069   1.075   1.467
10167SOL     OW31399   2.237   0.384   6.616
10167SOL    HW131400   2.204   0.477   6.597
10167SOL    HW231401   2.332   0.388   6.646
10168SOL     OW31402   0.194   0.997   0.290
10168SOL    HW131403   0.172   0.919   0.233
10168SOL    HW231404   0.294   1.006   0.298
10169SOL     OW31405   6.058   2.788   3.564
10169SOL    HW131406   6.096   2.860   3.623
10169SOL    HW231407   5.978   2.747   3.609
10170SOL     OW31408   5.609   5.624   6.337
10170SOL    HW131409   5.646   5.571   6.413
10170SOL    HW231410   5.631   5.721   6.349
10171SOL     OW31411   2.047   3.503   5.823
10171SOL    HW131412   1.947   3.496   5.828
10171SOL    HW231413   2.079   3.579   5.879
10172SOL     OW31414   6.254   6.893   3.042
10172SOL    HW131415   6.316   6.891   2.965
10172SOL    HW231416   6.186   6.820   3.033
10173SOL     OW31417   3.006   4.033   5.190
10173SOL    HW131418   2.973   4.117   5.234
10173SOL    HW231419   3.060   3.980   5.256
10174SOL     OW31420   4.393   5.932   3.229
10174SOL    HW131421   4.311   5.880   3.251
10174SOL    HW231422   4.368   6.010   3.172
10175SOL     OW31423   0.212   1.437   3.732
10175SOL    HW131424   0.156   1.354   3.731
10175SOL    HW231425   0.229   1.465   3.826
10176SOL     OW31426   6.640   1.694   5.955
10176SOL    HW131427   6.560   1.754   5.968
10176SOL    HW231428   6.615   1.619   5.895
10177SOL     OW31429   2.375   0.652   2.938
10177SOL    HW131430   2.402   0.748   2.925
10177SOL    HW231431   2.435   0.594   2.883
10178SOL     OW31432   2.034   2.287   0.910
10178SOL    HW131433   2.092   2.221   0.957
10178SOL    HW231434   1.938   2.269   0.932
10179SOL     OW31435   0.357   4.385   1.284
10179SOL    HW131436   0.271   4.354   1.245
10179SOL    HW231437   0.408   4.436   1.215
10180SOL     OW31438   4.076   0.327   5.849
10180SOL    HW131439   4.005   0.364   5.790
10180SOL    HW231440   4.122   0.401   5.897
10181SOL     OW31441   6.631   3.129   1.743
10181SOL    HW131442   6.636   3.107   1.646
10181SOL    HW231443   6.704   3.194   1.766
10182SOL     OW31444   6.037   2.101   0.160
10182SOL    HW131445   6.121   2.099   0.106
10182SOL    HW231446   6.019   2.195   0.189
10183SOL     OW31447   6.248   2.004   6.463
10183SOL    HW131448   6.295   1.951   6.533
10183SOL    HW231449   6.163   1.957   6.438
10184SOL     OW31450   5.575   3.051   6.096
10184SOL    HW131451   5.510   3.046   6.172
10184SOL    HW231452   5.606   2.959   6.073
10185SOL     OW31453   3.769   5.602   1.817
10185SOL    HW131454   3.857   5.606   1.770
10185SOL    HW231455   3.696   5.591   1.749
10186SOL     OW31456   3.859   3.350   5.825
10186SOL    HW131457   3.764   3.322   5.832
10186SOL    HW231458   3.864   3.448   5.807
10187SOL     OW31459   1.946   5.531   6.093
10187SOL    HW131460   2.004   5.608   6.066
10187SOL    HW231461   1.941   5.466   6.017
10188SOL     OW31462   2.910   0.512   6.487
10188SOL    HW131463   2.991   0.460   6.513
10188SOL    HW231464   2.934   0.609   6.477
10189SOL     OW31465   1.215   2.155   6.309
10189SOL    HW131466   1.126   2.119   6.282
10189SOL    HW231467   1.232   2.131   6.405
10190SOL     OW31468   3.352   5.397   2.300
10190SOL    HW131469   3.278   5.394   2.232
10190SOL    HW231470   3.329   5.462   2.372
10191SOL     OW31471   5.601   5.810   6.567
10191SOL    HW131472   5.648   5.854   6.491
10191SOL    HW231473   5.667   5.784   6.638
10192SOL     OW31474   1.726   1.988   4.063
10192SOL    HW131475   1.699   1.917   3.998
10192SOL    HW231476   1.824   2.003   4.058
10193SOL     OW31477   3.512   3.800   3.590
10193SOL    HW131478   3.589   3.778   3.531
10193SOL    HW231479   3.546   3.842   3.675
10194SOL     OW31480   3.086   0.367   3.046
10194SOL    HW131481   3.076   0.464   3.024
10194SOL    HW231482   3.138   0.321   2.974
10195SOL     OW31483   3.958   6.141   2.076
10195SOL    HW131484   3.933   6.081   2.000
10195SOL    HW231485   4.057   6.135   2.091
10196SOL     OW31486   6.175   1.822   3.482
10196SOL    HW131487   6.164   1.736   3.533
10196SOL    HW231488   6.116   1.820   3.401
10197SOL     OW31489   5.812   6.950   1.578
10197SOL    HW131490   5.845   6.973   1.670
10197SOL    HW231491   5.850   7.014   1.512
10198SOL     OW31492   2.581   6.897   0.912
10198SOL    HW131493   2.645   6.851   0.973
10198SOL    HW231494   2.631   6.953   0.846
10199SOL     OW31495   1.455   1.598   0.500
10199SOL    HW131496   1.419   1.505   0.492
10199SOL    HW231497   1.481   1.631   0.409
10200SOL     OW31498   4.697   4.653   4.661
10200SOL    HW131499   4.721   4.749   4.647
10200SOL    HW231500   4.778   4.603   4.694
10201SOL     OW31501   1.445   4.767   2.425
10201SOL    HW131502   1.483   4.735   2.512
10201SOL    HW231503   1.347   4.782   2.436
10202SOL     OW31504   1.310   3.662   2.602
10202SOL    HW131505   1.348   3.746   2.563
10202SOL    HW231506   1.216   3.678   2.631
10203SOL     OW31507   1.668   3.085   2.593
10203SOL    HW131508   1.672   3.117   2.687
10203SOL    HW231509   1.761   3.064   2.561
10204SOL     OW31510   3.124   4.518   5.316
10204SOL    HW131511   3.115   4.438   5.375
10204SOL    HW231512   3.036   4.540   5.274
10205SOL     OW31513   4.881   2.167   2.795
10205SOL    HW131514   4.963   2.221   2.814
10205SOL    HW231515   4.831   2.152   2.880
10206SOL     OW31516   5.428   6.969   5.956
10206SOL    HW131517   5.428   6.875   5.992
10206SOL    HW231518   5.516   7.011   5.973
10207SOL     OW31519   3.987   0.793   2.547
10207SOL    HW131520   4.019   0.789   2.452
10207SOL    HW231521   3.994   0.887   2.580
10208SOL     OW31522   6.473   4.313   5.391
10208SOL    HW131523   6.381   4.339   5.421
10208SOL    HW231524   6.473   4.216   5.365
10209SOL     OW31525   6.307   6.984   6.356
10209SOL    HW131526   6.249   6.926   6.298
10209SOL    HW231527   6.351   6.927   6.425
10210SOL     OW31528   4.955   6.260   2.105
10210SOL    HW131529   5.017   6.337   2.122
10210SOL    HW231530   4.900   6.242   2.186
10211SOL     OW31531   3.900   5.790   5.175
10211SOL    HW131532   3.916   5.876   5.224
10211SOL    HW231533   3.967   5.721   5.205
10212SOL     OW31534   0.001   0.313   5.370
10212SOL    HW131535   0.049   0.394   5.335
10212SOL    HW231536   6.927   0.330   5.371
10213SOL     OW31537   6.252   1.501   2.967
10213SOL    HW131538   6.198   1.476   3.048
10213SOL    HW231539   6.237   1.598   2.946
10214SOL     OW31540   0.075   1.022   1.908
10214SOL    HW131541   0.076   0.996   1.812
10214SOL    HW231542   0.001   1.087   1.924
10215SOL     OW31543   3.601   3.814   6.929
10215SOL    HW131544   3.614   3.780   6.836
10215SOL    HW231545   3.507   3.796   6.959
10216SOL     OW31546   4.901   0.613   1.365
10216SOL    HW131547   4.945   0.566   1.441
10216SOL    HW231548   4.970   0.664   1.313
10217SOL     OW31549   2.172   1.995   4.789
10217SOL    HW131550   2.233   1.929   4.745
10217SOL    HW231551   2.125   2.049   4.719
10218SOL     OW31552   2.434   1.311   0.819
10218SOL    HW131553   2.340   1.335   0.843
10218SOL    HW231554   2.493   1.323   0.898
10219SOL     OW31555   1.007   3.457   1.277
10219SOL    HW131556   0.976   3.367   1.246
10219SOL    HW231557   1.048   3.449   1.367
10220SOL     OW31558   4.616   2.037   0.893
10220SOL    HW131559   4.550   1.965   0.872
10220SOL    HW231560   4.594   2.119   0.840
10221SOL     OW31561   2.875   0.007   4.927
10221SOL    HW131562   2.924   6.955   4.969
10221SOL    HW231563   2.930   0.090   4.936
10222SOL     OW31564   1.801   5.411   5.634
10222SOL    HW131565   1.850   5.486   5.591
10222SOL    HW231566   1.839   5.324   5.604
10223SOL     OW31567   1.035   4.546   0.026
10223SOL    HW131568   1.089   4.623   0.061
10223SOL    HW231569   1.048   4.467   0.086
10224SOL     OW31570   1.833   0.097   4.039
10224SOL    HW131571   1.757   0.050   3.993
10224SOL    HW231572   1.920   0.061   4.005
10225SOL     OW31573   6.623   5.570   4.590
10225SOL    HW131574   6.671   5.646   4.547
10225SOL    HW231575   6.529   5.568   4.557
10226SOL     OW31576   2.057   1.493   0.010
10226SOL    HW131577   1.965   1.490   0.048
10226SOL    HW231578   2.078   1.586   7.003
10227SOL     OW31579   5.184   4.791   0.141
10227SOL    HW131580   5.265   4.845   0.164
10227SOL    HW231581   5.103   4.849   0.147
10228SOL     OW31582   1.146   5.399   3.173
10228SOL    HW131583   1.222   5.427   3.232
10228SOL    HW231584   1.124   5.472   3.110
10229SOL     OW31585   1.153   0.201   2.990
10229SOL    HW131586   1.073   0.158   3.031
10229SOL    HW231587   1.233   0.182   3.047
10230SOL     OW31588   6.340   0.633   4.012
10230SOL    HW131589   6.326   0.698   4.087
10230SOL    HW231590   6.307   0.673   3.927
10231SOL     OW31591   5.430   6.831   4.685
10231SOL    HW131592   5.391   6.892   4.755
10231SOL    HW231593   5.367   6.756   4.669
10232SOL     OW31594   2.993   2.161   4.853
10232SOL    HW131595   3.005   2.221   4.774
10232SOL    HW231596   3.042   2.199   4.931
10233SOL     OW31597   5.084   1.651   5.990
10233SOL    HW131598   5.137   1.609   6.064
10233SOL    HW231599   4.995   1.607   5.984
10234SOL     OW31600   5.300   6.824   1.648
10234SOL    HW131601   5.221   6.884   1.633
10234SOL    HW231602   5.384   6.874   1.626
10235SOL     OW31603   5.628   0.978   6.621
10235SOL    HW131604   5.548   1.027   6.583
10235SOL    HW231605   5.687   0.948   6.546
10236SOL     OW31606   2.532   5.219   2.002
10236SOL    HW131607   2.588   5.213   1.919
10236SOL    HW231608   2.437   5.235   1.976
10237SOL     OW31609   5.918   3.490   2.414
10237SOL    HW131610   5.823   3.461   2.403
10237SOL    HW231611   5.978   3.410   2.415
10238SOL     OW31612   4.467   4.963   4.670
10238SOL    HW131613   4.437   4.868   4.680
10238SOL    HW231614   4.458   4.991   4.574
10239SOL     OW31615   0.186   3.914   4.265
10239SOL    HW131616   0.088   3.922   4.245
10239SOL    HW231617   0.221   3.829   4.226
10240SOL     OW31618   0.525   3.805   3.936
10240SOL    HW131619   0.619   3.840   3.941
10240SOL    HW231620   0.521   3.715   3.978
10241SOL     OW31621   1.641   1.251   1.971
10241SOL    HW131622   1.724   1.196   1.978
10241SOL    HW231623   1.660   1.343   2.005
10242SOL     OW31624   0.291   0.573   6.327
10242SOL    HW131625   0.369   0.517   6.355
10242SOL    HW231626   0.207   0.535   6.363
10243SOL     OW31627   1.286   5.722   1.581
10243SOL    HW131628   1.363   5.782   1.606
10243SOL    HW231629   1.317   5.655   1.514
10244SOL     OW31630   1.945   6.105   6.855
10244SOL    HW131631   2.031   6.131   6.811
10244SOL    HW231632   1.960   6.089   6.952
10245SOL     OW31633   2.617   2.336   6.109
10245SOL    HW131634   2.662   2.323   6.020
10245SOL    HW231635   2.608   2.433   6.128
10246SOL     OW31636   3.113   4.057   4.946
10246SOL    HW131637   3.035   4.060   4.883
10246SOL    HW231638   3.080   4.049   5.040
10247SOL     OW31639   0.188   4.586   5.969
10247SOL    HW131640   0.163   4.669   6.018
10247SOL    HW231641   0.111   4.555   5.914
10248SOL     OW31642   3.210   0.160   1.869
10248SOL    HW131643   3.188   0.069   1.905
10248SOL    HW231644   3.146   0.183   1.796
10249SOL     OW31645   5.099   1.209   5.731
10249SOL    HW131646   5.078   1.189   5.636
10249SOL    HW231647   5.163   1.141   5.766
10250SOL     OW31648   6.471   1.312   0.324
10250SOL    HW131649   6.408   1.354   0.258
10250SOL    HW231650   6.545   1.266   0.275
10251SOL     OW31651   2.750   3.713   6.901
10251SOL    HW131652   2.680   3.684   6.836
10251SOL    HW231653   2.836   3.730   6.853
10252SOL     OW31654   5.827   5.935   1.301
10252SOL    HW131655   5.765   6.013   1.306
10252SOL    HW231656   5.922   5.967   1.310
10253SOL     OW31657   4.522   5.353   6.989
10253SOL    HW131658   4.558   5.267   6.953
10253SOL    HW231659   4.587   5.427   6.972
10254SOL     OW31660   2.175   2.083   5.255
10254SOL    HW131661   2.170   2.112   5.159
10254SOL    HW231662   2.128   2.150   5.312
10255SOL     OW31663   2.854   5.861   2.502
10255SOL    HW131664   2.931   5.907   2.458
10255SOL    HW231665   2.771   5.876   2.449
10256SOL     OW31666   5.616   0.547   7.009
10256SOL    HW131667   5.569   0.459   7.022
10256SOL    HW231668   5.554   0.613   6.968
10257SOL     OW31669   1.205   5.459   6.113
10257SOL    HW131670   1.281   5.396   6.130
10257SOL    HW231671   1.180   5.504   6.199
10258SOL     OW31672   3.781   0.043   3.395
10258SOL    HW131673   3.773   6.969   3.413
10258SOL    HW231674   3.828   0.087   3.471
10259SOL     OW31675   6.914   3.446   3.565
10259SOL    HW131676   6.969   3.380   3.513
10259SOL    HW231677   6.895   3.409   3.656
10260SOL     OW31678   0.929   6.871   2.056
10260SOL    HW131679   0.998   6.910   1.994
10260SOL    HW231680   0.844   6.855   2.005
10261SOL     OW31681   1.104   5.585   2.206
10261SOL    HW131682   1.120   5.592   2.304
10261SOL    HW231683   1.143   5.500   2.171
10262SOL     OW31684   2.831   4.970   4.856
10262SOL    HW131685   2.824   4.874   4.828
10262SOL    HW231686   2.759   4.991   4.922
10263SOL     OW31687   5.816   1.795   6.090
10263SOL    HW131688   5.745   1.800   6.161
10263SOL    HW231689   5.823   1.701   6.057
10264SOL     OW31690   6.468   0.436   5.860
10264SOL    HW131691   6.420   0.417   5.946
10264SOL    HW231692   6.566   0.445   5.879
10265SOL     OW31693   3.643   1.676   2.489
10265SOL    HW131694   3.631   1.582   2.523
10265SOL    HW231695   3.606   1.740   2.556
10266SOL     OW31696   3.235   4.185   6.503
10266SOL    HW131697   3.140   4.156   6.514
10266SOL    HW231698   3.275   4.203   6.593
10267SOL     OW31699   0.390   1.881   6.626
10267SOL    HW131700   0.313   1.853   6.569
10267SOL    HW231701   0.464   1.814   6.616
10268SOL     OW31702   5.376   5.798   1.761
10268SOL    HW131703   5.284   5.814   1.798
10268SOL    HW231704   5.379   5.708   1.718
10269SOL     OW31705   2.326   2.223   6.439
10269SOL    HW131706   2.379   2.306   6.459
10269SOL    HW231707   2.375   2.168   6.372
10270SOL     OW31708   1.585   5.948   0.626
10270SOL    HW131709   1.662   5.899   0.666
10270SOL    HW231710   1.499   5.903   0.652
10271SOL     OW31711   4.003   4.198   1.233
10271SOL    HW131712   4.062   4.124   1.199
10271SOL    HW231713   4.034   4.225   1.324
10272SOL     OW31714   0.502   0.843   5.332
10272SOL    HW131715   0.408   0.811   5.320
10272SOL    HW231716   0.504   0.943   5.323
10273SOL     OW31717   3.971   5.592   4.683
10273SOL    HW131718   4.042   5.522   4.672
10273SOL    HW231719   3.885   5.557   4.647
10274SOL     OW31720   0.937   5.186   5.278
10274SOL    HW131721   0.953   5.159   5.183
10274SOL    HW231722   1.022   5.174   5.330
10275SOL     OW31723   0.549   6.829   3.232
10275SOL    HW131724   0.580   6.881   3.152
10275SOL    HW231725   0.620   6.763   3.258
10276SOL     OW31726   6.849   5.563   5.433
10276SOL    HW131727   6.749   5.558   5.437
10276SOL    HW231728   6.877   5.624   5.358
10277SOL     OW31729   3.029   6.418   4.726
10277SOL    HW131730   3.129   6.416   4.716
10277SOL    HW231731   2.999   6.334   4.771
10278SOL     OW31732   5.754   0.379   6.189
10278SOL    HW131733   5.750   0.461   6.246
10278SOL    HW231734   5.662   0.343   6.176
10279SOL     OW31735   3.500   0.320   4.251
10279SOL    HW131736   3.446   0.277   4.323
10279SOL    HW231737   3.464   0.411   4.232
10280SOL     OW31738   1.572   3.938   0.459
10280SOL    HW131739   1.531   3.857   0.502
10280SOL    HW231740   1.591   3.919   0.363
10281SOL     OW31741   4.666   0.405   3.466
10281SOL    HW131742   4.763   0.408   3.441
10281SOL    HW231743   4.649   0.466   3.543
10282SOL     OW31744   0.922   2.314   4.176
10282SOL    HW131745   0.998   2.294   4.113
10282SOL    HW231746   0.947   2.286   4.269
10283SOL     OW31747   1.038   3.269   0.709
10283SOL    HW131748   0.999   3.213   0.636
10283SOL    HW231749   1.137   3.252   0.714
10284SOL     OW31750   5.490   3.188   5.312
10284SOL    HW131751   5.577   3.143   5.332
10284SOL    HW231752   5.425   3.169   5.386
10285SOL     OW31753   5.478   0.635   0.676
10285SOL    HW131754   5.524   0.724   0.672
10285SOL    HW231755   5.477   0.595   0.584
10286SOL     OW31756   4.133   0.219   3.384
10286SOL    HW131757   4.181   0.198   3.299
10286SOL    HW231758   4.152   0.148   3.451
10287SOL     OW31759   2.057   6.777   1.793
10287SOL    HW131760   2.119   6.705   1.759
10287SOL    HW231761   1.975   6.734   1.830
10288SOL     OW31762   5.979   6.158   3.689
10288SOL    HW131763   5.983   6.119   3.781
10288SOL    HW231764   5.929   6.096   3.629
10289SOL     OW31765   3.269   1.328   1.727
10289SOL    HW131766   3.322   1.308   1.809
10289SOL    HW231767   3.180   1.365   1.753
10290SOL     OW31768   3.902   3.003   2.832
10290SOL    HW131769   3.970   3.059   2.879
10290SOL    HW231770   3.826   2.985   2.894
10291SOL     OW31771   3.356   0.851   4.838
10291SOL    HW131772   3.371   0.784   4.765
10291SOL    HW231773   3.258   0.868   4.849
10292SOL     OW31774   0.821   1.348   4.557
10292SOL    HW131775   0.909   1.307   4.578
10292SOL    HW231776   0.796   1.413   4.629
10293SOL     OW31777   2.464   6.218   3.404
10293SOL    HW131778   2.561   6.219   3.427
10293SOL    HW231779   2.423   6.305   3.431
10294SOL     OW31780   5.300   1.528   3.273
10294SOL    HW131781   5.317   1.448   3.215
10294SOL    HW231782   5.204   1.555   3.265
10295SOL     OW31783   0.701   5.404   6.217
10295SOL    HW131784   0.650   5.463   6.280
10295SOL    HW231785   0.646   5.324   6.194
10296SOL     OW31786   6.617   3.385   0.441
10296SOL    HW131787   6.676   3.358   0.365
10296SOL    HW231788   6.663   3.453   0.498
10297SOL     OW31789   1.010   5.592   4.283
10297SOL    HW131790   1.047   5.672   4.236
10297SOL    HW231791   1.064   5.512   4.258
10298SOL     OW31792   5.005   4.182   3.701
10298SOL    HW131793   4.965   4.118   3.636
10298SOL    HW231794   4.966   4.166   3.792
10299SOL     OW31795   4.797   4.943   3.007
10299SOL    HW131796   4.702   4.921   2.986
10299SOL    HW231797   4.845   4.860   3.034
10300SOL     OW31798   0.986   4.036   2.902
10300SOL    HW131799   1.052   3.963   2.920
10300SOL    HW231800   0.901   4.018   2.952
10301SOL     OW31801   6.143   0.811   2.068
10301SOL    HW131802   6.075   0.852   2.129
10301SOL    HW231803   6.191   0.884   2.018
10302SOL     OW31804   1.304   5.780   2.689
10302SOL    HW131805   1.340   5.818   2.775
10302SOL    HW231806   1.333   5.837   2.613
10303SOL     OW31807   3.867   3.743   1.286
10303SOL    HW131808   3.923   3.701   1.215
10303SOL    HW231809   3.824   3.826   1.250
10304SOL     OW31810   6.857   6.827   2.659
10304SOL    HW131811   6.781   6.780   2.613
10304SOL    HW231812   6.891   6.901   2.600
10305SOL     OW31813   1.162   5.670   0.226
10305SOL    HW131814   1.171   5.628   0.316
10305SOL    HW231815   1.201   5.609   0.157
10306SOL     OW31816   4.072   6.172   0.554
10306SOL    HW131817   4.015   6.139   0.629
10306SOL    HW231818   4.163   6.196   0.589
10307SOL     OW31819   1.559   1.298   6.502
10307SOL    HW131820   1.530   1.203   6.498
10307SOL    HW231821   1.655   1.304   6.528
10308SOL     OW31822   2.893   6.189   3.241
10308SOL    HW131823   2.878   6.158   3.147
10308SOL    HW231824   2.810   6.177   3.295
10309SOL     OW31825   6.730   6.353   2.900
10309SOL    HW131826   6.820   6.352   2.857
10309SOL    HW231827   6.737   6.394   2.991
10310SOL     OW31828   4.025   3.772   3.102
10310SOL    HW131829   3.928   3.791   3.087
10310SOL    HW231830   4.069   3.751   3.015
10311SOL     OW31831   0.445   5.362   6.886
10311SOL    HW131832   0.480   5.270   6.865
10311SOL    HW231833   0.364   5.354   6.944
10312SOL     OW31834   2.490   4.613   0.358
10312SOL    HW131835   2.391   4.619   0.368
10312SOL    HW231836   2.534   4.677   0.422
10313SOL     OW31837   5.078   0.399   2.681
10313SOL    HW131838   5.126   0.378   2.766
10313SOL    HW231839   4.983   0.369   2.688
10314SOL     OW31840   6.318   6.891   0.669
10314SOL    HW131841   6.231   6.841   0.668
10314SOL    HW231842   6.373   6.865   0.589
10315SOL     OW31843   6.251   5.564   4.850
10315SOL    HW131844   6.282   5.606   4.764
10315SOL    HW231845   6.282   5.620   4.927
10316SOL     OW31846   0.536   3.262   3.882
10316SOL    HW131847   0.484   3.293   3.962
10316SOL    HW231848   0.631   3.244   3.910
10317SOL     OW31849   4.247   5.188   7.010
10317SOL    HW131850   4.314   5.262   7.013
10317SOL    HW231851   4.275   5.120   6.943
10318SOL     OW31852   5.895   5.653   2.285
10318SOL    HW131853   5.950   5.644   2.203
10318SOL    HW231854   5.928   5.591   2.356
10319SOL     OW31855   6.073   6.057   3.420
10319SOL    HW131856   6.042   5.971   3.379
10319SOL    HW231857   6.132   6.038   3.498
10320SOL     OW31858   6.895   6.959   0.978
10320SOL    HW131859   6.974   6.967   1.038
10320SOL    HW231860   6.885   0.019   0.925
10321SOL     OW31861   4.428   5.525   4.108
10321SOL    HW131862   4.453   5.607   4.056
10321SOL    HW231863   4.419   5.549   4.205
10322SOL     OW31864   6.217   3.865   0.647
10322SOL    HW131865   6.130   3.914   0.645
10322SOL    HW231866   6.214   3.793   0.716
10323SOL     OW31867   4.991   3.156   5.971
10323SOL    HW131868   4.943   3.241   5.996
10323SOL    HW231869   4.940   3.109   5.899
10324SOL     OW31870   3.348   2.916   3.446
10324SOL    HW131871   3.294   2.973   3.383
10324SOL    HW231872   3.295   2.898   3.528
10325SOL     OW31873   0.377   2.737   2.530
10325SOL    HW131874   0.429   2.725   2.445
10325SOL    HW231875   0.321   2.656   2.547
10326SOL     OW31876   5.551   2.145   0.514
10326SOL    HW131877   5.606   2.224   0.543
10326SOL    HW231878   5.502   2.168   0.430
10327SOL     OW31879   0.230   0.967   3.228
10327SOL    HW131880   0.293   0.990   3.154
10327SOL    HW231881   0.137   0.966   3.193
10328SOL     OW31882   5.606   3.392   2.442
10328SOL    HW131883   5.581   3.379   2.345
10328SOL    HW231884   5.596   3.305   2.490
10329SOL     OW31885   3.454   6.907   2.654
10329SOL    HW131886   3.467   6.834   2.721
10329SOL    HW231887   3.543   6.935   2.618
10330SOL     OW31888   4.318   5.230   1.958
10330SOL    HW131889   4.374   5.237   2.041
10330SOL    HW231890   4.334   5.141   1.915
10331SOL     OW31891   5.793   0.685   3.093
10331SOL    HW131892   5.844   0.738   3.161
10331SOL    HW231893   5.846   0.605   3.066
10332SOL     OW31894   0.079   2.282   6.117
10332SOL    HW131895   0.074   2.263   6.020
10332SOL    HW231896   7.011   2.279   6.157
10333SOL     OW31897   5.481   4.987   4.410
10333SOL    HW131898   5.496   4.959   4.315
10333SOL    HW231899   5.560   4.961   4.465
10334SOL     OW31900   2.287   4.980   4.191
10334SOL    HW131901   2.240   4.931   4.118
10334SOL    HW231902   2.261   4.942   4.280
10335SOL     OW31903   1.817   5.302   1.553
10335SOL    HW131904   1.767   5.246   1.619
10335SOL    HW231905   1.770   5.301   1.465
10336SOL     OW31906   4.251   6.480   2.177
10336SOL    HW131907   4.172   6.534   2.206
10336SOL    HW231908   4.248   6.468   2.078
10337SOL     OW31909   0.806   4.565   5.073
10337SOL    HW131910   0.783   4.473   5.107
10337SOL    HW231911   0.727   4.626   5.085
10338SOL     OW31912   2.751   6.044   3.008
10338SOL    HW131913   2.658   6.075   3.031
10338SOL    HW231914   2.776   5.968   3.067
10339SOL     OW31915   2.561   6.357   1.355
10339SOL    HW131916   2.625   6.403   1.417
10339SOL    HW231917   2.566   6.258   1.370
10340SOL     OW31918   1.527   6.781   0.398
10340SOL    HW131919   1.505   6.878   0.406
10340SOL    HW231920   1.510   6.736   0.485
10341SOL     OW31921   2.124   1.942   2.661
10341SOL    HW131922   2.075   1.878   2.719
10341SOL    HW231923   2.205   1.976   2.709
10342SOL     OW31924   2.677   6.693   4.629
10342SOL    HW131925   2.637   6.773   4.673
10342SOL    HW231926   2.775   6.707   4.615
10343SOL     OW31927   2.230   3.682   5.583
10343SOL    HW131928   2.134   3.710   5.587
10343SOL    HW231929   2.255   3.634   5.667
10344SOL     OW31930   4.079   3.873   4.969
10344SOL    HW131931   4.041   3.857   4.878
10344SOL    HW231932   4.152   3.942   4.963
10345SOL     OW31933   2.378   1.569   6.262
10345SOL    HW131934   2.414   1.624   6.187
10345SOL    HW231935   2.329   1.628   6.326
10346SOL     OW31936   4.992   6.374   0.070
10346SOL    HW131937   4.921   6.342   0.133
10346SOL    HW231938   5.071   6.406   0.122
10347SOL     OW31939   5.700   1.556   1.700
10347SOL    HW131940   5.644   1.625   1.653
10347SOL    HW231941   5.774   1.527   1.639
10348SOL     OW31942   0.208   6.865   5.952
10348SOL    HW131943   0.253   6.821   6.030
10348SOL    HW231944   0.270   6.868   5.874
10349SOL     OW31945   7.013   1.646   1.519
10349SOL    HW131946   6.999   1.708   1.442
10349SOL    HW231947   0.087   1.625   1.528
10350SOL     OW31948   2.862   5.207   4.479
10350SOL    HW131949   2.918   5.227   4.399
10350SOL    HW231950   2.786   5.147   4.454
10351SOL     OW31951   5.591   4.568   4.988
10351SOL    HW131952   5.500   4.558   5.029
10351SOL    HW231953   5.634   4.651   5.024
10352SOL     OW31954   5.906   2.353   0.175
10352SOL    HW131955   5.952   2.440   0.194
10352SOL    HW231956   5.887   2.346   0.077
10353SOL     OW31957   6.558   2.610   3.724
10353SOL    HW131958   6.655   2.589   3.710
10353SOL    HW231959   6.545   2.647   3.816
10354SOL     OW31960   0.158   3.008   0.724
10354SOL    HW131961   0.096   2.986   0.649
10354SOL    HW231962   0.125   3.088   0.773
10355SOL     OW31963   0.928   0.846   0.661
10355SOL    HW131964   0.917   0.940   0.627
10355SOL    HW231965   0.882   0.836   0.749
10356SOL     OW31966   6.588   4.112   6.724
10356SOL    HW131967   6.563   4.109   6.627
10356SOL    HW231968   6.677   4.069   6.737
10357SOL     OW31969   1.340   2.904   5.965
10357SOL    HW131970   1.400   2.968   5.916
10357SOL    HW231971   1.246   2.936   5.957
10358SOL     OW31972   0.821   2.784   2.128
10358SOL    HW131973   0.741   2.734   2.161
10358SOL    HW231974   0.792   2.853   2.061
10359SOL     OW31975   5.914   2.048   2.294
10359SOL    HW131976   5.966   2.068   2.377
10359SOL    HW231977   5.965   2.080   2.215
10360SOL     OW31978   6.019   4.455   2.298
10360SOL    HW131979   6.089   4.508   2.250
10360SOL    HW231980   5.944   4.516   2.325
10361SOL     OW31981   0.401   1.831   1.799
10361SOL    HW131982   0.442   1.813   1.709
10361SOL    HW231983   0.302   1.838   1.790
10362SOL     OW31984   1.328   5.070   2.463
10362SOL    HW131985   1.359   4.999   2.400
10362SOL    HW231986   1.393   5.078   2.538
10363SOL     OW31987   5.178   4.581   0.572
10363SOL    HW131988   5.240   4.554   0.645
10363SOL    HW231989   5.097   4.625   0.612
10364SOL     OW31990   6.172   4.633   2.175
10364SOL    HW131991   6.177   4.733   2.182
10364SOL    HW231992   6.244   4.592   2.232
10365SOL     OW31993   6.263   6.066   0.422
10365SOL    HW131994   6.176   6.061   0.373
10365SOL    HW231995   6.262   6.003   0.499
10366SOL     OW31996   2.897   6.472   3.220
10366SOL    HW131997   2.868   6.376   3.213
10366SOL    HW231998   2.823   6.532   3.191
10367SOL     OW31999   6.297   1.734   0.839
10367SOL    HW132000   6.380   1.684   0.815
10367SOL    HW232001   6.268   1.791   0.763
10368SOL     OW32002   1.589   5.743   1.901
10368SOL    HW132003   1.559   5.804   1.828
10368SOL    HW232004   1.510   5.719   1.958
10369SOL     OW32005   3.498   6.871   5.852
10369SOL    HW132006   3.511   6.888   5.754
10369SOL    HW232007   3.562   6.926   5.904
10370SOL     OW32008   0.451   0.797   4.765
10370SOL    HW132009   0.470   0.814   4.862
10370SOL    HW232010   0.499   0.714   4.735
10371SOL     OW32011   3.127   5.408   3.660
10371SOL    HW132012   3.138   5.317   3.620
10371SOL    HW232013   3.051   5.455   3.615
10372SOL     OW32014   2.693   6.579   1.580
10372SOL    HW132015   2.783   6.560   1.539
10372SOL    HW232016   2.663   6.500   1.632
10373SOL     OW32017   0.611   1.811   5.425
10373SOL    HW132018   0.687   1.850   5.476
10373SOL    HW232019   0.604   1.713   5.444
10374SOL     OW32020   3.288   6.896   4.831
10374SOL    HW132021   3.257   6.931   4.743
10374SOL    HW232022   3.355   6.823   4.816
10375SOL     OW32023   2.996   3.647   0.439
10375SOL    HW132024   2.946   3.574   0.392
10375SOL    HW232025   3.010   3.723   0.375
10376SOL     OW32026   2.071   5.028   2.886
10376SOL    HW132027   2.074   5.128   2.884
10376SOL    HW232028   1.977   4.997   2.900
10377SOL     OW32029   1.380   0.948   3.027
10377SOL    HW132030   1.332   0.877   2.975
10377SOL    HW232031   1.467   0.970   2.982
10378SOL     OW32032   6.987   4.541   5.215
10378SOL    HW132033   0.001   4.573   5.129
10378SOL    HW232034   0.033   4.546   5.287
10379SOL     OW32035   1.904   6.674   4.477
10379SOL    HW132036   1.815   6.698   4.438
10379SOL    HW232037   1.895   6.661   4.576
10380SOL     OW32038   1.642   2.804   4.449
10380SOL    HW132039   1.658   2.890   4.497
10380SOL    HW232040   1.678   2.810   4.356
10381SOL     OW32041   4.536   4.427   1.302
10381SOL    HW132042   4.499   4.474   1.222
10381SOL    HW232043   4.463   4.374   1.346
10382SOL     OW32044   3.056   5.138   1.530
10382SOL    HW132045   3.019   5.144   1.437
10382SOL    HW232046   3.051   5.044   1.562
10383SOL     OW32047   2.218   4.653   0.446
10383SOL    HW132048   2.210   4.639   0.544
10383SOL    HW232049   2.247   4.747   0.428
10384SOL     OW32050   5.554   6.544   1.652
10384SOL    HW132051   5.578   6.634   1.617
10384SOL    HW232052   5.473   6.551   1.710
10385SOL     OW32053   4.098   4.517   6.674
10385SOL    HW132054   4.152   4.596   6.645
10385SOL    HW232055   4.106   4.444   6.606
10386SOL     OW32056   0.032   0.888   6.823
10386SOL    HW132057   7.003   0.913   6.742
10386SOL    HW232058   0.041   0.788   6.828
10387SOL     OW32059   4.799   2.850   2.861
10387SOL    HW132060   4.813   2.863   2.959
10387SOL    HW232061   4.799   2.752   2.840
10388SOL     OW32062   2.890   0.365   5.739
10388SOL    HW132063   2.790   0.374   5.739
10388SOL    HW232064   2.926   0.400   5.652
10389SOL     OW32065   0.533   3.127   0.449
10389SOL    HW132066   0.617   3.097   0.404
10389SOL    HW232067   0.556   3.166   0.538
10390SOL     OW32068   2.894   2.183   0.907
10390SOL    HW132069   2.888   2.212   0.811
10390SOL    HW232070   2.810   2.210   0.954
10391SOL     OW32071   6.699   6.575   4.023
10391SOL    HW132072   6.672   6.514   4.098
10391SOL    HW232073   6.748   6.522   3.953
10392SOL     OW32074   6.552   5.005   4.589
10392SOL    HW132075   6.607   5.022   4.508
10392SOL    HW232076   6.480   4.939   4.567
10393SOL     OW32077   1.743   3.774   3.967
10393SOL    HW132078   1.684   3.770   4.048
10393SOL    HW232079   1.808   3.698   3.969
10394SOL     OW32080   3.313   6.121   4.072
10394SOL    HW132081   3.276   6.155   4.158
10394SOL    HW232082   3.238   6.101   4.009
10395SOL     OW32083   0.234   6.977   0.530
10395SOL    HW132084   0.269   6.932   0.612
10395SOL    HW232085   0.216   0.049   0.549
10396SOL     OW32086   2.849   1.581   4.515
10396SOL    HW132087   2.949   1.591   4.517
10396SOL    HW232088   2.806   1.671   4.525
10397SOL     OW32089   2.986   2.235   2.572
10397SOL    HW132090   3.058   2.302   2.552
10397SOL    HW232091   2.943   2.206   2.487
10398SOL     OW32092   0.227   2.982   1.677
10398SOL    HW132093   0.277   2.987   1.591
10398SOL    HW232094   0.281   2.930   1.743
10399SOL     OW32095   6.260   2.600   1.848
10399SOL    HW132096   6.200   2.619   1.926
10399SOL    HW232097   6.302   2.685   1.817
10400SOL     OW32098   4.205   0.061   0.642
10400SOL    HW132099   4.156   0.140   0.679
10400SOL    HW232100   4.297   0.088   0.615
10401SOL     OW32101   6.749   0.817   4.200
10401SOL    HW132102   6.696   0.732   4.201
10401SOL    HW232103   6.818   0.813   4.273
10402SOL     OW32104   5.844   2.758   4.916
10402SOL    HW132105   5.842   2.825   4.991
10402SOL    HW232106   5.808   2.801   4.833
10403SOL     OW32107   3.322   0.618   3.169
10403SOL    HW132108   3.244   0.644   3.113
10403SOL    HW232109   3.396   0.586   3.110
10404SOL     OW32110   6.383   7.004   5.681
10404SOL    HW132111   6.307   6.940   5.690
10404SOL    HW232112   6.459   6.960   5.632
10405SOL     OW32113   0.970   1.436   5.871
10405SOL    HW132114   0.890   1.377   5.884
10405SOL    HW232115   0.951   1.526   5.908
10406SOL     OW32116   3.297   4.884   1.898
10406SOL    HW132117   3.386   4.926   1.915
10406SOL    HW232118   3.310   4.795   1.856
10407SOL     OW32119   3.378   5.662   6.145
10407SOL    HW132120   3.469   5.625   6.125
10407SOL    HW232121   3.379   5.706   6.235
10408SOL     OW32122   5.118   1.380   0.502
10408SOL    HW132123   5.183   1.402   0.575
10408SOL    HW232124   5.169   1.347   0.422
10409SOL     OW32125   6.652   4.705   0.083
10409SOL    HW132126   6.734   4.749   0.120
10409SOL    HW232127   6.576   4.770   0.084
10410SOL     OW32128   5.446   1.347   6.943
10410SOL    HW132129   5.356   1.335   6.901
10410SOL    HW232130   5.492   1.425   6.900
10411SOL     OW32131   3.084   5.828   2.923
10411SOL    HW132132   3.107   5.828   2.826
10411SOL    HW232133   3.168   5.816   2.977
10412SOL     OW32134   6.130   0.867   0.472
10412SOL    HW132135   6.050   0.812   0.448
10412SOL    HW232136   6.100   0.957   0.503
10413SOL     OW32137   6.992   1.966   1.526
10413SOL    HW132138   6.989   1.886   1.466
10413SOL    HW232139   6.971   2.048   1.473
10414SOL     OW32140   4.516   3.907   5.648
10414SOL    HW132141   4.505   3.840   5.721
10414SOL    HW232142   4.613   3.920   5.630
10415SOL     OW32143   0.553   5.193   6.135
10415SOL    HW132144   0.488   5.179   6.061
10415SOL    HW232145   0.537   5.126   6.207
10416SOL     OW32146   6.268   1.777   3.012
10416SOL    HW132147   6.239   1.872   3.001
10416SOL    HW232148   6.304   1.764   3.105
10417SOL     OW32149   3.449   5.244   4.194
10417SOL    HW132150   3.516   5.270   4.264
10417SOL    HW232151   3.437   5.145   4.196
10418SOL     OW32152   0.221   4.824   5.572
10418SOL    HW132153   0.147   4.810   5.638
10418SOL    HW232154   0.274   4.904   5.599
10419SOL     OW32155   1.581   0.684   0.354
10419SOL    HW132156   1.503   0.714   0.409
10419SOL    HW232157   1.559   0.691   0.257
10420SOL     OW32158   6.744   3.125   2.249
10420SOL    HW132159   6.709   3.149   2.339
10420SOL    HW232160   6.840   3.098   2.256
10421SOL     OW32161   0.901   1.692   3.266
10421SOL    HW132162   0.953   1.645   3.195
10421SOL    HW232163   0.948   1.776   3.293
10422SOL     OW32164   6.491   2.581   5.374
10422SOL    HW132165   6.589   2.599   5.385
10422SOL    HW232166   6.440   2.663   5.398
10423SOL     OW32167   4.663   5.253   4.320
10423SOL    HW132168   4.727   5.206   4.380
10423SOL    HW232169   4.571   5.252   4.361
10424SOL     OW32170   5.751   2.631   0.166
10424SOL    HW132171   5.840   2.610   0.205
10424SOL    HW232172   5.720   2.719   0.201
10425SOL     OW32173   2.164   6.772   2.426
10425SOL    HW132174   2.205   6.703   2.368
10425SOL    HW232175   2.217   6.857   2.422
10426SOL     OW32176   6.739   3.865   0.810
10426SOL    HW132177   6.788   3.790   0.765
10426SOL    HW232178   6.645   3.868   0.779
10427SOL     OW32179   4.388   1.394   0.536
10427SOL    HW132180   4.379   1.412   0.634
10427SOL    HW232181   4.377   1.296   0.520
10428SOL     OW32182   3.094   1.666   4.607
10428SOL    HW132183   3.182   1.636   4.644
10428SOL    HW232184   3.078   1.762   4.632
10429SOL     OW32185   6.901   5.784   1.159
10429SOL    HW132186   6.979   5.822   1.209
10429SOL    HW232187   6.829   5.853   1.153
10430SOL     OW32188   4.344   0.209   3.739
10430SOL    HW132189   4.299   0.138   3.684
10430SOL    HW232190   4.332   0.298   3.695
10431SOL     OW32191   3.308   6.848   5.482
10431SOL    HW132192   3.313   6.845   5.383
10431SOL    HW232193   3.275   6.759   5.516
10432SOL     OW32194   6.378   0.823   4.200
10432SOL    HW132195   6.344   0.911   4.166
10432SOL    HW232196   6.336   0.805   4.289
10433SOL     OW32197   1.283   6.192   1.643
10433SOL    HW132198   1.381   6.177   1.657
10433SOL    HW232199   1.231   6.152   1.719
10434SOL     OW32200   3.217   6.822   3.303
10434SOL    HW132201   3.170   6.737   3.330
10434SOL    HW232202   3.149   6.892   3.280
10435SOL     OW32203   6.065   0.426   4.855
10435SOL    HW132204   6.026   0.336   4.877
10435SOL    HW232205   6.138   0.447   4.921
10436SOL     OW32206   0.989   4.902   4.630
10436SOL    HW132207   0.963   4.953   4.548
10436SOL    HW232208   1.073   4.940   4.668
10437SOL     OW32209   6.273   5.073   5.459
10437SOL    HW132210   6.175   5.068   5.438
10437SOL    HW232211   6.288   5.135   5.536
10438SOL     OW32212   5.126   6.549   0.336
10438SOL    HW132213   5.117   6.453   0.360
10438SOL    HW232214   5.217   6.582   0.362
10439SOL     OW32215   3.220   1.712   5.949
10439SOL    HW132216   3.146   1.651   5.978
10439SOL    HW232217   3.243   1.694   5.854
10440SOL     OW32218   0.238   5.788   0.882
10440SOL    HW132219   0.158   5.806   0.825
10440SOL    HW232220   0.320   5.823   0.836
10441SOL     OW32221   5.042   1.414   6.423
10441SOL    HW132222   5.136   1.394   6.451
10441SOL    HW232223   4.999   1.475   6.490
10442SOL     OW32224   3.441   5.441   5.319
10442SOL    HW132225   3.432   5.374   5.393
10442SOL    HW232226   3.428   5.533   5.356
10443SOL     OW32227   4.911   3.595   4.364
10443SOL    HW132228   4.870   3.681   4.393
10443SOL    HW232229   4.992   3.576   4.418
10444SOL     OW32230   4.145   5.136   4.418
10444SOL    HW132231   4.174   5.041   4.410
10444SOL    HW232232   4.046   5.142   4.411
10445SOL     OW32233   0.816   4.804   4.241
10445SOL    HW132234   0.760   4.735   4.286
10445SOL    HW232235   0.837   4.774   4.148
10446SOL     OW32236   1.131   4.282   6.696
10446SOL    HW132237   1.203   4.237   6.643
10446SOL    HW232238   1.162   4.372   6.724
10447SOL     OW32239   0.295   1.143   2.063
10447SOL    HW132240   0.316   1.230   2.019
10447SOL    HW232241   0.208   1.108   2.027
10448SOL     OW32242   4.035   3.321   1.224
10448SOL    HW132243   3.954   3.270   1.253
10448SOL    HW232244   4.066   3.287   1.136
10449SOL     OW32245   2.705   5.445   3.950
10449SOL    HW132246   2.794   5.480   3.981
10449SOL    HW232247   2.666   5.508   3.882
10450SOL     OW32248   0.657   2.559   6.394
10450SOL    HW132249   0.606   2.578   6.478
10450SOL    HW232250   0.596   2.522   6.325
10451SOL     OW32251   3.071   4.849   2.679
10451SOL    HW132252   3.010   4.822   2.605
10451SOL    HW232253   3.162   4.869   2.642
10452SOL     OW32254   6.708   3.169   3.380
10452SOL    HW132255   6.738   3.216   3.296
10452SOL    HW232256   6.609   3.178   3.389
10453SOL     OW32257   5.736   5.858   1.837
10453SOL    HW132258   5.713   5.765   1.806
10453SOL    HW232259   5.714   5.923   1.765
10454SOL     OW32260   5.605   2.938   1.632
10454SOL    HW132261   5.651   2.882   1.700
10454SOL    HW232262   5.662   2.945   1.550
10455SOL     OW32263   6.963   5.039   3.512
10455SOL    HW132264   6.874   5.074   3.540
10455SOL    HW232265   0.011   5.082   3.566
10456SOL     OW32266   2.923   6.140   1.225
10456SOL    HW132267   2.993   6.171   1.290
10456SOL    HW232268   2.861   6.216   1.204
10457SOL     OW32269   3.738   3.252   3.931
10457SOL    HW132270   3.799   3.186   3.887
10457SOL    HW232271   3.702   3.315   3.861
10458SOL     OW32272   0.236   6.818   6.975
10458SOL    HW132273   0.307   6.762   7.018
10458SOL    HW232274   0.241   6.809   6.876
10459SOL     OW32275   6.050   5.577   2.516
10459SOL    HW132276   6.056   5.647   2.587
10459SOL    HW232277   6.014   5.492   2.555
10460SOL     OW32278   2.266   6.130   1.628
10460SOL    HW132279   2.266   6.104   1.725
10460SOL    HW232280   2.324   6.067   1.577
10461SOL     OW32281   1.758   6.624   6.446
10461SOL    HW132282   1.771   6.723   6.455
10461SOL    HW232283   1.823   6.577   6.505
10462SOL     OW32284   5.882   0.899   1.412
10462SOL    HW132285   5.874   0.842   1.494
10462SOL    HW232286   5.916   0.989   1.437
10463SOL     OW32287   3.010   4.177   6.219
10463SOL    HW132288   3.009   4.163   6.319
10463SOL    HW232289   3.025   4.274   6.199
10464SOL     OW32290   4.350   6.780   1.169
10464SOL    HW132291   4.272   6.760   1.229
10464SOL    HW232292   4.317   6.809   1.079
10465SOL     OW32293   0.578   6.869   6.104
10465SOL    HW132294   0.620   6.937   6.043
10465SOL    HW232295   0.524   6.916   6.174
10466SOL     OW32296   4.853   5.546   5.103
10466SOL    HW132297   4.797   5.550   5.020
10466SOL    HW232298   4.949   5.563   5.079
10467SOL     OW32299   1.656   1.821   5.250
10467SOL    HW132300   1.646   1.920   5.243
10467SOL    HW232301   1.743   1.799   5.296
10468SOL     OW32302   3.763   6.448   4.146
10468SOL    HW132303   3.766   6.543   4.178
10468SOL    HW232304   3.856   6.415   4.131
10469SOL     OW32305   2.288   3.728   1.212
10469SOL    HW132306   2.329   3.639   1.193
10469SOL    HW232307   2.198   3.715   1.254
10470SOL     OW32308   2.536   2.169   4.333
10470SOL    HW132309   2.557   2.150   4.237
10470SOL    HW232310   2.438   2.157   4.349
10471SOL     OW32311   2.300   4.044   1.870
10471SOL    HW132312   2.263   3.975   1.933
10471SOL    HW232313   2.304   4.133   1.916
10472SOL     OW32314   3.971   0.037   2.088
10472SOL    HW132315   3.891   0.072   2.040
10472SOL    HW232316   3.960   0.051   2.186
10473SOL     OW32317   5.854   6.933   0.548
10473SOL    HW132318   5.883   6.992   0.623
10473SOL    HW232319   5.883   6.974   0.461
10474SOL     OW32320   4.379   0.970   4.390
10474SOL    HW132321   4.425   0.966   4.301
10474SOL    HW232322   4.413   0.896   4.448
10475SOL     OW32323   4.163   6.110   0.853
10475SOL    HW132324   4.065   6.101   0.833
10475SOL    HW232325   4.178   6.097   0.951
10476SOL     OW32326   6.404   5.386   6.959
10476SOL    HW132327   6.345   5.306   6.950
10476SOL    HW232328   6.455   5.399   6.875
10477SOL     OW32329   5.349   3.428   4.555
10477SOL    HW132330   5.326   3.331   4.553
10477SOL    HW232331   5.268   3.482   4.531
10478SOL     OW32332   0.813   6.789   6.940
10478SOL    HW132333   0.881   6.845   6.892
10478SOL    HW232334   0.721   6.821   6.917
10479SOL     OW32335   1.276   3.272   2.002
10479SOL    HW132336   1.198   3.262   2.063
10479SOL    HW232337   1.305   3.368   2.001
10480SOL     OW32338   5.586   6.501   2.171
10480SOL    HW132339   5.609   6.539   2.082
10480SOL    HW232340   5.643   6.543   2.241
10481SOL     OW32341   2.374   0.905   5.033
10481SOL    HW132342   2.390   0.930   4.937
10481SOL    HW232343   2.457   0.919   5.086
10482SOL     OW32344   0.766   6.282   4.587
10482SOL    HW132345   0.677   6.253   4.622
10482SOL    HW232346   0.817   6.201   4.556
10483SOL     OW32347   6.175   5.731   0.205
10483SOL    HW132348   6.182   5.763   0.299
10483SOL    HW232349   6.083   5.750   0.170
10484SOL     OW32350   6.936   0.512   1.358
10484SOL    HW132351   6.910   0.527   1.263
10484SOL    HW232352   7.021   0.561   1.378
10485SOL     OW32353   3.044   3.711   3.013
10485SOL    HW132354   3.058   3.790   2.954
10485SOL    HW232355   3.014   3.633   2.958
10486SOL     OW32356   6.911   0.009   5.755
10486SOL    HW132357   6.928   6.995   5.664
10486SOL    HW232358   6.998   0.035   5.797
10487SOL     OW32359   4.468   1.702   1.714
10487SOL    HW132360   4.521   1.617   1.726
10487SOL    HW232361   4.508   1.755   1.640
10488SOL     OW32362   0.749   2.305   5.708
10488SOL    HW132363   0.654   2.331   5.725
10488SOL    HW232364   0.799   2.306   5.795
10489SOL     OW32365   6.011   4.892   4.009
10489SOL    HW132366   6.093   4.903   4.065
10489SOL    HW232367   6.014   4.805   3.961
10490SOL     OW32368   5.889   0.214   1.163
10490SOL    HW132369   5.834   0.298   1.169
10490SOL    HW232370   5.870   0.167   1.077
10491SOL     OW32371   1.433   3.275   6.672
10491SOL    HW132372   1.401   3.331   6.596
10491SOL    HW232373   1.512   3.221   6.644
10492SOL     OW32374   4.901   0.187   0.554
10492SOL    HW132375   4.971   0.258   0.552
10492SOL    HW232376   4.884   0.153   0.461
10493SOL     OW32377   4.397   5.674   1.134
10493SOL    HW132378   4.376   5.723   1.219
10493SOL    HW232379   4.482   5.622   1.146
10494SOL     OW32380   0.553   4.632   6.421
10494SOL    HW132381   0.619   4.574   6.374
10494SOL    HW232382   0.591   4.663   6.508
10495SOL     OW32383   0.561   6.263   5.728
10495SOL    HW132384   0.651   6.220   5.732
10495SOL    HW232385   0.521   6.248   5.637
10496SOL     OW32386   6.415   3.607   5.588
10496SOL    HW132387   6.316   3.606   5.601
10496SOL    HW232388   6.436   3.613   5.491
10497SOL     OW32389   2.551   6.994   1.740
10497SOL    HW132390   2.456   6.961   1.739
10497SOL    HW232391   2.557   0.052   1.797
10498SOL     OW32392   4.773   5.701   0.629
10498SOL    HW132393   4.824   5.619   0.603
10498SOL    HW232394   4.836   5.779   0.635
10499SOL     OW32395   6.017   5.590   2.068
10499SOL    HW132396   6.012   5.561   1.972
10499SOL    HW232397   6.111   5.583   2.100
10500SOL     OW32398   5.581   4.183   5.010
10500SOL    HW132399   5.616   4.153   5.099
10500SOL    HW232400   5.658   4.211   4.952
10501SOL     OW32401   2.561   5.841   2.112
10501SOL    HW132402   2.550   5.752   2.156
10501SOL    HW232403   2.499   5.848   2.034
10502SOL     OW32404   2.925   3.595   2.599
10502SOL    HW132405   2.864   3.573   2.523
10502SOL    HW232406   3.012   3.629   2.562
10503SOL     OW32407   6.958   3.333   6.556
10503SOL    HW132408   6.998   3.337   6.648
10503SOL    HW232409   6.875   3.277   6.558
10504SOL     OW32410   1.838   2.797   5.950
10504SOL    HW132411   1.832   2.698   5.954
10504SOL    HW232412   1.764   2.838   6.003
10505SOL     OW32413   5.900   6.328   1.889
10505SOL    HW132414   5.923   6.233   1.908
10505SOL    HW232415   5.807   6.332   1.851
10506SOL     OW32416   0.702   2.913   6.704
10506SOL    HW132417   0.801   2.910   6.690
10506SOL    HW232418   0.661   2.828   6.671
10507SOL     OW32419   2.489   4.918   6.923
10507SOL    HW132420   2.510   4.861   7.002
10507SOL    HW232421   2.573   4.964   6.892
10508SOL     OW32422   1.129   5.234   5.475
10508SOL    HW132423   1.124   5.239   5.575
10508SOL    HW232424   1.190   5.160   5.448
10509SOL     OW32425   4.953   3.317   3.767
10509SOL    HW132426   5.047   3.305   3.797
10509SOL    HW232427   4.919   3.406   3.797
10510SOL     OW32428   4.735   5.637   4.779
10510SOL    HW132429   4.709   5.668   4.688
10510SOL    HW232430   4.731   5.713   4.843
10511SOL     OW32431   2.957   1.782   2.052
10511SOL    HW132432   3.004   1.809   1.968
10511SOL    HW232433   2.996   1.832   2.129
10512SOL     OW32434   4.421   0.626   4.966
10512SOL    HW132435   4.363   0.699   5.001
10512SOL    HW232436   4.366   0.545   4.948
10513SOL     OW32437   5.442   3.167   1.699
10513SOL    HW132438   5.362   3.124   1.740
10513SOL    HW232439   5.510   3.097   1.678
10514SOL     OW32440   1.060   3.137   1.796
10514SOL    HW132441   1.147   3.179   1.769
10514SOL    HW232442   1.035   3.067   1.729
10515SOL     OW32443   1.969   3.285   4.928
10515SOL    HW132444   1.940   3.338   5.008
10515SOL    HW232445   2.028   3.341   4.870
10516SOL     OW32446   3.442   2.825   0.184
10516SOL    HW132447   3.473   2.801   0.277
10516SOL    HW232448   3.503   2.783   0.117
10517SOL     OW32449   1.021   2.989   3.463
10517SOL    HW132450   1.086   3.050   3.416
10517SOL    HW232451   0.976   3.040   3.537
10518SOL     OW32452   1.028   5.267   2.226
10518SOL    HW132453   1.074   5.179   2.236
10518SOL    HW232454   0.964   5.262   2.149
10519SOL     OW32455   2.177   6.136   1.062
10519SOL    HW132456   2.256   6.197   1.050
10519SOL    HW232457   2.141   6.146   1.154
10520SOL     OW32458   6.778   0.928   6.235
10520SOL    HW132459   6.809   0.991   6.306
10520SOL    HW232460   6.788   0.972   6.146
10521SOL     OW32461   6.319   3.195   1.447
10521SOL    HW132462   6.348   3.147   1.530
10521SOL    HW232463   6.255   3.268   1.471
10522SOL     OW32464   5.471   2.530   2.787
10522SOL    HW132465   5.501   2.624   2.770
10522SOL    HW232466   5.451   2.485   2.700
10523SOL     OW32467   0.457   4.216   3.939
10523SOL    HW132468   0.451   4.144   4.008
10523SOL    HW232469   0.520   4.287   3.970
10524SOL     OW32470   6.692   6.095   4.129
10524SOL    HW132471   6.776   6.041   4.127
10524SOL    HW232472   6.657   6.106   4.036
10525SOL     OW32473   4.369   1.298   4.703
10525SOL    HW132474   4.299   1.285   4.774
10525SOL    HW232475   4.344   1.245   4.622
10526SOL     OW32476   0.643   5.347   0.405
10526SOL    HW132477   0.700   5.374   0.482
10526SOL    HW232478   0.579   5.276   0.434
10527SOL     OW32479   0.971   1.453   4.963
10527SOL    HW132480   0.966   1.482   5.059
10527SOL    HW232481   1.060   1.476   4.925
10528SOL     OW32482   0.715   4.941   6.609
10528SOL    HW132483   0.650   4.983   6.544
10528SOL    HW232484   0.668   4.869   6.660
10529SOL     OW32485   1.479   6.637   6.338
10529SOL    HW132486   1.443   6.564   6.395
10529SOL    HW232487   1.577   6.623   6.322
10530SOL     OW32488   1.340   0.088   0.032
10530SOL    HW132489   1.342   0.090   0.132
10530SOL    HW232490   1.376   0.001   7.024
10531SOL     OW32491   3.031   2.713   5.609
10531SOL    HW132492   3.041   2.680   5.515
10531SOL    HW232493   2.958   2.782   5.612
10532SOL     OW32494   5.891   6.408   6.461
10532SOL    HW132495   5.948   6.432   6.383
10532SOL    HW232496   5.850   6.318   6.447
10533SOL     OW32497   3.433   5.906   3.528
10533SOL    HW132498   3.477   5.929   3.615
10533SOL    HW232499   3.343   5.949   3.524
10534SOL     OW32500   0.761   6.202   2.842
10534SOL    HW132501   0.853   6.170   2.822
10534SOL    HW232502   0.699   6.178   2.767
10535SOL     OW32503   2.757   1.331   2.708
10535SOL    HW132504   2.840   1.337   2.653
10535SOL    HW232505   2.686   1.284   2.656
10536SOL     OW32506   4.734   1.390   4.191
10536SOL    HW132507   4.677   1.464   4.227
10536SOL    HW232508   4.789   1.424   4.114
10537SOL     OW32509   5.021   6.919   3.026
10537SOL    HW132510   5.106   6.871   3.007
10537SOL    HW232511   4.944   6.870   2.984
10538SOL     OW32512   6.504   3.446   2.508
10538SOL    HW132513   6.421   3.487   2.470
10538SOL    HW232514   6.482   3.396   2.592
10539SOL     OW32515   5.934   6.571   2.925
10539SOL    HW132516   5.837   6.589   2.906
10539SOL    HW232517   5.944   6.479   2.963
10540SOL     OW32518   2.649   3.873   6.238
10540SOL    HW132519   2.626   3.812   6.162
10540SOL    HW232520   2.657   3.967   6.205
10541SOL     OW32521   3.154   2.999   4.909
10541SOL    HW132522   3.164   2.935   4.985
10541SOL    HW232523   3.059   3.027   4.901
10542SOL     OW32524   6.019   0.055   4.609
10542SOL    HW132525   6.065   6.991   4.617
10542SOL    HW232526   6.085   0.125   4.584
10543SOL     OW32527   0.125   3.243   5.861
10543SOL    HW132528   0.197   3.229   5.930
10543SOL    HW232529   0.088   3.335   5.870
10544SOL     OW32530   1.187   1.536   3.619
10544SOL    HW132531   1.168   1.629   3.586
10544SOL    HW232532   1.269   1.501   3.573
10545SOL     OW32533   2.550   2.076   3.219
10545SOL    HW132534   2.573   2.169   3.188
10545SOL    HW232535   2.603   2.055   3.301
10546SOL     OW32536   3.471   6.678   0.874
10546SOL    HW132537   3.434   6.604   0.817
10546SOL    HW232538   3.567   6.659   0.895
10547SOL     OW32539   4.378   6.532   5.270
10547SOL    HW132540   4.454   6.593   5.293
10547SOL    HW232541   4.311   6.582   5.216
10548SOL     OW32542   1.170   4.789   4.214
10548SOL    HW132543   1.131   4.752   4.299
10548SOL    HW232544   1.096   4.807   4.149
10549SOL     OW32545   0.296   1.156   0.864
10549SOL    HW132546   0.393   1.174   0.877
10549SOL    HW232547   0.282   1.110   0.775
10550SOL     OW32548   3.961   6.265   3.000
10550SOL    HW132549   3.889   6.335   3.007
10550SOL    HW232550   3.999   6.267   2.908
10551SOL     OW32551   3.066   1.999   5.802
10551SOL    HW132552   3.056   2.044   5.891
10551SOL    HW232553   3.138   2.044   5.750
10552SOL     OW32554   3.340   1.120   4.708
10552SOL    HW132555   3.411   1.086   4.770
10552SOL    HW232556   3.372   1.204   4.664
10553SOL     OW32557   0.230   5.092   0.618
10553SOL    HW132558   0.206   5.189   0.624
10553SOL    HW232559   0.152   5.036   0.647
10554SOL     OW32560   6.424   4.866   2.689
10554SOL    HW132561   6.342   4.871   2.631
10554SOL    HW232562   6.402   4.816   2.773
10555SOL     OW32563   3.353   2.234   0.411
10555SOL    HW132564   3.418   2.292   0.458
10555SOL    HW232565   3.386   2.213   0.319
10556SOL     OW32566   1.911   1.630   3.125
10556SOL    HW132567   1.994   1.650   3.176
10556SOL    HW232568   1.919   1.540   3.082
10557SOL     OW32569   2.103   3.580   3.250
10557SOL    HW132570   2.093   3.677   3.273
10557SOL    HW232571   2.191   3.565   3.206
10558SOL     OW32572   3.082   5.379   5.511
10558SOL    HW132573   3.039   5.418   5.430
10558SOL    HW232574   3.133   5.297   5.484
10559SOL     OW32575   3.591   0.208   6.648
10559SOL    HW132576   3.638   0.280   6.597
10559SOL    HW232577   3.657   0.162   6.708
10560SOL     OW32578   5.197   6.599   1.475
10560SOL    HW132579   5.137   6.522   1.498
10560SOL    HW232580   5.274   6.601   1.539
10561SOL     OW32581   5.805   3.945   0.792
10561SOL    HW132582   5.817   3.949   0.891
10561SOL    HW232583   5.844   3.860   0.757
10562SOL     OW32584   2.981   6.792   1.716
10562SOL    HW132585   2.965   6.773   1.812
10562SOL    HW232586   2.980   6.706   1.664
10563SOL     OW32587   0.494   0.257   0.672
10563SOL    HW132588   0.569   0.216   0.620
10563SOL    HW232589   0.414   0.268   0.613
10564SOL     OW32590   6.286   5.829   3.813
10564SOL    HW132591   6.299   5.912   3.867
10564SOL    HW232592   6.188   5.815   3.797
10565SOL     OW32593   6.452   6.754   5.535
10565SOL    HW132594   6.447   6.784   5.440
10565SOL    HW232595   6.404   6.667   5.545
10566SOL     OW32596   2.900   2.748   0.447
10566SOL    HW132597   2.928   2.775   0.539
10566SOL    HW232598   2.807   2.712   0.450
10567SOL     OW32599   1.694   2.340   6.562
10567SOL    HW132600   1.719   2.309   6.471
10567SOL    HW232601   1.775   2.339   6.621
10568SOL     OW32602   5.084   2.581   5.884
10568SOL    HW132603   4.990   2.548   5.890
10568SOL    HW232604   5.130   2.568   5.972
10569SOL     OW32605   5.528   0.021   1.670
10569SOL    HW132606   5.527   0.036   1.769
10569SOL    HW232607   5.595   6.974   1.648
10570SOL     OW32608   0.734   4.823   4.756
10570SOL    HW132609   0.790   4.826   4.838
10570SOL    HW232610   0.775   4.880   4.685
10571SOL     OW32611   0.019   4.441   5.810
10571SOL    HW132612   0.012   4.346   5.839
10571SOL    HW232613   0.071   4.446   5.724
10572SOL     OW32614   6.377   4.691   1.582
10572SOL    HW132615   6.295   4.643   1.552
10572SOL    HW232616   6.449   4.681   1.513
10573SOL     OW32617   5.977   0.594   3.655
10573SOL    HW132618   6.000   0.500   3.680
10573SOL    HW232619   5.996   0.607   3.557
10574SOL     OW32620   0.026   1.525   3.489
10574SOL    HW132621   6.964   1.481   3.516
10574SOL    HW232622   0.088   1.528   3.567
10575SOL     OW32623   6.243   1.073   1.978
10575SOL    HW132624   6.270   1.126   1.897
10575SOL    HW232625   6.207   1.134   2.048
10576SOL     OW32626   2.448   5.028   3.744
10576SOL    HW132627   2.460   4.983   3.655
10576SOL    HW232628   2.536   5.059   3.778
10577SOL     OW32629   4.215   6.155   1.130
10577SOL    HW132630   4.127   6.182   1.168
10577SOL    HW232631   4.286   6.168   1.200
10578SOL     OW32632   6.329   2.279   4.051
10578SOL    HW132633   6.357   2.251   4.143
10578SOL    HW232634   6.329   2.379   4.045
10579SOL     OW32635   2.449   2.832   1.132
10579SOL    HW132636   2.511   2.805   1.058
10579SOL    HW232637   2.438   2.931   1.132
10580SOL     OW32638   6.427   6.801   6.507
10580SOL    HW132639   6.345   6.745   6.525
10580SOL    HW232640   6.507   6.742   6.508
10581SOL     OW32641   5.113   0.240   3.623
10581SOL    HW132642   5.179   0.168   3.642
10581SOL    HW232643   5.119   0.310   3.695
10582SOL     OW32644   5.598   4.931   6.706
10582SOL    HW132645   5.544   4.901   6.785
10582SOL    HW232646   5.690   4.892   6.713
10583SOL     OW32647   2.702   0.656   3.675
10583SOL    HW132648   2.667   0.563   3.688
10583SOL    HW232649   2.763   0.659   3.596
10584SOL     OW32650   6.951   6.943   5.492
10584SOL    HW132651   7.019   7.016   5.499
10584SOL    HW232652   6.977   6.880   5.418
10585SOL     OW32653   0.509   1.410   5.912
10585SOL    HW132654   0.545   1.365   5.994
10585SOL    HW232655   0.547   1.503   5.906
10586SOL     OW32656   4.842   4.610   5.614
10586SOL    HW132657   4.902   4.533   5.595
10586SOL    HW232658   4.873   4.691   5.564
10587SOL     OW32659   1.066   5.786   5.555
10587SOL    HW132660   1.106   5.703   5.594
10587SOL    HW232661   1.054   5.774   5.457
10588SOL     OW32662   0.939   3.668   4.113
10588SOL    HW132663   0.875   3.697   4.184
10588SOL    HW232664   1.002   3.600   4.150
10589SOL     OW32665   5.328   6.386   3.640
10589SOL    HW132666   5.339   6.305   3.582
10589SOL    HW232667   5.326   6.357   3.736
10590SOL     OW32668   0.676   5.494   1.947
10590SOL    HW132669   0.647   5.527   2.037
10590SOL    HW232670   0.619   5.534   1.876
10591SOL     OW32671   1.287   1.613   1.401
10591SOL    HW132672   1.274   1.712   1.395
10591SOL    HW232673   1.365   1.593   1.460
10592SOL     OW32674   5.868   2.072   5.636
10592SOL    HW132675   5.835   2.021   5.715
10592SOL    HW232676   5.828   2.034   5.553
10593SOL     OW32677   2.975   6.512   1.523
10593SOL    HW132678   2.961   6.475   1.615
10593SOL    HW232679   2.988   6.437   1.459
10594SOL     OW32680   3.817   0.301   3.297
10594SOL    HW132681   3.859   0.363   3.363
10594SOL    HW232682   3.824   0.207   3.330
10595SOL     OW32683   5.894   0.630   0.649
10595SOL    HW132684   5.829   0.701   0.620
10595SOL    HW232685   5.925   0.649   0.742
10596SOL     OW32686   4.204   1.657   6.667
10596SOL    HW132687   4.285   1.685   6.718
10596SOL    HW232688   4.152   1.590   6.720
10597SOL     OW32689   2.423   0.356   6.001
10597SOL    HW132690   2.323   0.349   6.012
10597SOL    HW232691   2.450   0.452   5.999
10598SOL     OW32692   2.722   1.769   6.167
10598SOL    HW132693   2.629   1.758   6.131
10598SOL    HW232694   2.778   1.817   6.099
10599SOL     OW32695   0.035   3.479   6.299
10599SOL    HW132696   7.017   3.453   6.386
10599SOL    HW232697   0.039   3.579   6.293
10600SOL     OW32698   2.507   1.948   1.904
10600SOL    HW132699   2.409   1.939   1.921
10600SOL    HW232700   2.543   2.028   1.953
10601SOL     OW32701   0.276   6.852   6.710
10601SOL    HW132702   0.184   6.889   6.697
10601SOL    HW232703   0.291   6.776   6.647
10602SOL     OW32704   0.233   0.178   0.217
10602SOL    HW132705   0.297   0.251   0.195
10602SOL    HW232706   0.170   0.209   0.289
10603SOL     OW32707   4.458   6.658   1.834
10603SOL    HW132708   4.526   6.720   1.796
10603SOL    HW232709   4.369   6.678   1.793
10604SOL     OW32710   0.449   0.081   5.299
10604SOL    HW132711   0.353   0.108   5.294
10604SOL    HW232712   0.507   0.162   5.289
10605SOL     OW32713   2.615   1.252   1.032
10605SOL    HW132714   2.619   1.311   1.112
10605SOL    HW232715   2.696   1.193   1.030
10606SOL     OW32716   6.166   0.771   1.357
10606SOL    HW132717   6.211   0.691   1.397
10606SOL    HW232718   6.076   0.783   1.400
10607SOL     OW32719   4.103   4.374   6.065
10607SOL    HW132720   4.029   4.332   6.012
10607SOL    HW232721   4.068   4.403   6.154
10608SOL     OW32722   6.271   2.617   2.709
10608SOL    HW132723   6.274   2.637   2.807
10608SOL    HW232724   6.184   2.648   2.671
10609SOL     OW32725   3.912   0.397   0.230
10609SOL    HW132726   3.925   0.316   0.173
10609SOL    HW232727   3.973   0.392   0.309
10610SOL     OW32728   0.250   1.325   4.549
10610SOL    HW132729   0.231   1.350   4.454
10610SOL    HW232730   0.277   1.406   4.600
10611SOL     OW32731   2.500   5.945   4.884
10611SOL    HW132732   2.481   5.970   4.979
10611SOL    HW232733   2.525   5.849   4.879
10612SOL     OW32734   4.893   1.213   3.899
10612SOL    HW132735   4.840   1.282   3.949
10612SOL    HW232736   4.991   1.228   3.914
10613SOL     OW32737   6.254   6.562   4.339
10613SOL    HW132738   6.344   6.520   4.349
10613SOL    HW232739   6.264   6.659   4.322
10614SOL     OW32740   5.141   0.203   6.628
10614SOL    HW132741   5.118   0.154   6.544
10614SOL    HW232742   5.112   0.298   6.620
10615SOL     OW32743   2.744   2.307   6.375
10615SOL    HW132744   2.712   2.292   6.281
10615SOL    HW232745   2.809   2.235   6.399
10616SOL     OW32746   2.711   6.222   6.734
10616SOL    HW132747   2.744   6.139   6.688
10616SOL    HW232748   2.705   6.205   6.832
10617SOL     OW32749   2.831   3.289   1.308
10617SOL    HW132750   2.881   3.225   1.366
10617SOL    HW232751   2.783   3.356   1.365
10618SOL     OW32752   0.784   5.413   5.015
10618SOL    HW132753   0.736   5.376   5.094
10618SOL    HW232754   0.866   5.358   4.996
10619SOL     OW32755   1.232   2.064   3.238
10619SOL    HW132756   1.184   2.038   3.322
10619SOL    HW232757   1.254   1.982   3.186
10620SOL     OW32758   2.461   6.895   5.970
10620SOL    HW132759   2.429   6.896   5.875
10620SOL    HW232760   2.515   6.977   5.987
10621SOL     OW32761   1.267   3.586   3.164
10621SOL    HW132762   1.270   3.589   3.264
10621SOL    HW232763   1.196   3.522   3.135
10622SOL     OW32764   4.299   3.335   0.925
10622SOL    HW132765   4.232   3.292   0.864
10622SOL    HW232766   4.352   3.265   0.972
10623SOL     OW32767   5.746   5.867   6.355
10623SOL    HW132768   5.842   5.842   6.371
10623SOL    HW232769   5.740   5.919   6.270
10624SOL     OW32770   0.713   2.576   5.495
10624SOL    HW132771   0.806   2.543   5.481
10624SOL    HW232772   0.714   2.656   5.554
10625SOL     OW32773   6.671   3.837   6.619
10625SOL    HW132774   6.701   3.742   6.613
10625SOL    HW232775   6.743   3.892   6.662
10626SOL     OW32776   3.865   3.197   1.816
10626SOL    HW132777   3.885   3.101   1.796
10626SOL    HW232778   3.934   3.256   1.773
10627SOL     OW32779   5.836   6.492   5.806
10627SOL    HW132780   5.737   6.496   5.787
10627SOL    HW232781   5.850   6.449   5.896
10628SOL     OW32782   4.321   0.597   0.240
10628SOL    HW132783   4.298   0.523   0.176
10628SOL    HW232784   4.419   0.616   0.236
10629SOL     OW32785   3.853   5.177   4.360
10629SOL    HW132786   3.813   5.103   4.416
10629SOL    HW232787   3.781   5.240   4.332
10630SOL     OW32788   4.656   0.544   3.135
10630SOL    HW132789   4.731   0.575   3.077
10630SOL    HW232790   4.691   0.526   3.227
10631SOL     OW32791   4.586   6.071   0.187
10631SOL    HW132792   4.540   5.985   0.169
10631SOL    HW232793   4.524   6.133   0.235
10632SOL     OW32794   4.670   5.833   2.958
10632SOL    HW132795   4.770   5.821   2.960
10632SOL    HW232796   4.627   5.769   3.021
10633SOL     OW32797   2.212   2.944   1.962
10633SOL    HW132798   2.202   2.885   2.043
10633SOL    HW232799   2.296   2.920   1.914
10634SOL     OW32800   0.823   4.609   6.864
10634SOL    HW132801   0.858   4.675   6.798
10634SOL    HW232802   0.900   4.562   6.909
10635SOL     OW32803   2.411   3.596   0.229
10635SOL    HW132804   2.510   3.604   0.246
10635SOL    HW232805   2.375   3.519   0.282
10636SOL     OW32806   6.707   2.404   6.761
10636SOL    HW132807   6.795   2.359   6.753
10636SOL    HW232808   6.652   2.386   6.679
10637SOL     OW32809   2.857   6.667   6.453
10637SOL    HW132810   2.864   6.726   6.373
10637SOL    HW232811   2.923   6.696   6.522
10638SOL     OW32812   6.842   5.077   1.774
10638SOL    HW132813   6.917   5.080   1.841
10638SOL    HW232814   6.861   5.005   1.706
10639SOL     OW32815   2.164   3.405   1.502
10639SOL    HW132816   2.131   3.468   1.572
10639SOL    HW232817   2.241   3.352   1.537
10640SOL     OW32818   3.954   0.352   3.763
10640SOL    HW132819   3.960   0.448   3.790
10640SOL    HW232820   3.972   0.294   3.842
10641SOL     OW32821   0.912   0.438   3.177
10641SOL    HW132822   0.902   0.356   3.121
10641SOL    HW232823   0.956   0.415   3.263
10642SOL     OW32824   6.291   2.385   0.072
10642SOL    HW132825   6.230   2.330   0.016
10642SOL    HW232826   6.382   2.387   0.031
10643SOL     OW32827   1.564   4.886   5.310
10643SOL    HW132828   1.602   4.978   5.318
10643SOL    HW232829   1.616   4.834   5.243
10644SOL     OW32830   0.010   2.427   2.482
10644SOL    HW132831   6.971   2.494   2.444
10644SOL    HW232832   0.014   2.348   2.420
10645SOL     OW32833   2.303   2.690   3.044
10645SOL    HW132834   2.347   2.734   3.121
10645SOL    HW232835   2.210   2.725   3.033
10646SOL     OW32836   4.926   1.413   4.433
10646SOL    HW132837   4.854   1.435   4.499
10646SOL    HW232838   4.939   1.314   4.429
10647SOL     OW32839   4.035   4.911   4.890
10647SOL    HW132840   3.954   4.934   4.836
10647SOL    HW232841   4.010   4.909   4.987
10648SOL     OW32842   5.723   4.789   5.038
10648SOL    HW132843   5.692   4.876   5.076
10648SOL    HW232844   5.805   4.759   5.087
10649SOL     OW32845   0.063   3.247   3.481
10649SOL    HW132846   0.002   3.167   3.480
10649SOL    HW232847   0.158   3.216   3.476
10650SOL     OW32848   6.982   0.176   4.227
10650SOL    HW132849   6.997   0.153   4.131
10650SOL    HW232850   6.890   0.148   4.255
10651SOL     OW32851   4.689   6.113   5.686
10651SOL    HW132852   4.762   6.166   5.643
10651SOL    HW232853   4.613   6.104   5.621
10652SOL     OW32854   1.384   7.019   6.024
10652SOL    HW132855   1.312   0.064   6.017
10652SOL    HW232856   1.396   6.994   6.121
10653SOL     OW32857   3.732   6.182   4.763
10653SOL    HW132858   3.678   6.225   4.691
10653SOL    HW232859   3.708   6.085   4.771
10654SOL     OW32860   5.138   1.624   4.412
10654SOL    HW132861   5.100   1.714   4.430
10654SOL    HW232862   5.065   1.556   4.413
10655SOL     OW32863   1.177   4.818   1.167
10655SOL    HW132864   1.226   4.743   1.211
10655SOL    HW232865   1.116   4.861   1.234
10656SOL     OW32866   6.301   1.312   1.775
10656SOL    HW132867   6.371   1.294   1.705
10656SOL    HW232868   6.342   1.362   1.851
10657SOL     OW32869   6.097   0.580   4.332
10657SOL    HW132870   6.009   0.559   4.374
10657SOL    HW232871   6.139   0.657   4.381
10658SOL     OW32872   5.591   3.149   4.577
10658SOL    HW132873   5.499   3.114   4.561
10658SOL    HW232874   5.591   3.208   4.658
10659SOL     OW32875   0.828   4.471   1.049
10659SOL    HW132876   0.818   4.567   1.025
10659SOL    HW232877   0.767   4.416   0.992
10660SOL     OW32878   6.102   3.278   5.520
10660SOL    HW132879   6.087   3.370   5.482
10660SOL    HW232880   6.118   3.286   5.619
10661SOL     OW32881   1.191   4.541   0.415
10661SOL    HW132882   1.251   4.619   0.399
10661SOL    HW232883   1.097   4.573   0.429
10662SOL     OW32884   2.811   1.216   2.279
10662SOL    HW132885   2.871   1.228   2.201
10662SOL    HW232886   2.723   1.260   2.261
10663SOL     OW32887   1.231   1.005   3.513
10663SOL    HW132888   1.325   0.970   3.511
10663SOL    HW232889   1.208   1.042   3.423
10664SOL     OW32890   1.193   5.178   4.322
10664SOL    HW132891   1.250   5.255   4.350
10664SOL    HW232892   1.251   5.106   4.284
10665SOL     OW32893   2.194   3.403   6.497
10665SOL    HW132894   2.187   3.502   6.494
10665SOL    HW232895   2.264   3.372   6.432
10666SOL     OW32896   3.797   3.313   2.247
10666SOL    HW132897   3.707   3.286   2.280
10666SOL    HW232898   3.850   3.231   2.226
10667SOL     OW32899   5.423   2.086   2.751
10667SOL    HW132900   5.391   2.129   2.835
10667SOL    HW232901   5.364   2.115   2.675
10668SOL     OW32902   3.541   1.909   5.566
10668SOL    HW132903   3.477   1.899   5.489
10668SOL    HW232904   3.633   1.926   5.530
10669SOL     OW32905   6.157   0.598   0.243
10669SOL    HW132906   6.115   0.689   0.237
10669SOL    HW232907   6.112   0.546   0.316
10670SOL     OW32908   5.032   4.245   3.988
10670SOL    HW132909   5.088   4.163   3.976
10670SOL    HW232910   5.040   4.277   4.082
10671SOL     OW32911   1.039   1.731   4.526
10671SOL    HW132912   1.033   1.641   4.484
10671SOL    HW232913   0.952   1.779   4.517
10672SOL     OW32914   6.152   4.125   1.554
10672SOL    HW132915   6.134   4.027   1.557
10672SOL    HW232916   6.211   4.150   1.631
10673SOL     OW32917   1.857   0.629   1.119
10673SOL    HW132918   1.772   0.588   1.084
10673SOL    HW232919   1.935   0.593   1.068
10674SOL     OW32920   4.171   3.384   4.746
10674SOL    HW132921   4.263   3.378   4.708
10674SOL    HW232922   4.128   3.293   4.745
10675SOL     OW32923   3.461   1.201   6.813
10675SOL    HW132924   3.389   1.208   6.882
10675SOL    HW232925   3.452   1.277   6.749
10676SOL     OW32926   0.736   5.720   4.759
10676SOL    HW132927   0.667   5.750   4.825
10676SOL    HW232928   0.694   5.658   4.693
10677SOL     OW32929   1.620   1.620   1.025
10677SOL    HW132930   1.612   1.583   0.932
10677SOL    HW232931   1.557   1.573   1.085
10678SOL     OW32932   3.817   4.871   3.455
10678SOL    HW132933   3.794   4.968   3.448
10678SOL    HW232934   3.855   4.852   3.546
10679SOL     OW32935   4.079   4.779   0.393
10679SOL    HW132936   4.161   4.785   0.449
10679SOL    HW232937   4.071   4.861   0.336
10680SOL     OW32938   3.339   1.853   4.254
10680SOL    HW132939   3.430   1.838   4.214
10680SOL    HW232940   3.311   1.770   4.303
10681SOL     OW32941   0.014   3.612   0.052
10681SOL    HW132942   0.052   3.614   0.144
10681SOL    HW232943   6.955   3.556   0.052
10682SOL     OW32944   6.207   3.117   4.848
10682SOL    HW132945   6.250   3.177   4.916
10682SOL    HW232946   6.110   3.106   4.870
10683SOL     OW32947   4.401   0.310   3.422
10683SOL    HW132948   4.482   0.301   3.481
10683SOL    HW232949   4.328   0.356   3.472
10684SOL     OW32950   4.914   5.302   1.248
10684SOL    HW132951   4.864   5.290   1.333
10684SOL    HW232952   4.994   5.361   1.264
10685SOL     OW32953   6.845   5.693   1.488
10685SOL    HW132954   6.756   5.703   1.532
10685SOL    HW232955   6.910   5.757   1.530
10686SOL     OW32956   2.066   3.906   6.392
10686SOL    HW132957   2.062   3.918   6.491
10686SOL    HW232958   2.141   3.961   6.355
10687SOL     OW32959   6.271   4.692   3.194
10687SOL    HW132960   6.356   4.644   3.217
10687SOL    HW232961   6.206   4.682   3.269
10688SOL     OW32962   5.595   1.248   2.063
10688SOL    HW132963   5.564   1.266   2.156
10688SOL    HW232964   5.570   1.324   2.003
10689SOL     OW32965   0.537   6.983   1.654
10689SOL    HW132966   0.588   0.017   1.590
10689SOL    HW232967   0.512   6.898   1.608
10690SOL     OW32968   7.009   5.202   3.867
10690SOL    HW132969   0.071   5.151   3.865
10690SOL    HW232970   7.006   5.264   3.789
10691SOL     OW32971   2.239   1.730   1.885
10691SOL    HW132972   2.158   1.736   1.943
10691SOL    HW232973   2.302   1.662   1.923
10692SOL     OW32974   3.178   0.940   4.555
10692SOL    HW132975   3.236   0.889   4.491
10692SOL    HW232976   3.230   1.018   4.592
10693SOL     OW32977   0.710   5.828   1.838
10693SOL    HW132978   0.773   5.764   1.881
10693SOL    HW232979   0.629   5.838   1.895
10694SOL     OW32980   5.142   6.670   5.970
10694SOL    HW132981   5.081   6.594   5.946
10694SOL    HW232982   5.105   6.755   5.934
10695SOL     OW32983   1.280   3.023   1.426
10695SOL    HW132984   1.336   3.017   1.509
10695SOL    HW232985   1.272   2.932   1.385
10696SOL     OW32986   5.865   3.571   5.067
10696SOL    HW132987   5.918   3.486   5.056
10696SOL    HW232988   5.807   3.564   5.148
10697SOL     OW32989   0.378   6.355   5.338
10697SOL    HW132990   0.365   6.337   5.240
10697SOL    HW232991   0.300   6.321   5.389
10698SOL     OW32992   4.820   4.436   0.679
10698SOL    HW132993   4.776   4.375   0.614
10698SOL    HW232994   4.814   4.530   0.646
10699SOL     OW32995   4.024   4.195   0.875
10699SOL    HW132996   4.018   4.098   0.898
10699SOL    HW232997   3.951   4.219   0.812
10700SOL     OW32998   5.873   0.091   0.926
10700SOL    HW132999   5.914   0.152   0.858
10700SOL    HW233000   5.911   7.023   0.915
10701SOL     OW33001   3.125   0.242   6.285
10701SOL    HW133002   3.171   0.272   6.202
10701SOL    HW233003   3.175   0.273   6.365
10702SOL     OW33004   4.846   3.362   2.900
10702SOL    HW133005   4.842   3.337   2.803
10702SOL    HW233006   4.827   3.460   2.910
10703SOL     OW33007   2.182   3.055   5.425
10703SOL    HW133008   2.177   3.007   5.338
10703SOL    HW233009   2.272   3.098   5.434
10704SOL     OW33010   0.104   5.183   2.637
10704SOL    HW133011   0.150   5.170   2.725
10704SOL    HW233012   0.126   5.107   2.576
10705SOL     OW33013   5.872   5.377   0.825
10705SOL    HW133014   5.938   5.325   0.880
10705SOL    HW233015   5.921   5.448   0.774
10706SOL     OW33016   4.307   6.958   1.728
10706SOL    HW133017   4.405   6.968   1.748
10706SOL    HW233018   4.255   6.962   1.813
10707SOL     OW33019   0.108   6.894   4.228
10707SOL    HW133020   0.079   6.986   4.203
10707SOL    HW233021   0.168   6.898   4.308
10708SOL     OW33022   4.618   0.950   1.531
10708SOL    HW133023   4.700   0.895   1.545
10708SOL    HW233024   4.602   1.007   1.612
10709SOL     OW33025   5.700   5.299   4.522
10709SOL    HW133026   5.618   5.286   4.577
10709SOL    HW233027   5.699   5.390   4.481
10710SOL     OW33028   5.694   0.869   3.994
10710SOL    HW133029   5.780   0.828   3.963
10710SOL    HW233030   5.644   0.904   3.916
10711SOL     OW33031   2.525   6.551   4.001
10711SOL    HW133032   2.491   6.472   4.051
10711SOL    HW233033   2.617   6.574   4.032
10712SOL     OW33034   3.679   0.393   2.619
10712SOL    HW133035   3.683   0.360   2.713
10712SOL    HW233036   3.601   0.455   2.608
10713SOL     OW33037   1.114   2.839   0.215
10713SOL    HW133038   1.177   2.890   0.274
10713SOL    HW233039   1.145   2.744   0.208
10714SOL     OW33040   4.372   3.561   5.637
10714SOL    HW133041   4.395   3.464   5.646
10714SOL    HW233042   4.396   3.592   5.545
10715SOL     OW33043   4.184   0.332   2.269
10715SOL    HW133044   4.086   0.319   2.282
10715SOL    HW233045   4.201   0.421   2.227
10716SOL     OW33046   6.000   2.873   3.150
10716SOL    HW133047   5.969   2.782   3.178
10716SOL    HW233048   6.063   2.909   3.219
10717SOL     OW33049   1.694   3.135   1.066
10717SOL    HW133050   1.661   3.230   1.069
10717SOL    HW233051   1.789   3.133   1.036
10718SOL     OW33052   1.234   3.867   0.063
10718SOL    HW133053   1.185   3.797   0.116
10718SOL    HW233054   1.234   3.953   0.113
10719SOL     OW33055   6.539   5.737   3.417
10719SOL    HW133056   6.486   5.806   3.366
10719SOL    HW233057   6.493   5.719   3.504
10720SOL     OW33058   5.941   5.161   4.579
10720SOL    HW133059   5.857   5.202   4.542
10720SOL    HW233060   5.989   5.228   4.635
10721SOL     OW33061   5.247   3.834   5.126
10721SOL    HW133062   5.262   3.803   5.032
10721SOL    HW233063   5.335   3.847   5.171
10722SOL     OW33064   6.676   4.436   0.278
10722SOL    HW133065   6.729   4.520   0.272
10722SOL    HW233066   6.729   4.366   0.327
10723SOL     OW33067   0.263   1.817   6.235
10723SOL    HW133068   0.252   1.913   6.211
10723SOL    HW233069   0.359   1.790   6.222
10724SOL     OW33070   6.147   6.789   6.211
10724SOL    HW133071   6.145   6.718   6.282
10724SOL    HW233072   6.118   6.750   6.124
10725SOL     OW33073   2.133   5.708   5.262
10725SOL    HW133074   2.088   5.662   5.185
10725SOL    HW233075   2.093   5.676   5.347
10726SOL     OW33076   5.189   0.932   4.264
10726SOL    HW133077   5.124   0.919   4.190
10726SOL    HW233078   5.213   1.029   4.271
10727SOL     OW33079   0.388   5.505   5.923
10727SOL    HW133080   0.413   5.593   5.962
10727SOL    HW233081   0.453   5.481   5.850
10728SOL     OW33082   0.885   5.027   6.403
10728SOL    HW133083   0.843   5.021   6.493
10728SOL    HW233084   0.892   5.123   6.376
10729SOL     OW33085   5.973   1.373   2.323
10729SOL    HW133086   5.918   1.454   2.303
10729SOL    HW233087   5.966   1.352   2.421
10730SOL     OW33088   2.764   0.217   1.189
10730SOL    HW133089   2.724   0.232   1.279
10730SOL    HW233090   2.693   0.225   1.119
10731SOL     OW33091   3.330   1.192   0.465
10731SOL    HW133092   3.262   1.119   0.451
10731SOL    HW233093   3.393   1.165   0.537
10732SOL     OW33094   0.567   4.662   5.420
10732SOL    HW133095   0.511   4.617   5.489
10732SOL    HW233096   0.542   4.628   5.329
10733SOL     OW33097   6.465   1.602   6.253
10733SOL    HW133098   6.533   1.537   6.220
10733SOL    HW233099   6.472   1.609   6.352
10734SOL     OW33100   1.374   1.333   0.488
10734SOL    HW133101   1.386   1.271   0.411
10734SOL    HW233102   1.360   1.280   0.572
10735SOL     OW33103   0.504   2.839   2.333
10735SOL    HW133104   0.538   2.933   2.328
10735SOL    HW233105   0.411   2.835   2.297
10736SOL     OW33106   1.050   0.341   3.406
10736SOL    HW133107   1.142   0.362   3.372
10736SOL    HW233108   1.046   0.361   3.504
10737SOL     OW33109   1.264   1.975   0.454
10737SOL    HW133110   1.321   2.008   0.529
10737SOL    HW233111   1.168   1.978   0.481
10738SOL     OW33112   3.244   6.930   2.938
10738SOL    HW133113   3.309   6.862   2.904
10738SOL    HW233114   3.294   7.009   2.972
10739SOL     OW33115   2.134   1.102   1.800
10739SOL    HW133116   2.138   1.192   1.756
10739SOL    HW233117   2.142   1.113   1.899
10740SOL     OW33118   0.146   5.278   5.586
10740SOL    HW133119   0.126   5.322   5.499
10740SOL    HW233120   0.170   5.348   5.654
10741SOL     OW33121   4.217   0.785   1.462
10741SOL    HW133122   4.272   0.866   1.483
10741SOL    HW233123   4.122   0.802   1.490
10742SOL     OW33124   5.926   0.076   1.384
10742SOL    HW133125   5.888   0.136   1.313
10742SOL    HW233126   5.981   0.005   1.341
10743SOL     OW33127   1.168   2.766   5.613
10743SOL    HW133128   1.261   2.798   5.597
10743SOL    HW233129   1.161   2.726   5.704
10744SOL     OW33130   3.262   1.314   0.728
10744SOL    HW133131   3.209   1.358   0.655
10744SOL    HW233132   3.358   1.340   0.719
10745SOL     OW33133   6.635   5.576   5.994
10745SOL    HW133134   6.543   5.614   6.001
10745SOL    HW233135   6.670   5.555   6.085
10746SOL     OW33136   1.898   4.564   0.915
10746SOL    HW133137   1.884   4.465   0.924
10746SOL    HW233138   1.882   4.607   1.004
10747SOL     OW33139   3.595   1.109   4.865
10747SOL    HW133140   3.670   1.153   4.816
10747SOL    HW233141   3.583   1.152   4.954
10748SOL     OW33142   5.509   1.367   0.795
10748SOL    HW133143   5.581   1.298   0.806
10748SOL    HW233144   5.514   1.433   0.871
10749SOL     OW33145   0.112   5.520   3.971
10749SOL    HW133146   0.164   5.510   3.886
10749SOL    HW233147   0.096   5.617   3.989
10750SOL     OW33148   4.397   6.180   4.952
10750SOL    HW133149   4.301   6.155   4.953
10750SOL    HW233150   4.443   6.137   4.875
10751SOL     OW33151   1.690   4.989   4.160
10751SOL    HW133152   1.683   5.084   4.130
10751SOL    HW233153   1.778   4.952   4.133
10752SOL     OW33154   6.149   4.912   5.043
10752SOL    HW133155   6.247   4.898   5.054
10752SOL    HW233156   6.132   5.000   4.999
10753SOL     OW33157   6.307   4.832   4.472
10753SOL    HW133158   6.267   4.749   4.510
10753SOL    HW233159   6.235   4.898   4.453
10754SOL     OW33160   0.322   6.660   3.224
10754SOL    HW133161   0.402   6.720   3.217
10754SOL    HW233162   0.243   6.714   3.253
10755SOL     OW33163   0.263   0.492   0.832
10755SOL    HW133164   0.210   0.409   0.845
10755SOL    HW233165   0.354   0.480   0.872
10756SOL     OW33166   6.388   5.060   6.146
10756SOL    HW133167   6.296   5.063   6.185
10756SOL    HW233168   6.392   5.121   6.066
10757SOL     OW33169   1.578   2.668   0.239
10757SOL    HW133170   1.539   2.626   0.321
10757SOL    HW233171   1.508   2.675   0.168
10758SOL     OW33172   1.002   6.014   4.271
10758SOL    HW133173   1.025   6.105   4.304
10758SOL    HW233174   0.904   5.999   4.278
10759SOL     OW33175   1.760   4.022   1.131
10759SOL    HW133176   1.737   3.926   1.116
10759SOL    HW233177   1.836   4.029   1.195
10760SOL     OW33178   5.271   0.510   3.224
10760SOL    HW133179   5.360   0.488   3.183
10760SOL    HW233180   5.285   0.542   3.317
10761SOL     OW33181   0.461   5.965   5.829
10761SOL    HW133182   0.471   5.880   5.777
10761SOL    HW233183   0.430   6.038   5.768
10762SOL     OW33184   2.791   1.322   4.435
10762SOL    HW133185   2.786   1.419   4.456
10762SOL    HW233186   2.868   1.305   4.373
10763SOL     OW33187   3.726   6.682   2.517
10763SOL    HW133188   3.769   6.592   2.505
10763SOL    HW233189   3.797   6.753   2.518
10764SOL     OW33190   5.372   2.305   5.597
10764SOL    HW133191   5.425   2.240   5.651
10764SOL    HW233192   5.287   2.262   5.566
10765SOL     OW33193   4.806   2.832   0.643
10765SOL    HW133194   4.755   2.863   0.563
10765SOL    HW233195   4.741   2.807   0.715
10766SOL     OW33196   4.309   5.316   0.845
10766SOL    HW133197   4.243   5.304   0.771
10766SOL    HW233198   4.400   5.330   0.806
10767SOL     OW33199   2.316   0.423   1.184
10767SOL    HW133200   2.266   0.359   1.243
10767SOL    HW233201   2.362   0.491   1.240
10768SOL     OW33202   5.305   5.286   1.051
10768SOL    HW133203   5.256   5.205   1.019
10768SOL    HW233204   5.261   5.368   1.017
10769SOL     OW33205   2.258   4.095   5.414
10769SOL    HW133206   2.323   4.055   5.348
10769SOL    HW233207   2.271   4.051   5.503
10770SOL     OW33208   5.055   6.307   3.861
10770SOL    HW133209   5.005   6.359   3.792
10770SOL    HW233210   5.139   6.355   3.885
10771SOL     OW33211   4.552   0.001   4.476
10771SOL    HW133212   4.521   7.015   4.570
10771SOL    HW233213   4.608   0.084   4.468
10772SOL     OW33214   6.330   0.097   4.888
10772SOL    HW133215   6.270   0.045   4.949
10772SOL    HW233216   6.377   0.033   4.826
10773SOL     OW33217   5.535   5.207   6.648
10773SOL    HW133218   5.485   5.247   6.725
10773SOL    HW233219   5.559   5.113   6.670
10774SOL     OW33220   2.073   1.328   5.914
10774SOL    HW133221   2.054   1.392   5.988
10774SOL    HW233222   2.156   1.355   5.866
10775SOL     OW33223   0.437   4.831   2.761
10775SOL    HW133224   0.484   4.865   2.842
10775SOL    HW233225   0.456   4.890   2.683
10776SOL     OW33226   0.446   0.977   6.294
10776SOL    HW133227   0.382   0.946   6.364
10776SOL    HW233228   0.402   0.975   6.204
10777SOL     OW33229   3.984   5.244   1.599
10777SOL    HW133230   3.887   5.265   1.609
10777SOL    HW233231   4.007   5.242   1.501
10778SOL     OW33232   4.749   0.295   3.810
10778SOL    HW133233   4.780   0.237   3.735
10778SOL    HW233234   4.824   0.356   3.838
10779SOL     OW33235   5.705   2.894   3.391
10779SOL    HW133236   5.712   2.982   3.344
10779SOL    HW233237   5.717   2.908   3.489
10780SOL     OW33238   1.737   0.476   4.055
10780SOL    HW133239   1.772   0.402   3.997
10780SOL    HW233240   1.647   0.450   4.091
10781SOL     OW33241   4.360   0.788   3.821
10781SOL    HW133242   4.277   0.735   3.804
10781SOL    HW233243   4.366   0.864   3.756
10782SOL     OW33244   6.992   0.950   3.127
10782SOL    HW133245   6.960   1.030   3.178
10782SOL    HW233246   6.922   0.921   3.062
10783SOL     OW33247   0.397   2.266   2.551
10783SOL    HW133248   0.471   2.220   2.501
10783SOL    HW233249   0.328   2.199   2.577
10784SOL     OW33250   3.983   1.068   4.022
10784SOL    HW133251   3.907   1.069   4.087
10784SOL    HW233252   4.035   0.984   4.032
10785SOL     OW33253   0.928   3.879   0.869
10785SOL    HW133254   0.932   3.976   0.893
10785SOL    HW233255   0.835   3.855   0.842
10786SOL     OW33256   5.962   5.310   3.371
10786SOL    HW133257   5.896   5.236   3.383
10786SOL    HW233258   6.024   5.287   3.296
10787SOL     OW33259   1.559   1.157   5.971
10787SOL    HW133260   1.633   1.119   6.025
10787SOL    HW233261   1.578   1.143   5.874
10788SOL     OW33262   1.103   4.254   0.014
10788SOL    HW133263   1.187   4.298   7.007
10788SOL    HW233264   1.119   4.208   0.101
10789SOL     OW33265   6.639   3.368   6.812
10789SOL    HW133266   6.712   3.300   6.804
10789SOL    HW233267   6.567   3.332   6.872
10790SOL     OW33268   1.090   6.646   2.132
10790SOL    HW133269   1.026   6.578   2.095
10790SOL    HW233270   1.052   6.738   2.116
10791SOL     OW33271   0.469   5.786   1.991
10791SOL    HW133272   0.422   5.867   1.956
10791SOL    HW233273   0.451   5.708   1.931
10792SOL     OW33274   3.383   2.912   4.687
10792SOL    HW133275   3.461   2.975   4.690
10792SOL    HW233276   3.395   2.841   4.756
10793SOL     OW33277   6.464   3.978   6.186
10793SOL    HW133278   6.372   3.972   6.224
10793SOL    HW233279   6.502   3.887   6.173
10794SOL     OW33280   3.901   3.760   4.219
10794SOL    HW133281   3.879   3.835   4.157
10794SOL    HW233282   3.962   3.696   4.172
10795SOL     OW33283   0.291   5.425   2.872
10795SOL    HW133284   0.381   5.397   2.840
10795SOL    HW233285   0.239   5.344   2.900
10796SOL     OW33286   6.685   6.951   5.488
10796SOL    HW133287   6.783   6.940   5.470
10796SOL    HW233288   6.646   6.863   5.515
10797SOL     OW33289   3.196   2.466   0.948
10797SOL    HW133290   3.278   2.449   1.003
10797SOL    HW233291   3.130   2.392   0.962
10798SOL     OW33292   2.498   1.073   0.676
10798SOL    HW133293   2.482   1.100   0.581
10798SOL    HW233294   2.504   1.155   0.732
10799SOL     OW33295   4.225   0.970   2.337
10799SOL    HW133296   4.185   0.878   2.338
10799SOL    HW233297   4.306   0.971   2.395
10800SOL     OW33298   0.820   6.223   5.654
10800SOL    HW133299   0.823   6.320   5.630
10800SOL    HW233300   0.887   6.173   5.599
10801SOL     OW33301   1.065   0.321   7.001
10801SOL    HW133302   1.138   0.309   0.045
10801SOL    HW233303   1.024   0.232   6.980
10802SOL     OW33304   0.570   0.251   2.590
10802SOL    HW133305   0.481   0.209   2.573
10802SOL    HW233306   0.642   0.191   2.557
10803SOL     OW33307   1.462   5.800   5.414
10803SOL    HW133308   1.474   5.782   5.316
10803SOL    HW233309   1.540   5.852   5.449
10804SOL     OW33310   6.702   3.122   2.782
10804SOL    HW133311   6.685   3.034   2.825
10804SOL    HW233312   6.645   3.130   2.700
10805SOL     OW33313   5.097   0.968   5.019
10805SOL    HW133314   5.025   0.989   4.954
10805SOL    HW233315   5.168   0.914   4.973
10806SOL     OW33316   3.678   4.239   6.389
10806SOL    HW133317   3.746   4.268   6.322
10806SOL    HW233318   3.704   4.151   6.428
10807SOL     OW33319   1.312   6.268   3.505
10807SOL    HW133320   1.227   6.317   3.487
10807SOL    HW233321   1.292   6.172   3.522
10808SOL     OW33322   0.114   2.309   5.830
10808SOL    HW133323   0.191   2.247   5.843
10808SOL    HW233324   0.145   2.391   5.782
10809SOL     OW33325   2.565   4.580   3.687
10809SOL    HW133326   2.524   4.661   3.730
10809SOL    HW233327   2.562   4.504   3.752
10810SOL     OW33328   6.994   0.089   3.690
10810SOL    HW133329   0.029   0.015   3.659
10810SOL    HW233330   7.014   0.172   3.638
10811SOL     OW33331   4.107   4.845   5.181
10811SOL    HW133332   4.192   4.835   5.129
10811SOL    HW233333   4.119   4.808   5.273
10812SOL     OW33334   6.846   3.986   6.762
10812SOL    HW133335   6.834   3.938   6.849
10812SOL    HW233336   6.913   4.060   6.774
10813SOL     OW33337   0.500   4.069   5.891
10813SOL    HW133338   0.532   4.164   5.897
10813SOL    HW233339   0.516   4.023   5.978
10814SOL     OW33340   2.105   0.038   6.762
10814SOL    HW133341   2.140   7.016   6.843
10814SOL    HW233342   2.063   0.125   6.789
10815SOL     OW33343   5.123   2.813   2.606
10815SOL    HW133344   5.132   2.786   2.702
10815SOL    HW233345   5.061   2.890   2.599
10816SOL     OW33346   3.677   3.586   2.714
10816SOL    HW133347   3.659   3.551   2.806
10816SOL    HW233348   3.611   3.658   2.693
10817SOL     OW33349   3.475   0.653   4.015
10817SOL    HW133350   3.502   0.619   3.925
10817SOL    HW233351   3.535   0.728   4.042
10818SOL     OW33352   4.504   4.566   5.931
10818SOL    HW133353   4.512   4.565   6.031
10818SOL    HW233354   4.407   4.560   5.906
10819SOL     OW33355   5.895   5.600   6.273
10819SOL    HW133356   5.795   5.605   6.281
10819SOL    HW233357   5.937   5.650   6.349
10820SOL     OW33358   0.277   5.105   4.288
10820SOL    HW133359   0.284   5.176   4.218
10820SOL    HW233360   0.344   5.034   4.270
10821SOL     OW33361   4.367   6.953   2.375
10821SOL    HW133362   4.442   6.911   2.426
10821SOL    HW233363   4.382   6.939   2.277
10822SOL     OW33364   6.480   1.813   1.982
10822SOL    HW133365   6.415   1.852   1.917
10822SOL    HW233366   6.527   1.736   1.939
10823SOL     OW33367   0.103   0.488   3.242
10823SOL    HW133368   0.151   0.566   3.283
10823SOL    HW233369   0.049   0.519   3.164
10824SOL     OW33370   0.698   1.226   2.396
10824SOL    HW133371   0.659   1.135   2.409
10824SOL    HW233372   0.737   1.232   2.304
10825SOL     OW33373   1.492   2.583   0.504
10825SOL    HW133374   1.586   2.600   0.534
10825SOL    HW233375   1.472   2.485   0.511
10826SOL     OW33376   0.499   1.849   2.670
10826SOL    HW133377   0.466   1.760   2.702
10826SOL    HW233378   0.422   1.908   2.649
10827SOL     OW33379   6.670   3.064   4.913
10827SOL    HW133380   6.642   2.971   4.887
10827SOL    HW233381   6.730   3.059   4.993
10828SOL     OW33382   0.254   4.358   0.963
10828SOL    HW133383   0.286   4.280   0.910
10828SOL    HW233384   0.327   4.389   1.024
10829SOL     OW33385   4.793   3.599   0.288
10829SOL    HW133386   4.799   3.662   0.210
10829SOL    HW233387   4.868   3.618   0.351
10830SOL     OW33388   4.578   1.651   3.173
10830SOL    HW133389   4.578   1.557   3.208
10830SOL    HW233390   4.531   1.711   3.237
10831SOL     OW33391   3.052   6.507   2.329
10831SOL    HW133392   2.957   6.501   2.359
10831SOL    HW233393   3.113   6.471   2.400
10832SOL     OW33394   6.449   3.573   6.707
10832SOL    HW133395   6.500   3.487   6.711
10832SOL    HW233396   6.514   3.648   6.694
10833SOL     OW33397   0.535   2.298   0.337
10833SOL    HW133398   0.633   2.291   0.358
10833SOL    HW233399   0.501   2.208   0.309
10834SOL     OW33400   6.966   1.507   6.906
10834SOL    HW133401   6.984   1.566   6.828
10834SOL    HW233402   0.027   1.492   6.957
10835SOL     OW33403   5.699   3.093   0.193
10835SOL    HW133404   5.783   3.108   0.246
10835SOL    HW233405   5.723   3.069   0.099
10836SOL     OW33406   0.357   1.099   2.746
10836SOL    HW133407   0.358   1.114   2.647
10836SOL    HW233408   0.283   1.036   2.769
10837SOL     OW33409   6.642   4.804   2.022
10837SOL    HW133410   6.596   4.891   2.007
10837SOL    HW233411   6.574   4.731   2.032
10838SOL     OW33412   5.465   6.329   4.166
10838SOL    HW133413   5.479   6.356   4.261
10838SOL    HW233414   5.547   6.349   4.113
10839SOL     OW33415   4.624   3.472   0.976
10839SOL    HW133416   4.530   3.436   0.975
10839SOL    HW233417   4.648   3.498   1.069
10840SOL     OW33418   3.766   0.228   2.416
10840SOL    HW133419   3.740   0.259   2.324
10840SOL    HW233420   3.718   0.284   2.484
10841SOL     OW33421   6.423   5.088   5.237
10841SOL    HW133422   6.360   5.063   5.310
10841SOL    HW233423   6.441   5.186   5.240
10842SOL     OW33424   4.790   2.249   1.436
10842SOL    HW133425   4.867   2.312   1.442
10842SOL    HW233426   4.723   2.283   1.371
10843SOL     OW33427   2.059   1.514   1.510
10843SOL    HW133428   2.150   1.527   1.469
10843SOL    HW233429   1.994   1.575   1.466
10844SOL     OW33430   6.910   4.360   3.456
10844SOL    HW133431   6.845   4.291   3.487
10844SOL    HW233432   6.878   4.451   3.484
10845SOL     OW33433   4.631   5.757   5.062
10845SOL    HW133434   4.667   5.703   5.137
10845SOL    HW233435   4.531   5.757   5.066
10846SOL     OW33436   5.609   0.074   6.928
10846SOL    HW133437   5.592   0.170   6.949
10846SOL    HW233438   5.553   0.047   6.850
10847SOL     OW33439   3.138   1.953   0.023
10847SOL    HW133440   3.093   2.007   0.095
10847SOL    HW233441   3.181   1.873   0.063
10848SOL     OW33442   0.518   3.922   0.911
10848SOL    HW133443   0.543   3.950   0.819
10848SOL    HW233444   0.545   3.993   0.976
10849SOL     OW33445   2.568   4.652   4.171
10849SOL    HW133446   2.515   4.569   4.189
10849SOL    HW233447   2.552   4.681   4.076
10850SOL     OW33448   3.665   6.579   0.207
10850SOL    HW133449   3.684   6.567   0.305
10850SOL    HW233450   3.716   6.657   0.173
10851SOL     OW33451   3.190   4.012   0.754
10851SOL    HW133452   3.255   4.079   0.718
10851SOL    HW233453   3.219   3.920   0.726
10852SOL     OW33454   2.119   1.466   6.748
10852SOL    HW133455   2.134   1.450   6.846
10852SOL    HW233456   2.152   1.388   6.696
10853SOL     OW33457   2.438   3.291   6.046
10853SOL    HW133458   2.438   3.361   5.976
10853SOL    HW233459   2.488   3.210   6.013
10854SOL     OW33460   4.459   5.017   5.284
10854SOL    HW133461   4.463   4.951   5.359
10854SOL    HW233462   4.366   5.055   5.277
10855SOL     OW33463   3.972   0.720   0.805
10855SOL    HW133464   3.961   0.621   0.793
10855SOL    HW233465   3.883   0.761   0.820
10856SOL     OW33466   6.665   1.268   6.729
10856SOL    HW133467   6.586   1.287   6.670
10856SOL    HW233468   6.638   1.281   6.825
10857SOL     OW33469   0.433   2.244   3.010
10857SOL    HW133470   0.425   2.294   2.923
10857SOL    HW233471   0.364   2.172   3.013
10858SOL     OW33472   1.185   0.061   0.656
10858SOL    HW133473   1.257   7.020   0.679
10858SOL    HW233474   1.125   0.021   0.587
10859SOL     OW33475   6.986   4.517   4.434
10859SOL    HW133476   7.018   4.464   4.355
10859SOL    HW233477   0.008   4.484   4.517
10860SOL     OW33478   0.376   3.089   4.302
10860SOL    HW133479   0.289   3.138   4.297
10860SOL    HW233480   0.367   3.012   4.365
10861SOL     OW33481   3.111   2.992   2.639
10861SOL    HW133482   3.126   2.958   2.546
10861SOL    HW233483   3.038   3.061   2.637
10862SOL     OW33484   1.975   0.858   5.170
10862SOL    HW133485   1.952   0.952   5.146
10862SOL    HW233486   1.937   0.796   5.102
10863SOL     OW33487   2.333   0.517   4.482
10863SOL    HW133488   2.364   0.427   4.512
10863SOL    HW233489   2.273   0.508   4.403
10864SOL     OW33490   3.250   6.521   0.754
10864SOL    HW133491   3.219   6.585   0.824
10864SOL    HW233492   3.172   6.471   0.718
10865SOL     OW33493   6.778   1.353   0.435
10865SOL    HW133494   6.871   1.326   0.409
10865SOL    HW233495   6.712   1.303   0.378
10866SOL     OW33496   5.892   4.787   0.584
10866SOL    HW133497   5.915   4.883   0.600
10866SOL    HW233498   5.851   4.777   0.493
10867SOL     OW33499   2.957   4.383   0.791
10867SOL    HW133500   2.868   4.428   0.797
10867SOL    HW233501   2.944   4.286   0.769
10868SOL     OW33502   5.319   1.705   4.085
10868SOL    HW133503   5.331   1.609   4.110
10868SOL    HW233504   5.382   1.761   4.137
10869NA      NA33505   6.229   2.895   5.659
10870NA      NA33506   4.571   4.546   5.119
10871NA      NA33507   1.897   2.973   1.728
10872NA      NA33508   5.045   3.841   5.230
10873NA      NA33509   4.034   2.233   5.090
10874NA      NA33510   3.725   4.845   1.794
10875NA      NA33511   6.520   4.875   6.317
10876NA      NA33512   3.247   3.432   4.886
10877NA      NA33513   4.446   6.222   6.804
10878NA      NA33514   3.715   6.478   5.613
10879NA      NA33515   6.570   5.041   2.739
10880NA      NA33516   2.369   0.528   3.356
10881NA      NA33517   4.306   5.447   1.845
10882NA      NA33518   3.949   3.481   2.332
   7.02407   7.02407   7.02407
