Generated by trjconv : CNT in water t=  49.00000
33518
    1C        C    1   2.841   2.768   4.744
    1C        C    2   2.895   2.721   4.866
    1C        C    3   2.844   2.777   4.984
    1C        C    4   2.846   2.772   4.260
    1C        C    5   2.902   2.729   4.382
    1C        C    6   2.846   2.772   4.505
    1C        C    7   3.016   2.642   4.624
    1C        C    8   2.897   2.717   4.624
    1C        C    9   3.074   2.603   4.747
    1C        C   10   3.003   2.630   4.866
    1C        C   11   3.177   2.486   4.974
    1C        C   12   3.060   2.562   4.975
    1C        C   13   2.848   2.767   3.773
    1C        C   14   2.897   2.719   3.897
    1C        C   15   2.846   2.775   4.017
    1C        C   16   3.013   2.641   4.139
    1C        C   17   2.899   2.724   4.138
    1C        C   18   3.077   2.607   4.260
    1C        C   19   3.014   2.644   4.381
    1C        C   20   3.208   2.551   4.503
    1C        C   21   3.078   2.607   4.502
    1C        C   22   3.274   2.526   4.625
    1C        C   23   3.203   2.543   4.746
    1C        C   24   3.410   2.476   4.865
    1C        C   25   3.268   2.499   4.864
    1C        C   26   3.487   2.466   4.981
    1C        C   27   2.849   2.766   3.283
    1C        C   28   2.901   2.720   3.406
    1C        C   29   2.854   2.771   3.529
    1C        C   30   3.017   2.637   3.650
    1C        C   31   2.903   2.721   3.652
    1C        C   32   3.074   2.598   3.774
    1C        C   33   3.009   2.633   3.894
    1C        C   34   3.202   2.549   4.015
    1C        C   35   3.070   2.598   4.017
    1C        C   36   3.273   2.533   4.136
    1C        C   37   3.209   2.556   4.259
    1C        C   38   3.414   2.499   4.383
    1C        C   39   3.276   2.530   4.381
    1C        C   40   3.485   2.501   4.505
    1C        C   41   3.413   2.502   4.626
    1C        C   42   3.628   2.479   4.745
    1C        C   43   3.486   2.478   4.745
    1C        C   44   3.703   2.485   4.865
    1C        C   45   3.626   2.474   4.981
    1C        C   46   2.838   2.749   2.792
    1C        C   47   2.892   2.708   2.916
    1C        C   48   2.846   2.760   3.039
    1C        C   49   3.016   2.633   3.159
    1C        C   50   2.903   2.719   3.161
    1C        C   51   3.076   2.597   3.282
    1C        C   52   3.014   2.636   3.403
    1C        C   53   3.206   2.550   3.525
    1C        C   54   3.076   2.605   3.526
    1C        C   55   3.275   2.532   3.646
    1C        C   56   3.205   2.547   3.768
    1C        C   57   3.409   2.500   3.892
    1C        C   58   3.271   2.529   3.892
    1C        C   59   3.479   2.496   4.014
    1C        C   60   3.411   2.502   4.138
    1C        C   61   3.624   2.502   4.257
    1C        C   62   3.482   2.495   4.260
    1C        C   63   3.695   2.502   4.378
    1C        C   64   3.627   2.496   4.502
    1C        C   65   3.833   2.540   4.620
    1C        C   66   3.697   2.501   4.624
    1C        C   67   3.903   2.563   4.740
    1C        C   68   3.839   2.524   4.860
    1C        C   69   4.047   2.582   4.978
    1C        C   70   3.917   2.529   4.976
    1C        C   71   2.822   2.731   2.307
    1C        C   72   2.886   2.696   2.428
    1C        C   73   2.834   2.745   2.550
    1C        C   74   3.009   2.623   2.669
    1C        C   75   2.889   2.698   2.671
    1C        C   76   3.069   2.591   2.793
    1C        C   77   3.008   2.628   2.915
    1C        C   78   3.206   2.544   3.036
    1C        C   79   3.076   2.600   3.036
    1C        C   80   3.273   2.521   3.158
    1C        C   81   3.205   2.540   3.281
    1C        C   82   3.414   2.506   3.405
    1C        C   83   3.274   2.523   3.403
    1C        C   84   3.483   2.492   3.527
    1C        C   85   3.413   2.501   3.649
    1C        C   86   3.624   2.495   3.770
    1C        C   87   3.483   2.494   3.772
    1C        C   88   3.694   2.505   3.893
    1C        C   89   3.620   2.504   4.014
    1C        C   90   3.828   2.557   4.134
    1C        C   91   3.693   2.517   4.134
    1C        C   92   3.897   2.578   4.255
    1C        C   93   3.831   2.542   4.375
    1C        C   94   4.021   2.634   4.501
    1C        C   95   3.897   2.566   4.497
    1C        C   96   4.087   2.672   4.620
    1C        C   97   4.030   2.627   4.742
    1C        C   98   4.185   2.766   4.858
    1C        C   99   4.097   2.653   4.865
    1C        C  100   4.209   2.841   4.974
    1C        C  101   2.822   2.726   2.070
    1C        C  102   2.989   2.586   2.187
    1C        C  103   2.875   2.673   2.188
    1C        C  104   3.061   2.569   2.309
    1C        C  105   3.004   2.618   2.428
    1C        C  106   3.201   2.529   2.549
    1C        C  107   3.071   2.585   2.548
    1C        C  108   3.266   2.511   2.673
    1C        C  109   3.198   2.535   2.795
    1C        C  110   3.410   2.489   2.914
    1C        C  111   3.271   2.514   2.914
    1C        C  112   3.480   2.489   3.036
    1C        C  113   3.412   2.497   3.159
    1C        C  114   3.624   2.494   3.278
    1C        C  115   3.482   2.495   3.282
    1C        C  116   3.693   2.502   3.400
    1C        C  117   3.624   2.496   3.524
    1C        C  118   3.828   2.543   3.644
    1C        C  119   3.693   2.502   3.647
    1C        C  120   3.894   2.571   3.766
    1C        C  121   3.828   2.548   3.889
    1C        C  122   4.022   2.639   4.009
    1C        C  123   3.895   2.577   4.011
    1C        C  124   4.080   2.674   4.133
    1C        C  125   4.024   2.639   4.258
    1C        C  126   4.189   2.769   4.375
    1C        C  127   4.083   2.675   4.381
    1C        C  128   4.234   2.826   4.497
    1C        C  129   4.192   2.765   4.617
    1C        C  130   4.327   2.932   4.737
    1C        C  131   4.243   2.816   4.739
    1C        C  132   4.348   3.002   4.858
    1C        C  133   4.276   2.963   4.971
    1C        C  134   3.171   2.457   2.082
    1C        C  135   3.038   2.502   2.083
    1C        C  136   3.260   2.477   2.188
    1C        C  137   3.194   2.520   2.306
    1C        C  138   3.403   2.477   2.427
    1C        C  139   3.264   2.498   2.427
    1C        C  140   3.479   2.473   2.546
    1C        C  141   3.405   2.485   2.666
    1C        C  142   3.616   2.493   2.789
    1C        C  143   3.475   2.482   2.789
    1C        C  144   3.690   2.497   2.909
    1C        C  145   3.622   2.487   3.032
    1C        C  146   3.827   2.542   3.153
    1C        C  147   3.692   2.499   3.154
    1C        C  148   3.893   2.566   3.276
    1C        C  149   3.830   2.540   3.399
    1C        C  150   4.022   2.628   3.522
    1C        C  151   3.895   2.567   3.522
    1C        C  152   4.081   2.668   3.644
    1C        C  153   4.021   2.632   3.767
    1C        C  154   4.190   2.767   3.888
    1C        C  155   4.081   2.676   3.887
    1C        C  156   4.242   2.814   4.011
    1C        C  157   4.187   2.766   4.132
    1C        C  158   4.336   2.920   4.249
    1C        C  159   4.242   2.814   4.253
    1C        C  160   4.373   2.983   4.370
    1C        C  161   4.327   2.932   4.494
    1C        C  162   4.438   3.114   4.615
    1C        C  163   4.368   2.991   4.616
    1C        C  164   4.465   3.182   4.736
    1C        C  165   4.423   3.121   4.856
    1C        C  166   4.509   3.320   4.976
    1C        C  167   4.469   3.187   4.971
    1C        C  168   3.476   2.429   2.071
    1C        C  169   3.399   2.454   2.185
    1C        C  170   3.614   2.464   2.305
    1C        C  171   3.472   2.457   2.305
    1C        C  172   3.690   2.489   2.421
    1C        C  173   3.620   2.482   2.544
    1C        C  174   3.822   2.539   2.664
    1C        C  175   3.687   2.499   2.667
    1C        C  176   3.889   2.564   2.787
    1C        C  177   3.825   2.538   2.910
    1C        C  178   4.022   2.622   3.031
    1C        C  179   3.895   2.560   3.031
    1C        C  180   4.083   2.660   3.152
    1C        C  181   4.023   2.622   3.274
    1C        C  182   4.187   2.753   3.397
    1C        C  183   4.081   2.660   3.397
    1C        C  184   4.235   2.809   3.518
    1C        C  185   4.189   2.759   3.642
    1C        C  186   4.330   2.919   3.761
    1C        C  187   4.239   2.811   3.763
    1C        C  188   4.375   2.975   3.883
    1C        C  189   4.334   2.921   4.007
    1C        C  190   4.435   3.110   4.128
    1C        C  191   4.371   2.984   4.128
    1C        C  192   4.460   3.175   4.251
    1C        C  193   4.434   3.110   4.373
    1C        C  194   4.504   3.315   4.491
    1C        C  195   4.463   3.180   4.493
    1C        C  196   4.522   3.385   4.612
    1C        C  197   4.509   3.317   4.735
    1C        C  198   4.552   3.531   4.851
    1C        C  199   4.530   3.390   4.856
    1C        C  200   4.584   3.615   4.962
    1C        C  201   3.616   2.415   2.071
    1C        C  202   3.824   2.512   2.182
    1C        C  203   3.690   2.462   2.184
    1C        C  204   3.898   2.538   2.300
    1C        C  205   3.827   2.524   2.422
    1C        C  206   4.020   2.616   2.542
    1C        C  207   3.893   2.555   2.543
    1C        C  208   4.076   2.659   2.664
    1C        C  209   4.014   2.629   2.788
    1C        C  210   4.195   2.744   2.907
    1C        C  211   4.080   2.660   2.908
    1C        C  212   4.247   2.792   3.029
    1C        C  213   4.198   2.743   3.152
    1C        C  214   4.327   2.910   3.271
    1C        C  215   4.243   2.797   3.275
    1C        C  216   4.365   2.971   3.393
    1C        C  217   4.326   2.917   3.518
    1C        C  218   4.437   3.100   3.640
    1C        C  219   4.372   2.974   3.638
    1C        C  220   4.458   3.169   3.761
    1C        C  221   4.436   3.102   3.884
    1C        C  222   4.503   3.307   4.001
    1C        C  223   4.464   3.171   4.004
    1C        C  224   4.515   3.377   4.123
    1C        C  225   4.508   3.308   4.247
    1C        C  226   4.523   3.522   4.367
    1C        C  227   4.520   3.381   4.367
    1C        C  228   4.520   3.596   4.487
    1C        C  229   4.528   3.526   4.610
    1C        C  230   4.499   3.740   4.725
    1C        C  231   4.534   3.602   4.729
    1C        C  232   4.492   3.813   4.846
    1C        C  233   4.538   3.748   4.961
    1C        C  234   4.016   2.610   2.063
    1C        C  235   3.897   2.539   2.065
    1C        C  236   4.080   2.650   2.181
    1C        C  237   4.023   2.605   2.302
    1C        C  238   4.197   2.736   2.418
    1C        C  239   4.088   2.645   2.421
    1C        C  240   4.245   2.786   2.541
    1C        C  241   4.194   2.737   2.663
    1C        C  242   4.329   2.902   2.785
    1C        C  243   4.249   2.786   2.784
    1C        C  244   4.375   2.961   2.904
    1C        C  245   4.331   2.906   3.026
    1C        C  246   4.430   3.094   3.146
    1C        C  247   4.367   2.968   3.148
    1C        C  248   4.451   3.160   3.269
    1C        C  249   4.420   3.101   3.394
    1C        C  250   4.495   3.299   3.510
    1C        C  251   4.455   3.164   3.515
    1C        C  252   4.507   3.371   3.632
    1C        C  253   4.495   3.305   3.757
    1C        C  254   4.526   3.516   3.877
    1C        C  255   4.515   3.375   3.878
    1C        C  256   4.523   3.587   3.999
    1C        C  257   4.518   3.518   4.122
    1C        C  258   4.489   3.730   4.239
    1C        C  259   4.513   3.591   4.243
    1C        C  260   4.471   3.801   4.359
    1C        C  261   4.484   3.732   4.482
    1C        C  262   4.425   3.938   4.602
    1C        C  263   4.469   3.804   4.603
    1C        C  264   4.404   4.007   4.723
    1C        C  265   4.440   3.944   4.844
    1C        C  266   4.315   4.124   4.953
    1C        C  267   4.390   4.008   4.958
    1C        C  268   4.261   2.772   2.059
    1C        C  269   4.197   2.728   2.176
    1C        C  270   4.347   2.885   2.299
    1C        C  271   4.256   2.775   2.296
    1C        C  272   4.378   2.954   2.419
    1C        C  273   4.336   2.894   2.540
    1C        C  274   4.440   3.080   2.660
    1C        C  275   4.368   2.959   2.661
    1C        C  276   4.471   3.147   2.781
    1C        C  277   4.445   3.084   2.905
    1C        C  278   4.503   3.292   3.022
    1C        C  279   4.468   3.156   3.025
    1C        C  280   4.507   3.363   3.144
    1C        C  281   4.494   3.295   3.267
    1C        C  282   4.513   3.509   3.389
    1C        C  283   4.510   3.368   3.387
    1C        C  284   4.518   3.581   3.510
    1C        C  285   4.520   3.511   3.633
    1C        C  286   4.493   3.723   3.751
    1C        C  287   4.522   3.585   3.754
    1C        C  288   4.474   3.791   3.874
    1C        C  289   4.498   3.726   3.996
    1C        C  290   4.433   3.932   4.115
    1C        C  291   4.478   3.798   4.116
    1C        C  292   4.399   3.996   4.236
    1C        C  293   4.427   3.935   4.361
    1C        C  294   4.328   4.127   4.475
    1C        C  295   4.399   4.005   4.480
    1C        C  296   4.286   4.185   4.597
    1C        C  297   4.329   4.128   4.719
    1C        C  298   4.198   4.309   4.837
    1C        C  299   4.287   4.196   4.836
    1C        C  300   4.169   4.404   4.940
    1C        C  301   4.344   2.884   2.062
    1C        C  302   4.462   3.069   2.172
    1C        C  303   4.393   2.944   2.178
    1C        C  304   4.474   3.142   2.294
    1C        C  305   4.442   3.079   2.416
    1C        C  306   4.505   3.282   2.535
    1C        C  307   4.471   3.145   2.538
    1C        C  308   4.514   3.355   2.655
    1C        C  309   4.506   3.284   2.776
    1C        C  310   4.521   3.498   2.898
    1C        C  311   4.518   3.356   2.897
    1C        C  312   4.517   3.571   3.019
    1C        C  313   4.521   3.504   3.143
    1C        C  314   4.493   3.715   3.264
    1C        C  315   4.514   3.576   3.264
    1C        C  316   4.475   3.786   3.385
    1C        C  317   4.497   3.720   3.508
    1C        C  318   4.423   3.922   3.628
    1C        C  319   4.478   3.792   3.629
    1C        C  320   4.390   3.985   3.749
    1C        C  321   4.418   3.921   3.872
    1C        C  322   4.321   4.112   3.989
    1C        C  323   4.393   3.990   3.993
    1C        C  324   4.274   4.165   4.111
    1C        C  325   4.321   4.114   4.234
    1C        C  326   4.191   4.287   4.352
    1C        C  327   4.288   4.185   4.352
    1C        C  328   4.140   4.339   4.473
    1C        C  329   4.194   4.292   4.595
    1C        C  330   4.024   4.429   4.713
    1C        C  331   4.137   4.344   4.713
    1C        C  332   3.969   4.489   4.829
    1C        C  333   4.053   4.482   4.941
    1C        C  334   4.548   3.269   2.060
    1C        C  335   4.534   3.130   2.064
    1C        C  336   4.534   3.349   2.175
    1C        C  337   4.509   3.280   2.295
    1C        C  338   4.527   3.495   2.412
    1C        C  339   4.520   3.354   2.414
    1C        C  340   4.523   3.567   2.533
    1C        C  341   4.524   3.496   2.656
    1C        C  342   4.496   3.708   2.774
    1C        C  343   4.520   3.569   2.777
    1C        C  344   4.476   3.778   2.895
    1C        C  345   4.491   3.710   3.018
    1C        C  346   4.422   3.911   3.134
    1C        C  347   4.474   3.780   3.140
    1C        C  348   4.390   3.976   3.255
    1C        C  349   4.422   3.917   3.380
    1C        C  350   4.317   4.099   3.504
    1C        C  351   4.392   3.980   3.503
    1C        C  352   4.272   4.161   3.623
    1C        C  353   4.311   4.102   3.746
    1C        C  354   4.180   4.270   3.864
    1C        C  355   4.273   4.164   3.867
    1C        C  356   4.121   4.311   3.986
    1C        C  357   4.174   4.265   4.108
    1C        C  358   4.009   4.397   4.230
    1C        C  359   4.126   4.318   4.230
    1C        C  360   3.951   4.441   4.351
    1C        C  361   4.021   4.416   4.471
    1C        C  362   3.827   4.507   4.594
    1C        C  363   3.959   4.458   4.591
    1C        C  364   3.760   4.548   4.711
    1C        C  365   3.839   4.545   4.828
    1C        C  366   3.625   4.586   4.947
    1C        C  367   3.763   4.573   4.942
    1C        C  368   4.509   3.565   2.056
    1C        C  369   4.522   3.489   2.173
    1C        C  370   4.498   3.707   2.287
    1C        C  371   4.519   3.567   2.291
    1C        C  372   4.487   3.777   2.409
    1C        C  373   4.502   3.707   2.530
    1C        C  374   4.422   3.905   2.647
    1C        C  375   4.480   3.777   2.651
    1C        C  376   4.394   3.972   2.768
    1C        C  377   4.432   3.912   2.891
    1C        C  378   4.316   4.093   3.011
    1C        C  379   4.397   3.977   3.012
    1C        C  380   4.271   4.148   3.132
    1C        C  381   4.309   4.092   3.256
    1C        C  382   4.173   4.251   3.378
    1C        C  383   4.271   4.149   3.380
    1C        C  384   4.120   4.304   3.497
    1C        C  385   4.172   4.261   3.621
    1C        C  386   4.004   4.390   3.742
    1C        C  387   4.123   4.314   3.742
    1C        C  388   3.940   4.423   3.863
    1C        C  389   4.001   4.386   3.985
    1C        C  390   3.815   4.482   4.109
    1C        C  391   3.945   4.426   4.108
    1C        C  392   3.750   4.511   4.231
    1C        C  393   3.822   4.500   4.351
    1C        C  394   3.616   4.548   4.474
    1C        C  395   3.756   4.524   4.473
    1C        C  396   3.545   4.563   4.594
    1C        C  397   3.620   4.564   4.714
    1C        C  398   3.406   4.544   4.836
    1C        C  399   3.545   4.565   4.834
    1C        C  400   3.338   4.515   4.955
    1C        C  401   4.495   3.704   2.051
    1C        C  402   4.449   3.917   2.168
    1C        C  403   4.489   3.782   2.167
    1C        C  404   4.415   3.980   2.289
    1C        C  405   4.441   3.911   2.410
    1C        C  406   4.316   4.091   2.524
    1C        C  407   4.400   3.977   2.527
    1C        C  408   4.274   4.148   2.646
    1C        C  409   4.317   4.090   2.767
    1C        C  410   4.168   4.243   2.889
    1C        C  411   4.273   4.148   2.888
    1C        C  412   4.116   4.293   3.011
    1C        C  413   4.172   4.249   3.133
    1C        C  414   4.000   4.372   3.254
    1C        C  415   4.119   4.296   3.255
    1C        C  416   3.936   4.407   3.375
    1C        C  417   4.001   4.381   3.497
    1C        C  418   3.811   4.476   3.617
    1C        C  419   3.940   4.418   3.619
    1C        C  420   3.747   4.501   3.740
    1C        C  421   3.811   4.481   3.865
    1C        C  422   3.607   4.533   3.985
    1C        C  423   3.746   4.505   3.988
    1C        C  424   3.540   4.542   4.109
    1C        C  425   3.612   4.542   4.231
    1C        C  426   3.401   4.543   4.353
    1C        C  427   3.542   4.551   4.353
    1C        C  428   3.331   4.545   4.475
    1C        C  429   3.404   4.557   4.596
    1C        C  430   3.191   4.518   4.719
    1C        C  431   3.331   4.545   4.716
    1C        C  432   3.122   4.493   4.841
    1C        C  433   3.200   4.497   4.957
    1C        C  434   4.379   4.122   2.053
    1C        C  435   4.445   3.998   2.054
    1C        C  436   4.297   4.160   2.164
    1C        C  437   4.333   4.096   2.286
    1C        C  438   4.176   4.251   2.402
    1C        C  439   4.275   4.151   2.403
    1C        C  440   4.123   4.302   2.522
    1C        C  441   4.176   4.250   2.642
    1C        C  442   4.004   4.371   2.765
    1C        C  443   4.120   4.291   2.766
    1C        C  444   3.940   4.409   2.885
    1C        C  445   4.001   4.375   3.008
    1C        C  446   3.815   4.473   3.130
    1C        C  447   3.943   4.413   3.131
    1C        C  448   3.744   4.492   3.251
    1C        C  449   3.809   4.469   3.375
    1C        C  450   3.602   4.521   3.496
    1C        C  451   3.742   4.500   3.496
    1C        C  452   3.538   4.539   3.621
    1C        C  453   3.611   4.538   3.742
    1C        C  454   3.396   4.540   3.861
    1C        C  455   3.538   4.545   3.862
    1C        C  456   3.330   4.532   3.986
    1C        C  457   3.399   4.538   4.109
    1C        C  458   3.190   4.507   4.234
    1C        C  459   3.330   4.531   4.232
    1C        C  460   3.122   4.489   4.357
    1C        C  461   3.193   4.515   4.476
    1C        C  462   2.996   4.432   4.602
    1C        C  463   3.123   4.493   4.598
    1C        C  464   2.928   4.400   4.721
    1C        C  465   2.987   4.445   4.842
    1C        C  466   2.799   4.336   4.962
    1C        C  467   2.903   4.430   4.957
    1C        C  468   4.119   4.280   2.040
    1C        C  469   4.180   4.242   2.160
    1C        C  470   4.006   4.377   2.276
    1C        C  471   4.120   4.292   2.279
    1C        C  472   3.940   4.407   2.397
    1C        C  473   4.005   4.380   2.519
    1C        C  474   3.810   4.458   2.643
    1C        C  475   3.942   4.407   2.643
    1C        C  476   3.742   4.491   2.762
    1C        C  477   3.813   4.471   2.883
    1C        C  478   3.608   4.511   3.008
    1C        C  479   3.747   4.486   3.007
    1C        C  480   3.535   4.528   3.128
    1C        C  481   3.606   4.518   3.250
    1C        C  482   3.393   4.528   3.374
    1C        C  483   3.535   4.523   3.372
    1C        C  484   3.324   4.530   3.497
    1C        C  485   3.397   4.540   3.617
    1C        C  486   3.188   4.501   3.744
    1C        C  487   3.326   4.535   3.739
    1C        C  488   3.126   4.479   3.868
    1C        C  489   3.192   4.500   3.991
    1C        C  490   2.998   4.416   4.115
    1C        C  491   3.123   4.482   4.113
    1C        C  492   2.936   4.387   4.239
    1C        C  493   2.995   4.427   4.361
    1C        C  494   2.826   4.298   4.480
    1C        C  495   2.934   4.389   4.482
    1C        C  496   2.774   4.253   4.603
    1C        C  497   2.815   4.313   4.724
    1C        C  498   2.670   4.161   4.845
    1C        C  499   2.752   4.276   4.845
    1C        C  500   2.590   4.119   4.952
    1C        C  501   4.005   4.360   2.037
    1C        C  502   3.817   4.469   2.152
    1C        C  503   3.945   4.410   2.153
    1C        C  504   3.746   4.484   2.273
    1C        C  505   3.808   4.459   2.398
    1C        C  506   3.603   4.504   2.518
    1C        C  507   3.742   4.480   2.521
    1C        C  508   3.532   4.517   2.640
    1C        C  509   3.603   4.516   2.762
    1C        C  510   3.395   4.525   2.883
    1C        C  511   3.537   4.519   2.887
    1C        C  512   3.322   4.522   3.004
    1C        C  513   3.394   4.530   3.125
    1C        C  514   3.190   4.490   3.252
    1C        C  515   3.327   4.526   3.250
    1C        C  516   3.121   4.470   3.373
    1C        C  517   3.185   4.501   3.495
    1C        C  518   2.996   4.416   3.624
    1C        C  519   3.123   4.479   3.620
    1C        C  520   2.937   4.378   3.746
    1C        C  521   3.000   4.415   3.868
    1C        C  522   2.835   4.286   3.996
    1C        C  523   2.942   4.378   3.991
    1C        C  524   2.783   4.235   4.117
    1C        C  525   2.836   4.287   4.237
    1C        C  526   2.691   4.133   4.363
    1C        C  527   2.779   4.244   4.359
    1C        C  528   2.653   4.074   4.485
    1C        C  529   2.685   4.143   4.604
    1C        C  530   2.585   3.959   4.732
    1C        C  531   2.642   4.089   4.727
    1C        C  532   2.540   3.902   4.854
    1C        C  533   2.528   3.993   4.963
    1C        C  534   3.617   4.559   2.038
    1C        C  535   3.750   4.514   2.037
    1C        C  536   3.537   4.529   2.153
    1C        C  537   3.607   4.510   2.275
    1C        C  538   3.392   4.518   2.398
    1C        C  539   3.534   4.516   2.396
    1C        C  540   3.322   4.518   2.520
    1C        C  541   3.391   4.520   2.643
    1C        C  542   3.181   4.482   2.761
    1C        C  543   3.319   4.512   2.765
    1C        C  544   3.117   4.466   2.886
    1C        C  545   3.185   4.490   3.008
    1C        C  546   2.994   4.404   3.134
    1C        C  547   3.119   4.471   3.131
    1C        C  548   2.937   4.365   3.257
    1C        C  549   2.997   4.403   3.380
    1C        C  550   2.834   4.274   3.505
    1C        C  551   2.938   4.369   3.504
    1C        C  552   2.783   4.229   3.629
    1C        C  553   2.834   4.282   3.750
    1C        C  554   2.704   4.118   3.875
    1C        C  555   2.788   4.232   3.874
    1C        C  556   2.664   4.060   3.997
    1C        C  557   2.700   4.121   4.119
    1C        C  558   2.599   3.938   4.244
    1C        C  559   2.659   4.066   4.243
    1C        C  560   2.572   3.876   4.368
    1C        C  561   2.591   3.947   4.489
    1C        C  562   2.529   3.748   4.611
    1C        C  563   2.563   3.885   4.613
    1C        C  564   2.509   3.682   4.734
    1C        C  565   2.516   3.761   4.853
    1C        C  566   2.526   3.548   4.976
    1C        C  567   2.520   3.687   4.972
    1C        C  568   3.328   4.474   2.040
    1C        C  569   3.396   4.511   2.157
    1C        C  570   3.182   4.472   2.277
    1C        C  571   3.321   4.505   2.277
    1C        C  572   3.115   4.454   2.400
    1C        C  573   3.185   4.483   2.519
    1C        C  574   2.988   4.396   2.647
    1C        C  575   3.114   4.459   2.639
    1C        C  576   2.932   4.357   2.771
    1C        C  577   2.989   4.407   2.890
    1C        C  578   2.825   4.274   3.013
    1C        C  579   2.933   4.364   3.013
    1C        C  580   2.779   4.220   3.135
    1C        C  581   2.831   4.272   3.256
    1C        C  582   2.700   4.113   3.385
    1C        C  583   2.788   4.223   3.382
    1C        C  584   2.660   4.055   3.508
    1C        C  585   2.695   4.118   3.629
    1C        C  586   2.601   3.932   3.752
    1C        C  587   2.662   4.060   3.753
    1C        C  588   2.574   3.871   3.876
    1C        C  589   2.595   3.936   3.999
    1C        C  590   2.534   3.735   4.125
    1C        C  591   2.573   3.871   4.123
    1C        C  592   2.521   3.668   4.249
    1C        C  593   2.534   3.740   4.370
    1C        C  594   2.505   3.532   4.496
    1C        C  595   2.517   3.673   4.492
    1C        C  596   2.511   3.464   4.619
    1C        C  597   2.508   3.540   4.738
    1C        C  598   2.530   3.329   4.861
    1C        C  599   2.520   3.469   4.860
    1C        C  600   2.532   3.250   4.977
    1C        C  601   3.196   4.434   2.040
    1C        C  602   2.982   4.391   2.155
    1C        C  603   3.117   4.440   2.155
    1C        C  604   2.924   4.355   2.280
    1C        C  605   2.989   4.390   2.400
    1C        C  606   2.817   4.274   2.526
    1C        C  607   2.928   4.361   2.524
    1C        C  608   2.770   4.220   2.648
    1C        C  609   2.823   4.268   2.770
    1C        C  610   2.690   4.105   2.895
    1C        C  611   2.777   4.216   2.893
    1C        C  612   2.649   4.052   3.019
    1C        C  613   2.692   4.109   3.141
    1C        C  614   2.594   3.924   3.265
    1C        C  615   2.659   4.049   3.265
    1C        C  616   2.573   3.861   3.390
    1C        C  617   2.600   3.927   3.512
    1C        C  618   2.526   3.728   3.638
    1C        C  619   2.566   3.864   3.633
    1C        C  620   2.512   3.661   3.761
    1C        C  621   2.533   3.735   3.879
    1C        C  622   2.503   3.527   4.008
    1C        C  623   2.517   3.668   4.002
    1C        C  624   2.509   3.457   4.130
    1C        C  625   2.506   3.527   4.253
    1C        C  626   2.529   3.319   4.378
    1C        C  627   2.503   3.458   4.376
    1C        C  628   2.553   3.252   4.500
    1C        C  629   2.529   3.324   4.619
    1C        C  630   2.596   3.122   4.743
    1C        C  631   2.549   3.256   4.742
    1C        C  632   2.618   3.052   4.865
    1C        C  633   2.562   3.114   4.981
    1C        C  634   2.776   4.304   2.053
    1C        C  635   2.893   4.380   2.044
    1C        C  636   2.746   4.226   2.166
    1C        C  637   2.810   4.270   2.284
    1C        C  638   2.676   4.109   2.408
    1C        C  639   2.759   4.223   2.407
    1C        C  640   2.641   4.047   2.530
    1C        C  641   2.686   4.106   2.651
    1C        C  642   2.590   3.918   2.774
    1C        C  643   2.648   4.047   2.773
    1C        C  644   2.563   3.858   2.899
    1C        C  645   2.586   3.926   3.020
    1C        C  646   2.533   3.722   3.147
    1C        C  647   2.564   3.860   3.143
    1C        C  648   2.519   3.656   3.271
    1C        C  649   2.526   3.727   3.392
    1C        C  650   2.515   3.517   3.517
    1C        C  651   2.519   3.658   3.515
    1C        C  652   2.516   3.450   3.642
    1C        C  653   2.505   3.519   3.764
    1C        C  654   2.531   3.314   3.888
    1C        C  655   2.502   3.452   3.888
    1C        C  656   2.554   3.248   4.011
    1C        C  657   2.533   3.318   4.132
    1C        C  658   2.601   3.120   4.259
    1C        C  659   2.544   3.250   4.256
    1C        C  660   2.636   3.056   4.380
    1C        C  661   2.602   3.120   4.501
    1C        C  662   2.716   2.943   4.626
    1C        C  663   2.630   3.054   4.623
    1C        C  664   2.749   2.877   4.746
    1C        C  665   2.695   2.931   4.866
    1C        C  666   2.745   2.874   4.984
    1C        C  667   2.680   4.023   2.052
    1C        C  668   2.678   4.103   2.168
    1C        C  669   2.581   3.913   2.292
    1C        C  670   2.638   4.043   2.289
    1C        C  671   2.548   3.849   2.414
    1C        C  672   2.582   3.919   2.531
    1C        C  673   2.518   3.716   2.658
    1C        C  674   2.558   3.852   2.653
    1C        C  675   2.505   3.648   2.781
    1C        C  676   2.523   3.722   2.901
    1C        C  677   2.505   3.513   3.028
    1C        C  678   2.514   3.654   3.024
    1C        C  679   2.504   3.443   3.151
    1C        C  680   2.506   3.515   3.272
    1C        C  681   2.530   3.306   3.397
    1C        C  682   2.507   3.446   3.395
    1C        C  683   2.553   3.240   3.520
    1C        C  684   2.535   3.311   3.641
    1C        C  685   2.605   3.115   3.768
    1C        C  686   2.554   3.247   3.766
    1C        C  687   2.636   3.051   3.890
    1C        C  688   2.603   3.116   4.012
    1C        C  689   2.710   2.939   4.140
    1C        C  690   2.631   3.056   4.137
    1C        C  691   2.757   2.882   4.260
    1C        C  692   2.715   2.938   4.383
    1C        C  693   2.757   2.882   4.505
    1C        C  694   2.621   3.896   2.055
    1C        C  695   2.530   3.704   2.176
    1C        C  696   2.575   3.837   2.174
    1C        C  697   2.506   3.635   2.298
    1C        C  698   2.510   3.713   2.415
    1C        C  699   2.486   3.503   2.542
    1C        C  700   2.501   3.644   2.538
    1C        C  701   2.499   3.435   2.665
    1C        C  702   2.502   3.507   2.786
    1C        C  703   2.531   3.299   2.908
    1C        C  704   2.504   3.438   2.909
    1C        C  705   2.553   3.235   3.032
    1C        C  706   2.535   3.305   3.153
    1C        C  707   2.601   3.106   3.277
    1C        C  708   2.547   3.237   3.276
    1C        C  709   2.638   3.046   3.400
    1C        C  710   2.609   3.111   3.522
    1C        C  711   2.723   2.937   3.648
    1C        C  712   2.640   3.051   3.647
    1C        C  713   2.763   2.880   3.771
    1C        C  714   2.721   2.938   3.893
    1C        C  715   2.758   2.885   4.018
    1C        C  716   2.458   3.498   2.061
    1C        C  717   2.492   3.634   2.061
    1C        C  718   2.466   3.419   2.180
    1C        C  719   2.488   3.494   2.299
    1C        C  720   2.516   3.288   2.421
    1C        C  721   2.491   3.427   2.423
    1C        C  722   2.540   3.223   2.544
    1C        C  723   2.529   3.297   2.664
    1C        C  724   2.595   3.096   2.788
    1C        C  725   2.545   3.228   2.787
    1C        C  726   2.627   3.035   2.911
    1C        C  727   2.600   3.101   3.033
    1C        C  728   2.712   2.923   3.155
    1C        C  729   2.636   3.042   3.156
    1C        C  730   2.753   2.870   3.280
    1C        C  731   2.713   2.927   3.403
    1C        C  732   2.762   2.878   3.526
    1C        C  733   2.483   3.195   2.070
    1C        C  734   2.488   3.278   2.183
    1C        C  735   2.589   3.084   2.302
    1C        C  736   2.532   3.214   2.302
    1C        C  737   2.618   3.020   2.425
    1C        C  738   2.589   3.090   2.544
    1C        C  739   2.699   2.910   2.669
    1C        C  740   2.627   3.032   2.667
    1C        C  741   2.739   2.850   2.791
    1C        C  742   2.699   2.914   2.911
    1C        C  743   2.752   2.865   3.033
    1C        C  744   2.542   3.069   2.071
    1C        C  745   2.690   2.898   2.182
    1C        C  746   2.613   3.017   2.180
    1C        C  747   2.734   2.842   2.303
    1C        C  748   2.690   2.899   2.425
    1C        C  749   2.739   2.849   2.548
    1C        C  750   2.741   2.839   2.066
    1C        C  751   3.661   2.307   1.981
    1C        O  752   3.638   2.186   2.011
    1C        O  753   3.672   2.321   1.842
    1C        C  754   4.644   3.058   1.995
    1C        O  755   4.649   3.040   1.870
    1C        O  756   4.732   2.973   2.063
    1C        C  757   4.433   4.209   1.946
    1C        O  758   4.549   4.259   1.946
    1C        O  759   4.357   4.228   1.830
    1C        C  760   3.595   4.684   1.963
    1C        O  761   3.527   4.775   2.018
    1C        O  762   3.691   4.751   1.887
    1C        C  763   2.904   4.458   1.918
    1C        O  764   2.924   4.394   1.812
    1C        O  765   2.831   4.577   1.904
    1C        C  766   2.345   3.475   1.969
    1C        O  767   2.358   3.458   1.845
    1C        O  768   2.213   3.514   1.994
    1C        C  769   4.695   3.576   5.053
    1C        O  770   4.681   3.569   5.178
    1C        O  771   4.827   3.602   5.015
    1C        C  772   4.279   4.476   5.008
    1C        O  773   4.315   4.433   5.121
    1C        O  774   4.365   4.560   4.936
    1C        C  775   4.137   2.521   5.079
    1C        O  776   4.178   2.406   5.049
    1C        O  777   4.113   2.524   5.217
    1C        C  778   2.900   4.539   5.056
    1C        O  779   2.846   4.650   5.031
    1C        O  780   2.888   4.495   5.189
    1C        C  781   2.472   3.051   5.080
    1C        O  782   2.371   2.984   5.047
    1C        O  783   2.526   3.027   5.206
    1C        C  784   2.408   3.979   5.048
    1C        O  785   2.293   3.997   5.000
    1C        O  786   2.428   3.934   5.179
    1C        C  787   2.941   2.416   2.012
    1C        O  788   2.947   2.427   1.887
    1C        O  789   2.884   2.303   2.068
    1C        C  790   3.150   2.362   5.050
    1C        O  791   3.129   2.250   4.996
    1C        O  792   3.218   2.355   5.172
    1C        H  793   4.294   3.010   5.066
    1C        H  794   4.158   2.830   5.067
    1C        H  795   4.486   3.124   5.056
    1C        H  796   4.571   3.357   5.054
    1C        H  797   4.515   3.791   5.057
    1C        H  798   4.450   4.005   5.047
    1C        H  799   4.322   4.183   5.042
    1C        H  800   4.026   4.522   5.036
    1C        H  801   3.814   4.606   5.031
    1C        H  802   3.586   4.664   5.008
    1C        H  803   3.386   4.499   5.050
    1C        H  804   3.151   4.512   5.051
    1C        H  805   3.893   2.462   5.055
    1C        H  806   3.665   2.529   5.064
    1C        H  807   3.019   2.577   5.073
    1C        H  808   3.433   2.435   5.068
    1C        H  809   2.882   2.738   5.076
    1C        H  810   2.691   2.888   5.075
    1C        H  811   2.477   3.295   5.057
    1C        H  812   2.508   3.509   5.074
    1C        H  813   2.523   3.737   5.066
    1C        H  814   2.534   4.199   4.996
    1C        H  815   2.737   4.322   5.049
    1C        H  816   2.732   2.896   1.975
    1C        H  817   2.877   2.705   1.980
    1C        H  818   3.207   2.391   2.005
    1C        H  819   3.427   2.422   1.976
    1C        H  820   3.872   2.480   1.979
    1C        H  821   4.066   2.612   1.968
    1C        H  822   4.295   2.688   2.003
    1C        H  823   4.375   2.921   1.966
    1C        H  824   4.532   3.308   1.962
    1C        H  825   4.454   3.514   1.980
    1C        H  826   4.516   3.748   1.956
    1C        H  827   3.810   4.535   1.951
    1C        H  828   3.961   4.382   1.942
    1C        H  829   4.139   4.218   1.955
    1C        H  830   4.529   3.987   1.988
    1C        H  831   2.658   3.826   1.983
    1C        H  832   2.691   4.067   1.955
    1C        H  833   2.703   4.299   1.975
    1C        H  834   3.343   4.544   1.960
    1C        H  835   3.164   4.366   1.963
    1C        H  836   2.504   2.994   2.005
    1C        H  837   2.410   3.210   1.993
    1C        H  838   2.467   3.686   1.970
    2V3OU   H29  839   2.797   3.549   1.090
    2V3OU   C27  840   2.781   3.501   1.190
    2V3OU   H27  841   2.724   3.560   1.267
    2V3OU   H28  842   2.727   3.405   1.171
    2V3OU   O11  843   2.905   3.476   1.257
    2V3OU   C15  844   2.919   3.398   1.370
    2V3OU   C13  845   3.050   3.378   1.419
    2V3OU   C14  846   3.074   3.268   1.503
    2V3OU   C16  847   2.971   3.185   1.546
    2V3OU    H6  848   2.992   3.094   1.605
    2V3OU   C12  849   3.212   3.229   1.536
    2V3OU    O2  850   3.234   3.130   1.609
    2V3OU   C10  851   3.325   3.311   1.489
    2V3OU    C8  852   3.456   3.272   1.514
    2V3OU   O10  853   3.484   3.145   1.552
    2V3OU   H26  854   3.402   3.101   1.580
    2V3OU    C6  855   3.562   3.348   1.454
    2V3OU    C5  856   3.535   3.466   1.385
    2V3OU    C4  857   3.700   3.293   1.444
    2V3OU    H4  858   3.728   3.230   1.534
    2V3OU    H5  859   3.705   3.230   1.351
    2V3OU    C2  860   3.813   3.396   1.452
    2V3OU    O6  861   3.804   3.471   1.573
    2V3OU   H21  862   3.767   3.556   1.544
    2V3OU    C3  863   3.781   3.494   1.339
    2V3OU    H2  864   3.861   3.571   1.335
    2V3OU    H3  865   3.783   3.444   1.238
    2V3OU   C25  866   3.948   3.327   1.428
    2V3OU    O7  867   3.998   3.300   1.319
    2V3OU   C26  868   4.027   3.284   1.550
    2V3OU   H22  869   4.065   3.376   1.602
    2V3OU   H23  870   4.113   3.220   1.519
    2V3OU    O8  871   3.958   3.204   1.643
    2V3OU   H24  872   3.924   3.260   1.715
    2V3OU    C1  873   3.645   3.561   1.348
    2V3OU    H1  874   3.624   3.619   1.253
    2V3OU    O3  875   3.654   3.652   1.458
    2V3OU   C19  876   3.615   3.789   1.452
    2V3OU    H9  877   3.529   3.818   1.385
    2V3OU    O4  878   3.713   3.850   1.370
    2V3OU   C20  879   3.845   3.869   1.422
    2V3OU   H10  880   3.897   3.771   1.443
    2V3OU   C24  881   3.610   3.855   1.590
    2V3OU   H16  882   3.548   3.797   1.663
    2V3OU   H17  883   3.564   3.956   1.574
    2V3OU   C23  884   3.750   3.873   1.649
    2V3OU   H15  885   3.794   3.769   1.667
    2V3OU    N1  886   3.735   3.953   1.768
    2V3OU   H19  887   3.805   3.920   1.831
    2V3OU   H20  888   3.645   3.930   1.808
    2V3OU   C21  889   3.849   3.947   1.554
    2V3OU   H11  890   3.954   3.926   1.593
    2V3OU    O5  891   3.825   4.087   1.552
    2V3OU   H18  892   3.776   4.107   1.633
    2V3OU   C22  893   3.915   3.946   1.312
    2V3OU   H12  894   3.864   4.044   1.292
    2V3OU   H13  895   3.904   3.888   1.217
    2V3OU   H14  896   4.025   3.957   1.334
    2V3OU   C11  897   3.158   3.475   1.394
    2V3OU    O1  898   3.134   3.579   1.330
    2V3OU    C9  899   3.297   3.425   1.409
    2V3OU    C7  900   3.400   3.507   1.365
    2V3OU    O9  901   3.385   3.615   1.281
    2V3OU   H25  902   3.291   3.623   1.256
    2V3OU   C17  903   2.816   3.315   1.417
    2V3OU    H7  904   2.711   3.338   1.398
    2V3OU   C18  905   2.842   3.208   1.502
    2V3OU    H8  906   2.763   3.137   1.534
    3SOL     OW  907   0.881   3.387   0.939
    3SOL    HW1  908   0.960   3.418   0.887
    3SOL    HW2  909   0.798   3.399   0.884
    4SOL     OW  910   5.571   1.072   2.234
    4SOL    HW1  911   5.550   1.163   2.271
    4SOL    HW2  912   5.665   1.071   2.199
    5SOL     OW  913   3.714   3.128   1.095
    5SOL    HW1  914   3.803   3.082   1.083
    5SOL    HW2  915   3.644   3.060   1.115
    6SOL     OW  916   2.536   2.175   0.772
    6SOL    HW1  917   2.570   2.255   0.821
    6SOL    HW2  918   2.537   2.095   0.832
    7SOL     OW  919   6.074   0.930   1.703
    7SOL    HW1  920   6.036   1.022   1.694
    7SOL    HW2  921   6.112   0.919   1.795
    8SOL     OW  922   3.004   1.694   3.512
    8SOL    HW1  923   3.074   1.625   3.529
    8SOL    HW2  924   2.986   1.745   3.597
    9SOL     OW  925   0.995   3.981   6.094
    9SOL    HW1  926   0.969   3.954   6.186
    9SOL    HW2  927   1.070   3.923   6.061
   10SOL     OW  928   0.217   4.048   0.167
   10SOL    HW1  929   0.281   4.074   0.096
   10SOL    HW2  930   0.137   4.107   0.164
   11SOL     OW  931   4.138   6.128   6.953
   11SOL    HW1  932   4.109   6.173   0.017
   11SOL    HW2  933   4.125   6.190   6.876
   12SOL     OW  934   5.304   5.966   2.736
   12SOL    HW1  935   5.303   5.899   2.662
   12SOL    HW2  936   5.320   6.057   2.699
   13SOL     OW  937   2.043   0.185   3.499
   13SOL    HW1  938   2.000   0.107   3.454
   13SOL    HW2  939   2.031   0.177   3.598
   14SOL     OW  940   3.148   0.062   2.028
   14SOL    HW1  941   3.169   6.988   2.004
   14SOL    HW2  942   3.049   0.071   2.043
   15SOL     OW  943   2.117   6.688   6.300
   15SOL    HW1  944   2.076   6.779   6.313
   15SOL    HW2  945   2.065   6.638   6.231
   16SOL     OW  946   6.631   1.580   6.759
   16SOL    HW1  947   6.584   1.586   6.848
   16SOL    HW2  948   6.726   1.610   6.770
   17SOL     OW  949   4.988   6.024   3.728
   17SOL    HW1  950   5.083   6.027   3.759
   17SOL    HW2  951   4.942   6.109   3.755
   18SOL     OW  952   1.563   1.218   0.398
   18SOL    HW1  953   1.594   1.308   0.429
   18SOL    HW2  954   1.601   1.199   0.308
   19SOL     OW  955   0.670   6.888   1.632
   19SOL    HW1  956   0.746   6.953   1.640
   19SOL    HW2  957   0.703   6.801   1.598
   20SOL     OW  958   3.042   0.935   3.926
   20SOL    HW1  959   3.126   0.885   3.947
   20SOL    HW2  960   2.964   0.888   3.967
   21SOL     OW  961   2.894   2.695   1.314
   21SOL    HW1  962   2.925   2.606   1.347
   21SOL    HW2  963   2.972   2.747   1.281
   22SOL     OW  964   0.678   1.402   4.744
   22SOL    HW1  965   0.651   1.489   4.785
   22SOL    HW2  966   0.727   1.419   4.659
   23SOL     OW  967   3.438   5.809   4.252
   23SOL    HW1  968   3.344   5.837   4.233
   23SOL    HW2  969   3.502   5.868   4.202
   24SOL     OW  970   3.883   0.970   4.693
   24SOL    HW1  971   3.925   1.035   4.631
   24SOL    HW2  972   3.930   0.972   4.781
   25SOL     OW  973   2.928   4.334   1.212
   25SOL    HW1  974   2.966   4.310   1.123
   25SOL    HW2  975   2.974   4.415   1.248
   26SOL     OW  976   5.820   1.011   2.849
   26SOL    HW1  977   5.881   1.070   2.902
   26SOL    HW2  978   5.864   0.923   2.831
   27SOL     OW  979   6.249   6.216   2.069
   27SOL    HW1  980   6.177   6.149   2.088
   27SOL    HW2  981   6.267   6.218   1.970
   28SOL     OW  982   3.163   0.983   0.746
   28SOL    HW1  983   3.158   0.916   0.671
   28SOL    HW2  984   3.258   1.005   0.764
   29SOL     OW  985   4.123   2.720   1.669
   29SOL    HW1  986   4.184   2.799   1.666
   29SOL    HW2  987   4.030   2.751   1.690
   30SOL     OW  988   3.996   1.170   4.564
   30SOL    HW1  989   3.978   1.250   4.621
   30SOL    HW2  990   3.994   1.196   4.467
   31SOL     OW  991   0.431   1.296   4.756
   31SOL    HW1  992   0.427   1.258   4.848
   31SOL    HW2  993   0.519   1.341   4.742
   32SOL     OW  994   0.065   1.918   1.993
   32SOL    HW1  995   0.071   1.924   1.893
   32SOL    HW2  996   0.154   1.941   2.033
   33SOL     OW  997   1.947   2.273   5.070
   33SOL    HW1  998   1.994   2.263   5.158
   33SOL    HW2  999   1.863   2.219   5.071
   34SOL     OW 1000   0.782   0.500   4.554
   34SOL    HW1 1001   0.705   0.479   4.494
   34SOL    HW2 1002   0.750   0.504   4.649
   35SOL     OW 1003   4.187   1.677   6.321
   35SOL    HW1 1004   4.136   1.640   6.243
   35SOL    HW2 1005   4.274   1.628   6.330
   36SOL     OW 1006   1.486   1.681   5.727
   36SOL    HW1 1007   1.467   1.712   5.634
   36SOL    HW2 1008   1.549   1.746   5.771
   37SOL     OW 1009   2.161   6.513   0.742
   37SOL    HW1 1010   2.126   6.420   0.755
   37SOL    HW2 1011   2.106   6.577   0.794
   38SOL     OW 1012   0.099   6.410   1.851
   38SOL    HW1 1013   0.095   6.380   1.947
   38SOL    HW2 1014   0.195   6.413   1.822
   39SOL     OW 1015   6.835   2.853   5.834
   39SOL    HW1 1016   6.915   2.892   5.880
   39SOL    HW2 1017   6.761   2.843   5.900
   40SOL     OW 1018   6.689   0.833   1.705
   40SOL    HW1 1019   6.667   0.787   1.791
   40SOL    HW2 1020   6.781   0.806   1.676
   41SOL     OW 1021   1.544   0.604   5.740
   41SOL    HW1 1022   1.637   0.567   5.734
   41SOL    HW2 1023   1.535   0.682   5.678
   42SOL     OW 1024   4.070   0.366   0.426
   42SOL    HW1 1025   4.118   0.435   0.372
   42SOL    HW2 1026   4.025   0.301   0.364
   43SOL     OW 1027   5.299   5.641   5.221
   43SOL    HW1 1028   5.319   5.692   5.305
   43SOL    HW2 1029   5.336   5.549   5.229
   44SOL     OW 1030   0.707   3.484   6.512
   44SOL    HW1 1031   0.740   3.390   6.509
   44SOL    HW2 1032   0.641   3.498   6.437
   45SOL     OW 1033   2.668   0.469   1.665
   45SOL    HW1 1034   2.731   0.407   1.711
   45SOL    HW2 1035   2.574   0.445   1.689
   46SOL     OW 1036   1.548   4.823   3.865
   46SOL    HW1 1037   1.619   4.836   3.933
   46SOL    HW2 1038   1.463   4.795   3.909
   47SOL     OW 1039   5.594   4.358   3.000
   47SOL    HW1 1040   5.524   4.292   3.026
   47SOL    HW2 1041   5.675   4.310   2.968
   48SOL     OW 1042   0.832   1.185   5.464
   48SOL    HW1 1043   0.734   1.168   5.450
   48SOL    HW2 1044   0.883   1.153   5.384
   49SOL     OW 1045   5.534   2.480   0.598
   49SOL    HW1 1046   5.547   2.450   0.503
   49SOL    HW2 1047   5.494   2.405   0.650
   50SOL     OW 1048   6.916   3.901   4.495
   50SOL    HW1 1049   6.884   3.883   4.402
   50SOL    HW2 1050   6.844   3.875   4.560
   51SOL     OW 1051   3.034   5.732   2.539
   51SOL    HW1 1052   2.950   5.688   2.571
   51SOL    HW2 1053   3.110   5.666   2.543
   52SOL     OW 1054   1.049   1.937   1.574
   52SOL    HW1 1055   0.968   1.927   1.632
   52SOL    HW2 1056   1.032   1.896   1.484
   53SOL     OW 1057   5.018   6.313   4.361
   53SOL    HW1 1058   5.051   6.294   4.269
   53SOL    HW2 1059   4.925   6.278   4.371
   54SOL     OW 1060   4.196   5.622   6.243
   54SOL    HW1 1061   4.138   5.561   6.190
   54SOL    HW2 1062   4.287   5.583   6.251
   55SOL     OW 1063   3.985   2.302   0.269
   55SOL    HW1 1064   4.021   2.224   0.218
   55SOL    HW2 1065   3.957   2.374   0.205
   56SOL     OW 1066   0.958   6.662   1.589
   56SOL    HW1 1067   1.053   6.631   1.586
   56SOL    HW2 1068   0.900   6.590   1.626
   57SOL     OW 1069   5.865   1.172   0.707
   57SOL    HW1 1070   5.963   1.183   0.687
   57SOL    HW2 1071   5.815   1.252   0.675
   58SOL     OW 1072   0.037   6.846   6.777
   58SOL    HW1 1073   0.053   6.773   6.843
   58SOL    HW2 1074   0.124   6.881   6.744
   59SOL     OW 1075   0.809   6.992   4.943
   59SOL    HW1 1076   0.858   0.045   4.989
   59SOL    HW2 1077   0.721   0.005   4.910
   60SOL     OW 1078   4.918   6.734   5.292
   60SOL    HW1 1079   4.833   6.770   5.332
   60SOL    HW2 1080   4.962   6.805   5.237
   61SOL     OW 1081   4.004   0.498   5.111
   61SOL    HW1 1082   3.977   0.589   5.079
   61SOL    HW2 1083   3.987   0.431   5.039
   62SOL     OW 1084   2.812   1.305   4.968
   62SOL    HW1 1085   2.836   1.240   5.041
   62SOL    HW2 1086   2.885   1.373   4.960
   63SOL     OW 1087   0.072   3.537   3.299
   63SOL    HW1 1088   0.142   3.466   3.292
   63SOL    HW2 1089   7.008   3.496   3.334
   64SOL     OW 1090   6.794   2.352   5.695
   64SOL    HW1 1091   6.758   2.445   5.684
   64SOL    HW2 1092   6.718   2.287   5.689
   65SOL     OW 1093   0.073   3.726   5.972
   65SOL    HW1 1094   0.018   3.646   5.952
   65SOL    HW2 1095   0.124   3.753   5.890
   66SOL     OW 1096   2.729   1.337   0.848
   66SOL    HW1 1097   2.642   1.348   0.801
   66SOL    HW2 1098   2.720   1.371   0.942
   67SOL     OW 1099   4.730   5.745   4.163
   67SOL    HW1 1100   4.822   5.730   4.126
   67SOL    HW2 1101   4.733   5.818   4.231
   68SOL     OW 1102   5.593   2.843   6.606
   68SOL    HW1 1103   5.589   2.757   6.655
   68SOL    HW2 1104   5.508   2.856   6.555
   69SOL     OW 1105   2.289   2.923   6.176
   69SOL    HW1 1106   2.319   2.976   6.096
   69SOL    HW2 1107   2.356   2.935   6.250
   70SOL     OW 1108   6.686   5.588   1.742
   70SOL    HW1 1109   6.627   5.524   1.693
   70SOL    HW2 1110   6.659   5.592   1.838
   71SOL     OW 1111   2.033   3.021   3.022
   71SOL    HW1 1112   1.947   3.069   3.007
   71SOL    HW2 1113   2.103   3.085   3.055
   72SOL     OW 1114   2.954   5.577   4.042
   72SOL    HW1 1115   2.953   5.541   4.135
   72SOL    HW2 1116   3.041   5.555   3.998
   73SOL     OW 1117   4.153   2.302   6.556
   73SOL    HW1 1118   4.149   2.349   6.644
   73SOL    HW2 1119   4.248   2.292   6.528
   74SOL     OW 1120   5.202   6.073   6.245
   74SOL    HW1 1121   5.281   6.106   6.297
   74SOL    HW2 1122   5.130   6.045   6.309
   75SOL     OW 1123   3.978   4.833   5.110
   75SOL    HW1 1124   3.927   4.861   5.029
   75SOL    HW2 1125   3.913   4.813   5.184
   76SOL     OW 1126   2.595   3.079   1.254
   76SOL    HW1 1127   2.526   3.143   1.289
   76SOL    HW2 1128   2.608   3.095   1.157
   77SOL     OW 1129   5.210   4.899   6.339
   77SOL    HW1 1130   5.272   4.843   6.285
   77SOL    HW2 1131   5.151   4.952   6.278
   78SOL     OW 1132   6.516   6.670   6.338
   78SOL    HW1 1133   6.593   6.735   6.343
   78SOL    HW2 1134   6.539   6.588   6.390
   79SOL     OW 1135   3.399   0.071   6.723
   79SOL    HW1 1136   3.482   0.057   6.668
   79SOL    HW2 1137   3.424   0.071   6.820
   80SOL     OW 1138   0.359   1.247   3.940
   80SOL    HW1 1139   0.262   1.256   3.961
   80SOL    HW2 1140   0.399   1.174   3.995
   81SOL     OW 1141   1.455   0.174   4.135
   81SOL    HW1 1142   1.489   0.123   4.215
   81SOL    HW2 1143   1.532   0.197   4.075
   82SOL     OW 1144   6.930   4.502   5.616
   82SOL    HW1 1145   6.919   4.597   5.588
   82SOL    HW2 1146   6.841   4.465   5.645
   83SOL     OW 1147   6.660   0.221   6.760
   83SOL    HW1 1148   6.691   0.138   6.805
   83SOL    HW2 1149   6.717   0.239   6.680
   84SOL     OW 1150   6.004   3.336   1.746
   84SOL    HW1 1151   6.005   3.350   1.845
   84SOL    HW2 1152   6.097   3.315   1.714
   85SOL     OW 1153   0.221   1.917   5.238
   85SOL    HW1 1154   0.158   1.988   5.271
   85SOL    HW2 1155   0.297   1.960   5.189
   86SOL     OW 1156   1.605   0.944   4.759
   86SOL    HW1 1157   1.510   0.913   4.752
   86SOL    HW2 1158   1.666   0.864   4.758
   87SOL     OW 1159   4.150   0.776   1.473
   87SOL    HW1 1160   4.149   0.708   1.399
   87SOL    HW2 1161   4.235   0.828   1.469
   88SOL     OW 1162   5.543   0.404   0.478
   88SOL    HW1 1163   5.528   0.465   0.557
   88SOL    HW2 1164   5.505   0.447   0.396
   89SOL     OW 1165   1.867   1.764   5.842
   89SOL    HW1 1166   1.774   1.784   5.811
   89SOL    HW2 1167   1.928   1.838   5.812
   90SOL     OW 1168   6.476   5.837   3.940
   90SOL    HW1 1169   6.497   5.922   3.988
   90SOL    HW2 1170   6.555   5.811   3.883
   91SOL     OW 1171   4.701   4.806   4.564
   91SOL    HW1 1172   4.794   4.771   4.562
   91SOL    HW2 1173   4.661   4.790   4.654
   92SOL     OW 1174   2.792   6.453   1.352
   92SOL    HW1 1175   2.745   6.455   1.265
   92SOL    HW2 1176   2.836   6.541   1.369
   93SOL     OW 1177   3.752   4.904   5.736
   93SOL    HW1 1178   3.781   4.997   5.763
   93SOL    HW2 1179   3.784   4.886   5.643
   94SOL     OW 1180   2.306   6.154   1.156
   94SOL    HW1 1181   2.302   6.071   1.211
   94SOL    HW2 1182   2.275   6.232   1.210
   95SOL     OW 1183   6.495   0.071   4.810
   95SOL    HW1 1184   6.466   0.151   4.862
   95SOL    HW2 1185   6.592   0.053   4.829
   96SOL     OW 1186   1.120   6.832   5.021
   96SOL    HW1 1187   1.204   6.808   5.070
   96SOL    HW2 1188   1.117   6.931   5.006
   97SOL     OW 1189   6.360   2.599   5.182
   97SOL    HW1 1190   6.457   2.599   5.158
   97SOL    HW2 1191   6.324   2.506   5.175
   98SOL     OW 1192   5.819   2.210   5.824
   98SOL    HW1 1193   5.866   2.153   5.892
   98SOL    HW2 1194   5.885   2.237   5.754
   99SOL     OW 1195   4.120   2.456   1.333
   99SOL    HW1 1196   4.109   2.363   1.299
   99SOL    HW2 1197   4.195   2.459   1.399
  100SOL     OW 1198   6.249   4.908   6.709
  100SOL    HW1 1199   6.164   4.906   6.762
  100SOL    HW2 1200   6.322   4.947   6.766
  101SOL     OW 1201   1.216   6.506   4.236
  101SOL    HW1 1202   1.310   6.478   4.215
  101SOL    HW2 1203   1.168   6.524   4.150
  102SOL     OW 1204   4.949   0.072   3.346
  102SOL    HW1 1205   4.884   0.002   3.318
  102SOL    HW2 1206   5.017   0.031   3.407
  103SOL     OW 1207   3.734   1.994   1.515
  103SOL    HW1 1208   3.763   2.065   1.580
  103SOL    HW2 1209   3.811   1.935   1.493
  104SOL     OW 1210   0.031   5.757   1.508
  104SOL    HW1 1211   0.117   5.802   1.530
  104SOL    HW2 1212   0.019   5.676   1.565
  105SOL     OW 1213   5.125   1.656   5.335
  105SOL    HW1 1214   5.204   1.595   5.344
  105SOL    HW2 1215   5.042   1.607   5.360
  106SOL     OW 1216   3.560   6.603   0.444
  106SOL    HW1 1217   3.576   6.516   0.397
  106SOL    HW2 1218   3.634   6.667   0.421
  107SOL     OW 1219   2.363   3.256   1.362
  107SOL    HW1 1220   2.306   3.245   1.444
  107SOL    HW2 1221   2.431   3.327   1.379
  108SOL     OW 1222   4.826   4.467   5.439
  108SOL    HW1 1223   4.741   4.414   5.434
  108SOL    HW2 1224   4.809   4.561   5.408
  109SOL     OW 1225   6.494   0.760   1.515
  109SOL    HW1 1226   6.433   0.687   1.547
  109SOL    HW2 1227   6.543   0.798   1.593
  110SOL     OW 1228   2.893   5.859   5.430
  110SOL    HW1 1229   2.981   5.852   5.384
  110SOL    HW2 1230   2.902   5.826   5.524
  111SOL     OW 1231   3.957   1.056   3.335
  111SOL    HW1 1232   4.032   1.024   3.394
  111SOL    HW2 1233   3.913   1.135   3.378
  112SOL     OW 1234   0.205   1.454   6.413
  112SOL    HW1 1235   0.216   1.494   6.505
  112SOL    HW2 1236   0.269   1.499   6.350
  113SOL     OW 1237   6.844   5.826   3.902
  113SOL    HW1 1238   6.916   5.884   3.865
  113SOL    HW2 1239   6.795   5.782   3.826
  114SOL     OW 1240   0.375   6.671   6.826
  114SOL    HW1 1241   0.289   6.668   6.878
  114SOL    HW2 1242   0.421   6.758   6.843
  115SOL     OW 1243   5.153   1.060   4.867
  115SOL    HW1 1244   5.208   0.977   4.861
  115SOL    HW2 1245   5.093   1.066   4.787
  116SOL     OW 1246   5.954   4.524   2.570
  116SOL    HW1 1247   5.862   4.487   2.570
  116SOL    HW2 1248   6.008   4.477   2.500
  117SOL     OW 1249   1.048   6.581   6.446
  117SOL    HW1 1250   1.131   6.636   6.431
  117SOL    HW2 1251   1.074   6.490   6.478
  118SOL     OW 1252   1.580   0.498   2.202
  118SOL    HW1 1253   1.659   0.554   2.227
  118SOL    HW2 1254   1.544   0.454   2.284
  119SOL     OW 1255   6.818   2.953   6.193
  119SOL    HW1 1256   6.788   3.020   6.124
  119SOL    HW2 1257   6.782   2.979   6.282
  120SOL     OW 1258   5.614   6.422   1.427
  120SOL    HW1 1259   5.690   6.392   1.369
  120SOL    HW2 1260   5.579   6.344   1.479
  121SOL     OW 1261   3.180   3.250   5.861
  121SOL    HW1 1262   3.111   3.313   5.824
  121SOL    HW2 1263   3.270   3.274   5.824
  122SOL     OW 1264   0.425   3.198   4.723
  122SOL    HW1 1265   0.355   3.170   4.788
  122SOL    HW2 1266   0.488   3.122   4.708
  123SOL     OW 1267   0.845   1.842   1.727
  123SOL    HW1 1268   0.827   1.746   1.708
  123SOL    HW2 1269   0.898   1.850   1.812
  124SOL     OW 1270   4.784   2.927   0.441
  124SOL    HW1 1271   4.768   3.019   0.407
  124SOL    HW2 1272   4.882   2.911   0.451
  125SOL     OW 1273   2.174   3.381   1.667
  125SOL    HW1 1274   2.157   3.283   1.675
  125SOL    HW2 1275   2.235   3.409   1.742
  126SOL     OW 1276   3.502   4.631   1.308
  126SOL    HW1 1277   3.516   4.710   1.368
  126SOL    HW2 1278   3.562   4.640   1.228
  127SOL     OW 1279   0.791   5.546   5.875
  127SOL    HW1 1280   0.821   5.641   5.883
  127SOL    HW2 1281   0.862   5.492   5.830
  128SOL     OW 1282   4.607   2.523   1.770
  128SOL    HW1 1283   4.609   2.623   1.763
  128SOL    HW2 1284   4.518   2.495   1.806
  129SOL     OW 1285   2.758   3.612   6.123
  129SOL    HW1 1286   2.829   3.671   6.084
  129SOL    HW2 1287   2.700   3.666   6.184
  130SOL     OW 1288   1.271   2.363   4.375
  130SOL    HW1 1289   1.183   2.402   4.400
  130SOL    HW2 1290   1.324   2.431   4.324
  131SOL     OW 1291   5.407   1.876   2.868
  131SOL    HW1 1292   5.374   1.964   2.902
  131SOL    HW2 1293   5.364   1.802   2.920
  132SOL     OW 1294   0.467   2.495   0.785
  132SOL    HW1 1295   0.486   2.507   0.688
  132SOL    HW2 1296   0.422   2.577   0.821
  133SOL     OW 1297   6.269   5.180   1.950
  133SOL    HW1 1298   6.247   5.231   2.033
  133SOL    HW2 1299   6.218   5.218   1.873
  134SOL     OW 1300   0.522   3.973   2.655
  134SOL    HW1 1301   0.591   3.908   2.622
  134SOL    HW2 1302   0.447   3.978   2.589
  135SOL     OW 1303   4.542   1.465   4.157
  135SOL    HW1 1304   4.467   1.428   4.102
  135SOL    HW2 1305   4.511   1.549   4.202
  136SOL     OW 1306   5.372   4.652   5.509
  136SOL    HW1 1307   5.328   4.665   5.598
  136SOL    HW2 1308   5.468   4.679   5.515
  137SOL     OW 1309   3.705   0.627   5.913
  137SOL    HW1 1310   3.668   0.611   5.821
  137SOL    HW2 1311   3.779   0.695   5.907
  138SOL     OW 1312   6.479   5.051   4.758
  138SOL    HW1 1313   6.525   5.105   4.829
  138SOL    HW2 1314   6.380   5.064   4.765
  139SOL     OW 1315   3.753   5.642   5.469
  139SOL    HW1 1316   3.797   5.694   5.396
  139SOL    HW2 1317   3.815   5.638   5.548
  140SOL     OW 1318   6.310   4.506   4.927
  140SOL    HW1 1319   6.216   4.540   4.922
  140SOL    HW2 1320   6.373   4.584   4.922
  141SOL     OW 1321   1.402   2.230   3.076
  141SOL    HW1 1322   1.395   2.131   3.091
  141SOL    HW2 1323   1.499   2.256   3.076
  142SOL     OW 1324   1.341   5.661   1.174
  142SOL    HW1 1325   1.274   5.728   1.143
  142SOL    HW2 1326   1.331   5.646   1.272
  143SOL     OW 1327   5.272   3.802   1.548
  143SOL    HW1 1328   5.179   3.772   1.568
  143SOL    HW2 1329   5.280   3.823   1.450
  144SOL     OW 1330   2.386   6.133   0.646
  144SOL    HW1 1331   2.291   6.136   0.676
  144SOL    HW2 1332   2.429   6.223   0.663
  145SOL     OW 1333   6.830   5.494   0.324
  145SOL    HW1 1334   6.859   5.528   0.413
  145SOL    HW2 1335   6.903   5.511   0.257
  146SOL     OW 1336   6.419   4.888   0.717
  146SOL    HW1 1337   6.468   4.804   0.694
  146SOL    HW2 1338   6.407   4.943   0.634
  147SOL     OW 1339   5.918   2.387   1.581
  147SOL    HW1 1340   5.839   2.437   1.616
  147SOL    HW2 1341   5.965   2.442   1.511
  148SOL     OW 1342   1.238   4.913   5.813
  148SOL    HW1 1343   1.332   4.883   5.831
  148SOL    HW2 1344   1.183   4.899   5.895
  149SOL     OW 1345   3.104   1.316   6.060
  149SOL    HW1 1346   3.039   1.260   6.008
  149SOL    HW2 1347   3.194   1.272   6.058
  150SOL     OW 1348   0.445   5.672   5.968
  150SOL    HW1 1349   0.378   5.704   6.036
  150SOL    HW2 1350   0.401   5.605   5.907
  151SOL     OW 1351   3.794   1.027   1.675
  151SOL    HW1 1352   3.849   1.058   1.597
  151SOL    HW2 1353   3.697   1.042   1.656
  152SOL     OW 1354   3.419   1.129   4.724
  152SOL    HW1 1355   3.403   1.222   4.756
  152SOL    HW2 1356   3.341   1.098   4.670
  153SOL     OW 1357   1.678   0.946   3.366
  153SOL    HW1 1358   1.771   0.981   3.374
  153SOL    HW2 1359   1.620   0.987   3.437
  154SOL     OW 1360   6.591   2.078   2.902
  154SOL    HW1 1361   6.641   2.075   2.816
  154SOL    HW2 1362   6.512   2.017   2.896
  155SOL     OW 1363   0.372   0.830   2.852
  155SOL    HW1 1364   0.385   0.761   2.923
  155SOL    HW2 1365   0.380   0.921   2.892
  156SOL     OW 1366   0.248   2.300   1.285
  156SOL    HW1 1367   0.157   2.331   1.315
  156SOL    HW2 1368   0.249   2.292   1.186
  157SOL     OW 1369   5.929   3.486   2.729
  157SOL    HW1 1370   5.859   3.539   2.682
  157SOL    HW2 1371   5.994   3.549   2.774
  158SOL     OW 1372   1.108   1.488   3.249
  158SOL    HW1 1373   1.135   1.408   3.303
  158SOL    HW2 1374   1.054   1.550   3.306
  159SOL     OW 1375   4.900   3.497   2.189
  159SOL    HW1 1376   4.883   3.440   2.109
  159SOL    HW2 1377   4.850   3.583   2.181
  160SOL     OW 1378   6.789   4.307   5.778
  160SOL    HW1 1379   6.695   4.275   5.793
  160SOL    HW2 1380   6.811   4.377   5.845
  161SOL     OW 1381   3.758   4.843   5.286
  161SOL    HW1 1382   3.731   4.914   5.221
  161SOL    HW2 1383   3.702   4.851   5.369
  162SOL     OW 1384   4.551   6.258   2.046
  162SOL    HW1 1385   4.631   6.228   1.994
  162SOL    HW2 1386   4.530   6.191   2.117
  163SOL     OW 1387   5.353   0.711   1.814
  163SOL    HW1 1388   5.365   0.728   1.911
  163SOL    HW2 1389   5.427   0.755   1.763
  164SOL     OW 1390   6.331   3.465   1.100
  164SOL    HW1 1391   6.321   3.442   1.196
  164SOL    HW2 1392   6.307   3.386   1.043
  165SOL     OW 1393   5.382   3.982   6.479
  165SOL    HW1 1394   5.347   3.923   6.552
  165SOL    HW2 1395   5.314   3.989   6.406
  166SOL     OW 1396   1.787   0.556   1.766
  166SOL    HW1 1397   1.712   0.528   1.706
  166SOL    HW2 1398   1.754   0.567   1.859
  167SOL     OW 1399   6.521   3.586   0.454
  167SOL    HW1 1400   6.585   3.518   0.489
  167SOL    HW2 1401   6.514   3.661   0.520
  168SOL     OW 1402   2.569   5.634   1.590
  168SOL    HW1 1403   2.539   5.685   1.670
  168SOL    HW2 1404   2.573   5.536   1.611
  169SOL     OW 1405   1.099   0.022   1.585
  169SOL    HW1 1406   1.073   0.113   1.617
  169SOL    HW2 1407   1.090   6.977   1.660
  170SOL     OW 1408   0.433   1.571   3.147
  170SOL    HW1 1409   0.444   1.652   3.088
  170SOL    HW2 1410   0.363   1.511   3.109
  171SOL     OW 1411   3.358   3.683   0.424
  171SOL    HW1 1412   3.427   3.732   0.371
  171SOL    HW2 1413   3.401   3.605   0.470
  172SOL     OW 1414   6.868   2.685   0.834
  172SOL    HW1 1415   6.873   2.784   0.818
  172SOL    HW2 1416   6.914   2.637   0.759
  173SOL     OW 1417   0.343   6.414   5.865
  173SOL    HW1 1418   0.309   6.324   5.894
  173SOL    HW2 1419   0.384   6.407   5.774
  174SOL     OW 1420   2.715   5.742   3.565
  174SOL    HW1 1421   2.650   5.814   3.589
  174SOL    HW2 1422   2.733   5.686   3.646
  175SOL     OW 1423   0.581   5.499   2.969
  175SOL    HW1 1424   0.497   5.508   3.022
  175SOL    HW2 1425   0.559   5.490   2.872
  176SOL     OW 1426   2.901   5.486   0.918
  176SOL    HW1 1427   2.886   5.396   0.960
  176SOL    HW2 1428   2.919   5.474   0.820
  177SOL     OW 1429   4.316   2.326   3.193
  177SOL    HW1 1430   4.412   2.340   3.167
  177SOL    HW2 1431   4.304   2.350   3.290
  178SOL     OW 1432   5.828   4.281   6.400
  178SOL    HW1 1433   5.759   4.238   6.459
  178SOL    HW2 1434   5.808   4.258   6.305
  179SOL     OW 1435   3.009   0.093   0.659
  179SOL    HW1 1436   2.977   7.019   0.660
  179SOL    HW2 1437   3.107   0.095   0.644
  180SOL     OW 1438   1.449   2.203   6.513
  180SOL    HW1 1439   1.415   2.276   6.454
  180SOL    HW2 1440   1.461   2.119   6.459
  181SOL     OW 1441   3.122   2.847   5.247
  181SOL    HW1 1442   3.189   2.813   5.181
  181SOL    HW2 1443   3.089   2.936   5.217
  182SOL     OW 1444   4.877   2.602   5.248
  182SOL    HW1 1445   4.825   2.686   5.261
  182SOL    HW2 1446   4.965   2.609   5.296
  183SOL     OW 1447   5.480   1.732   2.259
  183SOL    HW1 1448   5.490   1.825   2.223
  183SOL    HW2 1449   5.417   1.733   2.337
  184SOL     OW 1450   0.035   4.799   3.425
  184SOL    HW1 1451   0.050   4.703   3.402
  184SOL    HW2 1452   7.006   4.805   3.511
  185SOL     OW 1453   2.778   3.470   6.537
  185SOL    HW1 1454   2.727   3.388   6.562
  185SOL    HW2 1455   2.783   3.478   6.438
  186SOL     OW 1456   6.106   6.497   3.424
  186SOL    HW1 1457   6.160   6.552   3.360
  186SOL    HW2 1458   6.011   6.494   3.394
  187SOL     OW 1459   5.544   1.167   3.769
  187SOL    HW1 1460   5.513   1.077   3.738
  187SOL    HW2 1461   5.474   1.235   3.748
  188SOL     OW 1462   6.385   2.828   3.987
  188SOL    HW1 1463   6.410   2.832   3.890
  188SOL    HW2 1464   6.307   2.767   3.999
  189SOL     OW 1465   2.175   3.959   2.555
  189SOL    HW1 1466   2.186   3.882   2.492
  189SOL    HW2 1467   2.083   3.996   2.547
  190SOL     OW 1468   3.393   1.415   6.667
  190SOL    HW1 1469   3.410   1.408   6.765
  190SOL    HW2 1470   3.405   1.325   6.624
  191SOL     OW 1471   4.327   6.030   5.671
  191SOL    HW1 1472   4.406   6.030   5.610
  191SOL    HW2 1473   4.358   6.048   5.764
  192SOL     OW 1474   0.129   0.346   1.130
  192SOL    HW1 1475   0.199   0.375   1.065
  192SOL    HW2 1476   0.069   0.423   1.151
  193SOL     OW 1477   5.356   4.646   6.885
  193SOL    HW1 1478   5.403   4.703   6.818
  193SOL    HW2 1479   5.285   4.592   6.840
  194SOL     OW 1480   4.169   6.932   4.616
  194SOL    HW1 1481   4.185   6.868   4.691
  194SOL    HW2 1482   4.143   6.880   4.534
  195SOL     OW 1483   6.712   5.290   3.481
  195SOL    HW1 1484   6.741   5.287   3.385
  195SOL    HW2 1485   6.616   5.319   3.485
  196SOL     OW 1486   0.982   1.252   1.096
  196SOL    HW1 1487   0.937   1.340   1.116
  196SOL    HW2 1488   1.045   1.263   1.020
  197SOL     OW 1489   2.167   1.129   0.715
  197SOL    HW1 1490   2.200   1.053   0.770
  197SOL    HW2 1491   2.127   1.198   0.775
  198SOL     OW 1492   2.738   1.081   3.524
  198SOL    HW1 1493   2.785   1.059   3.438
  198SOL    HW2 1494   2.796   1.056   3.601
  199SOL     OW 1495   0.873   1.720   4.152
  199SOL    HW1 1496   0.796   1.738   4.091
  199SOL    HW2 1497   0.936   1.656   4.108
  200SOL     OW 1498   6.486   2.529   0.226
  200SOL    HW1 1499   6.504   2.519   0.324
  200SOL    HW2 1500   6.487   2.438   0.183
  201SOL     OW 1501   0.439   0.889   6.535
  201SOL    HW1 1502   0.433   0.945   6.617
  201SOL    HW2 1503   0.515   0.824   6.544
  202SOL     OW 1504   5.024   6.985   0.742
  202SOL    HW1 1505   5.046   6.982   0.644
  202SOL    HW2 1506   4.957   6.914   0.763
  203SOL     OW 1507   6.070   2.882   6.481
  203SOL    HW1 1508   6.061   2.825   6.399
  203SOL    HW2 1509   6.002   2.854   6.548
  204SOL     OW 1510   6.279   1.054   5.089
  204SOL    HW1 1511   6.250   1.010   5.004
  204SOL    HW2 1512   6.265   0.990   5.165
  205SOL     OW 1513   2.044   3.589   2.954
  205SOL    HW1 1514   1.946   3.610   2.960
  205SOL    HW2 1515   2.089   3.658   2.898
  206SOL     OW 1516   0.067   3.429   0.270
  206SOL    HW1 1517   6.994   3.410   0.301
  206SOL    HW2 1518   0.122   3.461   0.347
  207SOL     OW 1519   6.020   2.862   4.780
  207SOL    HW1 1520   5.962   2.942   4.796
  207SOL    HW2 1521   6.110   2.877   4.822
  208SOL     OW 1522   1.241   3.502   5.219
  208SOL    HW1 1523   1.331   3.543   5.205
  208SOL    HW2 1524   1.234   3.468   5.313
  209SOL     OW 1525   6.969   4.736   2.660
  209SOL    HW1 1526   6.954   4.642   2.630
  209SOL    HW2 1527   6.942   4.799   2.587
  210SOL     OW 1528   4.710   2.945   0.088
  210SOL    HW1 1529   4.653   2.988   0.158
  210SOL    HW2 1530   4.657   2.935   0.004
  211SOL     OW 1531   0.594   1.508   2.646
  211SOL    HW1 1532   0.585   1.421   2.694
  211SOL    HW2 1533   0.660   1.497   2.571
  212SOL     OW 1534   2.113   3.841   2.272
  212SOL    HW1 1535   2.194   3.848   2.213
  212SOL    HW2 1536   2.072   3.751   2.262
  213SOL     OW 1537   0.793   4.709   1.162
  213SOL    HW1 1538   0.815   4.806   1.161
  213SOL    HW2 1539   0.725   4.691   1.233
  214SOL     OW 1540   5.358   6.065   1.771
  214SOL    HW1 1541   5.351   6.074   1.870
  214SOL    HW2 1542   5.392   5.974   1.748
  215SOL     OW 1543   2.745   5.650   3.276
  215SOL    HW1 1544   2.819   5.629   3.213
  215SOL    HW2 1545   2.783   5.668   3.367
  216SOL     OW 1546   0.972   6.394   2.769
  216SOL    HW1 1547   1.028   6.313   2.751
  216SOL    HW2 1548   1.002   6.469   2.710
  217SOL     OW 1549   0.735   4.547   5.906
  217SOL    HW1 1550   0.705   4.456   5.935
  217SOL    HW2 1551   0.751   4.547   5.808
  218SOL     OW 1552   2.093   1.771   5.197
  218SOL    HW1 1553   2.042   1.792   5.113
  218SOL    HW2 1554   2.070   1.678   5.226
  219SOL     OW 1555   4.282   1.920   1.316
  219SOL    HW1 1556   4.376   1.917   1.282
  219SOL    HW2 1557   4.277   1.868   1.402
  220SOL     OW 1558   3.123   6.591   0.986
  220SOL    HW1 1559   3.216   6.555   0.973
  220SOL    HW2 1560   3.126   6.667   1.052
  221SOL     OW 1561   5.335   4.551   1.920
  221SOL    HW1 1562   5.332   4.558   1.820
  221SOL    HW2 1563   5.325   4.642   1.960
  222SOL     OW 1564   2.361   4.778   6.359
  222SOL    HW1 1565   2.413   4.832   6.293
  222SOL    HW2 1566   2.315   4.839   6.424
  223SOL     OW 1567   5.964   2.325   5.287
  223SOL    HW1 1568   5.893   2.305   5.355
  223SOL    HW2 1569   5.925   2.319   5.195
  224SOL     OW 1570   2.416   1.592   5.702
  224SOL    HW1 1571   2.482   1.519   5.683
  224SOL    HW2 1572   2.458   1.661   5.760
  225SOL     OW 1573   3.762   6.371   5.935
  225SOL    HW1 1574   3.796   6.387   6.028
  225SOL    HW2 1575   3.663   6.381   5.933
  226SOL     OW 1576   1.353   2.387   6.353
  226SOL    HW1 1577   1.405   2.471   6.335
  226SOL    HW2 1578   1.350   2.332   6.270
  227SOL     OW 1579   1.716   3.425   1.365
  227SOL    HW1 1580   1.764   3.471   1.440
  227SOL    HW2 1581   1.716   3.484   1.284
  228SOL     OW 1582   1.206   0.293   2.475
  228SOL    HW1 1583   1.194   0.194   2.484
  228SOL    HW2 1584   1.296   0.312   2.434
  229SOL     OW 1585   3.808   6.487   6.176
  229SOL    HW1 1586   3.741   6.559   6.193
  229SOL    HW2 1587   3.898   6.517   6.209
  230SOL     OW 1588   5.412   5.628   5.822
  230SOL    HW1 1589   5.464   5.573   5.756
  230SOL    HW2 1590   5.352   5.568   5.874
  231SOL     OW 1591   5.150   1.738   6.742
  231SOL    HW1 1592   5.105   1.822   6.712
  231SOL    HW2 1593   5.109   1.708   6.828
  232SOL     OW 1594   1.249   1.684   5.886
  232SOL    HW1 1595   1.156   1.709   5.859
  232SOL    HW2 1596   1.311   1.697   5.808
  233SOL     OW 1597   3.504   1.865   3.157
  233SOL    HW1 1598   3.604   1.858   3.166
  233SOL    HW2 1599   3.477   1.962   3.163
  234SOL     OW 1600   4.718   0.776   0.687
  234SOL    HW1 1601   4.769   0.862   0.681
  234SOL    HW2 1602   4.749   0.713   0.615
  235SOL     OW 1603   4.822   2.979   2.819
  235SOL    HW1 1604   4.865   2.927   2.893
  235SOL    HW2 1605   4.821   3.076   2.842
  236SOL     OW 1606   4.230   4.964   6.407
  236SOL    HW1 1607   4.265   4.984   6.315
  236SOL    HW2 1608   4.130   4.968   6.405
  237SOL     OW 1609   6.146   3.391   3.283
  237SOL    HW1 1610   6.238   3.398   3.244
  237SOL    HW2 1611   6.123   3.294   3.295
  238SOL     OW 1612   6.619   1.935   0.716
  238SOL    HW1 1613   6.681   2.006   0.748
  238SOL    HW2 1614   6.592   1.953   0.621
  239SOL     OW 1615   1.191   3.333   0.039
  239SOL    HW1 1616   1.175   3.268   0.114
  239SOL    HW2 1617   1.231   3.417   0.076
  240SOL     OW 1618   5.035   3.310   3.146
  240SOL    HW1 1619   5.007   3.230   3.199
  240SOL    HW2 1620   4.985   3.391   3.178
  241SOL     OW 1621   2.718   2.008   4.233
  241SOL    HW1 1622   2.620   2.024   4.232
  241SOL    HW2 1623   2.756   2.024   4.141
  242SOL     OW 1624   3.406   3.851   2.453
  242SOL    HW1 1625   3.451   3.940   2.456
  242SOL    HW2 1626   3.426   3.806   2.365
  243SOL     OW 1627   3.840   2.719   6.082
  243SOL    HW1 1628   3.863   2.752   5.991
  243SOL    HW2 1629   3.923   2.684   6.127
  244SOL     OW 1630   4.763   3.075   5.198
  244SOL    HW1 1631   4.703   3.149   5.228
  244SOL    HW2 1632   4.770   3.077   5.098
  245SOL     OW 1633   4.338   1.187   3.001
  245SOL    HW1 1634   4.420   1.154   3.046
  245SOL    HW2 1635   4.300   1.115   2.943
  246SOL     OW 1636   6.087   1.209   1.927
  246SOL    HW1 1637   6.123   1.121   1.955
  246SOL    HW2 1638   6.127   1.235   1.839
  247SOL     OW 1639   1.465   1.556   1.391
  247SOL    HW1 1640   1.374   1.552   1.349
  247SOL    HW2 1641   1.473   1.483   1.459
  248SOL     OW 1642   2.107   2.840   2.124
  248SOL    HW1 1643   2.119   2.908   2.052
  248SOL    HW2 1644   2.167   2.861   2.201
  249SOL     OW 1645   4.686   5.998   4.953
  249SOL    HW1 1646   4.606   5.998   4.893
  249SOL    HW2 1647   4.676   5.926   5.021
  250SOL     OW 1648   4.166   2.566   0.315
  250SOL    HW1 1649   4.252   2.517   0.323
  250SOL    HW2 1650   4.104   2.539   0.389
  251SOL     OW 1651   3.881   4.075   5.552
  251SOL    HW1 1652   3.785   4.093   5.532
  251SOL    HW2 1653   3.896   4.077   5.650
  252SOL     OW 1654   6.668   6.188   5.701
  252SOL    HW1 1655   6.670   6.252   5.624
  252SOL    HW2 1656   6.749   6.129   5.697
  253SOL     OW 1657   4.116   6.286   6.204
  253SOL    HW1 1658   4.151   6.214   6.144
  253SOL    HW2 1659   4.165   6.372   6.186
  254SOL     OW 1660   5.638   2.533   5.555
  254SOL    HW1 1661   5.639   2.590   5.638
  254SOL    HW2 1662   5.649   2.437   5.580
  255SOL     OW 1663   1.681   4.024   6.407
  255SOL    HW1 1664   1.696   4.062   6.316
  255SOL    HW2 1665   1.761   4.040   6.464
  256SOL     OW 1666   4.910   2.388   5.452
  256SOL    HW1 1667   4.984   2.450   5.427
  256SOL    HW2 1668   4.823   2.426   5.422
  257SOL     OW 1669   5.184   6.885   2.159
  257SOL    HW1 1670   5.176   6.963   2.222
  257SOL    HW2 1671   5.094   6.841   2.149
  258SOL     OW 1672   1.595   3.440   5.893
  258SOL    HW1 1673   1.593   3.377   5.815
  258SOL    HW2 1674   1.682   3.489   5.895
  259SOL     OW 1675   3.817   6.756   4.094
  259SOL    HW1 1676   3.864   6.671   4.069
  259SOL    HW2 1677   3.840   6.780   4.188
  260SOL     OW 1678   3.961   5.197   3.479
  260SOL    HW1 1679   3.949   5.284   3.527
  260SOL    HW2 1680   3.877   5.143   3.485
  261SOL     OW 1681   4.198   4.684   0.741
  261SOL    HW1 1682   4.268   4.616   0.761
  261SOL    HW2 1683   4.141   4.698   0.822
  262SOL     OW 1684   1.205   4.097   6.386
  262SOL    HW1 1685   1.289   4.047   6.405
  262SOL    HW2 1686   1.183   4.089   6.289
  263SOL     OW 1687   0.670   6.835   4.249
  263SOL    HW1 1688   0.715   6.924   4.243
  263SOL    HW2 1689   0.631   6.822   4.340
  264SOL     OW 1690   6.416   3.428   6.382
  264SOL    HW1 1691   6.363   3.494   6.328
  264SOL    HW2 1692   6.356   3.385   6.450
  265SOL     OW 1693   6.426   0.244   3.946
  265SOL    HW1 1694   6.425   0.324   3.887
  265SOL    HW2 1695   6.332   0.213   3.962
  266SOL     OW 1696   3.664   1.079   5.905
  266SOL    HW1 1697   3.647   1.137   5.825
  266SOL    HW2 1698   3.761   1.084   5.929
  267SOL     OW 1699   1.816   0.812   4.085
  267SOL    HW1 1700   1.784   0.902   4.114
  267SOL    HW2 1701   1.879   0.822   4.007
  268SOL     OW 1702   3.334   2.520   1.274
  268SOL    HW1 1703   3.384   2.561   1.197
  268SOL    HW2 1704   3.386   2.532   1.358
  269SOL     OW 1705   4.282   2.236   0.564
  269SOL    HW1 1706   4.223   2.230   0.483
  269SOL    HW2 1707   4.239   2.188   0.640
  270SOL     OW 1708   5.463   0.897   6.775
  270SOL    HW1 1709   5.400   0.865   6.703
  270SOL    HW2 1710   5.554   0.910   6.736
  271SOL     OW 1711   1.213   3.214   6.586
  271SOL    HW1 1712   1.114   3.226   6.599
  271SOL    HW2 1713   1.236   3.232   6.490
  272SOL     OW 1714   3.145   6.257   3.838
  272SOL    HW1 1715   3.061   6.312   3.827
  272SOL    HW2 1716   3.174   6.224   3.749
  273SOL     OW 1717   2.172   5.000   6.159
  273SOL    HW1 1718   2.184   4.926   6.093
  273SOL    HW2 1719   2.109   4.970   6.231
  274SOL     OW 1720   5.096   2.500   3.980
  274SOL    HW1 1721   5.049   2.540   3.901
  274SOL    HW2 1722   5.094   2.401   3.973
  275SOL     OW 1723   6.450   6.147   1.492
  275SOL    HW1 1724   6.546   6.166   1.469
  275SOL    HW2 1725   6.391   6.208   1.439
  276SOL     OW 1726   1.203   0.612   5.053
  276SOL    HW1 1727   1.287   0.661   5.032
  276SOL    HW2 1728   1.224   0.515   5.070
  277SOL     OW 1729   2.191   4.291   1.070
  277SOL    HW1 1730   2.286   4.258   1.067
  277SOL    HW2 1731   2.178   4.347   1.151
  278SOL     OW 1732   0.333   2.742   2.075
  278SOL    HW1 1733   0.416   2.702   2.038
  278SOL    HW2 1734   0.271   2.766   2.001
  279SOL     OW 1735   6.043   1.485   3.658
  279SOL    HW1 1736   6.143   1.492   3.650
  279SOL    HW2 1737   6.001   1.519   3.575
  280SOL     OW 1738   1.649   4.685   2.383
  280SOL    HW1 1739   1.644   4.656   2.287
  280SOL    HW2 1740   1.682   4.609   2.439
  281SOL     OW 1741   2.516   4.462   1.286
  281SOL    HW1 1742   2.578   4.531   1.249
  281SOL    HW2 1743   2.494   4.396   1.214
  282SOL     OW 1744   2.777   1.850   6.434
  282SOL    HW1 1745   2.724   1.795   6.499
  282SOL    HW2 1746   2.718   1.919   6.392
  283SOL     OW 1747   3.541   2.324   5.619
  283SOL    HW1 1748   3.485   2.293   5.542
  283SOL    HW2 1749   3.636   2.300   5.602
  284SOL     OW 1750   1.443   4.343   3.861
  284SOL    HW1 1751   1.389   4.371   3.941
  284SOL    HW2 1752   1.387   4.351   3.779
  285SOL     OW 1753   5.402   4.613   4.300
  285SOL    HW1 1754   5.450   4.558   4.232
  285SOL    HW2 1755   5.402   4.709   4.272
  286SOL     OW 1756   3.406   3.868   6.693
  286SOL    HW1 1757   3.405   3.828   6.601
  286SOL    HW2 1758   3.500   3.876   6.726
  287SOL     OW 1759   1.592   3.149   0.164
  287SOL    HW1 1760   1.536   3.146   0.081
  287SOL    HW2 1761   1.663   3.079   0.158
  288SOL     OW 1762   4.985   3.455   0.897
  288SOL    HW1 1763   5.026   3.421   0.981
  288SOL    HW2 1764   5.018   3.548   0.879
  289SOL     OW 1765   3.353   4.938   6.706
  289SOL    HW1 1766   3.347   4.930   6.805
  289SOL    HW2 1767   3.366   5.034   6.681
  290SOL     OW 1768   1.306   1.326   4.564
  290SOL    HW1 1769   1.397   1.356   4.593
  290SOL    HW2 1770   1.244   1.404   4.565
  291SOL     OW 1771   6.986   1.943   2.559
  291SOL    HW1 1772   6.921   1.979   2.492
  291SOL    HW2 1773   0.045   1.906   2.512
  292SOL     OW 1774   2.835   0.233   3.810
  292SOL    HW1 1775   2.815   0.247   3.907
  292SOL    HW2 1776   2.846   0.321   3.765
  293SOL     OW 1777   3.321   5.013   3.733
  293SOL    HW1 1778   3.256   4.997   3.659
  293SOL    HW2 1779   3.305   5.104   3.772
  294SOL     OW 1780   4.523   0.349   0.032
  294SOL    HW1 1781   4.494   0.288   6.979
  294SOL    HW2 1782   4.496   0.310   0.120
  295SOL     OW 1783   5.594   6.985   3.473
  295SOL    HW1 1784   5.579   6.886   3.472
  295SOL    HW2 1785   5.595   7.020   3.380
  296SOL     OW 1786   2.701   2.150   3.379
  296SOL    HW1 1787   2.723   2.062   3.422
  296SOL    HW2 1788   2.630   2.136   3.310
  297SOL     OW 1789   1.218   4.679   2.497
  297SOL    HW1 1790   1.287   4.636   2.438
  297SOL    HW2 1791   1.259   4.757   2.545
  298SOL     OW 1792   6.485   5.002   0.944
  298SOL    HW1 1793   6.458   4.963   0.856
  298SOL    HW2 1794   6.502   5.100   0.934
  299SOL     OW 1795   5.983   2.589   4.711
  299SOL    HW1 1796   5.962   2.578   4.614
  299SOL    HW2 1797   5.989   2.686   4.733
  300SOL     OW 1798   6.884   6.977   2.463
  300SOL    HW1 1799   6.939   0.014   2.523
  300SOL    HW2 1800   6.908   6.995   2.368
  301SOL     OW 1801   4.436   3.234   5.757
  301SOL    HW1 1802   4.408   3.143   5.788
  301SOL    HW2 1803   4.378   3.303   5.801
  302SOL     OW 1804   0.763   6.383   4.070
  302SOL    HW1 1805   0.735   6.459   4.128
  302SOL    HW2 1806   0.693   6.367   4.000
  303SOL     OW 1807   6.014   6.578   2.802
  303SOL    HW1 1808   6.088   6.549   2.863
  303SOL    HW2 1809   5.944   6.508   2.798
  304SOL     OW 1810   3.855   6.477   3.745
  304SOL    HW1 1811   3.938   6.499   3.693
  304SOL    HW2 1812   3.837   6.379   3.739
  305SOL     OW 1813   1.398   3.669   1.574
  305SOL    HW1 1814   1.408   3.589   1.632
  305SOL    HW2 1815   1.366   3.641   1.483
  306SOL     OW 1816   2.153   0.589   3.545
  306SOL    HW1 1817   2.206   0.629   3.620
  306SOL    HW2 1818   2.149   0.490   3.556
  307SOL     OW 1819   3.444   0.178   1.588
  307SOL    HW1 1820   3.486   0.263   1.620
  307SOL    HW2 1821   3.346   0.191   1.576
  308SOL     OW 1822   1.109   5.015   4.124
  308SOL    HW1 1823   1.204   5.015   4.154
  308SOL    HW2 1824   1.100   4.958   4.041
  309SOL     OW 1825   3.655   5.026   5.108
  309SOL    HW1 1826   3.579   5.016   5.043
  309SOL    HW2 1827   3.689   5.120   5.106
  310SOL     OW 1828   1.021   5.572   6.312
  310SOL    HW1 1829   1.027   5.490   6.255
  310SOL    HW2 1830   0.965   5.553   6.392
  311SOL     OW 1831   0.224   0.689   1.419
  311SOL    HW1 1832   0.175   0.622   1.476
  311SOL    HW2 1833   0.315   0.654   1.398
  312SOL     OW 1834   3.780   1.470   4.880
  312SOL    HW1 1835   3.684   1.484   4.904
  312SOL    HW2 1836   3.809   1.379   4.911
  313SOL     OW 1837   6.916   4.796   0.721
  313SOL    HW1 1838   6.907   4.860   0.798
  313SOL    HW2 1839   6.919   4.847   0.636
  314SOL     OW 1840   3.150   6.221   1.468
  314SOL    HW1 1841   3.199   6.134   1.457
  314SOL    HW2 1842   3.206   6.296   1.434
  315SOL     OW 1843   0.850   3.343   2.734
  315SOL    HW1 1844   0.848   3.328   2.635
  315SOL    HW2 1845   0.923   3.286   2.774
  316SOL     OW 1846   2.182   3.829   4.575
  316SOL    HW1 1847   2.279   3.851   4.573
  316SOL    HW2 1848   2.142   3.848   4.485
  317SOL     OW 1849   6.192   0.968   0.119
  317SOL    HW1 1850   6.213   1.063   0.140
  317SOL    HW2 1851   6.127   0.964   0.043
  318SOL     OW 1852   2.269   4.780   0.940
  318SOL    HW1 1853   2.349   4.837   0.919
  318SOL    HW2 1854   2.281   4.737   1.029
  319SOL     OW 1855   1.485   0.036   6.807
  319SOL    HW1 1856   1.438   0.048   6.720
  319SOL    HW2 1857   1.418   0.030   6.881
  320SOL     OW 1858   5.290   2.954   0.794
  320SOL    HW1 1859   5.347   2.881   0.756
  320SOL    HW2 1860   5.303   2.958   0.893
  321SOL     OW 1861   2.214   1.110   1.897
  321SOL    HW1 1862   2.166   1.022   1.904
  321SOL    HW2 1863   2.209   1.144   1.803
  322SOL     OW 1864   3.107   2.564   5.619
  322SOL    HW1 1865   3.151   2.517   5.543
  322SOL    HW2 1866   3.138   2.525   5.706
  323SOL     OW 1867   0.544   4.502   2.075
  323SOL    HW1 1868   0.484   4.426   2.048
  323SOL    HW2 1869   0.540   4.574   2.006
  324SOL     OW 1870   0.509   3.237   4.461
  324SOL    HW1 1871   0.474   3.251   4.553
  324SOL    HW2 1872   0.584   3.301   4.444
  325SOL     OW 1873   2.382   2.377   2.736
  325SOL    HW1 1874   2.445   2.354   2.662
  325SOL    HW2 1875   2.335   2.294   2.767
  326SOL     OW 1876   2.348   4.886   5.326
  326SOL    HW1 1877   2.398   4.806   5.291
  326SOL    HW2 1878   2.363   4.894   5.424
  327SOL     OW 1879   6.220   5.109   6.347
  327SOL    HW1 1880   6.211   5.011   6.362
  327SOL    HW2 1881   6.317   5.134   6.346
  328SOL     OW 1882   3.474   5.749   1.472
  328SOL    HW1 1883   3.443   5.666   1.425
  328SOL    HW2 1884   3.574   5.752   1.472
  329SOL     OW 1885   3.200   3.533   2.499
  329SOL    HW1 1886   3.174   3.438   2.482
  329SOL    HW2 1887   3.161   3.563   2.586
  330SOL     OW 1888   2.990   1.896   1.795
  330SOL    HW1 1889   2.907   1.906   1.741
  330SOL    HW2 1890   3.043   1.981   1.792
  331SOL     OW 1891   5.549   4.155   5.788
  331SOL    HW1 1892   5.560   4.094   5.710
  331SOL    HW2 1893   5.487   4.229   5.765
  332SOL     OW 1894   4.319   2.422   3.773
  332SOL    HW1 1895   4.370   2.359   3.714
  332SOL    HW2 1896   4.292   2.374   3.857
  333SOL     OW 1897   4.245   6.307   0.340
  333SOL    HW1 1898   4.317   6.286   0.274
  333SOL    HW2 1899   4.215   6.402   0.328
  334SOL     OW 1900   5.074   6.581   2.765
  334SOL    HW1 1901   5.053   6.484   2.770
  334SOL    HW2 1902   5.069   6.621   2.857
  335SOL     OW 1903   3.473   6.797   3.062
  335SOL    HW1 1904   3.546   6.731   3.046
  335SOL    HW2 1905   3.504   6.888   3.032
  336SOL     OW 1906   3.563   0.394   4.863
  336SOL    HW1 1907   3.490   0.333   4.836
  336SOL    HW2 1908   3.619   0.417   4.783
  337SOL     OW 1909   0.288   4.126   1.775
  337SOL    HW1 1910   0.324   4.039   1.809
  337SOL    HW2 1911   0.307   4.134   1.677
  338SOL     OW 1912   2.629   2.458   1.458
  338SOL    HW1 1913   2.571   2.536   1.435
  338SOL    HW2 1914   2.608   2.427   1.551
  339SOL     OW 1915   4.351   0.841   3.080
  339SOL    HW1 1916   4.283   0.781   3.122
  339SOL    HW2 1917   4.391   0.899   3.150
  340SOL     OW 1918   5.031   3.961   4.761
  340SOL    HW1 1919   5.059   3.890   4.697
  340SOL    HW2 1920   4.932   3.976   4.753
  341SOL     OW 1921   5.097   5.059   5.660
  341SOL    HW1 1922   5.171   5.123   5.683
  341SOL    HW2 1923   5.116   5.017   5.571
  342SOL     OW 1924   5.537   3.881   0.291
  342SOL    HW1 1925   5.571   3.865   0.384
  342SOL    HW2 1926   5.602   3.843   0.225
  343SOL     OW 1927   2.354   0.772   2.631
  343SOL    HW1 1928   2.382   0.845   2.694
  343SOL    HW2 1929   2.356   0.807   2.537
  344SOL     OW 1930   3.719   5.626   0.064
  344SOL    HW1 1931   3.739   5.665   0.154
  344SOL    HW2 1932   3.718   5.699   7.017
  345SOL     OW 1933   1.226   0.697   5.960
  345SOL    HW1 1934   1.319   0.694   5.998
  345SOL    HW2 1935   1.228   0.740   5.870
  346SOL     OW 1936   3.288   0.792   3.974
  346SOL    HW1 1937   3.288   0.702   4.018
  346SOL    HW2 1938   3.303   0.862   4.044
  347SOL     OW 1939   4.678   6.738   5.455
  347SOL    HW1 1940   4.714   6.720   5.547
  347SOL    HW2 1941   4.590   6.692   5.444
  348SOL     OW 1942   2.760   6.067   2.845
  348SOL    HW1 1943   2.761   6.007   2.925
  348SOL    HW2 1944   2.814   6.026   2.772
  349SOL     OW 1945   2.455   4.917   1.722
  349SOL    HW1 1946   2.509   4.951   1.645
  349SOL    HW2 1947   2.385   4.984   1.746
  350SOL     OW 1948   4.654   3.155   0.695
  350SOL    HW1 1949   4.613   3.182   0.608
  350SOL    HW2 1950   4.645   3.056   0.707
  351SOL     OW 1951   2.853   1.747   0.563
  351SOL    HW1 1952   2.800   1.803   0.626
  351SOL    HW2 1953   2.851   1.652   0.592
  352SOL     OW 1954   3.285   1.596   6.091
  352SOL    HW1 1955   3.244   1.506   6.096
  352SOL    HW2 1956   3.298   1.632   6.183
  353SOL     OW 1957   2.269   0.282   1.214
  353SOL    HW1 1958   2.172   0.285   1.193
  353SOL    HW2 1959   2.290   0.347   1.287
  354SOL     OW 1960   5.169   0.860   2.302
  354SOL    HW1 1961   5.190   0.847   2.205
  354SOL    HW2 1962   5.178   0.773   2.350
  355SOL     OW 1963   1.452   1.364   1.590
  355SOL    HW1 1964   1.450   1.284   1.530
  355SOL    HW2 1965   1.530   1.357   1.652
  356SOL     OW 1966   4.273   6.277   2.763
  356SOL    HW1 1967   4.203   6.265   2.692
  356SOL    HW2 1968   4.244   6.348   2.827
  357SOL     OW 1969   1.372   4.760   6.072
  357SOL    HW1 1970   1.408   4.845   6.111
  357SOL    HW2 1971   1.433   4.730   5.998
  358SOL     OW 1972   5.258   0.994   3.180
  358SOL    HW1 1973   5.279   0.958   3.270
  358SOL    HW2 1974   5.256   0.920   3.113
  359SOL     OW 1975   0.994   2.269   0.238
  359SOL    HW1 1976   0.899   2.300   0.241
  359SOL    HW2 1977   1.043   2.303   0.318
  360SOL     OW 1978   5.062   0.007   0.345
  360SOL    HW1 1979   4.991   6.958   0.343
  360SOL    HW2 1980   5.152   6.983   0.347
  361SOL     OW 1981   3.675   1.139   3.256
  361SOL    HW1 1982   3.722   1.202   3.193
  361SOL    HW2 1983   3.607   1.086   3.205
  362SOL     OW 1984   2.754   3.831   1.088
  362SOL    HW1 1985   2.709   3.907   1.041
  362SOL    HW2 1986   2.716   3.822   1.181
  363SOL     OW 1987   4.286   4.907   3.728
  363SOL    HW1 1988   4.311   4.827   3.782
  363SOL    HW2 1989   4.187   4.920   3.731
  364SOL     OW 1990   1.933   6.319   6.383
  364SOL    HW1 1991   1.868   6.345   6.311
  364SOL    HW2 1992   2.025   6.347   6.355
  365SOL     OW 1993   4.992   6.930   2.824
  365SOL    HW1 1994   4.961   6.989   2.749
  365SOL    HW2 1995   4.946   6.956   2.909
  366SOL     OW 1996   4.934   0.938   0.633
  366SOL    HW1 1997   5.004   0.984   0.580
  366SOL    HW2 1998   4.948   0.957   0.730
  367SOL     OW 1999   4.738   1.835   1.995
  367SOL    HW1 2000   4.826   1.868   1.962
  367SOL    HW2 2001   4.711   1.753   1.945
  368SOL     OW 2002   1.688   5.266   5.719
  368SOL    HW1 2003   1.743   5.346   5.743
  368SOL    HW2 2004   1.643   5.231   5.801
  369SOL     OW 2005   0.525   3.325   1.534
  369SOL    HW1 2006   0.542   3.304   1.630
  369SOL    HW2 2007   0.553   3.248   1.477
  370SOL     OW 2008   3.332   1.677   0.172
  370SOL    HW1 2009   3.289   1.755   0.127
  370SOL    HW2 2010   3.384   1.624   0.106
  371SOL     OW 2011   3.558   2.947   6.039
  371SOL    HW1 2012   3.631   2.960   6.106
  371SOL    HW2 2013   3.589   2.977   5.949
  372SOL     OW 2014   1.856   4.779   0.174
  372SOL    HW1 2015   1.937   4.809   0.124
  372SOL    HW2 2016   1.846   4.834   0.257
  373SOL     OW 2017   6.494   6.876   6.779
  373SOL    HW1 2018   6.579   6.842   6.737
  373SOL    HW2 2019   6.510   6.896   6.876
  374SOL     OW 2020   4.495   0.965   1.175
  374SOL    HW1 2021   4.397   0.967   1.155
  374SOL    HW2 2022   4.544   0.924   1.098
  375SOL     OW 2023   6.630   4.342   1.061
  375SOL    HW1 2024   6.593   4.426   1.021
  375SOL    HW2 2025   6.579   4.263   1.026
  376SOL     OW 2026   1.919   3.832   4.702
  376SOL    HW1 2027   1.900   3.741   4.739
  376SOL    HW2 2028   2.008   3.831   4.656
  377SOL     OW 2029   4.427   1.920   4.762
  377SOL    HW1 2030   4.527   1.919   4.757
  377SOL    HW2 2031   4.398   1.881   4.850
  378SOL     OW 2032   5.226   2.495   4.940
  378SOL    HW1 2033   5.163   2.461   4.870
  378SOL    HW2 2034   5.293   2.556   4.898
  379SOL     OW 2035   0.096   2.587   1.713
  379SOL    HW1 2036   0.152   2.595   1.631
  379SOL    HW2 2037   0.149   2.544   1.786
  380SOL     OW 2038   1.465   2.021   6.923
  380SOL    HW1 2039   1.519   2.016   7.007
  380SOL    HW2 2040   1.442   2.116   6.904
  381SOL     OW 2041   3.759   4.775   0.841
  381SOL    HW1 2042   3.750   4.679   0.868
  381SOL    HW2 2043   3.838   4.815   0.887
  382SOL     OW 2044   2.600   5.191   0.507
  382SOL    HW1 2045   2.530   5.194   0.577
  382SOL    HW2 2046   2.559   5.166   0.419
  383SOL     OW 2047   6.417   1.912   0.484
  383SOL    HW1 2048   6.388   2.008   0.479
  383SOL    HW2 2049   6.342   1.857   0.521
  384SOL     OW 2050   1.708   4.930   5.332
  384SOL    HW1 2051   1.792   4.922   5.280
  384SOL    HW2 2052   1.699   5.023   5.369
  385SOL     OW 2053   4.504   5.327   1.838
  385SOL    HW1 2054   4.463   5.267   1.769
  385SOL    HW2 2055   4.464   5.418   1.832
  386SOL     OW 2056   2.598   6.407   4.693
  386SOL    HW1 2057   2.547   6.347   4.755
  386SOL    HW2 2058   2.575   6.384   4.599
  387SOL     OW 2059   6.707   0.317   5.915
  387SOL    HW1 2060   6.619   0.332   5.960
  387SOL    HW2 2061   6.778   0.366   5.964
  388SOL     OW 2062   0.122   2.052   4.458
  388SOL    HW1 2063   0.120   2.107   4.375
  388SOL    HW2 2064   0.122   1.955   4.435
  389SOL     OW 2065   5.084   4.102   1.893
  389SOL    HW1 2066   5.003   4.048   1.916
  389SOL    HW2 2067   5.142   4.111   1.974
  390SOL     OW 2068   4.082   2.474   6.759
  390SOL    HW1 2069   3.982   2.469   6.755
  390SOL    HW2 2070   4.110   2.502   6.851
  391SOL     OW 2071   3.940   3.755   3.768
  391SOL    HW1 2072   3.890   3.785   3.849
  391SOL    HW2 2073   3.945   3.655   3.768
  392SOL     OW 2074   1.835   3.788   1.630
  392SOL    HW1 2075   1.932   3.811   1.627
  392SOL    HW2 2076   1.795   3.827   1.713
  393SOL     OW 2077   1.505   5.704   1.587
  393SOL    HW1 2078   1.545   5.633   1.646
  393SOL    HW2 2079   1.573   5.734   1.520
  394SOL     OW 2080   6.066   1.253   6.072
  394SOL    HW1 2081   6.155   1.274   6.112
  394SOL    HW2 2082   6.026   1.174   6.118
  395SOL     OW 2083   6.111   4.398   0.099
  395SOL    HW1 2084   6.160   4.324   0.052
  395SOL    HW2 2085   6.086   4.369   0.191
  396SOL     OW 2086   1.531   0.803   1.454
  396SOL    HW1 2087   1.455   0.797   1.390
  396SOL    HW2 2088   1.562   0.898   1.461
  397SOL     OW 2089   4.449   2.379   4.788
  397SOL    HW1 2090   4.360   2.334   4.780
  397SOL    HW2 2091   4.521   2.310   4.792
  398SOL     OW 2092   0.189   1.245   3.301
  398SOL    HW1 2093   0.119   1.311   3.329
  398SOL    HW2 2094   0.230   1.203   3.382
  399SOL     OW 2095   5.880   5.828   3.623
  399SOL    HW1 2096   5.862   5.844   3.720
  399SOL    HW2 2097   5.824   5.891   3.569
  400SOL     OW 2098   0.111   6.424   3.466
  400SOL    HW1 2099   0.126   6.446   3.562
  400SOL    HW2 2100   0.047   6.490   3.426
  401SOL     OW 2101   1.399   5.496   4.689
  401SOL    HW1 2102   1.367   5.549   4.610
  401SOL    HW2 2103   1.467   5.550   4.739
  402SOL     OW 2104   5.782   1.833   4.197
  402SOL    HW1 2105   5.801   1.735   4.198
  402SOL    HW2 2106   5.786   1.868   4.291
  403SOL     OW 2107   2.753   1.668   4.940
  403SOL    HW1 2108   2.679   1.726   4.906
  403SOL    HW2 2109   2.728   1.632   5.030
  404SOL     OW 2110   3.205   5.257   3.871
  404SOL    HW1 2111   3.249   5.221   3.953
  404SOL    HW2 2112   3.204   5.357   3.873
  405SOL     OW 2113   2.658   5.017   3.829
  405SOL    HW1 2114   2.668   4.996   3.732
  405SOL    HW2 2115   2.566   4.991   3.860
  406SOL     OW 2116   0.523   7.012   6.444
  406SOL    HW1 2117   0.495   6.929   6.396
  406SOL    HW2 2118   0.443   0.049   6.461
  407SOL     OW 2119   1.962   3.733   3.909
  407SOL    HW1 2120   2.031   3.804   3.920
  407SOL    HW2 2121   1.987   3.653   3.964
  408SOL     OW 2122   2.578   2.338   2.530
  408SOL    HW1 2123   2.576   2.417   2.470
  408SOL    HW2 2124   2.639   2.268   2.492
  409SOL     OW 2125   0.206   2.824   2.556
  409SOL    HW1 2126   0.285   2.801   2.499
  409SOL    HW2 2127   0.123   2.820   2.501
  410SOL     OW 2128   1.901   3.187   1.775
  410SOL    HW1 2129   1.860   3.206   1.865
  410SOL    HW2 2130   1.877   3.094   1.747
  411SOL     OW 2131   0.060   1.890   0.329
  411SOL    HW1 2132   0.044   1.794   0.351
  411SOL    HW2 2133   0.091   1.938   0.411
  412SOL     OW 2134   1.603   4.835   2.619
  412SOL    HW1 2135   1.516   4.878   2.597
  412SOL    HW2 2136   1.642   4.794   2.536
  413SOL     OW 2137   6.081   4.230   2.094
  413SOL    HW1 2138   6.052   4.317   2.054
  413SOL    HW2 2139   6.114   4.169   2.022
  414SOL     OW 2140   2.289   6.649   3.123
  414SOL    HW1 2141   2.307   6.591   3.202
  414SOL    HW2 2142   2.207   6.704   3.141
  415SOL     OW 2143   5.530   1.830   6.970
  415SOL    HW1 2144   5.508   1.904   6.906
  415SOL    HW2 2145   5.526   1.742   6.922
  416SOL     OW 2146   5.726   2.998   6.292
  416SOL    HW1 2147   5.708   3.096   6.287
  416SOL    HW2 2148   5.809   2.977   6.240
  417SOL     OW 2149   2.391   2.445   5.740
  417SOL    HW1 2150   2.387   2.367   5.677
  417SOL    HW2 2151   2.480   2.490   5.731
  418SOL     OW 2152   3.484   6.407   5.957
  418SOL    HW1 2153   3.398   6.370   5.920
  418SOL    HW2 2154   3.465   6.492   6.006
  419SOL     OW 2155   5.798   0.632   0.067
  419SOL    HW1 2156   5.776   0.663   6.996
  419SOL    HW2 2157   5.765   0.700   0.134
  420SOL     OW 2158   3.316   0.038   0.981
  420SOL    HW1 2159   3.355   0.128   0.963
  420SOL    HW2 2160   3.389   6.996   1.010
  421SOL     OW 2161   4.701   4.277   2.582
  421SOL    HW1 2162   4.643   4.262   2.663
  421SOL    HW2 2163   4.668   4.357   2.532
  422SOL     OW 2164   4.083   2.064   1.562
  422SOL    HW1 2165   4.008   2.122   1.592
  422SOL    HW2 2166   4.169   2.097   1.601
  423SOL     OW 2167   3.058   0.694   6.333
  423SOL    HW1 2168   3.109   0.654   6.256
  423SOL    HW2 2169   3.108   0.677   6.418
  424SOL     OW 2170   1.716   3.728   4.362
  424SOL    HW1 2171   1.731   3.816   4.407
  424SOL    HW2 2172   1.802   3.695   4.324
  425SOL     OW 2173   3.206   1.357   0.167
  425SOL    HW1 2174   3.233   1.341   0.262
  425SOL    HW2 2175   3.136   1.427   0.163
  426SOL     OW 2176   2.171   2.071   4.098
  426SOL    HW1 2177   2.246   2.058   4.032
  426SOL    HW2 2178   2.185   2.011   4.176
  427SOL     OW 2179   4.689   1.451   3.734
  427SOL    HW1 2180   4.787   1.443   3.716
  427SOL    HW2 2181   4.675   1.498   3.821
  428SOL     OW 2182   2.466   2.091   6.577
  428SOL    HW1 2183   2.404   2.151   6.526
  428SOL    HW2 2184   2.468   2.001   6.534
  429SOL     OW 2185   0.224   6.209   3.690
  429SOL    HW1 2186   0.130   6.199   3.657
  429SOL    HW2 2187   0.285   6.223   3.612
  430SOL     OW 2188   2.198   0.882   3.983
  430SOL    HW1 2189   2.127   0.952   3.977
  430SOL    HW2 2190   2.288   0.925   3.985
  431SOL     OW 2191   2.945   1.048   1.625
  431SOL    HW1 2192   2.912   1.134   1.587
  431SOL    HW2 2193   2.928   1.047   1.724
  432SOL     OW 2194   4.640   1.999   1.501
  432SOL    HW1 2195   4.612   2.021   1.594
  432SOL    HW2 2196   4.717   1.935   1.504
  433SOL     OW 2197   1.881   4.262   0.295
  433SOL    HW1 2198   1.937   4.183   0.272
  433SOL    HW2 2199   1.790   4.252   0.255
  434SOL     OW 2200   4.550   5.532   2.783
  434SOL    HW1 2201   4.514   5.549   2.691
  434SOL    HW2 2202   4.488   5.572   2.851
  435SOL     OW 2203   3.669   2.478   6.253
  435SOL    HW1 2204   3.654   2.517   6.163
  435SOL    HW2 2205   3.623   2.390   6.260
  436SOL     OW 2206   5.514   6.032   2.021
  436SOL    HW1 2207   5.490   5.976   2.100
  436SOL    HW2 2208   5.508   6.128   2.045
  437SOL     OW 2209   6.903   1.390   4.753
  437SOL    HW1 2210   6.991   1.422   4.787
  437SOL    HW2 2211   6.917   1.310   4.694
  438SOL     OW 2212   0.856   4.506   2.590
  438SOL    HW1 2213   0.906   4.426   2.622
  438SOL    HW2 2214   0.868   4.516   2.491
  439SOL     OW 2215   0.201   0.826   5.990
  439SOL    HW1 2216   0.259   0.889   5.938
  439SOL    HW2 2217   0.258   0.754   6.029
  440SOL     OW 2218   4.214   2.366   0.982
  440SOL    HW1 2219   4.151   2.298   1.020
  440SOL    HW2 2220   4.302   2.359   1.029
  441SOL     OW 2221   0.153   4.766   2.394
  441SOL    HW1 2222   0.211   4.706   2.449
  441SOL    HW2 2223   0.203   4.795   2.312
  442SOL     OW 2224   3.360   3.274   5.160
  442SOL    HW1 2225   3.449   3.294   5.120
  442SOL    HW2 2226   3.310   3.211   5.101
  443SOL     OW 2227   4.841   2.665   3.031
  443SOL    HW1 2228   4.744   2.641   3.029
  443SOL    HW2 2229   4.893   2.601   2.975
  444SOL     OW 2230   4.373   2.349   1.534
  444SOL    HW1 2231   4.342   2.413   1.603
  444SOL    HW2 2232   4.376   2.257   1.572
  445SOL     OW 2233   2.807   5.726   2.684
  445SOL    HW1 2234   2.786   5.636   2.721
  445SOL    HW2 2235   2.745   5.746   2.608
  446SOL     OW 2236   6.326   0.159   1.374
  446SOL    HW1 2237   6.227   0.158   1.388
  446SOL    HW2 2238   6.359   0.253   1.372
  447SOL     OW 2239   5.763   3.928   0.106
  447SOL    HW1 2240   5.748   4.005   0.044
  447SOL    HW2 2241   5.755   3.842   0.055
  448SOL     OW 2242   3.483   6.143   3.791
  448SOL    HW1 2243   3.421   6.100   3.856
  448SOL    HW2 2244   3.532   6.218   3.836
  449SOL     OW 2245   1.059   4.060   4.675
  449SOL    HW1 2246   1.040   4.057   4.773
  449SOL    HW2 2247   1.134   3.997   4.654
  450SOL     OW 2248   6.928   4.062   2.873
  450SOL    HW1 2249   6.931   4.160   2.888
  450SOL    HW2 2250   7.018   4.022   2.891
  451SOL     OW 2251   1.717   2.215   6.978
  451SOL    HW1 2252   1.733   2.168   0.044
  451SOL    HW2 2253   1.619   2.216   6.958
  452SOL     OW 2254   4.351   5.574   1.788
  452SOL    HW1 2255   4.364   5.566   1.689
  452SOL    HW2 2256   4.255   5.557   1.811
  453SOL     OW 2257   4.691   0.553   0.187
  453SOL    HW1 2258   4.656   0.629   0.242
  453SOL    HW2 2259   4.615   0.500   0.151
  454SOL     OW 2260   0.097   3.142   4.254
  454SOL    HW1 2261   0.185   3.108   4.219
  454SOL    HW2 2262   0.097   3.139   4.354
  455SOL     OW 2263   5.376   5.107   6.821
  455SOL    HW1 2264   5.341   5.070   6.735
  455SOL    HW2 2265   5.444   5.045   6.860
  456SOL     OW 2266   2.088   0.932   3.270
  456SOL    HW1 2267   2.151   0.916   3.346
  456SOL    HW2 2268   2.123   0.888   3.187
  457SOL     OW 2269   3.181   5.638   0.269
  457SOL    HW1 2270   3.208   5.667   0.362
  457SOL    HW2 2271   3.133   5.713   0.224
  458SOL     OW 2272   3.731   1.586   3.426
  458SOL    HW1 2273   3.663   1.655   3.449
  458SOL    HW2 2274   3.808   1.629   3.379
  459SOL     OW 2275   3.077   1.615   3.052
  459SOL    HW1 2276   3.119   1.592   3.140
  459SOL    HW2 2277   3.090   1.538   2.989
  460SOL     OW 2278   0.748   1.550   6.920
  460SOL    HW1 2279   0.667   1.540   6.862
  460SOL    HW2 2280   0.811   1.615   6.878
  461SOL     OW 2281   1.230   6.916   5.710
  461SOL    HW1 2282   1.192   6.824   5.706
  461SOL    HW2 2283   1.275   6.937   5.623
  462SOL     OW 2284   3.713   4.078   4.880
  462SOL    HW1 2285   3.796   4.029   4.907
  462SOL    HW2 2286   3.650   4.081   4.958
  463SOL     OW 2287   5.336   5.981   3.070
  463SOL    HW1 2288   5.263   5.956   3.135
  463SOL    HW2 2289   5.313   5.946   2.979
  464SOL     OW 2290   4.388   6.130   5.110
  464SOL    HW1 2291   4.434   6.206   5.155
  464SOL    HW2 2292   4.385   6.051   5.172
  465SOL     OW 2293   0.236   4.655   7.016
  465SOL    HW1 2294   0.309   4.617   0.051
  465SOL    HW2 2295   0.149   4.645   0.043
  466SOL     OW 2296   3.877   4.940   4.111
  466SOL    HW1 2297   3.801   4.945   4.176
  466SOL    HW2 2298   3.927   5.027   4.112
  467SOL     OW 2299   6.853   0.046   1.910
  467SOL    HW1 2300   6.799   6.996   1.864
  467SOL    HW2 2301   6.939   0.059   1.860
  468SOL     OW 2302   2.560   5.948   6.509
  468SOL    HW1 2303   2.548   6.040   6.471
  468SOL    HW2 2304   2.504   5.883   6.459
  469SOL     OW 2305   3.308   4.579   5.342
  469SOL    HW1 2306   3.331   4.504   5.281
  469SOL    HW2 2307   3.212   4.604   5.328
  470SOL     OW 2308   2.162   5.079   2.584
  470SOL    HW1 2309   2.111   5.163   2.601
  470SOL    HW2 2310   2.234   5.069   2.653
  471SOL     OW 2311   1.675   2.261   3.710
  471SOL    HW1 2312   1.606   2.210   3.661
  471SOL    HW2 2313   1.701   2.212   3.793
  472SOL     OW 2314   5.425   4.323   6.463
  472SOL    HW1 2315   5.509   4.271   6.470
  472SOL    HW2 2316   5.447   4.421   6.456
  473SOL     OW 2317   5.437   2.799   2.431
  473SOL    HW1 2318   5.407   2.704   2.434
  473SOL    HW2 2319   5.516   2.811   2.492
  474SOL     OW 2320   4.916   5.355   3.573
  474SOL    HW1 2321   4.894   5.374   3.669
  474SOL    HW2 2322   4.917   5.256   3.558
  475SOL     OW 2323   5.207   1.420   0.499
  475SOL    HW1 2324   5.141   1.430   0.425
  475SOL    HW2 2325   5.199   1.498   0.561
  476SOL     OW 2326   1.028   3.535   0.265
  476SOL    HW1 2327   1.124   3.536   0.239
  476SOL    HW2 2328   0.993   3.629   0.269
  477SOL     OW 2329   6.271   4.972   3.257
  477SOL    HW1 2330   6.285   4.921   3.342
  477SOL    HW2 2331   6.359   4.988   3.213
  478SOL     OW 2332   6.400   5.199   2.306
  478SOL    HW1 2333   6.445   5.156   2.385
  478SOL    HW2 2334   6.371   5.128   2.242
  479SOL     OW 2335   2.967   3.776   2.695
  479SOL    HW1 2336   2.929   3.725   2.618
  479SOL    HW2 2337   2.974   3.873   2.672
  480SOL     OW 2338   0.738   0.922   2.024
  480SOL    HW1 2339   0.835   0.942   2.010
  480SOL    HW2 2340   0.715   0.933   2.121
  481SOL     OW 2341   5.772   6.250   0.951
  481SOL    HW1 2342   5.769   6.224   1.048
  481SOL    HW2 2343   5.839   6.193   0.903
  482SOL     OW 2344   3.713   5.134   2.618
  482SOL    HW1 2345   3.724   5.036   2.637
  482SOL    HW2 2346   3.697   5.183   2.704
  483SOL     OW 2347   6.127   0.582   3.828
  483SOL    HW1 2348   6.202   0.549   3.886
  483SOL    HW2 2349   6.144   0.677   3.802
  484SOL     OW 2350   1.866   4.842   3.102
  484SOL    HW1 2351   1.940   4.775   3.110
  484SOL    HW2 2352   1.781   4.795   3.078
  485SOL     OW 2353   4.851   2.363   0.785
  485SOL    HW1 2354   4.820   2.410   0.868
  485SOL    HW2 2355   4.897   2.278   0.812
  486SOL     OW 2356   6.259   6.422   5.378
  486SOL    HW1 2357   6.285   6.435   5.473
  486SOL    HW2 2358   6.261   6.325   5.355
  487SOL     OW 2359   7.005   0.914   6.739
  487SOL    HW1 2360   0.028   0.871   6.818
  487SOL    HW2 2361   6.941   0.850   6.698
  488SOL     OW 2362   1.923   5.842   2.958
  488SOL    HW1 2363   1.951   5.916   2.897
  488SOL    HW2 2364   1.973   5.849   3.044
  489SOL     OW 2365   3.046   4.650   5.325
  489SOL    HW1 2366   3.020   4.747   5.321
  489SOL    HW2 2367   3.001   4.600   5.252
  490SOL     OW 2368   1.658   3.381   4.996
  490SOL    HW1 2369   1.586   3.436   4.953
  490SOL    HW2 2370   1.733   3.370   4.932
  491SOL     OW 2371   6.087   3.121   1.195
  491SOL    HW1 2372   6.033   3.104   1.112
  491SOL    HW2 2373   6.056   3.207   1.237
  492SOL     OW 2374   1.617   2.319   5.757
  492SOL    HW1 2375   1.616   2.412   5.721
  492SOL    HW2 2376   1.700   2.306   5.811
  493SOL     OW 2377   1.979   5.879   3.923
  493SOL    HW1 2378   1.928   5.794   3.918
  493SOL    HW2 2379   2.075   5.862   3.899
  494SOL     OW 2380   2.892   0.456   4.134
  494SOL    HW1 2381   2.971   0.394   4.135
  494SOL    HW2 2382   2.871   0.481   4.039
  495SOL     OW 2383   3.666   4.614   6.948
  495SOL    HW1 2384   3.669   4.559   0.012
  495SOL    HW2 2385   3.750   4.598   6.896
  496SOL     OW 2386   5.221   1.015   2.728
  496SOL    HW1 2387   5.241   1.093   2.787
  496SOL    HW2 2388   5.129   1.026   2.689
  497SOL     OW 2389   4.370   2.699   1.047
  497SOL    HW1 2390   4.271   2.706   1.037
  497SOL    HW2 2391   4.407   2.787   1.078
  498SOL     OW 2392   0.693   0.019   0.976
  498SOL    HW1 2393   0.716   7.012   1.069
  498SOL    HW2 2394   0.773   0.008   0.917
  499SOL     OW 2395   2.881   6.676   0.198
  499SOL    HW1 2396   2.806   6.741   0.208
  499SOL    HW2 2397   2.858   6.591   0.246
  500SOL     OW 2398   5.926   1.742   6.168
  500SOL    HW1 2399   5.957   1.724   6.074
  500SOL    HW2 2400   5.853   1.810   6.166
  501SOL     OW 2401   1.556   2.061   4.294
  501SOL    HW1 2402   1.551   2.128   4.368
  501SOL    HW2 2403   1.469   2.061   4.243
  502SOL     OW 2404   2.377   3.664   6.859
  502SOL    HW1 2405   2.447   3.620   6.914
  502SOL    HW2 2406   2.374   3.622   6.768
  503SOL     OW 2407   3.239   5.115   0.976
  503SOL    HW1 2408   3.167   5.153   0.918
  503SOL    HW2 2409   3.301   5.059   0.919
  504SOL     OW 2410   6.219   7.007   0.179
  504SOL    HW1 2411   6.216   7.016   0.279
  504SOL    HW2 2412   6.136   0.023   0.139
  505SOL     OW 2413   6.259   4.153   5.547
  505SOL    HW1 2414   6.327   4.221   5.518
  505SOL    HW2 2415   6.261   4.145   5.647
  506SOL     OW 2416   2.918   5.433   3.109
  506SOL    HW1 2417   2.938   5.391   3.198
  506SOL    HW2 2418   2.891   5.361   3.044
  507SOL     OW 2419   3.618   0.566   2.874
  507SOL    HW1 2420   3.698   0.524   2.832
  507SOL    HW2 2421   3.632   0.572   2.973
  508SOL     OW 2422   0.513   5.285   3.696
  508SOL    HW1 2423   0.447   5.282   3.621
  508SOL    HW2 2424   0.499   5.207   3.757
  509SOL     OW 2425   4.520   0.473   6.058
  509SOL    HW1 2426   4.421   0.458   6.061
  509SOL    HW2 2427   4.540   0.559   6.011
  510SOL     OW 2428   6.569   4.524   6.632
  510SOL    HW1 2429   6.523   4.582   6.699
  510SOL    HW2 2430   6.544   4.553   6.539
  511SOL     OW 2431   1.224   1.091   0.125
  511SOL    HW1 2432   1.179   1.009   0.089
  511SOL    HW2 2433   1.155   1.160   0.147
  512SOL     OW 2434   0.433   1.871   4.335
  512SOL    HW1 2435   0.460   1.919   4.418
  512SOL    HW2 2436   0.345   1.827   4.350
  513SOL     OW 2437   6.026   6.069   2.782
  513SOL    HW1 2438   6.085   6.137   2.826
  513SOL    HW2 2439   5.980   6.111   2.704
  514SOL     OW 2440   4.641   1.546   4.578
  514SOL    HW1 2441   4.727   1.511   4.540
  514SOL    HW2 2442   4.628   1.640   4.547
  515SOL     OW 2443   3.089   0.861   0.220
  515SOL    HW1 2444   3.081   0.958   0.241
  515SOL    HW2 2445   3.165   0.822   0.273
  516SOL     OW 2446   1.326   6.126   1.922
  516SOL    HW1 2447   1.426   6.126   1.920
  516SOL    HW2 2448   1.294   6.131   2.016
  517SOL     OW 2449   3.372   4.909   1.264
  517SOL    HW1 2450   3.298   4.843   1.253
  517SOL    HW2 2451   3.352   4.970   1.341
  518SOL     OW 2452   2.525   6.469   3.995
  518SOL    HW1 2453   2.513   6.396   3.928
  518SOL    HW2 2454   2.562   6.550   3.949
  519SOL     OW 2455   6.659   0.235   2.582
  519SOL    HW1 2456   6.667   0.150   2.634
  519SOL    HW2 2457   6.750   0.264   2.553
  520SOL     OW 2458   2.211   5.431   0.860
  520SOL    HW1 2459   2.256   5.434   0.771
  520SOL    HW2 2460   2.245   5.506   0.917
  521SOL     OW 2461   6.438   5.814   5.396
  521SOL    HW1 2462   6.495   5.837   5.317
  521SOL    HW2 2463   6.345   5.796   5.366
  522SOL     OW 2464   4.170   4.530   6.893
  522SOL    HW1 2465   4.088   4.557   6.843
  522SOL    HW2 2466   4.144   4.468   6.968
  523SOL     OW 2467   1.875   6.960   6.034
  523SOL    HW1 2468   1.835   6.875   6.069
  523SOL    HW2 2469   1.864   6.965   5.935
  524SOL     OW 2470   6.948   0.884   0.908
  524SOL    HW1 2471   6.995   0.843   0.986
  524SOL    HW2 2472   6.903   0.968   0.937
  525SOL     OW 2473   0.885   3.509   3.526
  525SOL    HW1 2474   0.908   3.481   3.432
  525SOL    HW2 2475   0.949   3.580   3.556
  526SOL     OW 2476   3.828   6.759   5.028
  526SOL    HW1 2477   3.814   6.849   5.069
  526SOL    HW2 2478   3.798   6.688   5.093
  527SOL     OW 2479   0.296   1.032   0.791
  527SOL    HW1 2480   0.309   1.003   0.886
  527SOL    HW2 2481   0.274   1.129   0.789
  528SOL     OW 2482   6.771   1.696   4.411
  528SOL    HW1 2483   6.749   1.642   4.491
  528SOL    HW2 2484   6.687   1.734   4.372
  529SOL     OW 2485   1.416   1.092   5.855
  529SOL    HW1 2486   1.374   1.015   5.808
  529SOL    HW2 2487   1.510   1.104   5.822
  530SOL     OW 2488   3.276   4.654   1.724
  530SOL    HW1 2489   3.215   4.596   1.670
  530SOL    HW2 2490   3.366   4.657   1.681
  531SOL     OW 2491   0.874   0.868   6.130
  531SOL    HW1 2492   0.917   0.778   6.119
  531SOL    HW2 2493   0.890   0.922   6.047
  532SOL     OW 2494   3.180   0.683   6.584
  532SOL    HW1 2495   3.106   0.726   6.636
  532SOL    HW2 2496   3.247   0.644   6.648
  533SOL     OW 2497   4.452   6.983   4.577
  533SOL    HW1 2498   4.471   0.040   4.517
  533SOL    HW2 2499   4.353   6.979   4.595
  534SOL     OW 2500   2.135   4.069   1.762
  534SOL    HW1 2501   2.167   4.040   1.852
  534SOL    HW2 2502   2.158   3.999   1.695
  535SOL     OW 2503   4.760   4.020   4.705
  535SOL    HW1 2504   4.802   3.979   4.624
  535SOL    HW2 2505   4.697   3.956   4.747
  536SOL     OW 2506   6.648   6.531   1.204
  536SOL    HW1 2507   6.619   6.464   1.135
  536SOL    HW2 2508   6.740   6.565   1.181
  537SOL     OW 2509   2.554   1.800   2.306
  537SOL    HW1 2510   2.603   1.811   2.219
  537SOL    HW2 2511   2.457   1.786   2.288
  538SOL     OW 2512   4.384   4.621   5.321
  538SOL    HW1 2513   4.297   4.660   5.354
  538SOL    HW2 2514   4.365   4.553   5.251
  539SOL     OW 2515   2.478   0.311   6.698
  539SOL    HW1 2516   2.458   0.226   6.746
  539SOL    HW2 2517   2.487   0.386   6.764
  540SOL     OW 2518   2.169   1.204   5.210
  540SOL    HW1 2519   2.102   1.171   5.277
  540SOL    HW2 2520   2.148   1.298   5.187
  541SOL     OW 2521   5.179   6.316   3.486
  541SOL    HW1 2522   5.211   6.227   3.452
  541SOL    HW2 2523   5.092   6.339   3.443
  542SOL     OW 2524   3.559   6.012   5.870
  542SOL    HW1 2525   3.517   6.085   5.925
  542SOL    HW2 2526   3.567   5.929   5.925
  543SOL     OW 2527   6.225   2.492   4.435
  543SOL    HW1 2528   6.132   2.521   4.416
  543SOL    HW2 2529   6.274   2.565   4.483
  544SOL     OW 2530   1.088   2.992   1.284
  544SOL    HW1 2531   1.177   3.038   1.276
  544SOL    HW2 2532   1.055   2.969   1.193
  545SOL     OW 2533   6.653   5.199   0.564
  545SOL    HW1 2534   6.599   5.139   0.505
  545SOL    HW2 2535   6.600   5.222   0.646
  546SOL     OW 2536   0.108   4.461   2.094
  546SOL    HW1 2537   0.022   4.502   2.122
  546SOL    HW2 2538   0.091   4.388   2.028
  547SOL     OW 2539   4.221   6.918   6.715
  547SOL    HW1 2540   4.145   6.881   6.663
  547SOL    HW2 2541   4.304   6.917   6.659
  548SOL     OW 2542   4.200   2.542   6.989
  548SOL    HW1 2543   4.142   2.498   0.038
  548SOL    HW2 2544   4.188   2.641   6.993
  549SOL     OW 2545   5.583   2.444   3.563
  549SOL    HW1 2546   5.557   2.375   3.631
  549SOL    HW2 2547   5.648   2.509   3.603
  550SOL     OW 2548   6.435   5.328   3.475
  550SOL    HW1 2549   6.405   5.326   3.380
  550SOL    HW2 2550   6.356   5.326   3.536
  551SOL     OW 2551   5.357   0.637   6.962
  551SOL    HW1 2552   5.390   0.729   6.939
  551SOL    HW2 2553   5.265   0.644   7.002
  552SOL     OW 2554   0.338   0.100   4.697
  552SOL    HW1 2555   0.304   0.168   4.762
  552SOL    HW2 2556   0.284   0.016   4.706
  553SOL     OW 2557   3.523   2.086   6.057
  553SOL    HW1 2558   3.494   2.178   6.084
  553SOL    HW2 2559   3.541   2.084   5.959
  554SOL     OW 2560   6.639   5.863   0.549
  554SOL    HW1 2561   6.731   5.901   0.557
  554SOL    HW2 2562   6.609   5.830   0.639
  555SOL     OW 2563   2.664   4.440   6.150
  555SOL    HW1 2564   2.740   4.491   6.110
  555SOL    HW2 2565   2.677   4.434   6.249
  556SOL     OW 2566   6.339   6.112   2.433
  556SOL    HW1 2567   6.425   6.146   2.394
  556SOL    HW2 2568   6.275   6.189   2.446
  557SOL     OW 2569   5.549   3.752   6.145
  557SOL    HW1 2570   5.476   3.753   6.214
  557SOL    HW2 2571   5.516   3.796   6.061
  558SOL     OW 2572   3.256   3.616   2.240
  558SOL    HW1 2573   3.261   3.715   2.229
  558SOL    HW2 2574   3.248   3.594   2.337
  559SOL     OW 2575   6.203   1.362   6.457
  559SOL    HW1 2576   6.277   1.422   6.488
  559SOL    HW2 2577   6.223   1.329   6.365
  560SOL     OW 2578   0.252   2.356   3.818
  560SOL    HW1 2579   0.303   2.305   3.887
  560SOL    HW2 2580   0.265   2.313   3.729
  561SOL     OW 2581   0.413   4.105   6.998
  561SOL    HW1 2582   0.375   4.179   6.942
  561SOL    HW2 2583   0.505   4.083   6.967
  562SOL     OW 2584   4.510   6.276   3.555
  562SOL    HW1 2585   4.521   6.247   3.650
  562SOL    HW2 2586   4.543   6.370   3.544
  563SOL     OW 2587   1.192   1.111   3.632
  563SOL    HW1 2588   1.196   1.039   3.701
  563SOL    HW2 2589   1.189   1.200   3.677
  564SOL     OW 2590   5.615   1.798   5.531
  564SOL    HW1 2591   5.651   1.891   5.544
  564SOL    HW2 2592   5.570   1.768   5.614
  565SOL     OW 2593   2.896   3.407   3.560
  565SOL    HW1 2594   2.918   3.341   3.488
  565SOL    HW2 2595   2.855   3.488   3.518
  566SOL     OW 2596   2.161   2.279   3.677
  566SOL    HW1 2597   2.226   2.261   3.603
  566SOL    HW2 2598   2.111   2.195   3.698
  567SOL     OW 2599   2.014   3.331   5.371
  567SOL    HW1 2600   1.925   3.321   5.325
  567SOL    HW2 2601   2.015   3.274   5.453
  568SOL     OW 2602   1.351   6.866   0.021
  568SOL    HW1 2603   1.422   6.926   0.058
  568SOL    HW2 2604   1.357   6.776   0.064
  569SOL     OW 2605   5.192   3.648   5.885
  569SOL    HW1 2606   5.122   3.686   5.825
  569SOL    HW2 2607   5.274   3.706   5.882
  570SOL     OW 2608   3.936   0.601   6.097
  570SOL    HW1 2609   3.893   0.531   6.041
  570SOL    HW2 2610   3.870   0.636   6.163
  571SOL     OW 2611   2.475   4.367   1.695
  571SOL    HW1 2612   2.561   4.317   1.685
  571SOL    HW2 2613   2.492   4.465   1.683
  572SOL     OW 2614   3.139   1.015   4.394
  572SOL    HW1 2615   3.099   1.091   4.344
  572SOL    HW2 2616   3.132   1.031   4.492
  573SOL     OW 2617   0.335   0.755   5.461
  573SOL    HW1 2618   0.278   0.705   5.526
  573SOL    HW2 2619   0.365   0.841   5.503
  574SOL     OW 2620   1.818   0.999   6.424
  574SOL    HW1 2621   1.847   1.080   6.373
  574SOL    HW2 2622   1.869   0.920   6.392
  575SOL     OW 2623   3.807   3.724   0.542
  575SOL    HW1 2624   3.756   3.640   0.564
  575SOL    HW2 2625   3.899   3.717   0.580
  576SOL     OW 2626   1.120   0.838   3.041
  576SOL    HW1 2627   1.022   0.853   3.031
  576SOL    HW2 2628   1.162   0.915   3.089
  577SOL     OW 2629   0.268   0.540   1.983
  577SOL    HW1 2630   0.286   0.621   2.039
  577SOL    HW2 2631   0.288   0.458   2.037
  578SOL     OW 2632   4.064   6.605   6.997
  578SOL    HW1 2633   4.074   6.593   6.898
  578SOL    HW2 2634   4.010   6.529   0.014
  579SOL     OW 2635   1.010   4.113   2.049
  579SOL    HW1 2636   0.919   4.073   2.042
  579SOL    HW2 2637   1.003   4.210   2.072
  580SOL     OW 2638   4.712   5.097   4.534
  580SOL    HW1 2639   4.801   5.101   4.489
  580SOL    HW2 2640   4.686   5.001   4.548
  581SOL     OW 2641   1.813   2.457   4.252
  581SOL    HW1 2642   1.874   2.380   4.236
  581SOL    HW2 2643   1.743   2.459   4.181
  582SOL     OW 2644   5.630   4.368   5.440
  582SOL    HW1 2645   5.597   4.425   5.366
  582SOL    HW2 2646   5.558   4.358   5.509
  583SOL     OW 2647   3.229   6.155   5.704
  583SOL    HW1 2648   3.196   6.209   5.627
  583SOL    HW2 2649   3.292   6.084   5.671
  584SOL     OW 2650   4.111   0.676   4.880
  584SOL    HW1 2651   4.124   0.579   4.856
  584SOL    HW2 2652   4.197   0.713   4.914
  585SOL     OW 2653   3.451   6.773   1.436
  585SOL    HW1 2654   3.485   6.680   1.449
  585SOL    HW2 2655   3.358   6.771   1.401
  586SOL     OW 2656   3.489   0.010   0.416
  586SOL    HW1 2657   3.512   7.012   0.511
  586SOL    HW2 2658   3.494   0.109   0.399
  587SOL     OW 2659   4.939   1.437   2.430
  587SOL    HW1 2660   4.968   1.383   2.509
  587SOL    HW2 2661   4.977   1.529   2.435
  588SOL     OW 2662   2.218   4.488   2.735
  588SOL    HW1 2663   2.175   4.578   2.729
  588SOL    HW2 2664   2.191   4.432   2.656
  589SOL     OW 2665   3.341   4.893   0.527
  589SOL    HW1 2666   3.421   4.833   0.534
  589SOL    HW2 2667   3.342   4.959   0.602
  590SOL     OW 2668   2.984   2.365   6.406
  590SOL    HW1 2669   3.068   2.315   6.386
  590SOL    HW2 2670   2.998   2.463   6.391
  591SOL     OW 2671   2.735   6.855   3.710
  591SOL    HW1 2672   2.799   6.929   3.693
  591SOL    HW2 2673   2.642   6.891   3.718
  592SOL     OW 2674   4.919   2.600   4.990
  592SOL    HW1 2675   4.903   2.607   5.089
  592SOL    HW2 2676   4.847   2.650   4.941
  593SOL     OW 2677   1.887   1.125   6.695
  593SOL    HW1 2678   1.963   1.189   6.690
  593SOL    HW2 2679   1.888   1.065   6.615
  594SOL     OW 2680   3.672   1.200   4.120
  594SOL    HW1 2681   3.755   1.199   4.065
  594SOL    HW2 2682   3.697   1.208   4.217
  595SOL     OW 2683   5.991   3.987   2.326
  595SOL    HW1 2684   5.932   4.067   2.311
  595SOL    HW2 2685   6.086   4.013   2.309
  596SOL     OW 2686   5.690   4.686   4.307
  596SOL    HW1 2687   5.622   4.615   4.323
  596SOL    HW2 2688   5.746   4.699   4.389
  597SOL     OW 2689   3.062   1.909   6.869
  597SOL    HW1 2690   3.114   1.853   6.805
  597SOL    HW2 2691   3.067   2.005   6.840
  598SOL     OW 2692   3.238   3.405   3.280
  598SOL    HW1 2693   3.282   3.385   3.367
  598SOL    HW2 2694   3.305   3.398   3.206
  599SOL     OW 2695   1.662   4.802   1.412
  599SOL    HW1 2696   1.633   4.713   1.447
  599SOL    HW2 2697   1.592   4.837   1.349
  600SOL     OW 2698   0.264   3.752   4.930
  600SOL    HW1 2699   0.250   3.840   4.883
  600SOL    HW2 2700   0.323   3.767   5.009
  601SOL     OW 2701   0.465   6.490   6.103
  601SOL    HW1 2702   0.435   6.472   6.009
  601SOL    HW2 2703   0.408   6.562   6.143
  602SOL     OW 2704   1.483   1.307   3.481
  602SOL    HW1 2705   1.498   1.222   3.531
  602SOL    HW2 2706   1.498   1.292   3.383
  603SOL     OW 2707   1.682   2.109   3.943
  603SOL    HW1 2708   1.597   2.133   3.989
  603SOL    HW2 2709   1.747   2.072   4.010
  604SOL     OW 2710   5.496   2.664   0.906
  604SOL    HW1 2711   5.588   2.703   0.918
  604SOL    HW2 2712   5.469   2.618   0.991
  605SOL     OW 2713   5.868   6.394   1.339
  605SOL    HW1 2714   5.842   6.440   1.424
  605SOL    HW2 2715   5.967   6.397   1.327
  606SOL     OW 2716   3.098   6.329   4.909
  606SOL    HW1 2717   3.194   6.349   4.925
  606SOL    HW2 2718   3.090   6.254   4.843
  607SOL     OW 2719   1.436   2.713   6.011
  607SOL    HW1 2720   1.467   2.694   5.917
  607SOL    HW2 2721   1.343   2.677   6.023
  608SOL     OW 2722   3.390   1.348   6.959
  608SOL    HW1 2723   3.328   1.363   0.015
  608SOL    HW2 2724   3.405   1.250   6.947
  609SOL     OW 2725   3.908   3.005   2.256
  609SOL    HW1 2726   3.985   3.034   2.312
  609SOL    HW2 2727   3.845   2.950   2.311
  610SOL     OW 2728   4.938   3.344   1.931
  610SOL    HW1 2729   4.931   3.298   1.842
  610SOL    HW2 2730   4.969   3.438   1.918
  611SOL     OW 2731   4.115   0.975   2.417
  611SOL    HW1 2732   4.035   0.959   2.360
  611SOL    HW2 2733   4.088   0.978   2.513
  612SOL     OW 2734   4.981   4.545   4.312
  612SOL    HW1 2735   5.006   4.611   4.241
  612SOL    HW2 2736   5.064   4.513   4.357
  613SOL     OW 2737   3.965   4.998   6.506
  613SOL    HW1 2738   3.907   5.079   6.508
  613SOL    HW2 2739   3.933   4.937   6.433
  614SOL     OW 2740   2.948   6.809   6.585
  614SOL    HW1 2741   3.014   6.852   6.645
  614SOL    HW2 2742   2.994   6.775   6.503
  615SOL     OW 2743   0.031   5.125   2.890
  615SOL    HW1 2744   6.965   5.099   2.932
  615SOL    HW2 2745   0.014   5.177   2.806
  616SOL     OW 2746   6.437   3.323   4.012
  616SOL    HW1 2747   6.382   3.347   3.932
  616SOL    HW2 2748   6.384   3.262   4.072
  617SOL     OW 2749   2.552   0.269   5.876
  617SOL    HW1 2750   2.493   0.254   5.955
  617SOL    HW2 2751   2.586   0.181   5.842
  618SOL     OW 2752   1.715   0.810   3.789
  618SOL    HW1 2753   1.663   0.896   3.789
  618SOL    HW2 2754   1.804   0.825   3.746
  619SOL     OW 2755   1.116   1.980   6.859
  619SOL    HW1 2756   1.097   1.886   6.886
  619SOL    HW2 2757   1.169   2.025   6.930
  620SOL     OW 2758   4.925   3.667   0.626
  620SOL    HW1 2759   4.929   3.742   0.559
  620SOL    HW2 2760   4.991   3.685   0.699
  621SOL     OW 2761   0.015   5.708   0.731
  621SOL    HW1 2762   7.008   5.630   0.676
  621SOL    HW2 2763   7.016   5.690   0.827
  622SOL     OW 2764   0.360   0.948   0.101
  622SOL    HW1 2765   0.429   0.938   0.029
  622SOL    HW2 2766   0.404   0.975   0.186
  623SOL     OW 2767   0.453   4.555   5.020
  623SOL    HW1 2768   0.539   4.589   4.981
  623SOL    HW2 2769   0.382   4.557   4.949
  624SOL     OW 2770   0.492   1.515   1.290
  624SOL    HW1 2771   0.500   1.607   1.330
  624SOL    HW2 2772   0.541   1.450   1.348
  625SOL     OW 2773   1.658   1.360   2.720
  625SOL    HW1 2774   1.726   1.379   2.649
  625SOL    HW2 2775   1.677   1.270   2.759
  626SOL     OW 2776   2.807   5.772   5.000
  626SOL    HW1 2777   2.784   5.758   5.096
  626SOL    HW2 2778   2.866   5.697   4.969
  627SOL     OW 2779   5.265   6.449   6.924
  627SOL    HW1 2780   5.184   6.446   6.983
  627SOL    HW2 2781   5.326   6.522   6.955
  628SOL     OW 2782   5.517   3.894   3.028
  628SOL    HW1 2783   5.510   3.839   2.945
  628SOL    HW2 2784   5.607   3.880   3.069
  629SOL     OW 2785   1.438   0.371   1.005
  629SOL    HW1 2786   1.379   0.323   0.940
  629SOL    HW2 2787   1.498   0.434   0.956
  630SOL     OW 2788   2.667   1.151   1.274
  630SOL    HW1 2789   2.723   1.077   1.312
  630SOL    HW2 2790   2.709   1.239   1.297
  631SOL     OW 2791   2.800   0.792   4.563
  631SOL    HW1 2792   2.886   0.742   4.563
  631SOL    HW2 2793   2.725   0.731   4.589
  632SOL     OW 2794   2.862   0.303   0.794
  632SOL    HW1 2795   2.916   0.220   0.779
  632SOL    HW2 2796   2.837   0.310   0.890
  633SOL     OW 2797   2.157   0.233   5.158
  633SOL    HW1 2798   2.141   0.253   5.255
  633SOL    HW2 2799   2.124   0.141   5.138
  634SOL     OW 2800   2.656   5.785   1.826
  634SOL    HW1 2801   2.642   5.863   1.888
  634SOL    HW2 2802   2.725   5.809   1.758
  635SOL     OW 2803   3.002   0.051   2.837
  635SOL    HW1 2804   2.951   0.070   2.921
  635SOL    HW2 2805   3.048   0.134   2.807
  636SOL     OW 2806   4.503   5.470   6.501
  636SOL    HW1 2807   4.578   5.468   6.435
  636SOL    HW2 2808   4.512   5.550   6.560
  637SOL     OW 2809   5.739   4.871   6.611
  637SOL    HW1 2810   5.726   4.871   6.512
  637SOL    HW2 2811   5.837   4.861   6.632
  638SOL     OW 2812   5.387   1.534   3.623
  638SOL    HW1 2813   5.477   1.576   3.621
  638SOL    HW2 2814   5.396   1.435   3.613
  639SOL     OW 2815   4.702   3.553   1.434
  639SOL    HW1 2816   4.668   3.491   1.505
  639SOL    HW2 2817   4.798   3.575   1.453
  640SOL     OW 2818   2.451   3.266   5.332
  640SOL    HW1 2819   2.530   3.320   5.360
  640SOL    HW2 2820   2.482   3.180   5.292
  641SOL     OW 2821   6.999   5.719   5.043
  641SOL    HW1 2822   6.943   5.668   4.978
  641SOL    HW2 2823   6.972   5.695   5.136
  642SOL     OW 2824   1.583   4.457   6.226
  642SOL    HW1 2825   1.535   4.423   6.145
  642SOL    HW2 2826   1.531   4.532   6.266
  643SOL     OW 2827   6.068   6.091   4.894
  643SOL    HW1 2828   6.157   6.106   4.851
  643SOL    HW2 2829   6.014   6.175   4.889
  644SOL     OW 2830   2.298   6.322   1.581
  644SOL    HW1 2831   2.365   6.304   1.509
  644SOL    HW2 2832   2.313   6.413   1.620
  645SOL     OW 2833   0.312   2.605   3.167
  645SOL    HW1 2834   0.375   2.665   3.117
  645SOL    HW2 2835   0.229   2.656   3.188
  646SOL     OW 2836   1.273   3.305   4.700
  646SOL    HW1 2837   1.316   3.298   4.609
  646SOL    HW2 2838   1.194   3.365   4.694
  647SOL     OW 2839   5.515   3.501   0.568
  647SOL    HW1 2840   5.516   3.556   0.485
  647SOL    HW2 2841   5.588   3.532   0.630
  648SOL     OW 2842   4.516   2.459   4.534
  648SOL    HW1 2843   4.583   2.385   4.534
  648SOL    HW2 2844   4.456   2.450   4.614
  649SOL     OW 2845   4.341   4.490   1.830
  649SOL    HW1 2846   4.264   4.488   1.766
  649SOL    HW2 2847   4.368   4.397   1.854
  650SOL     OW 2848   5.207   4.607   0.743
  650SOL    HW1 2849   5.208   4.619   0.644
  650SOL    HW2 2850   5.284   4.656   0.783
  651SOL     OW 2851   1.249   5.575   6.533
  651SOL    HW1 2852   1.188   5.620   6.468
  651SOL    HW2 2853   1.317   5.640   6.566
  652SOL     OW 2854   5.000   1.849   2.653
  652SOL    HW1 2855   5.033   1.937   2.688
  652SOL    HW2 2856   5.062   1.776   2.683
  653SOL     OW 2857   3.641   4.977   2.921
  653SOL    HW1 2858   3.643   4.976   3.020
  653SOL    HW2 2859   3.722   4.932   2.884
  654SOL     OW 2860   6.688   5.554   6.416
  654SOL    HW1 2861   6.699   5.653   6.411
  654SOL    HW2 2862   6.601   5.532   6.460
  655SOL     OW 2863   0.838   1.896   0.011
  655SOL    HW1 2864   0.882   1.836   6.965
  655SOL    HW2 2865   0.907   1.955   0.054
  656SOL     OW 2866   1.960   6.484   1.178
  656SOL    HW1 2867   1.975   6.432   1.094
  656SOL    HW2 2868   1.881   6.448   1.226
  657SOL     OW 2869   4.253   0.801   0.070
  657SOL    HW1 2870   4.286   0.716   0.027
  657SOL    HW2 2871   4.154   0.795   0.083
  658SOL     OW 2872   3.729   5.395   6.750
  658SOL    HW1 2873   3.652   5.338   6.780
  658SOL    HW2 2874   3.703   5.491   6.755
  659SOL     OW 2875   3.958   0.741   5.821
  659SOL    HW1 2876   3.979   0.750   5.918
  659SOL    HW2 2877   3.979   0.826   5.773
  660SOL     OW 2878   3.727   6.095   3.174
  660SOL    HW1 2879   3.773   6.123   3.090
  660SOL    HW2 2880   3.781   6.124   3.253
  661SOL     OW 2881   5.455   4.944   2.359
  661SOL    HW1 2882   5.475   4.903   2.448
  661SOL    HW2 2883   5.356   4.953   2.349
  662SOL     OW 2884   4.208   1.609   0.352
  662SOL    HW1 2885   4.199   1.679   0.423
  662SOL    HW2 2886   4.261   1.646   0.276
  663SOL     OW 2887   1.453   4.200   4.712
  663SOL    HW1 2888   1.476   4.213   4.615
  663SOL    HW2 2889   1.474   4.284   4.762
  664SOL     OW 2890   5.913   0.077   6.189
  664SOL    HW1 2891   5.984   0.035   6.245
  664SOL    HW2 2892   5.953   0.110   6.104
  665SOL     OW 2893   0.931   4.504   1.510
  665SOL    HW1 2894   0.955   4.458   1.596
  665SOL    HW2 2895   0.941   4.439   1.434
  666SOL     OW 2896   4.539   1.382   1.883
  666SOL    HW1 2897   4.544   1.354   1.787
  666SOL    HW2 2898   4.476   1.322   1.932
  667SOL     OW 2899   1.061   0.279   2.145
  667SOL    HW1 2900   1.022   0.251   2.233
  667SOL    HW2 2901   1.133   0.347   2.160
  668SOL     OW 2902   5.854   3.325   6.990
  668SOL    HW1 2903   5.771   3.350   0.019
  668SOL    HW2 2904   5.930   3.313   0.033
  669SOL     OW 2905   5.311   1.908   3.403
  669SOL    HW1 2906   5.264   1.864   3.480
  669SOL    HW2 2907   5.406   1.876   3.399
  670SOL     OW 2908   3.706   2.028   2.319
  670SOL    HW1 2909   3.619   2.077   2.323
  670SOL    HW2 2910   3.720   1.993   2.227
  671SOL     OW 2911   2.143   6.280   2.238
  671SOL    HW1 2912   2.234   6.318   2.222
  671SOL    HW2 2913   2.074   6.346   2.209
  672SOL     OW 2914   0.478   0.301   1.878
  672SOL    HW1 2915   0.418   0.291   1.957
  672SOL    HW2 2916   0.558   0.242   1.889
  673SOL     OW 2917   6.087   6.628   6.645
  673SOL    HW1 2918   6.179   6.644   6.681
  673SOL    HW2 2919   6.024   6.612   6.720
  674SOL     OW 2920   5.090   0.289   4.001
  674SOL    HW1 2921   5.179   0.316   3.965
  674SOL    HW2 2922   5.096   0.273   4.099
  675SOL     OW 2923   0.365   3.709   2.550
  675SOL    HW1 2924   0.295   3.758   2.602
  675SOL    HW2 2925   0.451   3.708   2.602
  676SOL     OW 2926   2.642   6.089   6.740
  676SOL    HW1 2927   2.575   6.140   6.794
  676SOL    HW2 2928   2.595   6.029   6.676
  677SOL     OW 2929   5.903   1.319   1.037
  677SOL    HW1 2930   5.887   1.413   1.007
  677SOL    HW2 2931   5.999   1.307   1.062
  678SOL     OW 2932   1.197   5.361   3.816
  678SOL    HW1 2933   1.161   5.281   3.769
  678SOL    HW2 2934   1.184   5.350   3.915
  679SOL     OW 2935   4.868   1.959   5.111
  679SOL    HW1 2936   4.940   1.890   5.107
  679SOL    HW2 2937   4.782   1.915   5.139
  680SOL     OW 2938   6.303   6.357   3.685
  680SOL    HW1 2939   6.254   6.270   3.673
  680SOL    HW2 2940   6.269   6.402   3.767
  681SOL     OW 2941   4.614   4.848   2.777
  681SOL    HW1 2942   4.631   4.908   2.855
  681SOL    HW2 2943   4.684   4.862   2.708
  682SOL     OW 2944   6.828   1.827   3.141
  682SOL    HW1 2945   6.764   1.750   3.133
  682SOL    HW2 2946   6.890   1.827   3.062
  683SOL     OW 2947   3.294   3.973   0.705
  683SOL    HW1 2948   3.238   3.890   0.711
  683SOL    HW2 2949   3.325   3.999   0.797
  684SOL     OW 2950   6.363   1.502   5.679
  684SOL    HW1 2951   6.457   1.510   5.712
  684SOL    HW2 2952   6.362   1.458   5.590
  685SOL     OW 2953   3.070   6.817   2.894
  685SOL    HW1 2954   3.052   6.805   2.992
  685SOL    HW2 2955   3.050   6.912   2.868
  686SOL     OW 2956   4.032   0.601   5.392
  686SOL    HW1 2957   4.017   0.562   5.302
  686SOL    HW2 2958   4.131   0.615   5.406
  687SOL     OW 2959   0.137   1.238   4.080
  687SOL    HW1 2960   0.091   1.165   4.029
  687SOL    HW2 2961   0.078   1.271   4.153
  688SOL     OW 2962   5.660   1.996   0.148
  688SOL    HW1 2963   5.620   1.946   0.071
  688SOL    HW2 2964   5.662   2.093   0.127
  689SOL     OW 2965   2.089   5.533   0.256
  689SOL    HW1 2966   2.069   5.558   0.162
  689SOL    HW2 2967   2.103   5.434   0.262
  690SOL     OW 2968   5.558   3.644   3.436
  690SOL    HW1 2969   5.651   3.650   3.401
  690SOL    HW2 2970   5.560   3.645   3.536
  691SOL     OW 2971   5.590   1.249   1.536
  691SOL    HW1 2972   5.555   1.176   1.477
  691SOL    HW2 2973   5.612   1.211   1.626
  692SOL     OW 2974   1.320   1.535   3.805
  692SOL    HW1 2975   1.318   1.442   3.842
  692SOL    HW2 2976   1.288   1.599   3.874
  693SOL     OW 2977   5.660   4.747   3.351
  693SOL    HW1 2978   5.753   4.783   3.350
  693SOL    HW2 2979   5.663   4.650   3.375
  694SOL     OW 2980   3.973   5.580   4.451
  694SOL    HW1 2981   3.962   5.671   4.412
  694SOL    HW2 2982   3.918   5.515   4.399
  695SOL     OW 2983   4.715   6.531   3.794
  695SOL    HW1 2984   4.708   6.455   3.860
  695SOL    HW2 2985   4.703   6.495   3.701
  696SOL     OW 2986   5.644   4.072   2.231
  696SOL    HW1 2987   5.644   4.056   2.133
  696SOL    HW2 2988   5.721   4.130   2.256
  697SOL     OW 2989   0.521   6.683   2.528
  697SOL    HW1 2990   0.591   6.640   2.586
  697SOL    HW2 2991   0.476   6.757   2.579
  698SOL     OW 2992   5.553   6.332   6.205
  698SOL    HW1 2993   5.617   6.294   6.138
  698SOL    HW2 2994   5.532   6.263   6.274
  699SOL     OW 2995   4.400   3.899   0.627
  699SOL    HW1 2996   4.487   3.936   0.660
  699SOL    HW2 2997   4.327   3.928   0.688
  700SOL     OW 2998   3.490   6.659   5.233
  700SOL    HW1 2999   3.451   6.604   5.307
  700SOL    HW2 3000   3.590   6.653   5.236
  701SOL     OW 3001   4.883   4.837   1.772
  701SOL    HW1 3002   4.911   4.880   1.686
  701SOL    HW2 3003   4.929   4.749   1.783
  702SOL     OW 3004   4.336   0.408   4.681
  702SOL    HW1 3005   4.265   0.424   4.748
  702SOL    HW2 3006   4.425   0.401   4.726
  703SOL     OW 3007   3.155   3.110   6.988
  703SOL    HW1 3008   3.253   3.130   6.998
  703SOL    HW2 3009   3.103   3.196   6.992
  704SOL     OW 3010   3.684   1.258   6.150
  704SOL    HW1 3011   3.763   1.317   6.138
  704SOL    HW2 3012   3.628   1.259   6.067
  705SOL     OW 3013   0.012   6.344   5.749
  705SOL    HW1 3014   0.036   6.264   5.804
  705SOL    HW2 3015   0.079   6.356   5.676
  706SOL     OW 3016   3.608   0.926   4.715
  706SOL    HW1 3017   3.702   0.960   4.716
  706SOL    HW2 3018   3.546   1.002   4.695
  707SOL     OW 3019   3.178   5.285   4.283
  707SOL    HW1 3020   3.232   5.219   4.231
  707SOL    HW2 3021   3.080   5.264   4.273
  708SOL     OW 3022   3.641   5.968   4.150
  708SOL    HW1 3023   3.715   5.902   4.159
  708SOL    HW2 3024   3.672   6.046   4.095
  709SOL     OW 3025   2.465   0.267   1.714
  709SOL    HW1 3026   2.550   0.256   1.766
  709SOL    HW2 3027   2.431   0.177   1.686
  710SOL     OW 3028   5.031   3.581   2.447
  710SOL    HW1 3029   4.977   3.660   2.476
  710SOL    HW2 3030   4.992   3.545   2.362
  711SOL     OW 3031   0.898   1.821   0.341
  711SOL    HW1 3032   0.922   1.912   0.374
  711SOL    HW2 3033   0.801   1.818   0.319
  712SOL     OW 3034   5.282   3.960   6.747
  712SOL    HW1 3035   5.237   3.964   6.837
  712SOL    HW2 3036   5.294   4.053   6.711
  713SOL     OW 3037   3.993   3.267   6.185
  713SOL    HW1 3038   4.052   3.219   6.250
  713SOL    HW2 3039   4.031   3.257   6.092
  714SOL     OW 3040   5.095   6.255   3.004
  714SOL    HW1 3041   5.041   6.174   3.030
  714SOL    HW2 3042   5.058   6.336   3.049
  715SOL     OW 3043   5.903   5.013   4.959
  715SOL    HW1 3044   5.981   4.954   4.976
  715SOL    HW2 3045   5.858   5.034   5.046
  716SOL     OW 3046   3.082   2.088   3.671
  716SOL    HW1 3047   3.107   2.124   3.760
  716SOL    HW2 3048   3.163   2.077   3.614
  717SOL     OW 3049   5.175   5.113   3.756
  717SOL    HW1 3050   5.203   5.103   3.661
  717SOL    HW2 3051   5.080   5.080   3.766
  718SOL     OW 3052   6.216   1.905   5.334
  718SOL    HW1 3053   6.185   1.835   5.270
  718SOL    HW2 3054   6.314   1.897   5.348
  719SOL     OW 3055   4.799   6.165   3.237
  719SOL    HW1 3056   4.803   6.137   3.141
  719SOL    HW2 3057   4.704   6.182   3.263
  720SOL     OW 3058   3.068   1.341   1.758
  720SOL    HW1 3059   3.048   1.259   1.812
  720SOL    HW2 3060   3.003   1.348   1.682
  721SOL     OW 3061   6.730   3.105   1.990
  721SOL    HW1 3062   6.709   3.190   1.941
  721SOL    HW2 3063   6.702   3.027   1.934
  722SOL     OW 3064   4.878   6.374   1.276
  722SOL    HW1 3065   4.926   6.295   1.314
  722SOL    HW2 3066   4.940   6.423   1.214
  723SOL     OW 3067   2.314   0.949   4.540
  723SOL    HW1 3068   2.265   1.029   4.505
  723SOL    HW2 3069   2.408   0.975   4.561
  724SOL     OW 3070   1.018   2.440   4.430
  724SOL    HW1 3071   0.931   2.421   4.477
  724SOL    HW2 3072   1.026   2.538   4.412
  725SOL     OW 3073   1.851   4.486   2.783
  725SOL    HW1 3074   1.902   4.418   2.836
  725SOL    HW2 3075   1.904   4.570   2.777
  726SOL     OW 3076   2.180   3.982   0.690
  726SOL    HW1 3077   2.254   3.950   0.632
  726SOL    HW2 3078   2.110   3.910   0.697
  727SOL     OW 3079   3.458   5.596   4.883
  727SOL    HW1 3080   3.543   5.635   4.920
  727SOL    HW2 3081   3.456   5.498   4.899
  728SOL     OW 3082   6.916   3.097   3.711
  728SOL    HW1 3083   6.847   3.039   3.755
  728SOL    HW2 3084   6.999   3.044   3.694
  729SOL     OW 3085   0.850   4.283   0.746
  729SOL    HW1 3086   0.782   4.295   0.673
  729SOL    HW2 3087   0.872   4.187   0.756
  730SOL     OW 3088   4.571   1.641   3.165
  730SOL    HW1 3089   4.652   1.613   3.113
  730SOL    HW2 3090   4.490   1.630   3.108
  731SOL     OW 3091   4.695   4.636   4.352
  731SOL    HW1 3092   4.713   4.698   4.429
  731SOL    HW2 3093   4.762   4.561   4.353
  732SOL     OW 3094   4.017   0.521   4.284
  732SOL    HW1 3095   4.034   0.588   4.212
  732SOL    HW2 3096   4.089   0.528   4.354
  733SOL     OW 3097   6.687   5.100   3.808
  733SOL    HW1 3098   6.608   5.160   3.795
  733SOL    HW2 3099   6.696   5.039   3.729
  734SOL     OW 3100   6.250   6.785   2.723
  734SOL    HW1 3101   6.325   6.810   2.662
  734SOL    HW2 3102   6.164   6.789   2.673
  735SOL     OW 3103   3.989   0.180   2.287
  735SOL    HW1 3104   3.983   0.263   2.232
  735SOL    HW2 3105   4.084   0.166   2.315
  736SOL     OW 3106   1.830   1.741   3.497
  736SOL    HW1 3107   1.846   1.687   3.414
  736SOL    HW2 3108   1.828   1.838   3.473
  737SOL     OW 3109   3.244   0.992   6.256
  737SOL    HW1 3110   3.187   0.932   6.200
  737SOL    HW2 3111   3.321   0.941   6.293
  738SOL     OW 3112   1.537   4.891   0.216
  738SOL    HW1 3113   1.489   4.958   0.273
  738SOL    HW2 3114   1.598   4.939   0.154
  739SOL     OW 3115   1.616   0.118   3.562
  739SOL    HW1 3116   1.644   0.138   3.468
  739SOL    HW2 3117   1.576   0.200   3.603
  740SOL     OW 3118   4.906   3.340   3.511
  740SOL    HW1 3119   4.862   3.352   3.422
  740SOL    HW2 3120   4.986   3.399   3.516
  741SOL     OW 3121   3.173   1.139   2.855
  741SOL    HW1 3122   3.087   1.097   2.826
  741SOL    HW2 3123   3.159   1.237   2.869
  742SOL     OW 3124   1.652   7.007   2.317
  742SOL    HW1 3125   1.718   0.058   2.299
  742SOL    HW2 3126   1.559   0.023   2.312
  743SOL     OW 3127   0.266   6.152   3.148
  743SOL    HW1 3128   0.222   6.161   3.059
  743SOL    HW2 3129   0.197   6.151   3.220
  744SOL     OW 3130   5.020   1.507   0.857
  744SOL    HW1 3131   5.060   1.472   0.942
  744SOL    HW2 3132   4.941   1.564   0.878
  745SOL     OW 3133   2.153   6.408   4.969
  745SOL    HW1 3134   2.181   6.503   4.976
  745SOL    HW2 3135   2.183   6.358   5.050
  746SOL     OW 3136   6.987   4.885   4.368
  746SOL    HW1 3137   6.950   4.853   4.454
  746SOL    HW2 3138   6.915   4.888   4.299
  747SOL     OW 3139   4.617   5.288   2.860
  747SOL    HW1 3140   4.580   5.371   2.819
  747SOL    HW2 3141   4.717   5.293   2.861
  748SOL     OW 3142   5.808   4.605   1.174
  748SOL    HW1 3143   5.788   4.546   1.253
  748SOL    HW2 3144   5.755   4.574   1.095
  749SOL     OW 3145   4.998   4.723   5.270
  749SOL    HW1 3146   4.919   4.673   5.235
  749SOL    HW2 3147   5.074   4.660   5.286
  750SOL     OW 3148   2.354   1.950   3.212
  750SOL    HW1 3149   2.280   2.004   3.252
  750SOL    HW2 3150   2.415   2.009   3.159
  751SOL     OW 3151   3.564   0.898   0.582
  751SOL    HW1 3152   3.545   0.802   0.562
  751SOL    HW2 3153   3.557   0.952   0.498
  752SOL     OW 3154   3.307   2.978   5.002
  752SOL    HW1 3155   3.336   2.983   4.907
  752SOL    HW2 3156   3.373   2.925   5.055
  753SOL     OW 3157   3.780   4.122   3.794
  753SOL    HW1 3158   3.873   4.150   3.773
  753SOL    HW2 3159   3.721   4.139   3.716
  754SOL     OW 3160   5.000   0.385   6.765
  754SOL    HW1 3161   5.071   0.455   6.760
  754SOL    HW2 3162   4.950   0.381   6.678
  755SOL     OW 3163   4.553   4.727   5.016
  755SOL    HW1 3164   4.557   4.751   5.113
  755SOL    HW2 3165   4.481   4.660   5.001
  756SOL     OW 3166   3.186   5.347   6.326
  756SOL    HW1 3167   3.182   5.408   6.405
  756SOL    HW2 3168   3.103   5.358   6.271
  757SOL     OW 3169   1.618   0.069   1.884
  757SOL    HW1 3170   1.586   7.001   1.851
  757SOL    HW2 3171   1.630   0.131   1.806
  758SOL     OW 3172   4.188   1.290   4.277
  758SOL    HW1 3173   4.241   1.216   4.318
  758SOL    HW2 3174   4.095   1.288   4.312
  759SOL     OW 3175   0.034   3.404   4.122
  759SOL    HW1 3176   0.059   3.325   4.178
  759SOL    HW2 3177   0.032   3.378   4.026
  760SOL     OW 3178   6.220   5.361   3.663
  760SOL    HW1 3179   6.186   5.334   3.753
  760SOL    HW2 3180   6.173   5.444   3.632
  761SOL     OW 3181   5.045   4.987   6.016
  761SOL    HW1 3182   5.017   4.894   6.037
  761SOL    HW2 3183   4.976   5.031   5.957
  762SOL     OW 3184   3.682   5.541   4.040
  762SOL    HW1 3185   3.680   5.443   4.061
  762SOL    HW2 3186   3.773   5.566   4.007
  763SOL     OW 3187   5.444   0.646   0.592
  763SOL    HW1 3188   5.453   0.646   0.692
  763SOL    HW2 3189   5.376   0.713   0.564
  764SOL     OW 3190   5.225   6.254   4.983
  764SOL    HW1 3191   5.210   6.273   5.081
  764SOL    HW2 3192   5.297   6.314   4.949
  765SOL     OW 3193   5.586   6.239   0.746
  765SOL    HW1 3194   5.560   6.149   0.712
  765SOL    HW2 3195   5.636   6.229   0.832
  766SOL     OW 3196   2.451   2.004   4.392
  766SOL    HW1 3197   2.541   1.971   4.419
  766SOL    HW2 3198   2.399   1.929   4.350
  767SOL     OW 3199   6.630   6.110   3.934
  767SOL    HW1 3200   6.726   6.136   3.944
  767SOL    HW2 3201   6.590   6.156   3.855
  768SOL     OW 3202   2.100   5.441   2.227
  768SOL    HW1 3203   2.062   5.369   2.285
  768SOL    HW2 3204   2.058   5.437   2.136
  769SOL     OW 3205   3.250   1.868   5.237
  769SOL    HW1 3206   3.264   1.966   5.222
  769SOL    HW2 3207   3.277   1.844   5.330
  770SOL     OW 3208   1.081   4.641   5.720
  770SOL    HW1 3209   1.054   4.673   5.810
  770SOL    HW2 3210   1.008   4.660   5.654
  771SOL     OW 3211   0.964   4.699   2.349
  771SOL    HW1 3212   1.000   4.759   2.421
  771SOL    HW2 3213   1.020   4.617   2.342
  772SOL     OW 3214   5.558   4.736   0.468
  772SOL    HW1 3215   5.573   4.703   0.561
  772SOL    HW2 3216   5.646   4.745   0.422
  773SOL     OW 3217   2.399   4.426   3.559
  773SOL    HW1 3218   2.402   4.491   3.484
  773SOL    HW2 3219   2.445   4.465   3.639
  774SOL     OW 3220   2.273   1.971   3.768
  774SOL    HW1 3221   2.288   1.913   3.688
  774SOL    HW2 3222   2.353   1.966   3.829
  775SOL     OW 3223   1.410   4.445   2.289
  775SOL    HW1 3224   1.474   4.419   2.216
  775SOL    HW2 3225   1.462   4.468   2.372
  776SOL     OW 3226   2.886   5.018   6.218
  776SOL    HW1 3227   2.819   4.944   6.218
  776SOL    HW2 3228   2.869   5.079   6.141
  777SOL     OW 3229   2.071   3.629   6.593
  777SOL    HW1 3230   2.079   3.534   6.623
  777SOL    HW2 3231   1.985   3.641   6.543
  778SOL     OW 3232   3.495   5.698   6.387
  778SOL    HW1 3233   3.398   5.688   6.367
  778SOL    HW2 3234   3.524   5.792   6.371
  779SOL     OW 3235   6.141   1.827   3.011
  779SOL    HW1 3236   6.058   1.778   3.038
  779SOL    HW2 3237   6.212   1.760   2.989
  780SOL     OW 3238   6.668   1.977   4.107
  780SOL    HW1 3239   6.733   2.024   4.167
  780SOL    HW2 3240   6.641   2.038   4.033
  781SOL     OW 3241   0.280   4.753   6.475
  781SOL    HW1 3242   0.251   4.699   6.554
  781SOL    HW2 3243   0.318   4.692   6.406
  782SOL     OW 3244   2.467   4.134   5.374
  782SOL    HW1 3245   2.527   4.112   5.451
  782SOL    HW2 3246   2.468   4.059   5.308
  783SOL     OW 3247   6.812   5.117   6.590
  783SOL    HW1 3248   6.832   5.212   6.565
  783SOL    HW2 3249   6.873   5.089   6.665
  784SOL     OW 3250   1.889   5.467   0.501
  784SOL    HW1 3251   1.945   5.503   0.426
  784SOL    HW2 3252   1.943   5.467   0.585
  785SOL     OW 3253   0.476   0.556   4.758
  785SOL    HW1 3254   0.565   0.546   4.803
  785SOL    HW2 3255   0.406   0.509   4.812
  786SOL     OW 3256   6.005   0.789   4.155
  786SOL    HW1 3257   5.925   0.794   4.215
  786SOL    HW2 3258   5.986   0.840   4.071
  787SOL     OW 3259   1.946   6.452   1.667
  787SOL    HW1 3260   1.856   6.494   1.681
  787SOL    HW2 3261   1.955   6.423   1.571
  788SOL     OW 3262   2.127   3.117   2.276
  788SOL    HW1 3263   2.048   3.056   2.284
  788SOL    HW2 3264   2.145   3.134   2.179
  789SOL     OW 3265   3.938   5.326   2.666
  789SOL    HW1 3266   4.022   5.284   2.633
  789SOL    HW2 3267   3.866   5.257   2.672
  790SOL     OW 3268   0.259   3.076   2.155
  790SOL    HW1 3269   0.333   3.086   2.089
  790SOL    HW2 3270   0.205   3.160   2.159
  791SOL     OW 3271   3.199   0.650   3.729
  791SOL    HW1 3272   3.242   0.735   3.758
  791SOL    HW2 3273   3.236   0.574   3.782
  792SOL     OW 3274   2.757   0.614   1.026
  792SOL    HW1 3275   2.670   0.656   1.053
  792SOL    HW2 3276   2.742   0.519   1.001
  793SOL     OW 3277   2.144   6.086   4.876
  793SOL    HW1 3278   2.060   6.097   4.822
  793SOL    HW2 3279   2.131   6.014   4.943
  794SOL     OW 3280   3.197   3.598   2.835
  794SOL    HW1 3281   3.162   3.504   2.831
  794SOL    HW2 3282   3.142   3.651   2.899
  795SOL     OW 3283   4.969   0.456   5.241
  795SOL    HW1 3284   5.038   0.392   5.208
  795SOL    HW2 3285   5.014   0.539   5.274
  796SOL     OW 3286   1.037   2.014   0.153
  796SOL    HW1 3287   1.084   1.977   0.233
  796SOL    HW2 3288   1.001   2.105   0.174
  797SOL     OW 3289   3.581   6.955   1.265
  797SOL    HW1 3290   3.559   6.907   1.180
  797SOL    HW2 3291   3.554   6.900   1.343
  798SOL     OW 3292   5.097   4.110   1.581
  798SOL    HW1 3293   5.029   4.177   1.610
  798SOL    HW2 3294   5.125   4.055   1.659
  799SOL     OW 3295   2.674   2.336   6.061
  799SOL    HW1 3296   2.678   2.427   6.020
  799SOL    HW2 3297   2.704   2.342   6.157
  800SOL     OW 3298   5.823   3.008   3.353
  800SOL    HW1 3299   5.760   3.079   3.385
  800SOL    HW2 3300   5.873   2.971   3.432
  801SOL     OW 3301   2.127   5.860   6.484
  801SOL    HW1 3302   2.081   5.801   6.550
  801SOL    HW2 3303   2.117   5.956   6.513
  802SOL     OW 3304   4.344   2.456   6.312
  802SOL    HW1 3305   4.264   2.403   6.285
  802SOL    HW2 3306   4.387   2.413   6.392
  803SOL     OW 3307   2.182   2.558   3.788
  803SOL    HW1 3308   2.252   2.586   3.722
  803SOL    HW2 3309   2.176   2.458   3.789
  804SOL     OW 3310   4.942   0.385   2.939
  804SOL    HW1 3311   4.849   0.350   2.935
  804SOL    HW2 3312   4.994   0.335   3.008
  805SOL     OW 3313   3.503   1.254   3.900
  805SOL    HW1 3314   3.476   1.231   3.993
  805SOL    HW2 3315   3.603   1.254   3.894
  806SOL     OW 3316   3.232   6.345   5.877
  806SOL    HW1 3317   3.198   6.430   5.836
  806SOL    HW2 3318   3.230   6.273   5.808
  807SOL     OW 3319   1.003   5.820   6.188
  807SOL    HW1 3320   1.020   5.725   6.215
  807SOL    HW2 3321   0.959   5.868   6.264
  808SOL     OW 3322   5.239   2.589   6.191
  808SOL    HW1 3323   5.208   2.646   6.115
  808SOL    HW2 3324   5.335   2.565   6.178
  809SOL     OW 3325   3.019   6.228   6.773
  809SOL    HW1 3326   2.975   6.208   6.685
  809SOL    HW2 3327   3.112   6.260   6.757
  810SOL     OW 3328   3.443   4.009   6.958
  810SOL    HW1 3329   3.475   4.004   6.863
  810SOL    HW2 3330   3.401   3.923   6.984
  811SOL     OW 3331   5.525   5.505   4.127
  811SOL    HW1 3332   5.549   5.495   4.223
  811SOL    HW2 3333   5.503   5.415   4.088
  812SOL     OW 3334   0.793   3.436   1.564
  812SOL    HW1 3335   0.863   3.367   1.546
  812SOL    HW2 3336   0.704   3.392   1.576
  813SOL     OW 3337   2.452   1.694   4.898
  813SOL    HW1 3338   2.515   1.729   4.828
  813SOL    HW2 3339   2.376   1.759   4.910
  814SOL     OW 3340   0.442   4.501   1.715
  814SOL    HW1 3341   0.411   4.552   1.795
  814SOL    HW2 3342   0.363   4.474   1.660
  815SOL     OW 3343   4.877   2.515   4.398
  815SOL    HW1 3344   4.948   2.538   4.331
  815SOL    HW2 3345   4.788   2.546   4.363
  816SOL     OW 3346   4.964   3.784   6.103
  816SOL    HW1 3347   5.038   3.850   6.106
  816SOL    HW2 3348   4.927   3.771   6.196
  817SOL     OW 3349   0.130   4.942   6.296
  817SOL    HW1 3350   0.043   4.907   6.329
  817SOL    HW2 3351   0.205   4.906   6.352
  818SOL     OW 3352   0.159   1.500   4.733
  818SOL    HW1 3353   0.239   1.490   4.792
  818SOL    HW2 3354   0.118   1.590   4.748
  819SOL     OW 3355   5.479   2.952   1.445
  819SOL    HW1 3356   5.506   2.915   1.356
  819SOL    HW2 3357   5.428   2.883   1.496
  820SOL     OW 3358   2.586   1.987   5.107
  820SOL    HW1 3359   2.501   1.947   5.141
  820SOL    HW2 3360   2.663   1.947   5.157
  821SOL     OW 3361   4.615   3.969   6.927
  821SOL    HW1 3362   4.556   3.888   6.928
  821SOL    HW2 3363   4.688   3.956   6.860
  822SOL     OW 3364   0.037   5.216   3.542
  822SOL    HW1 3365   6.980   5.223   3.480
  822SOL    HW2 3366   0.007   5.228   3.637
  823SOL     OW 3367   1.827   2.887   4.501
  823SOL    HW1 3368   1.876   2.824   4.441
  823SOL    HW2 3369   1.826   2.978   4.460
  824SOL     OW 3370   5.189   0.585   6.735
  824SOL    HW1 3371   5.235   0.596   6.823
  824SOL    HW2 3372   5.165   0.676   6.699
  825SOL     OW 3373   6.157   5.655   0.594
  825SOL    HW1 3374   6.218   5.719   0.549
  825SOL    HW2 3375   6.134   5.581   0.531
  826SOL     OW 3376   3.762   1.879   0.231
  826SOL    HW1 3377   3.812   1.896   0.146
  826SOL    HW2 3378   3.664   1.875   0.211
  827SOL     OW 3379   3.238   3.787   4.688
  827SOL    HW1 3380   3.275   3.839   4.611
  827SOL    HW2 3381   3.258   3.690   4.676
  828SOL     OW 3382   0.493   6.489   6.423
  828SOL    HW1 3383   0.435   6.495   6.505
  828SOL    HW2 3384   0.501   6.394   6.394
  829SOL     OW 3385   3.880   3.365   1.878
  829SOL    HW1 3386   3.863   3.317   1.964
  829SOL    HW2 3387   3.794   3.377   1.828
  830SOL     OW 3388   6.668   4.548   5.971
  830SOL    HW1 3389   6.674   4.645   5.946
  830SOL    HW2 3390   6.758   4.515   5.998
  831SOL     OW 3391   5.622   1.208   2.827
  831SOL    HW1 3392   5.658   1.121   2.862
  831SOL    HW2 3393   5.529   1.193   2.792
  832SOL     OW 3394   3.325   1.794   4.411
  832SOL    HW1 3395   3.227   1.811   4.399
  832SOL    HW2 3396   3.365   1.769   4.323
  833SOL     OW 3397   4.102   3.069   6.994
  833SOL    HW1 3398   4.042   3.141   0.008
  833SOL    HW2 3399   4.081   3.052   6.898
  834SOL     OW 3400   5.519   2.809   0.074
  834SOL    HW1 3401   5.467   2.781   7.014
  834SOL    HW2 3402   5.464   2.872   0.129
  835SOL     OW 3403   6.844   0.328   4.812
  835SOL    HW1 3404   6.861   0.247   4.757
  835SOL    HW2 3405   6.863   0.308   4.908
  836SOL     OW 3406   5.411   0.386   4.326
  836SOL    HW1 3407   5.351   0.316   4.288
  836SOL    HW2 3408   5.431   0.364   4.421
  837SOL     OW 3409   1.585   0.527   6.711
  837SOL    HW1 3410   1.627   0.455   6.655
  837SOL    HW2 3411   1.545   0.487   6.793
  838SOL     OW 3412   1.913   5.641   3.327
  838SOL    HW1 3413   2.004   5.600   3.330
  838SOL    HW2 3414   1.880   5.654   3.421
  839SOL     OW 3415   1.236   2.356   0.109
  839SOL    HW1 3416   1.275   2.423   0.172
  839SOL    HW2 3417   1.160   2.308   0.154
  840SOL     OW 3418   4.204   5.014   1.109
  840SOL    HW1 3419   4.242   4.922   1.112
  840SOL    HW2 3420   4.171   5.033   1.016
  841SOL     OW 3421   2.586   5.228   6.769
  841SOL    HW1 3422   2.685   5.211   6.772
  841SOL    HW2 3423   2.556   5.237   6.675
  842SOL     OW 3424   4.494   6.243   0.706
  842SOL    HW1 3425   4.486   6.151   0.746
  842SOL    HW2 3426   4.439   6.307   0.760
  843SOL     OW 3427   1.295   0.752   1.785
  843SOL    HW1 3428   1.212   0.771   1.838
  843SOL    HW2 3429   1.298   0.655   1.761
  844SOL     OW 3430   7.007   0.298   1.537
  844SOL    HW1 3431   6.993   0.233   1.612
  844SOL    HW2 3432   0.028   0.251   1.459
  845SOL     OW 3433   3.936   1.752   2.124
  845SOL    HW1 3434   3.910   1.849   2.124
  845SOL    HW2 3435   3.880   1.702   2.190
  846SOL     OW 3436   1.766   2.110   0.924
  846SOL    HW1 3437   1.717   2.148   1.002
  846SOL    HW2 3438   1.841   2.052   0.956
  847SOL     OW 3439   2.515   3.460   1.439
  847SOL    HW1 3440   2.431   3.514   1.431
  847SOL    HW2 3441   2.544   3.457   1.534
  848SOL     OW 3442   6.397   6.168   0.086
  848SOL    HW1 3443   6.359   6.224   0.012
  848SOL    HW2 3444   6.467   6.220   0.135
  849SOL     OW 3445   6.119   2.905   6.810
  849SOL    HW1 3446   6.164   2.907   6.899
  849SOL    HW2 3447   6.027   2.867   6.821
  850SOL     OW 3448   1.622   1.030   4.398
  850SOL    HW1 3449   1.543   0.982   4.437
  850SOL    HW2 3450   1.656   1.097   4.463
  851SOL     OW 3451   5.143   2.732   6.405
  851SOL    HW1 3452   5.186   2.688   6.326
  851SOL    HW2 3453   5.124   2.828   6.383
  852SOL     OW 3454   6.923   4.827   1.791
  852SOL    HW1 3455   6.880   4.882   1.862
  852SOL    HW2 3456   6.868   4.745   1.774
  853SOL     OW 3457   3.165   3.174   0.640
  853SOL    HW1 3458   3.224   3.140   0.713
  853SOL    HW2 3459   3.117   3.097   0.598
  854SOL     OW 3460   6.609   0.074   5.428
  854SOL    HW1 3461   6.661   0.134   5.367
  854SOL    HW2 3462   6.672   0.027   5.490
  855SOL     OW 3463   4.929   2.097   0.463
  855SOL    HW1 3464   4.995   2.101   0.388
  855SOL    HW2 3465   4.931   2.183   0.514
  856SOL     OW 3466   1.986   5.402   1.959
  856SOL    HW1 3467   2.040   5.376   1.880
  856SOL    HW2 3468   1.937   5.487   1.940
  857SOL     OW 3469   6.756   5.273   4.786
  857SOL    HW1 3470   6.717   5.290   4.695
  857SOL    HW2 3471   6.689   5.224   4.842
  858SOL     OW 3472   4.298   4.114   0.145
  858SOL    HW1 3473   4.260   4.024   0.125
  858SOL    HW2 3474   4.338   4.114   0.237
  859SOL     OW 3475   5.229   5.328   5.275
  859SOL    HW1 3476   5.183   5.314   5.187
  859SOL    HW2 3477   5.163   5.365   5.341
  860SOL     OW 3478   4.680   3.229   5.858
  860SOL    HW1 3479   4.697   3.264   5.950
  860SOL    HW2 3480   4.583   3.234   5.837
  861SOL     OW 3481   1.383   5.533   2.813
  861SOL    HW1 3482   1.370   5.459   2.878
  861SOL    HW2 3483   1.473   5.525   2.770
  862SOL     OW 3484   0.807   4.199   3.826
  862SOL    HW1 3485   0.721   4.156   3.852
  862SOL    HW2 3486   0.818   4.196   3.726
  863SOL     OW 3487   6.112   0.565   1.365
  863SOL    HW1 3488   6.022   0.529   1.390
  863SOL    HW2 3489   6.119   0.661   1.395
  864SOL     OW 3490   5.976   5.700   2.662
  864SOL    HW1 3491   5.901   5.746   2.709
  864SOL    HW2 3492   6.058   5.703   2.719
  865SOL     OW 3493   1.586   5.578   4.915
  865SOL    HW1 3494   1.683   5.597   4.905
  865SOL    HW2 3495   1.548   5.636   4.988
  866SOL     OW 3496   3.352   0.539   1.683
  866SOL    HW1 3497   3.264   0.523   1.728
  866SOL    HW2 3498   3.424   0.490   1.732
  867SOL     OW 3499   6.164   3.153   5.781
  867SOL    HW1 3500   6.157   3.199   5.870
  867SOL    HW2 3501   6.077   3.112   5.758
  868SOL     OW 3502   0.617   1.983   1.714
  868SOL    HW1 3503   0.586   1.987   1.810
  868SOL    HW2 3504   0.690   1.915   1.705
  869SOL     OW 3505   6.863   3.750   2.958
  869SOL    HW1 3506   6.937   3.763   3.024
  869SOL    HW2 3507   6.895   3.691   2.884
  870SOL     OW 3508   3.458   5.275   2.186
  870SOL    HW1 3509   3.484   5.227   2.269
  870SOL    HW2 3510   3.373   5.237   2.151
  871SOL     OW 3511   4.971   2.004   4.178
  871SOL    HW1 3512   4.919   2.046   4.104
  871SOL    HW2 3513   4.986   2.072   4.250
  872SOL     OW 3514   1.170   1.982   5.003
  872SOL    HW1 3515   1.244   1.915   5.012
  872SOL    HW2 3516   1.205   2.073   5.029
  873SOL     OW 3517   4.390   0.400   6.326
  873SOL    HW1 3518   4.383   0.479   6.387
  873SOL    HW2 3519   4.486   0.375   6.315
  874SOL     OW 3520   5.841   3.730   1.732
  874SOL    HW1 3521   5.873   3.705   1.823
  874SOL    HW2 3522   5.795   3.819   1.736
  875SOL     OW 3523   5.280   5.575   1.875
  875SOL    HW1 3524   5.367   5.624   1.871
  875SOL    HW2 3525   5.211   5.634   1.916
  876SOL     OW 3526   5.575   0.496   6.700
  876SOL    HW1 3527   5.528   0.563   6.642
  876SOL    HW2 3528   5.563   0.521   6.796
  877SOL     OW 3529   1.223   3.662   6.847
  877SOL    HW1 3530   1.148   3.708   6.800
  877SOL    HW2 3531   1.203   3.564   6.854
  878SOL     OW 3532   4.034   6.479   4.464
  878SOL    HW1 3533   3.965   6.470   4.536
  878SOL    HW2 3534   4.024   6.568   4.420
  879SOL     OW 3535   5.738   6.574   6.754
  879SOL    HW1 3536   5.807   6.523   6.805
  879SOL    HW2 3537   5.653   6.579   6.808
  880SOL     OW 3538   3.016   3.724   2.978
  880SOL    HW1 3539   2.981   3.746   2.887
  880SOL    HW2 3540   2.992   3.799   3.041
  881SOL     OW 3541   4.573   1.863   0.855
  881SOL    HW1 3542   4.495   1.801   0.866
  881SOL    HW2 3543   4.560   1.943   0.914
  882SOL     OW 3544   1.822   3.061   3.250
  882SOL    HW1 3545   1.861   2.971   3.270
  882SOL    HW2 3546   1.895   3.124   3.222
  883SOL     OW 3547   2.478   0.014   3.119
  883SOL    HW1 3548   2.528   6.974   3.057
  883SOL    HW2 3549   2.527   0.020   3.206
  884SOL     OW 3550   3.017   3.319   5.637
  884SOL    HW1 3551   3.097   3.349   5.585
  884SOL    HW2 3552   2.945   3.289   5.574
  885SOL     OW 3553   4.376   2.714   6.188
  885SOL    HW1 3554   4.278   2.712   6.208
  885SOL    HW2 3555   4.420   2.636   6.232
  886SOL     OW 3556   3.516   1.684   6.729
  886SOL    HW1 3557   3.611   1.651   6.726
  886SOL    HW2 3558   3.474   1.674   6.639
  887SOL     OW 3559   5.275   1.264   5.044
  887SOL    HW1 3560   5.241   1.195   4.981
  887SOL    HW2 3561   5.375   1.258   5.050
  888SOL     OW 3562   6.847   6.377   1.789
  888SOL    HW1 3563   6.814   6.283   1.782
  888SOL    HW2 3564   6.947   6.377   1.788
  889SOL     OW 3565   0.394   3.413   6.815
  889SOL    HW1 3566   0.348   3.364   6.889
  889SOL    HW2 3567   0.477   3.363   6.788
  890SOL     OW 3568   2.553   6.318   4.437
  890SOL    HW1 3569   2.511   6.385   4.377
  890SOL    HW2 3570   2.540   6.226   4.399
  891SOL     OW 3571   5.212   5.063   2.073
  891SOL    HW1 3572   5.185   5.120   2.151
  891SOL    HW2 3573   5.157   5.088   1.993
  892SOL     OW 3574   2.397   4.770   0.544
  892SOL    HW1 3575   2.368   4.685   0.587
  892SOL    HW2 3576   2.469   4.750   0.477
  893SOL     OW 3577   1.173   5.383   2.668
  893SOL    HW1 3578   1.095   5.428   2.711
  893SOL    HW2 3579   1.258   5.414   2.710
  894SOL     OW 3580   1.273   4.052   0.799
  894SOL    HW1 3581   1.356   4.094   0.835
  894SOL    HW2 3582   1.277   3.953   0.814
  895SOL     OW 3583   7.003   5.681   4.470
  895SOL    HW1 3584   0.078   5.661   4.448
  895SOL    HW2 3585   6.955   5.595   4.489
  896SOL     OW 3586   0.621   0.696   6.557
  896SOL    HW1 3587   0.712   0.738   6.567
  896SOL    HW2 3588   0.630   0.609   6.510
  897SOL     OW 3589   4.601   1.237   0.632
  897SOL    HW1 3590   4.638   1.157   0.584
  897SOL    HW2 3591   4.512   1.261   0.592
  898SOL     OW 3592   4.261   0.547   3.080
  898SOL    HW1 3593   4.350   0.532   3.039
  898SOL    HW2 3594   4.215   0.458   3.092
  899SOL     OW 3595   6.914   5.995   0.169
  899SOL    HW1 3596   6.892   5.908   0.213
  899SOL    HW2 3597   7.013   6.000   0.153
  900SOL     OW 3598   5.258   5.226   1.004
  900SOL    HW1 3599   5.231   5.148   0.947
  900SOL    HW2 3600   5.301   5.192   1.088
  901SOL     OW 3601   1.479   0.396   2.941
  901SOL    HW1 3602   1.524   0.440   3.019
  901SOL    HW2 3603   1.437   0.310   2.970
  902SOL     OW 3604   6.438   2.798   1.530
  902SOL    HW1 3605   6.431   2.844   1.442
  902SOL    HW2 3606   6.523   2.745   1.533
  903SOL     OW 3607   0.059   1.239   0.845
  903SOL    HW1 3608   0.048   1.258   0.747
  903SOL    HW2 3609   6.990   1.220   0.885
  904SOL     OW 3610   2.409   0.955   2.840
  904SOL    HW1 3611   2.406   1.034   2.902
  904SOL    HW2 3612   2.504   0.931   2.821
  905SOL     OW 3613   5.933   2.072   6.394
  905SOL    HW1 3614   5.837   2.097   6.405
  905SOL    HW2 3615   5.985   2.105   6.473
  906SOL     OW 3616   5.314   2.624   6.943
  906SOL    HW1 3617   5.304   2.659   6.850
  906SOL    HW2 3618   5.232   2.644   6.995
  907SOL     OW 3619   5.111   4.554   6.785
  907SOL    HW1 3620   5.134   4.597   6.697
  907SOL    HW2 3621   5.104   4.455   6.773
  908SOL     OW 3622   0.987   4.316   2.734
  908SOL    HW1 3623   1.035   4.232   2.709
  908SOL    HW2 3624   1.029   4.356   2.816
  909SOL     OW 3625   5.246   5.496   5.987
  909SOL    HW1 3626   5.157   5.541   5.987
  909SOL    HW2 3627   5.299   5.526   6.068
  910SOL     OW 3628   2.863   4.666   0.780
  910SOL    HW1 3629   2.928   4.741   0.778
  910SOL    HW2 3630   2.892   4.594   0.717
  911SOL     OW 3631   1.199   4.536   6.025
  911SOL    HW1 3632   1.218   4.489   6.111
  911SOL    HW2 3633   1.274   4.599   6.005
  912SOL     OW 3634   5.091   1.774   4.610
  912SOL    HW1 3635   5.165   1.725   4.564
  912SOL    HW2 3636   5.128   1.853   4.658
  913SOL     OW 3637   5.332   6.399   3.102
  913SOL    HW1 3638   5.403   6.330   3.087
  913SOL    HW2 3639   5.253   6.381   3.044
  914SOL     OW 3640   3.383   6.760   6.677
  914SOL    HW1 3641   3.316   6.718   6.616
  914SOL    HW2 3642   3.347   6.762   6.770
  915SOL     OW 3643   5.016   5.741   1.501
  915SOL    HW1 3644   5.062   5.772   1.584
  915SOL    HW2 3645   5.082   5.735   1.426
  916SOL     OW 3646   1.558   3.274   2.616
  916SOL    HW1 3647   1.469   3.268   2.660
  916SOL    HW2 3648   1.608   3.188   2.629
  917SOL     OW 3649   0.321   6.679   0.348
  917SOL    HW1 3650   0.244   6.639   0.300
  917SOL    HW2 3651   0.343   6.622   0.428
  918SOL     OW 3652   3.154   6.353   0.096
  918SOL    HW1 3653   3.249   6.367   0.126
  918SOL    HW2 3654   3.094   6.347   0.175
  919SOL     OW 3655   4.956   1.248   5.587
  919SOL    HW1 3656   4.974   1.208   5.677
  919SOL    HW2 3657   4.868   1.295   5.588
  920SOL     OW 3658   3.005   5.039   1.985
  920SOL    HW1 3659   2.994   5.051   1.887
  920SOL    HW2 3660   2.989   4.943   2.009
  921SOL     OW 3661   5.080   5.290   5.062
  921SOL    HW1 3662   4.982   5.301   5.042
  921SOL    HW2 3663   5.133   5.345   4.998
  922SOL     OW 3664   3.175   3.079   3.895
  922SOL    HW1 3665   3.247   3.110   3.956
  922SOL    HW2 3666   3.092   3.060   3.947
  923SOL     OW 3667   2.402   3.437   5.767
  923SOL    HW1 3668   2.471   3.465   5.834
  923SOL    HW2 3669   2.362   3.350   5.795
  924SOL     OW 3670   0.029   3.255   1.548
  924SOL    HW1 3671   6.962   3.266   1.595
  924SOL    HW2 3672   0.103   3.253   1.615
  925SOL     OW 3673   1.099   1.730   0.516
  925SOL    HW1 3674   1.166   1.692   0.453
  925SOL    HW2 3675   1.016   1.754   0.465
  926SOL     OW 3676   1.944   1.651   1.592
  926SOL    HW1 3677   1.945   1.613   1.684
  926SOL    HW2 3678   1.887   1.593   1.533
  927SOL     OW 3679   6.885   3.835   4.245
  927SOL    HW1 3680   6.960   3.770   4.246
  927SOL    HW2 3681   6.799   3.786   4.231
  928SOL     OW 3682   3.235   4.518   5.773
  928SOL    HW1 3683   3.235   4.608   5.728
  928SOL    HW2 3684   3.310   4.514   5.840
  929SOL     OW 3685   0.515   1.641   4.197
  929SOL    HW1 3686   0.425   1.666   4.162
  929SOL    HW2 3687   0.538   1.701   4.274
  930SOL     OW 3688   5.275   5.454   4.951
  930SOL    HW1 3689   5.349   5.405   4.997
  930SOL    HW2 3690   5.314   5.509   4.877
  931SOL     OW 3691   5.990   0.635   3.170
  931SOL    HW1 3692   6.033   0.560   3.120
  931SOL    HW2 3693   6.050   0.716   3.166
  932SOL     OW 3694   3.540   0.819   3.801
  932SOL    HW1 3695   3.445   0.809   3.830
  932SOL    HW2 3696   3.591   0.868   3.871
  933SOL     OW 3697   1.622   5.856   1.848
  933SOL    HW1 3698   1.685   5.797   1.899
  933SOL    HW2 3699   1.530   5.818   1.852
  934SOL     OW 3700   1.578   3.471   0.765
  934SOL    HW1 3701   1.625   3.553   0.796
  934SOL    HW2 3702   1.528   3.430   0.841
  935SOL     OW 3703   5.708   2.805   5.673
  935SOL    HW1 3704   5.652   2.809   5.590
  935SOL    HW2 3705   5.802   2.832   5.652
  936SOL     OW 3706   2.159   0.782   5.877
  936SOL    HW1 3707   2.187   0.842   5.952
  936SOL    HW2 3708   2.130   0.838   5.799
  937SOL     OW 3709   3.446   1.996   6.306
  937SOL    HW1 3710   3.506   1.926   6.344
  937SOL    HW2 3711   3.474   2.018   6.213
  938SOL     OW 3712   5.282   5.947   4.390
  938SOL    HW1 3713   5.182   5.950   4.381
  938SOL    HW2 3714   5.320   6.039   4.383
  939SOL     OW 3715   1.309   0.226   5.495
  939SOL    HW1 3716   1.325   0.313   5.540
  939SOL    HW2 3717   1.366   0.155   5.537
  940SOL     OW 3718   1.693   4.987   0.820
  940SOL    HW1 3719   1.732   5.020   0.734
  940SOL    HW2 3720   1.766   4.979   0.888
  941SOL     OW 3721   3.679   6.976   0.683
  941SOL    HW1 3722   3.616   6.898   0.674
  941SOL    HW2 3723   3.640   0.022   0.747
  942SOL     OW 3724   6.566   4.567   6.999
  942SOL    HW1 3725   6.614   4.491   0.021
  942SOL    HW2 3726   6.475   4.538   6.970
  943SOL     OW 3727   3.775   5.653   1.221
  943SOL    HW1 3728   3.863   5.605   1.222
  943SOL    HW2 3729   3.700   5.586   1.217
  944SOL     OW 3730   6.522   6.178   3.465
  944SOL    HW1 3731   6.477   6.247   3.409
  944SOL    HW2 3732   6.528   6.210   3.560
  945SOL     OW 3733   0.435   5.578   6.338
  945SOL    HW1 3734   0.419   5.485   6.371
  945SOL    HW2 3735   0.389   5.590   6.250
  946SOL     OW 3736   5.862   2.405   4.299
  946SOL    HW1 3737   5.836   2.333   4.235
  946SOL    HW2 3738   5.904   2.364   4.380
  947SOL     OW 3739   3.651   3.796   3.453
  947SOL    HW1 3740   3.726   3.861   3.454
  947SOL    HW2 3741   3.575   3.833   3.401
  948SOL     OW 3742   3.323   1.337   3.399
  948SOL    HW1 3743   3.249   1.269   3.401
  948SOL    HW2 3744   3.378   1.329   3.482
  949SOL     OW 3745   2.896   0.290   5.869
  949SOL    HW1 3746   2.825   0.237   5.915
  949SOL    HW2 3747   2.871   0.387   5.871
  950SOL     OW 3748   0.069   0.195   2.198
  950SOL    HW1 3749   0.065   0.097   2.214
  950SOL    HW2 3750   0.022   0.217   2.112
  951SOL     OW 3751   1.507   0.007   3.210
  951SOL    HW1 3752   1.594   0.057   3.212
  951SOL    HW2 3753   1.436   0.064   3.253
  952SOL     OW 3754   3.787   1.915   3.665
  952SOL    HW1 3755   3.882   1.884   3.654
  952SOL    HW2 3756   3.731   1.879   3.590
  953SOL     OW 3757   0.490   4.887   5.939
  953SOL    HW1 3758   0.583   4.921   5.921
  953SOL    HW2 3759   0.471   4.809   5.881
  954SOL     OW 3760   4.919   6.807   2.125
  954SOL    HW1 3761   4.884   6.746   2.195
  954SOL    HW2 3762   4.874   6.787   2.037
  955SOL     OW 3763   2.352   5.406   1.193
  955SOL    HW1 3764   2.260   5.432   1.222
  955SOL    HW2 3765   2.395   5.485   1.148
  956SOL     OW 3766   4.221   0.959   1.178
  956SOL    HW1 3767   4.163   1.038   1.197
  956SOL    HW2 3768   4.169   0.875   1.196
  957SOL     OW 3769   5.985   6.902   3.336
  957SOL    HW1 3770   5.901   6.908   3.282
  957SOL    HW2 3771   6.016   6.995   3.358
  958SOL     OW 3772   5.038   6.225   1.430
  958SOL    HW1 3773   5.112   6.216   1.363
  958SOL    HW2 3774   5.077   6.241   1.521
  959SOL     OW 3775   5.140   6.921   3.199
  959SOL    HW1 3776   5.227   6.957   3.233
  959SOL    HW2 3777   5.075   6.914   3.276
  960SOL     OW 3778   1.570   6.583   6.391
  960SOL    HW1 3779   1.658   6.607   6.434
  960SOL    HW2 3780   1.558   6.484   6.393
  961SOL     OW 3781   3.920   1.237   3.102
  961SOL    HW1 3782   3.934   1.226   3.004
  961SOL    HW2 3783   3.979   1.174   3.152
  962SOL     OW 3784   0.076   0.451   4.862
  962SOL    HW1 3785   0.066   0.497   4.949
  962SOL    HW2 3786   7.008   0.410   4.836
  963SOL     OW 3787   5.880   2.933   1.330
  963SOL    HW1 3788   5.871   2.897   1.237
  963SOL    HW2 3789   5.850   2.864   1.395
  964SOL     OW 3790   3.502   6.427   5.021
  964SOL    HW1 3791   3.566   6.370   5.073
  964SOL    HW2 3792   3.489   6.514   5.069
  965SOL     OW 3793   5.627   2.295   3.798
  965SOL    HW1 3794   5.692   2.371   3.799
  965SOL    HW2 3795   5.572   2.298   3.882
  966SOL     OW 3796   5.315   1.234   4.120
  966SOL    HW1 3797   5.258   1.240   4.202
  966SOL    HW2 3798   5.395   1.292   4.131
  967SOL     OW 3799   4.218   5.102   6.645
  967SOL    HW1 3800   4.228   5.042   6.566
  967SOL    HW2 3801   4.215   5.197   6.614
  968SOL     OW 3802   3.441   0.724   1.298
  968SOL    HW1 3803   3.412   0.628   1.306
  968SOL    HW2 3804   3.409   0.761   1.210
  969SOL     OW 3805   2.625   3.798   6.361
  969SOL    HW1 3806   2.696   3.864   6.386
  969SOL    HW2 3807   2.582   3.762   6.444
  970SOL     OW 3808   5.027   6.665   5.805
  970SOL    HW1 3809   5.047   6.726   5.882
  970SOL    HW2 3810   5.078   6.579   5.817
  971SOL     OW 3811   5.120   3.504   3.466
  971SOL    HW1 3812   5.199   3.456   3.427
  971SOL    HW2 3813   5.152   3.567   3.536
  972SOL     OW 3814   0.295   2.735   0.593
  972SOL    HW1 3815   0.316   2.728   0.690
  972SOL    HW2 3816   0.321   2.826   0.560
  973SOL     OW 3817   0.083   2.519   5.054
  973SOL    HW1 3818   0.139   2.439   5.079
  973SOL    HW2 3819   0.104   2.547   4.961
  974SOL     OW 3820   0.840   3.988   2.448
  974SOL    HW1 3821   0.938   3.988   2.425
  974SOL    HW2 3822   0.794   4.060   2.397
  975SOL     OW 3823   3.345   0.339   2.451
  975SOL    HW1 3824   3.337   0.279   2.531
  975SOL    HW2 3825   3.255   0.377   2.429
  976SOL     OW 3826   0.215   3.166   3.450
  976SOL    HW1 3827   0.285   3.097   3.465
  976SOL    HW2 3828   0.137   3.126   3.401
  977SOL     OW 3829   6.369   1.582   1.907
  977SOL    HW1 3830   6.382   1.645   1.831
  977SOL    HW2 3831   6.391   1.488   1.878
  978SOL     OW 3832   5.140   2.839   0.323
  978SOL    HW1 3833   5.104   2.898   0.395
  978SOL    HW2 3834   5.157   2.748   0.359
  979SOL     OW 3835   0.386   5.005   6.509
  979SOL    HW1 3836   0.376   4.905   6.508
  979SOL    HW2 3837   0.412   5.037   6.418
  980SOL     OW 3838   4.425   1.157   4.400
  980SOL    HW1 3839   4.500   1.153   4.465
  980SOL    HW2 3840   4.433   1.082   4.334
  981SOL     OW 3841   0.623   6.510   5.446
  981SOL    HW1 3842   0.642   6.599   5.488
  981SOL    HW2 3843   0.587   6.523   5.354
  982SOL     OW 3844   6.916   1.210   6.850
  982SOL    HW1 3845   6.826   1.224   6.808
  982SOL    HW2 3846   6.906   1.209   6.949
  983SOL     OW 3847   0.455   3.920   3.183
  983SOL    HW1 3848   0.357   3.937   3.179
  983SOL    HW2 3849   0.486   3.884   3.095
  984SOL     OW 3850   0.417   3.737   3.946
  984SOL    HW1 3851   0.456   3.778   4.029
  984SOL    HW2 3852   0.434   3.639   3.946
  985SOL     OW 3853   6.174   5.712   4.848
  985SOL    HW1 3854   6.236   5.642   4.813
  985SOL    HW2 3855   6.180   5.794   4.791
  986SOL     OW 3856   4.403   5.448   1.488
  986SOL    HW1 3857   4.488   5.400   1.468
  986SOL    HW2 3858   4.397   5.529   1.429
  987SOL     OW 3859   4.750   4.633   4.789
  987SOL    HW1 3860   4.672   4.572   4.778
  987SOL    HW2 3861   4.828   4.597   4.739
  988SOL     OW 3862   2.879   4.786   2.112
  988SOL    HW1 3863   2.783   4.815   2.110
  988SOL    HW2 3864   2.891   4.705   2.054
  989SOL     OW 3865   0.638   2.753   0.822
  989SOL    HW1 3866   0.626   2.762   0.724
  989SOL    HW2 3867   0.567   2.806   0.870
  990SOL     OW 3868   3.602   0.137   4.977
  990SOL    HW1 3869   3.580   0.228   5.012
  990SOL    HW2 3870   3.517   0.092   4.949
  991SOL     OW 3871   1.077   5.606   4.320
  991SOL    HW1 3872   1.081   5.586   4.222
  991SOL    HW2 3873   1.046   5.700   4.334
  992SOL     OW 3874   6.746   2.694   0.144
  992SOL    HW1 3875   6.727   2.596   0.137
  992SOL    HW2 3876   6.660   2.744   0.155
  993SOL     OW 3877   1.610   4.370   0.205
  993SOL    HW1 3878   1.597   4.457   0.252
  993SOL    HW2 3879   1.651   4.386   0.115
  994SOL     OW 3880   3.052   6.826   0.831
  994SOL    HW1 3881   3.099   6.738   0.841
  994SOL    HW2 3882   3.102   6.884   0.766
  995SOL     OW 3883   6.054   3.850   5.155
  995SOL    HW1 3884   6.087   3.935   5.195
  995SOL    HW2 3885   6.031   3.785   5.228
  996SOL     OW 3886   4.209   6.783   4.829
  996SOL    HW1 3887   4.288   6.721   4.831
  996SOL    HW2 3888   4.125   6.729   4.831
  997SOL     OW 3889   1.583   6.252   3.304
  997SOL    HW1 3890   1.534   6.218   3.385
  997SOL    HW2 3891   1.521   6.309   3.250
  998SOL     OW 3892   4.653   0.515   6.587
  998SOL    HW1 3893   4.687   0.434   6.634
  998SOL    HW2 3894   4.721   0.588   6.591
  999SOL     OW 3895   5.567   2.887   2.678
  999SOL    HW1 3896   5.507   2.939   2.738
  999SOL    HW2 3897   5.643   2.945   2.648
 1000SOL     OW 3898   5.237   1.550   2.221
 1000SOL    HW1 3899   5.185   1.490   2.160
 1000SOL    HW2 3900   5.330   1.559   2.188
 1001SOL     OW 3901   2.829   6.704   2.774
 1001SOL    HW1 3902   2.773   6.783   2.751
 1001SOL    HW2 3903   2.911   6.734   2.822
 1002SOL     OW 3904   4.216   2.940   1.429
 1002SOL    HW1 3905   4.202   3.021   1.373
 1002SOL    HW2 3906   4.130   2.889   1.435
 1003SOL     OW 3907   1.042   0.147   2.902
 1003SOL    HW1 3908   0.972   0.190   2.959
 1003SOL    HW2 3909   1.009   0.142   2.808
 1004SOL     OW 3910   5.032   1.344   4.660
 1004SOL    HW1 3911   5.102   1.415   4.672
 1004SOL    HW2 3912   5.075   1.258   4.634
 1005SOL     OW 3913   0.890   4.894   1.919
 1005SOL    HW1 3914   0.811   4.833   1.928
 1005SOL    HW2 3915   0.952   4.881   1.996
 1006SOL     OW 3916   2.104   3.860   1.601
 1006SOL    HW1 3917   2.164   3.803   1.657
 1006SOL    HW2 3918   2.155   3.896   1.523
 1007SOL     OW 3919   4.862   0.684   6.480
 1007SOL    HW1 3920   4.799   0.674   6.402
 1007SOL    HW2 3921   4.891   0.779   6.487
 1008SOL     OW 3922   0.539   5.001   5.211
 1008SOL    HW1 3923   0.455   5.016   5.159
 1008SOL    HW2 3924   0.546   5.070   5.284
 1009SOL     OW 3925   7.007   5.937   6.112
 1009SOL    HW1 3926   0.024   5.991   6.186
 1009SOL    HW2 3927   6.911   5.960   6.099
 1010SOL     OW 3928   3.106   3.668   0.086
 1010SOL    HW1 3929   3.139   3.601   0.152
 1010SOL    HW2 3930   3.012   3.644   0.060
 1011SOL     OW 3931   6.524   4.752   2.866
 1011SOL    HW1 3932   6.444   4.811   2.871
 1011SOL    HW2 3933   6.496   4.656   2.872
 1012SOL     OW 3934   5.867   6.305   2.882
 1012SOL    HW1 3935   5.827   6.277   2.795
 1012SOL    HW2 3936   5.872   6.226   2.943
 1013SOL     OW 3937   0.343   0.430   6.335
 1013SOL    HW1 3938   0.305   0.361   6.273
 1013SOL    HW2 3939   0.436   0.403   6.361
 1014SOL     OW 3940   1.110   4.745   4.586
 1014SOL    HW1 3941   1.131   4.751   4.684
 1014SOL    HW2 3942   1.032   4.683   4.573
 1015SOL     OW 3943   1.973   6.201   0.271
 1015SOL    HW1 3944   1.888   6.226   0.317
 1015SOL    HW2 3945   2.032   6.281   0.262
 1016SOL     OW 3946   0.028   4.151   0.784
 1016SOL    HW1 3947   0.043   4.250   0.775
 1016SOL    HW2 3948   0.082   4.103   0.715
 1017SOL     OW 3949   2.377   1.188   2.963
 1017SOL    HW1 3950   2.347   1.225   3.051
 1017SOL    HW2 3951   2.319   1.224   2.890
 1018SOL     OW 3952   6.013   6.292   4.319
 1018SOL    HW1 3953   6.093   6.350   4.337
 1018SOL    HW2 3954   6.013   6.215   4.382
 1019SOL     OW 3955   6.014   3.875   1.116
 1019SOL    HW1 3956   6.089   3.940   1.120
 1019SOL    HW2 3957   6.048   3.783   1.135
 1020SOL     OW 3958   4.903   1.383   1.390
 1020SOL    HW1 3959   4.869   1.337   1.308
 1020SOL    HW2 3960   4.865   1.339   1.471
 1021SOL     OW 3961   0.937   6.654   0.993
 1021SOL    HW1 3962   1.009   6.690   1.053
 1021SOL    HW2 3963   0.936   6.555   0.998
 1022SOL     OW 3964   2.526   5.207   6.409
 1022SOL    HW1 3965   2.485   5.171   6.325
 1022SOL    HW2 3966   2.522   5.307   6.408
 1023SOL     OW 3967   0.899   1.758   2.532
 1023SOL    HW1 3968   0.835   1.817   2.482
 1023SOL    HW2 3969   0.921   1.800   2.620
 1024SOL     OW 3970   1.609   2.508   4.050
 1024SOL    HW1 3971   1.658   2.514   3.963
 1024SOL    HW2 3972   1.544   2.432   4.045
 1025SOL     OW 3973   4.904   4.625   1.131
 1025SOL    HW1 3974   4.884   4.608   1.034
 1025SOL    HW2 3975   4.950   4.713   1.140
 1026SOL     OW 3976   3.136   3.016   1.837
 1026SOL    HW1 3977   3.055   3.072   1.849
 1026SOL    HW2 3978   3.192   3.053   1.763
 1027SOL     OW 3979   6.728   6.788   0.288
 1027SOL    HW1 3980   6.734   6.799   0.188
 1027SOL    HW2 3981   6.782   6.860   0.332
 1028SOL     OW 3982   0.941   5.081   2.880
 1028SOL    HW1 3983   0.931   5.045   2.788
 1028SOL    HW2 3984   0.869   5.150   2.897
 1029SOL     OW 3985   1.388   0.799   5.053
 1029SOL    HW1 3986   1.488   0.797   5.052
 1029SOL    HW2 3987   1.357   0.880   5.103
 1030SOL     OW 3988   4.094   3.389   0.617
 1030SOL    HW1 3989   4.091   3.380   0.517
 1030SOL    HW2 3990   4.046   3.312   0.659
 1031SOL     OW 3991   4.524   3.644   0.535
 1031SOL    HW1 3992   4.479   3.730   0.560
 1031SOL    HW2 3993   4.485   3.569   0.589
 1032SOL     OW 3994   1.825   1.649   0.771
 1032SOL    HW1 3995   1.793   1.710   0.699
 1032SOL    HW2 3996   1.916   1.616   0.749
 1033SOL     OW 3997   0.244   1.172   1.869
 1033SOL    HW1 3998   0.273   1.079   1.846
 1033SOL    HW2 3999   0.288   1.200   1.955
 1034SOL     OW 4000   3.108   0.720   4.922
 1034SOL    HW1 4001   3.198   0.763   4.912
 1034SOL    HW2 4002   3.110   0.629   4.881
 1035SOL     OW 4003   1.400   0.487   0.461
 1035SOL    HW1 4004   1.419   0.583   0.483
 1035SOL    HW2 4005   1.314   0.460   0.504
 1036SOL     OW 4006   4.526   1.676   1.836
 1036SOL    HW1 4007   4.440   1.695   1.790
 1036SOL    HW2 4008   4.521   1.588   1.883
 1037SOL     OW 4009   1.495   3.534   2.568
 1037SOL    HW1 4010   1.534   3.447   2.598
 1037SOL    HW2 4011   1.505   3.602   2.641
 1038SOL     OW 4012   1.922   5.709   0.095
 1038SOL    HW1 4013   1.842   5.677   0.044
 1038SOL    HW2 4014   1.892   5.744   0.184
 1039SOL     OW 4015   3.211   3.736   3.261
 1039SOL    HW1 4016   3.223   3.670   3.335
 1039SOL    HW2 4017   3.259   3.704   3.180
 1040SOL     OW 4018   3.651   1.859   3.434
 1040SOL    HW1 4019   3.695   1.853   3.345
 1040SOL    HW2 4020   3.589   1.938   3.436
 1041SOL     OW 4021   6.593   6.450   6.458
 1041SOL    HW1 4022   6.692   6.448   6.456
 1041SOL    HW2 4023   6.560   6.423   6.549
 1042SOL     OW 4024   5.186   4.021   3.767
 1042SOL    HW1 4025   5.134   3.959   3.709
 1042SOL    HW2 4026   5.284   4.009   3.750
 1043SOL     OW 4027   2.604   1.599   4.000
 1043SOL    HW1 4028   2.679   1.584   4.064
 1043SOL    HW2 4029   2.518   1.567   4.042
 1044SOL     OW 4030   5.613   4.805   2.054
 1044SOL    HW1 4031   5.671   4.802   2.135
 1044SOL    HW2 4032   5.642   4.734   1.990
 1045SOL     OW 4033   2.099   0.666   2.351
 1045SOL    HW1 4034   2.015   0.706   2.389
 1045SOL    HW2 4035   2.174   0.677   2.416
 1046SOL     OW 4036   2.879   2.147   1.132
 1046SOL    HW1 4037   2.883   2.244   1.159
 1046SOL    HW2 4038   2.908   2.090   1.208
 1047SOL     OW 4039   4.384   0.444   3.353
 1047SOL    HW1 4040   4.325   0.460   3.432
 1047SOL    HW2 4041   4.465   0.391   3.382
 1048SOL     OW 4042   0.721   0.218   1.960
 1048SOL    HW1 4043   0.718   0.139   2.021
 1048SOL    HW2 4044   0.760   0.296   2.008
 1049SOL     OW 4045   3.812   6.445   0.028
 1049SOL    HW1 4046   3.784   6.533   0.065
 1049SOL    HW2 4047   3.762   6.426   6.965
 1050SOL     OW 4048   3.157   0.240   4.116
 1050SOL    HW1 4049   3.209   0.325   4.102
 1050SOL    HW2 4050   3.159   0.216   4.212
 1051SOL     OW 4051   1.935   1.629   5.554
 1051SOL    HW1 4052   1.858   1.693   5.561
 1051SOL    HW2 4053   1.956   1.592   5.644
 1052SOL     OW 4054   3.835   1.267   0.285
 1052SOL    HW1 4055   3.923   1.295   0.249
 1052SOL    HW2 4056   3.765   1.335   0.261
 1053SOL     OW 4057   5.217   2.483   4.518
 1053SOL    HW1 4058   5.294   2.457   4.577
 1053SOL    HW2 4059   5.133   2.488   4.572
 1054SOL     OW 4060   4.244   5.379   6.520
 1054SOL    HW1 4061   4.200   5.452   6.573
 1054SOL    HW2 4062   4.343   5.389   6.527
 1055SOL     OW 4063   4.683   5.715   6.677
 1055SOL    HW1 4064   4.642   5.758   6.757
 1055SOL    HW2 4065   4.627   5.734   6.596
 1056SOL     OW 4066   3.530   3.759   0.207
 1056SOL    HW1 4067   3.593   3.686   0.179
 1056SOL    HW2 4068   3.467   3.779   0.132
 1057SOL     OW 4069   3.258   2.882   6.473
 1057SOL    HW1 4070   3.220   2.952   6.533
 1057SOL    HW2 4071   3.340   2.917   6.428
 1058SOL     OW 4072   3.049   2.183   1.816
 1058SOL    HW1 4073   2.999   2.265   1.843
 1058SOL    HW2 4074   3.116   2.208   1.745
 1059SOL     OW 4075   2.577   6.279   2.318
 1059SOL    HW1 4076   2.519   6.347   2.363
 1059SOL    HW2 4077   2.625   6.323   2.241
 1060SOL     OW 4078   6.220   0.799   5.241
 1060SOL    HW1 4079   6.189   0.796   5.336
 1060SOL    HW2 4080   6.168   0.733   5.187
 1061SOL     OW 4081   0.197   3.309   6.049
 1061SOL    HW1 4082   0.290   3.274   6.045
 1061SOL    HW2 4083   0.169   3.339   5.958
 1062SOL     OW 4084   3.469   5.308   4.979
 1062SOL    HW1 4085   3.560   5.320   5.019
 1062SOL    HW2 4086   3.404   5.285   5.051
 1063SOL     OW 4087   3.084   6.762   4.221
 1063SOL    HW1 4088   3.163   6.706   4.196
 1063SOL    HW2 4089   3.072   6.834   4.152
 1064SOL     OW 4090   0.805   3.143   0.255
 1064SOL    HW1 4091   0.803   3.232   0.209
 1064SOL    HW2 4092   0.892   3.097   0.234
 1065SOL     OW 4093   5.972   0.997   4.651
 1065SOL    HW1 4094   5.933   0.915   4.608
 1065SOL    HW2 4095   5.945   1.078   4.599
 1066SOL     OW 4096   5.176   6.368   1.042
 1066SOL    HW1 4097   5.239   6.331   0.974
 1066SOL    HW2 4098   5.082   6.353   1.012
 1067SOL     OW 4099   2.520   1.591   0.357
 1067SOL    HW1 4100   2.559   1.682   0.349
 1067SOL    HW2 4101   2.532   1.558   0.451
 1068SOL     OW 4102   6.372   3.124   1.165
 1068SOL    HW1 4103   6.290   3.137   1.221
 1068SOL    HW2 4104   6.368   3.185   1.085
 1069SOL     OW 4105   6.469   2.946   2.533
 1069SOL    HW1 4106   6.464   2.866   2.474
 1069SOL    HW2 4107   6.553   2.997   2.514
 1070SOL     OW 4108   1.035   0.495   2.336
 1070SOL    HW1 4109   1.073   0.565   2.275
 1070SOL    HW2 4110   1.105   0.464   2.400
 1071SOL     OW 4111   0.701   3.107   6.101
 1071SOL    HW1 4112   0.735   3.180   6.041
 1071SOL    HW2 4113   0.635   3.051   6.050
 1072SOL     OW 4114   1.669   1.552   2.008
 1072SOL    HW1 4115   1.580   1.545   2.052
 1072SOL    HW2 4116   1.716   1.635   2.038
 1073SOL     OW 4117   5.656   2.536   2.927
 1073SOL    HW1 4118   5.562   2.551   2.895
 1073SOL    HW2 4119   5.706   2.623   2.924
 1074SOL     OW 4120   3.011   5.266   1.628
 1074SOL    HW1 4121   3.059   5.315   1.701
 1074SOL    HW2 4122   3.021   5.167   1.641
 1075SOL     OW 4123   6.844   4.001   5.263
 1075SOL    HW1 4124   6.906   4.033   5.191
 1075SOL    HW2 4125   6.750   4.003   5.229
 1076SOL     OW 4126   2.217   4.017   5.336
 1076SOL    HW1 4127   2.272   3.962   5.274
 1076SOL    HW2 4128   2.273   4.089   5.376
 1077SOL     OW 4129   6.870   6.517   0.197
 1077SOL    HW1 4130   6.820   6.553   0.276
 1077SOL    HW2 4131   6.875   6.417   0.203
 1078SOL     OW 4132   6.226   6.152   4.639
 1078SOL    HW1 4133   6.246   6.249   4.622
 1078SOL    HW2 4134   6.158   6.119   4.574
 1079SOL     OW 4135   0.683   6.663   1.083
 1079SOL    HW1 4136   0.781   6.670   1.067
 1079SOL    HW2 4137   0.638   6.625   1.002
 1080SOL     OW 4138   3.696   6.231   0.686
 1080SOL    HW1 4139   3.775   6.239   0.626
 1080SOL    HW2 4140   3.614   6.213   0.632
 1081SOL     OW 4141   6.508   6.835   3.737
 1081SOL    HW1 4142   6.482   6.772   3.810
 1081SOL    HW2 4143   6.558   6.784   3.666
 1082SOL     OW 4144   4.225   6.637   0.687
 1082SOL    HW1 4145   4.272   6.683   0.612
 1082SOL    HW2 4146   4.126   6.642   0.671
 1083SOL     OW 4147   6.062   3.815   2.116
 1083SOL    HW1 4148   6.010   3.868   2.184
 1083SOL    HW2 4149   6.031   3.720   2.117
 1084SOL     OW 4150   5.452   0.469   5.518
 1084SOL    HW1 4151   5.482   0.439   5.427
 1084SOL    HW2 4152   5.353   0.478   5.520
 1085SOL     OW 4153   2.148   3.403   4.884
 1085SOL    HW1 4154   2.162   3.405   4.983
 1085SOL    HW2 4155   2.071   3.344   4.863
 1086SOL     OW 4156   5.720   4.793   1.394
 1086SOL    HW1 4157   5.813   4.803   1.360
 1086SOL    HW2 4158   5.658   4.775   1.317
 1087SOL     OW 4159   4.274   0.127   5.852
 1087SOL    HW1 4160   4.351   0.190   5.841
 1087SOL    HW2 4161   4.189   0.179   5.858
 1088SOL     OW 4162   6.486   5.216   4.291
 1088SOL    HW1 4163   6.462   5.309   4.321
 1088SOL    HW2 4164   6.558   5.221   4.222
 1089SOL     OW 4165   5.494   5.230   4.040
 1089SOL    HW1 4166   5.585   5.207   4.007
 1089SOL    HW2 4167   5.489   5.215   4.139
 1090SOL     OW 4168   5.501   2.560   5.333
 1090SOL    HW1 4169   5.563   2.561   5.411
 1090SOL    HW2 4170   5.544   2.514   5.256
 1091SOL     OW 4171   2.094   3.443   3.239
 1091SOL    HW1 4172   2.102   3.529   3.289
 1091SOL    HW2 4173   2.111   3.459   3.142
 1092SOL     OW 4174   0.433   6.212   0.597
 1092SOL    HW1 4175   0.510   6.172   0.647
 1092SOL    HW2 4176   0.409   6.154   0.519
 1093SOL     OW 4177   1.300   0.775   3.481
 1093SOL    HW1 4178   1.200   0.764   3.479
 1093SOL    HW2 4179   1.340   0.728   3.403
 1094SOL     OW 4180   0.669   0.244   2.680
 1094SOL    HW1 4181   0.718   0.304   2.617
 1094SOL    HW2 4182   0.601   0.190   2.630
 1095SOL     OW 4183   5.914   3.878   0.341
 1095SOL    HW1 4184   5.859   3.897   0.260
 1095SOL    HW2 4185   5.864   3.815   0.401
 1096SOL     OW 4186   1.962   5.630   1.834
 1096SOL    HW1 4187   2.055   5.661   1.815
 1096SOL    HW2 4188   1.918   5.604   1.748
 1097SOL     OW 4189   3.189   6.560   4.601
 1097SOL    HW1 4190   3.241   6.583   4.519
 1097SOL    HW2 4191   3.213   6.468   4.631
 1098SOL     OW 4192   6.792   3.747   0.504
 1098SOL    HW1 4193   6.753   3.713   0.419
 1098SOL    HW2 4194   6.784   3.847   0.507
 1099SOL     OW 4195   5.207   0.289   6.545
 1099SOL    HW1 4196   5.120   0.332   6.567
 1099SOL    HW2 4197   5.264   0.355   6.495
 1100SOL     OW 4198   4.397   2.158   4.603
 1100SOL    HW1 4199   4.303   2.183   4.580
 1100SOL    HW2 4200   4.396   2.094   4.680
 1101SOL     OW 4201   4.893   2.695   6.556
 1101SOL    HW1 4202   4.829   2.749   6.501
 1101SOL    HW2 4203   4.986   2.713   6.525
 1102SOL     OW 4204   2.705   0.426   3.320
 1102SOL    HW1 4205   2.645   0.472   3.386
 1102SOL    HW2 4206   2.800   0.433   3.351
 1103SOL     OW 4207   3.584   6.101   1.076
 1103SOL    HW1 4208   3.533   6.037   1.019
 1103SOL    HW2 4209   3.581   6.071   1.171
 1104SOL     OW 4210   6.705   2.696   3.920
 1104SOL    HW1 4211   6.788   2.735   3.878
 1104SOL    HW2 4212   6.626   2.752   3.894
 1105SOL     OW 4213   5.039   1.164   6.483
 1105SOL    HW1 4214   5.133   1.192   6.461
 1105SOL    HW2 4215   5.013   1.088   6.425
 1106SOL     OW 4216   6.441   1.552   0.882
 1106SOL    HW1 4217   6.395   1.468   0.852
 1106SOL    HW2 4218   6.467   1.542   0.978
 1107SOL     OW 4219   0.853   1.239   6.971
 1107SOL    HW1 4220   0.836   1.322   6.917
 1107SOL    HW2 4221   0.903   1.262   0.033
 1108SOL     OW 4222   2.125   1.089   3.668
 1108SOL    HW1 4223   2.171   1.173   3.695
 1108SOL    HW2 4224   2.186   1.033   3.612
 1109SOL     OW 4225   4.729   2.193   5.107
 1109SOL    HW1 4226   4.664   2.211   5.181
 1109SOL    HW2 4227   4.785   2.114   5.131
 1110SOL     OW 4228   1.439   1.255   2.237
 1110SOL    HW1 4229   1.416   1.232   2.331
 1110SOL    HW2 4230   1.455   1.172   2.185
 1111SOL     OW 4231   5.742   3.591   6.439
 1111SOL    HW1 4232   5.653   3.548   6.452
 1111SOL    HW2 4233   5.747   3.673   6.496
 1112SOL     OW 4234   5.830   0.341   2.569
 1112SOL    HW1 4235   5.795   0.266   2.625
 1112SOL    HW2 4236   5.760   0.372   2.506
 1113SOL     OW 4237   6.638   3.184   2.799
 1113SOL    HW1 4238   6.582   3.136   2.732
 1113SOL    HW2 4239   6.712   3.233   2.753
 1114SOL     OW 4240   3.731   3.696   4.861
 1114SOL    HW1 4241   3.675   3.653   4.790
 1114SOL    HW2 4242   3.707   3.658   4.950
 1115SOL     OW 4243   2.412   4.836   5.612
 1115SOL    HW1 4244   2.384   4.911   5.672
 1115SOL    HW2 4245   2.336   4.772   5.601
 1116SOL     OW 4246   4.191   6.860   0.474
 1116SOL    HW1 4247   4.218   6.848   0.379
 1116SOL    HW2 4248   4.217   6.951   0.505
 1117SOL     OW 4249   2.054   2.336   1.638
 1117SOL    HW1 4250   2.132   2.341   1.576
 1117SOL    HW2 4251   1.975   2.379   1.594
 1118SOL     OW 4252   4.533   5.904   6.874
 1118SOL    HW1 4253   4.499   5.814   6.901
 1118SOL    HW2 4254   4.534   5.964   6.954
 1119SOL     OW 4255   3.578   4.926   3.681
 1119SOL    HW1 4256   3.632   4.965   3.755
 1119SOL    HW2 4257   3.485   4.963   3.683
 1120SOL     OW 4258   7.003   2.976   1.570
 1120SOL    HW1 4259   0.028   2.927   1.496
 1120SOL    HW2 4260   7.011   3.075   1.554
 1121SOL     OW 4261   6.705   4.671   5.237
 1121SOL    HW1 4262   6.754   4.758   5.234
 1121SOL    HW2 4263   6.683   4.649   5.332
 1122SOL     OW 4264   6.292   1.487   2.164
 1122SOL    HW1 4265   6.334   1.466   2.077
 1122SOL    HW2 4266   6.211   1.545   2.150
 1123SOL     OW 4267   3.930   1.622   4.709
 1123SOL    HW1 4268   3.881   1.666   4.634
 1123SOL    HW2 4269   3.871   1.553   4.751
 1124SOL     OW 4270   2.104   3.010   4.111
 1124SOL    HW1 4271   2.103   3.074   4.187
 1124SOL    HW2 4272   2.018   2.957   4.110
 1125SOL     OW 4273   1.417   3.466   3.616
 1125SOL    HW1 4274   1.449   3.479   3.522
 1125SOL    HW2 4275   1.336   3.407   3.616
 1126SOL     OW 4276   4.194   4.708   4.249
 1126SOL    HW1 4277   4.260   4.634   4.241
 1126SOL    HW2 4278   4.127   4.702   4.175
 1127SOL     OW 4279   6.755   6.851   1.790
 1127SOL    HW1 4280   6.808   6.862   1.706
 1127SOL    HW2 4281   6.667   6.810   1.768
 1128SOL     OW 4282   4.402   1.380   4.660
 1128SOL    HW1 4283   4.426   1.283   4.671
 1128SOL    HW2 4284   4.457   1.419   4.586
 1129SOL     OW 4285   1.267   0.239   0.036
 1129SOL    HW1 4286   1.209   0.181   7.000
 1129SOL    HW2 4287   1.304   0.314   7.001
 1130SOL     OW 4288   2.167   4.751   2.050
 1130SOL    HW1 4289   2.202   4.835   2.091
 1130SOL    HW2 4290   2.089   4.773   1.991
 1131SOL     OW 4291   2.540   5.854   3.365
 1131SOL    HW1 4292   2.607   5.780   3.370
 1131SOL    HW2 4293   2.482   5.840   3.284
 1132SOL     OW 4294   1.212   1.841   2.415
 1132SOL    HW1 4295   1.248   1.751   2.440
 1132SOL    HW2 4296   1.245   1.909   2.480
 1133SOL     OW 4297   1.074   6.185   6.363
 1133SOL    HW1 4298   1.144   6.115   6.378
 1133SOL    HW2 4299   0.992   6.142   6.325
 1134SOL     OW 4300   3.828   6.193   1.098
 1134SOL    HW1 4301   3.890   6.114   1.089
 1134SOL    HW2 4302   3.735   6.164   1.077
 1135SOL     OW 4303   1.744   6.791   2.947
 1135SOL    HW1 4304   1.728   6.760   3.041
 1135SOL    HW2 4305   1.815   6.861   2.945
 1136SOL     OW 4306   1.474   4.996   1.944
 1136SOL    HW1 4307   1.459   4.903   1.912
 1136SOL    HW2 4308   1.566   5.004   1.983
 1137SOL     OW 4309   1.477   6.115   4.511
 1137SOL    HW1 4310   1.503   6.064   4.429
 1137SOL    HW2 4311   1.481   6.055   4.591
 1138SOL     OW 4312   1.648   4.145   5.187
 1138SOL    HW1 4313   1.661   4.052   5.222
 1138SOL    HW2 4314   1.624   4.140   5.090
 1139SOL     OW 4315   2.622   5.184   5.035
 1139SOL    HW1 4316   2.661   5.260   4.982
 1139SOL    HW2 4317   2.554   5.136   4.980
 1140SOL     OW 4318   1.863   2.142   1.741
 1140SOL    HW1 4319   1.939   2.194   1.701
 1140SOL    HW2 4320   1.873   2.139   1.840
 1141SOL     OW 4321   0.009   4.992   5.562
 1141SOL    HW1 4322   0.064   5.008   5.480
 1141SOL    HW2 4323   6.973   5.073   5.579
 1142SOL     OW 4324   1.712   6.131   2.216
 1142SOL    HW1 4325   1.650   6.139   2.294
 1142SOL    HW2 4326   1.661   6.140   2.131
 1143SOL     OW 4327   0.050   3.897   1.746
 1143SOL    HW1 4328   7.002   3.826   1.733
 1143SOL    HW2 4329   0.075   3.935   1.656
 1144SOL     OW 4330   5.649   4.472   0.359
 1144SOL    HW1 4331   5.676   4.533   0.285
 1144SOL    HW2 4332   5.569   4.419   0.331
 1145SOL     OW 4333   5.819   6.846   0.359
 1145SOL    HW1 4334   5.870   6.802   0.285
 1145SOL    HW2 4335   5.867   6.928   0.388
 1146SOL     OW 4336   0.857   0.996   1.135
 1146SOL    HW1 4337   0.900   1.082   1.108
 1146SOL    HW2 4338   0.810   0.957   1.056
 1147SOL     OW 4339   1.948   6.367   0.916
 1147SOL    HW1 4340   1.989   6.279   0.942
 1147SOL    HW2 4341   1.849   6.357   0.914
 1148SOL     OW 4342   4.389   5.702   2.935
 1148SOL    HW1 4343   4.327   5.756   2.992
 1148SOL    HW2 4344   4.400   5.746   2.846
 1149SOL     OW 4345   5.023   2.932   1.714
 1149SOL    HW1 4346   4.951   2.995   1.685
 1149SOL    HW2 4347   5.033   2.935   1.814
 1150SOL     OW 4348   0.853   3.421   0.442
 1150SOL    HW1 4349   0.914   3.442   0.366
 1150SOL    HW2 4350   0.864   3.325   0.468
 1151SOL     OW 4351   5.818   5.238   4.176
 1151SOL    HW1 4352   5.814   5.267   4.080
 1151SOL    HW2 4353   5.880   5.160   4.184
 1152SOL     OW 4354   3.676   6.651   6.471
 1152SOL    HW1 4355   3.672   6.695   6.560
 1152SOL    HW2 4356   3.584   6.644   6.433
 1153SOL     OW 4357   5.978   6.723   1.679
 1153SOL    HW1 4358   5.952   6.643   1.733
 1153SOL    HW2 4359   5.929   6.722   1.592
 1154SOL     OW 4360   2.260   3.145   0.660
 1154SOL    HW1 4361   2.165   3.131   0.632
 1154SOL    HW2 4362   2.271   3.238   0.697
 1155SOL     OW 4363   3.455   5.660   4.043
 1155SOL    HW1 4364   3.453   5.731   4.113
 1155SOL    HW2 4365   3.549   5.627   4.031
 1156SOL     OW 4366   2.747   1.539   2.481
 1156SOL    HW1 4367   2.782   1.485   2.558
 1156SOL    HW2 4368   2.683   1.608   2.515
 1157SOL     OW 4369   3.010   1.245   0.460
 1157SOL    HW1 4370   2.955   1.206   0.533
 1157SOL    HW2 4371   3.079   1.179   0.431
 1158SOL     OW 4372   5.444   4.139   3.091
 1158SOL    HW1 4373   5.473   4.047   3.063
 1158SOL    HW2 4374   5.415   4.137   3.187
 1159SOL     OW 4375   6.127   5.076   0.342
 1159SOL    HW1 4376   6.195   5.103   0.410
 1159SOL    HW2 4377   6.169   5.016   0.274
 1160SOL     OW 4378   4.667   2.343   0.301
 1160SOL    HW1 4379   4.647   2.432   0.260
 1160SOL    HW2 4380   4.676   2.353   0.400
 1161SOL     OW 4381   6.393   5.437   1.062
 1161SOL    HW1 4382   6.314   5.495   1.083
 1161SOL    HW2 4383   6.427   5.395   1.146
 1162SOL     OW 4384   3.096   2.133   4.565
 1162SOL    HW1 4385   3.039   2.207   4.602
 1162SOL    HW2 4386   3.059   2.045   4.594
 1163SOL     OW 4387   5.771   2.187   1.424
 1163SOL    HW1 4388   5.812   2.244   1.495
 1163SOL    HW2 4389   5.697   2.133   1.464
 1164SOL     OW 4390   4.172   2.863   5.999
 1164SOL    HW1 4391   4.081   2.895   5.975
 1164SOL    HW2 4392   4.167   2.809   6.083
 1165SOL     OW 4393   4.808   6.710   3.484
 1165SOL    HW1 4394   4.805   6.731   3.386
 1165SOL    HW2 4395   4.756   6.779   3.534
 1166SOL     OW 4396   3.143   4.680   6.539
 1166SOL    HW1 4397   3.071   4.727   6.590
 1166SOL    HW2 4398   3.216   4.744   6.516
 1167SOL     OW 4399   4.570   4.410   2.786
 1167SOL    HW1 4400   4.493   4.471   2.768
 1167SOL    HW2 4401   4.655   4.453   2.756
 1168SOL     OW 4402   0.273   0.049   2.046
 1168SOL    HW1 4403   0.284   0.015   1.952
 1168SOL    HW2 4404   0.185   0.096   2.055
 1169SOL     OW 4405   4.569   1.469   5.758
 1169SOL    HW1 4406   4.499   1.521   5.710
 1169SOL    HW2 4407   4.587   1.509   5.847
 1170SOL     OW 4408   4.823   4.947   2.618
 1170SOL    HW1 4409   4.813   5.045   2.602
 1170SOL    HW2 4410   4.841   4.901   2.530
 1171SOL     OW 4411   0.256   5.811   0.802
 1171SOL    HW1 4412   0.255   5.895   0.855
 1171SOL    HW2 4413   0.165   5.794   0.763
 1172SOL     OW 4414   6.467   3.198   6.220
 1172SOL    HW1 4415   6.447   3.276   6.278
 1172SOL    HW2 4416   6.381   3.151   6.197
 1173SOL     OW 4417   3.692   2.724   0.633
 1173SOL    HW1 4418   3.785   2.713   0.669
 1173SOL    HW2 4419   3.695   2.776   0.548
 1174SOL     OW 4420   1.902   4.523   0.310
 1174SOL    HW1 4421   1.905   4.423   0.311
 1174SOL    HW2 4422   1.897   4.555   0.215
 1175SOL     OW 4423   3.132   3.102   4.267
 1175SOL    HW1 4424   3.154   3.194   4.235
 1175SOL    HW2 4425   3.080   3.107   4.352
 1176SOL     OW 4426   5.372   2.895   6.812
 1176SOL    HW1 4427   5.380   2.975   6.752
 1176SOL    HW2 4428   5.438   2.825   6.783
 1177SOL     OW 4429   1.086   1.503   4.136
 1177SOL    HW1 4430   1.074   1.417   4.187
 1177SOL    HW2 4431   1.173   1.544   4.161
 1178SOL     OW 4432   4.409   6.202   6.798
 1178SOL    HW1 4433   4.361   6.171   6.880
 1178SOL    HW2 4434   4.463   6.127   6.761
 1179SOL     OW 4435   0.706   5.706   0.210
 1179SOL    HW1 4436   0.797   5.693   0.172
 1179SOL    HW2 4437   0.697   5.800   0.244
 1180SOL     OW 4438   3.485   6.173   0.549
 1180SOL    HW1 4439   3.507   6.079   0.573
 1180SOL    HW2 4440   3.390   6.192   0.573
 1181SOL     OW 4441   6.323   6.679   6.745
 1181SOL    HW1 4442   6.375   6.617   6.687
 1181SOL    HW2 4443   6.382   6.752   6.779
 1182SOL     OW 4444   4.331   4.642   2.481
 1182SOL    HW1 4445   4.383   4.570   2.435
 1182SOL    HW2 4446   4.363   4.651   2.575
 1183SOL     OW 4447   1.944   3.935   6.264
 1183SOL    HW1 4448   2.043   3.949   6.277
 1183SOL    HW2 4449   1.906   4.016   6.218
 1184SOL     OW 4450   0.250   0.485   5.260
 1184SOL    HW1 4451   0.251   0.449   5.354
 1184SOL    HW2 4452   0.158   0.515   5.237
 1185SOL     OW 4453   6.282   1.202   0.251
 1185SOL    HW1 4454   6.237   1.253   0.324
 1185SOL    HW2 4455   6.377   1.184   0.276
 1186SOL     OW 4456   5.442   6.431   4.878
 1186SOL    HW1 4457   5.494   6.402   4.797
 1186SOL    HW2 4458   5.467   6.525   4.901
 1187SOL     OW 4459   6.515   1.187   5.846
 1187SOL    HW1 4460   6.547   1.224   5.759
 1187SOL    HW2 4461   6.443   1.120   5.829
 1188SOL     OW 4462   2.964   0.754   6.741
 1188SOL    HW1 4463   2.864   0.757   6.750
 1188SOL    HW2 4464   3.006   0.767   6.831
 1189SOL     OW 4465   5.386   3.424   3.764
 1189SOL    HW1 4466   5.302   3.477   3.753
 1189SOL    HW2 4467   5.368   3.328   3.744
 1190SOL     OW 4468   2.493   7.019   3.633
 1190SOL    HW1 4469   2.518   0.051   3.552
 1190SOL    HW2 4470   2.409   6.968   3.616
 1191SOL     OW 4471   4.291   6.496   2.512
 1191SOL    HW1 4472   4.228   6.485   2.588
 1191SOL    HW2 4473   4.371   6.549   2.541
 1192SOL     OW 4474   6.103   6.212   3.375
 1192SOL    HW1 4475   6.093   6.308   3.401
 1192SOL    HW2 4476   6.134   6.206   3.280
 1193SOL     OW 4477   0.242   5.581   4.390
 1193SOL    HW1 4478   0.320   5.518   4.384
 1193SOL    HW2 4479   0.269   5.671   4.357
 1194SOL     OW 4480   3.846   0.211   1.539
 1194SOL    HW1 4481   3.911   0.265   1.486
 1194SOL    HW2 4482   3.759   0.259   1.546
 1195SOL     OW 4483   5.211   2.423   3.687
 1195SOL    HW1 4484   5.165   2.512   3.680
 1195SOL    HW2 4485   5.223   2.385   3.595
 1196SOL     OW 4486   7.014   6.677   4.701
 1196SOL    HW1 4487   6.943   6.607   4.697
 1196SOL    HW2 4488   6.978   6.762   4.661
 1197SOL     OW 4489   2.075   6.012   0.451
 1197SOL    HW1 4490   2.032   6.094   0.412
 1197SOL    HW2 4491   2.115   6.035   0.540
 1198SOL     OW 4492   1.562   2.557   6.751
 1198SOL    HW1 4493   1.610   2.601   6.827
 1198SOL    HW2 4494   1.516   2.475   6.784
 1199SOL     OW 4495   6.323   3.627   1.728
 1199SOL    HW1 4496   6.234   3.588   1.751
 1199SOL    HW2 4497   6.336   3.625   1.629
 1200SOL     OW 4498   2.912   3.493   2.518
 1200SOL    HW1 4499   2.975   3.439   2.462
 1200SOL    HW2 4500   2.928   3.473   2.614
 1201SOL     OW 4501   1.420   2.051   4.670
 1201SOL    HW1 4502   1.409   1.970   4.613
 1201SOL    HW2 4503   1.467   2.026   4.755
 1202SOL     OW 4504   1.490   5.924   5.626
 1202SOL    HW1 4505   1.564   5.927   5.559
 1202SOL    HW2 4506   1.404   5.949   5.582
 1203SOL     OW 4507   3.482   5.726   5.518
 1203SOL    HW1 4508   3.573   5.701   5.487
 1203SOL    HW2 4509   3.422   5.739   5.438
 1204SOL     OW 4510   1.944   6.970   2.991
 1204SOL    HW1 4511   1.949   0.038   2.946
 1204SOL    HW2 4512   2.021   6.960   3.055
 1205SOL     OW 4513   5.553   3.978   1.966
 1205SOL    HW1 4514   5.566   3.879   1.958
 1205SOL    HW2 4515   5.491   4.010   1.895
 1206SOL     OW 4516   3.538   3.632   4.681
 1206SOL    HW1 4517   3.532   3.731   4.677
 1206SOL    HW2 4518   3.449   3.592   4.658
 1207SOL     OW 4519   1.183   5.872   2.939
 1207SOL    HW1 4520   1.196   5.802   2.868
 1207SOL    HW2 4521   1.251   5.944   2.928
 1208SOL     OW 4522   3.151   3.679   5.822
 1208SOL    HW1 4523   3.250   3.679   5.804
 1208SOL    HW2 4524   3.102   3.701   5.738
 1209SOL     OW 4525   3.577   6.473   5.539
 1209SOL    HW1 4526   3.508   6.505   5.604
 1209SOL    HW2 4527   3.535   6.460   5.449
 1210SOL     OW 4528   3.524   1.021   3.046
 1210SOL    HW1 4529   3.430   1.036   3.076
 1210SOL    HW2 4530   3.530   1.033   2.947
 1211SOL     OW 4531   0.934   2.806   0.116
 1211SOL    HW1 4532   1.014   2.851   0.077
 1211SOL    HW2 4533   0.960   2.715   0.149
 1212SOL     OW 4534   1.709   0.070   0.162
 1212SOL    HW1 4535   1.731   7.004   0.207
 1212SOL    HW2 4536   1.757   0.145   0.208
 1213SOL     OW 4537   5.515   3.035   1.078
 1213SOL    HW1 4538   5.447   2.976   1.120
 1213SOL    HW2 4539   5.606   2.997   1.091
 1214SOL     OW 4540   6.871   2.747   1.667
 1214SOL    HW1 4541   6.925   2.799   1.601
 1214SOL    HW2 4542   6.932   2.693   1.725
 1215SOL     OW 4543   1.441   5.854   3.462
 1215SOL    HW1 4544   1.391   5.774   3.428
 1215SOL    HW2 4545   1.534   5.853   3.425
 1216SOL     OW 4546   3.436   6.944   1.654
 1216SOL    HW1 4547   3.473   6.891   1.578
 1216SOL    HW2 4548   3.431   0.020   1.628
 1217SOL     OW 4549   2.899   4.660   0.170
 1217SOL    HW1 4550   2.980   4.718   0.177
 1217SOL    HW2 4551   2.820   4.716   0.144
 1218SOL     OW 4552   2.557   5.409   3.669
 1218SOL    HW1 4553   2.503   5.395   3.586
 1218SOL    HW2 4554   2.513   5.477   3.727
 1219SOL     OW 4555   3.552   6.518   2.527
 1219SOL    HW1 4556   3.495   6.468   2.461
 1219SOL    HW2 4557   3.583   6.603   2.485
 1220SOL     OW 4558   0.964   4.708   2.723
 1220SOL    HW1 4559   0.908   4.641   2.673
 1220SOL    HW2 4560   1.038   4.660   2.770
 1221SOL     OW 4561   4.849   4.811   6.932
 1221SOL    HW1 4562   4.760   4.765   6.938
 1221SOL    HW2 4563   4.918   4.757   6.979
 1222SOL     OW 4564   6.950   0.727   6.019
 1222SOL    HW1 4565   0.005   0.777   5.978
 1222SOL    HW2 4566   6.863   0.766   5.989
 1223SOL     OW 4567   3.378   6.540   0.861
 1223SOL    HW1 4568   3.459   6.523   0.917
 1223SOL    HW2 4569   3.399   6.520   0.766
 1224SOL     OW 4570   2.818   0.316   2.069
 1224SOL    HW1 4571   2.878   0.381   2.115
 1224SOL    HW2 4572   2.727   0.320   2.109
 1225SOL     OW 4573   2.991   4.008   5.665
 1225SOL    HW1 4574   3.048   4.026   5.745
 1225SOL    HW2 4575   2.900   4.047   5.678
 1226SOL     OW 4576   2.012   4.670   0.543
 1226SOL    HW1 4577   2.004   4.604   0.618
 1226SOL    HW2 4578   1.972   4.631   0.460
 1227SOL     OW 4579   0.872   3.141   5.740
 1227SOL    HW1 4580   0.869   3.042   5.757
 1227SOL    HW2 4581   0.957   3.164   5.694
 1228SOL     OW 4582   3.791   1.642   6.705
 1228SOL    HW1 4583   3.849   1.700   6.648
 1228SOL    HW2 4584   3.842   1.614   6.787
 1229SOL     OW 4585   2.842   4.412   6.560
 1229SOL    HW1 4586   2.845   4.448   6.653
 1229SOL    HW2 4587   2.882   4.321   6.558
 1230SOL     OW 4588   4.460   0.550   3.654
 1230SOL    HW1 4589   4.369   0.527   3.619
 1230SOL    HW2 4590   4.476   0.648   3.645
 1231SOL     OW 4591   1.262   4.469   4.536
 1231SOL    HW1 4592   1.197   4.544   4.546
 1231SOL    HW2 4593   1.301   4.447   4.625
 1232SOL     OW 4594   2.084   2.592   3.217
 1232SOL    HW1 4595   2.098   2.560   3.310
 1232SOL    HW2 4596   2.058   2.515   3.159
 1233SOL     OW 4597   0.841   3.302   4.264
 1233SOL    HW1 4598   0.896   3.282   4.183
 1233SOL    HW2 4599   0.833   3.401   4.275
 1234SOL     OW 4600   6.736   4.013   4.103
 1234SOL    HW1 4601   6.788   3.949   4.160
 1234SOL    HW2 4602   6.647   4.031   4.145
 1235SOL     OW 4603   6.578   5.689   4.158
 1235SOL    HW1 4604   6.534   5.741   4.084
 1235SOL    HW2 4605   6.677   5.691   4.145
 1236SOL     OW 4606   5.509   1.000   5.830
 1236SOL    HW1 4607   5.575   0.945   5.881
 1236SOL    HW2 4608   5.518   1.096   5.857
 1237SOL     OW 4609   2.934   4.839   6.581
 1237SOL    HW1 4610   2.926   4.931   6.543
 1237SOL    HW2 4611   2.870   4.778   6.535
 1238SOL     OW 4612   1.531   1.755   0.465
 1238SOL    HW1 4613   1.601   1.747   0.395
 1238SOL    HW2 4614   1.563   1.815   0.538
 1239SOL     OW 4615   0.831   0.066   5.545
 1239SOL    HW1 4616   0.745   0.104   5.578
 1239SOL    HW2 4617   0.891   0.045   5.622
 1240SOL     OW 4618   4.109   6.138   2.195
 1240SOL    HW1 4619   4.019   6.163   2.231
 1240SOL    HW2 4620   4.180   6.173   2.256
 1241SOL     OW 4621   0.659   2.560   4.294
 1241SOL    HW1 4622   0.608   2.641   4.269
 1241SOL    HW2 4623   0.651   2.491   4.222
 1242SOL     OW 4624   2.304   3.099   6.813
 1242SOL    HW1 4625   2.379   3.042   6.847
 1242SOL    HW2 4626   2.254   3.049   6.742
 1243SOL     OW 4627   2.477   5.137   5.493
 1243SOL    HW1 4628   2.444   5.063   5.436
 1243SOL    HW2 4629   2.502   5.215   5.436
 1244SOL     OW 4630   0.196   1.040   2.950
 1244SOL    HW1 4631   0.286   1.052   2.992
 1244SOL    HW2 4632   0.194   1.087   2.862
 1245SOL     OW 4633   3.111   2.981   5.873
 1245SOL    HW1 4634   3.011   2.982   5.867
 1245SOL    HW2 4635   3.148   3.067   5.838
 1246SOL     OW 4636   0.912   6.882   1.438
 1246SOL    HW1 4637   0.961   6.956   1.484
 1246SOL    HW2 4638   0.919   6.799   1.493
 1247SOL     OW 4639   1.327   6.719   6.695
 1247SOL    HW1 4640   1.351   6.717   6.598
 1247SOL    HW2 4641   1.228   6.725   6.705
 1248SOL     OW 4642   1.913   6.518   3.427
 1248SOL    HW1 4643   1.885   6.508   3.331
 1248SOL    HW2 4644   1.872   6.602   3.464
 1249SOL     OW 4645   5.940   2.887   3.582
 1249SOL    HW1 4646   6.006   2.934   3.640
 1249SOL    HW2 4647   5.863   2.854   3.637
 1250SOL     OW 4648   0.155   4.267   4.561
 1250SOL    HW1 4649   0.192   4.174   4.560
 1250SOL    HW2 4650   0.195   4.320   4.486
 1251SOL     OW 4651   3.432   7.016   6.113
 1251SOL    HW1 4652   3.513   6.998   6.169
 1251SOL    HW2 4653   3.405   0.091   6.122
 1252SOL     OW 4654   3.347   3.754   7.003
 1252SOL    HW1 4655   3.354   3.729   6.907
 1252SOL    HW2 4656   3.265   3.715   0.022
 1253SOL     OW 4657   4.079   7.004   2.632
 1253SOL    HW1 4658   4.057   0.007   2.726
 1253SOL    HW2 4659   4.002   6.955   2.591
 1254SOL     OW 4660   6.082   1.462   2.601
 1254SOL    HW1 4661   6.136   1.544   2.584
 1254SOL    HW2 4662   6.070   1.411   2.515
 1255SOL     OW 4663   6.241   0.467   0.475
 1255SOL    HW1 4664   6.232   0.548   0.532
 1255SOL    HW2 4665   6.270   0.493   0.383
 1256SOL     OW 4666   5.185   2.245   3.881
 1256SOL    HW1 4667   5.266   2.235   3.940
 1256SOL    HW2 4668   5.212   2.290   3.796
 1257SOL     OW 4669   5.991   1.570   3.905
 1257SOL    HW1 4670   5.913   1.624   3.936
 1257SOL    HW2 4671   5.977   1.542   3.810
 1258SOL     OW 4672   0.244   5.870   3.815
 1258SOL    HW1 4673   0.163   5.926   3.831
 1258SOL    HW2 4674   0.280   5.889   3.723
 1259SOL     OW 4675   4.424   2.305   5.060
 1259SOL    HW1 4676   4.327   2.329   5.058
 1259SOL    HW2 4677   4.461   2.304   4.967
 1260SOL     OW 4678   0.592   1.624   4.866
 1260SOL    HW1 4679   0.504   1.662   4.894
 1260SOL    HW2 4680   0.663   1.694   4.873
 1261SOL     OW 4681   6.635   3.662   0.770
 1261SOL    HW1 4682   6.709   3.709   0.722
 1261SOL    HW2 4683   6.555   3.722   0.774
 1262SOL     OW 4684   5.101   6.042   2.282
 1262SOL    HW1 4685   5.134   6.136   2.290
 1262SOL    HW2 4686   5.145   5.986   2.352
 1263SOL     OW 4687   6.806   2.401   3.679
 1263SOL    HW1 4688   6.858   2.432   3.759
 1263SOL    HW2 4689   6.869   2.363   3.611
 1264SOL     OW 4690   1.253   2.762   5.281
 1264SOL    HW1 4691   1.246   2.720   5.190
 1264SOL    HW2 4692   1.190   2.716   5.344
 1265SOL     OW 4693   5.655   0.179   5.501
 1265SOL    HW1 4694   5.585   0.113   5.529
 1265SOL    HW2 4695   5.719   0.194   5.577
 1266SOL     OW 4696   2.423   1.293   5.462
 1266SOL    HW1 4697   2.343   1.334   5.508
 1266SOL    HW2 4698   2.403   1.198   5.439
 1267SOL     OW 4699   3.579   0.402   2.646
 1267SOL    HW1 4700   3.514   0.384   2.572
 1267SOL    HW2 4701   3.556   0.487   2.692
 1268SOL     OW 4702   3.902   2.457   5.343
 1268SOL    HW1 4703   3.986   2.500   5.309
 1268SOL    HW2 4704   3.832   2.528   5.356
 1269SOL     OW 4705   6.023   1.901   3.509
 1269SOL    HW1 4706   5.940   1.951   3.484
 1269SOL    HW2 4707   6.038   1.910   3.607
 1270SOL     OW 4708   6.471   5.060   2.583
 1270SOL    HW1 4709   6.567   5.053   2.612
 1270SOL    HW2 4710   6.417   4.992   2.631
 1271SOL     OW 4711   2.447   1.201   1.134
 1271SOL    HW1 4712   2.523   1.177   1.193
 1271SOL    HW2 4713   2.398   1.280   1.173
 1272SOL     OW 4714   5.561   1.854   0.763
 1272SOL    HW1 4715   5.587   1.895   0.850
 1272SOL    HW2 4716   5.481   1.796   0.775
 1273SOL     OW 4717   2.185   4.521   5.832
 1273SOL    HW1 4718   2.268   4.467   5.817
 1273SOL    HW2 4719   2.156   4.562   5.746
 1274SOL     OW 4720   7.019   4.539   4.010
 1274SOL    HW1 4721   6.945   4.500   4.065
 1274SOL    HW2 4722   0.053   4.464   3.972
 1275SOL     OW 4723   1.985   1.842   2.771
 1275SOL    HW1 4724   2.039   1.889   2.841
 1275SOL    HW2 4725   1.984   1.897   2.687
 1276SOL     OW 4726   5.444   4.066   3.371
 1276SOL    HW1 4727   5.500   4.020   3.439
 1276SOL    HW2 4728   5.404   4.149   3.410
 1277SOL     OW 4729   0.690   6.142   6.744
 1277SOL    HW1 4730   0.681   6.050   6.706
 1277SOL    HW2 4731   0.687   6.209   6.669
 1278SOL     OW 4732   0.434   5.714   2.604
 1278SOL    HW1 4733   0.394   5.670   2.684
 1278SOL    HW2 4734   0.424   5.813   2.612
 1279SOL     OW 4735   2.635   3.082   0.997
 1279SOL    HW1 4736   2.713   3.062   0.938
 1279SOL    HW2 4737   2.550   3.067   0.946
 1280SOL     OW 4738   2.799   2.282   4.101
 1280SOL    HW1 4739   2.801   2.285   4.001
 1280SOL    HW2 4740   2.893   2.273   4.135
 1281SOL     OW 4741   5.822   6.278   4.661
 1281SOL    HW1 4742   5.726   6.302   4.674
 1281SOL    HW2 4743   5.872   6.292   4.747
 1282SOL     OW 4744   0.649   2.430   1.549
 1282SOL    HW1 4745   0.737   2.462   1.513
 1282SOL    HW2 4746   0.662   2.345   1.600
 1283SOL     OW 4747   6.958   1.572   3.961
 1283SOL    HW1 4748   6.958   1.590   4.060
 1283SOL    HW2 4749   6.942   1.658   3.912
 1284SOL     OW 4750   3.748   1.958   2.065
 1284SOL    HW1 4751   3.738   1.880   2.004
 1284SOL    HW2 4752   3.706   2.039   2.023
 1285SOL     OW 4753   4.836   1.198   4.315
 1285SOL    HW1 4754   4.781   1.237   4.241
 1285SOL    HW2 4755   4.862   1.271   4.379
 1286SOL     OW 4756   4.839   1.834   1.423
 1286SOL    HW1 4757   4.916   1.836   1.359
 1286SOL    HW2 4758   4.848   1.755   1.484
 1287SOL     OW 4759   5.215   4.880   5.422
 1287SOL    HW1 4760   5.231   4.789   5.460
 1287SOL    HW2 4761   5.254   4.885   5.330
 1288SOL     OW 4762   4.430   4.506   6.963
 1288SOL    HW1 4763   4.337   4.523   6.930
 1288SOL    HW2 4764   4.455   4.411   6.943
 1289SOL     OW 4765   6.549   6.871   0.618
 1289SOL    HW1 4766   6.479   6.819   0.570
 1289SOL    HW2 4767   6.536   6.862   0.716
 1290SOL     OW 4768   1.417   6.606   5.879
 1290SOL    HW1 4769   1.472   6.529   5.911
 1290SOL    HW2 4770   1.471   6.690   5.884
 1291SOL     OW 4771   5.935   5.094   3.833
 1291SOL    HW1 4772   6.016   5.150   3.842
 1291SOL    HW2 4773   5.947   5.008   3.884
 1292SOL     OW 4774   0.687   6.961   2.518
 1292SOL    HW1 4775   0.640   0.014   2.469
 1292SOL    HW2 4776   0.693   6.984   2.615
 1293SOL     OW 4777   4.789   1.154   0.890
 1293SOL    HW1 4778   4.879   1.186   0.860
 1293SOL    HW2 4779   4.783   1.055   0.877
 1294SOL     OW 4780   2.102   4.622   4.882
 1294SOL    HW1 4781   2.200   4.624   4.901
 1294SOL    HW2 4782   2.085   4.570   4.798
 1295SOL     OW 4783   0.196   4.431   0.342
 1295SOL    HW1 4784   0.203   4.345   0.393
 1295SOL    HW2 4785   0.171   4.505   0.404
 1296SOL     OW 4786   5.188   6.959   5.932
 1296SOL    HW1 4787   5.120   6.910   5.986
 1296SOL    HW2 4788   5.267   6.900   5.914
 1297SOL     OW 4789   6.355   6.692   0.494
 1297SOL    HW1 4790   6.276   6.694   0.432
 1297SOL    HW2 4791   6.433   6.651   0.447
 1298SOL     OW 4792   4.983   0.656   2.984
 1298SOL    HW1 4793   4.961   0.560   2.965
 1298SOL    HW2 4794   4.929   0.715   2.923
 1299SOL     OW 4795   1.047   3.559   4.652
 1299SOL    HW1 4796   1.091   3.608   4.728
 1299SOL    HW2 4797   0.954   3.535   4.677
 1300SOL     OW 4798   0.922   5.701   0.883
 1300SOL    HW1 4799   0.979   5.710   0.801
 1300SOL    HW2 4800   0.948   5.770   0.950
 1301SOL     OW 4801   6.764   0.349   0.267
 1301SOL    HW1 4802   6.750   0.251   0.278
 1301SOL    HW2 4803   6.726   0.378   0.179
 1302SOL     OW 4804   6.421   6.833   5.234
 1302SOL    HW1 4805   6.392   6.910   5.178
 1302SOL    HW2 4806   6.358   6.821   5.311
 1303SOL     OW 4807   2.925   6.888   1.760
 1303SOL    HW1 4808   3.023   6.875   1.779
 1303SOL    HW2 4809   2.871   6.830   1.821
 1304SOL     OW 4810   0.286   0.778   1.141
 1304SOL    HW1 4811   0.187   0.783   1.156
 1304SOL    HW2 4812   0.314   0.853   1.081
 1305SOL     OW 4813   3.903   4.477   6.319
 1305SOL    HW1 4814   3.988   4.520   6.287
 1305SOL    HW2 4815   3.826   4.510   6.265
 1306SOL     OW 4816   2.954   6.280   3.593
 1306SOL    HW1 4817   2.966   6.370   3.635
 1306SOL    HW2 4818   3.028   6.263   3.529
 1307SOL     OW 4819   1.877   3.208   4.112
 1307SOL    HW1 4820   1.797   3.268   4.123
 1307SOL    HW2 4821   1.928   3.207   4.198
 1308SOL     OW 4822   6.672   3.609   6.161
 1308SOL    HW1 4823   6.728   3.541   6.113
 1308SOL    HW2 4824   6.674   3.589   6.259
 1309SOL     OW 4825   5.740   3.819   6.574
 1309SOL    HW1 4826   5.674   3.843   6.645
 1309SOL    HW2 4827   5.816   3.884   6.577
 1310SOL     OW 4828   1.930   3.802   3.228
 1310SOL    HW1 4829   1.924   3.842   3.137
 1310SOL    HW2 4830   1.875   3.719   3.232
 1311SOL     OW 4831   5.599   5.233   0.452
 1311SOL    HW1 4832   5.622   5.140   0.423
 1311SOL    HW2 4833   5.557   5.282   0.375
 1312SOL     OW 4834   2.514   1.373   6.296
 1312SOL    HW1 4835   2.485   1.469   6.303
 1312SOL    HW2 4836   2.556   1.346   6.382
 1313SOL     OW 4837   6.115   5.781   1.243
 1313SOL    HW1 4838   6.101   5.867   1.194
 1313SOL    HW2 4839   6.055   5.778   1.323
 1314SOL     OW 4840   1.634   1.618   4.164
 1314SOL    HW1 4841   1.722   1.665   4.167
 1314SOL    HW2 4842   1.619   1.568   4.249
 1315SOL     OW 4843   6.227   0.841   2.890
 1315SOL    HW1 4844   6.308   0.806   2.842
 1315SOL    HW2 4845   6.147   0.785   2.866
 1316SOL     OW 4846   5.263   0.048   6.391
 1316SOL    HW1 4847   5.343   0.014   6.441
 1316SOL    HW2 4848   5.241   0.140   6.423
 1317SOL     OW 4849   2.860   2.716   5.333
 1317SOL    HW1 4850   2.828   2.622   5.345
 1317SOL    HW2 4851   2.959   2.719   5.340
 1318SOL     OW 4852   1.604   1.918   6.105
 1318SOL    HW1 4853   1.560   1.996   6.149
 1318SOL    HW2 4854   1.640   1.856   6.175
 1319SOL     OW 4855   0.154   0.839   6.958
 1319SOL    HW1 4856   0.156   0.739   6.952
 1319SOL    HW2 4857   0.221   0.870   0.005
 1320SOL     OW 4858   2.978   3.129   6.368
 1320SOL    HW1 4859   3.006   3.068   6.293
 1320SOL    HW2 4860   2.985   3.224   6.337
 1321SOL     OW 4861   0.042   2.580   0.973
 1321SOL    HW1 4862   0.022   2.502   1.033
 1321SOL    HW2 4863   6.978   2.612   0.931
 1322SOL     OW 4864   3.555   2.746   0.256
 1322SOL    HW1 4865   3.484   2.769   0.323
 1322SOL    HW2 4866   3.596   2.658   0.279
 1323SOL     OW 4867   4.039   0.329   1.355
 1323SOL    HW1 4868   4.005   0.422   1.369
 1323SOL    HW2 4869   4.038   0.307   1.258
 1324SOL     OW 4870   2.367   4.321   5.781
 1324SOL    HW1 4871   2.392   4.306   5.877
 1324SOL    HW2 4872   2.317   4.242   5.746
 1325SOL     OW 4873   3.323   6.135   5.202
 1325SOL    HW1 4874   3.335   6.155   5.105
 1325SOL    HW2 4875   3.412   6.127   5.246
 1326SOL     OW 4876   5.052   1.733   5.094
 1326SOL    HW1 4877   5.093   1.723   5.184
 1326SOL    HW2 4878   5.054   1.644   5.047
 1327SOL     OW 4879   4.821   5.225   2.581
 1327SOL    HW1 4880   4.789   5.275   2.500
 1327SOL    HW2 4881   4.884   5.282   2.633
 1328SOL     OW 4882   2.437   1.984   6.152
 1328SOL    HW1 4883   2.398   1.912   6.094
 1328SOL    HW2 4884   2.378   2.065   6.150
 1329SOL     OW 4885   1.251   2.889   3.674
 1329SOL    HW1 4886   1.179   2.866   3.739
 1329SOL    HW2 4887   1.329   2.828   3.686
 1330SOL     OW 4888   6.089   2.944   3.018
 1330SOL    HW1 4889   6.110   2.901   2.930
 1330SOL    HW2 4890   6.173   2.955   3.070
 1331SOL     OW 4891   4.751   2.297   3.631
 1331SOL    HW1 4892   4.842   2.255   3.642
 1331SOL    HW2 4893   4.741   2.371   3.697
 1332SOL     OW 4894   2.101   5.788   0.697
 1332SOL    HW1 4895   2.011   5.832   0.698
 1332SOL    HW2 4896   2.149   5.811   0.613
 1333SOL     OW 4897   3.319   3.803   2.993
 1333SOL    HW1 4898   3.273   3.890   3.012
 1333SOL    HW2 4899   3.278   3.761   2.912
 1334SOL     OW 4900   6.894   3.708   1.727
 1334SOL    HW1 4901   6.885   3.676   1.821
 1334SOL    HW2 4902   6.815   3.677   1.673
 1335SOL     OW 4903   0.314   3.815   3.727
 1335SOL    HW1 4904   0.257   3.748   3.679
 1335SOL    HW2 4905   0.350   3.774   3.811
 1336SOL     OW 4906   1.846   0.234   5.430
 1336SOL    HW1 4907   1.839   0.281   5.342
 1336SOL    HW2 4908   1.775   0.267   5.491
 1337SOL     OW 4909   0.352   6.792   1.993
 1337SOL    HW1 4910   0.396   6.711   2.029
 1337SOL    HW2 4911   0.353   6.865   2.062
 1338SOL     OW 4912   6.468   4.151   4.887
 1338SOL    HW1 4913   6.556   4.113   4.859
 1338SOL    HW2 4914   6.410   4.165   4.807
 1339SOL     OW 4915   5.711   0.984   6.757
 1339SOL    HW1 4916   5.710   1.072   6.804
 1339SOL    HW2 4917   5.765   0.991   6.673
 1340SOL     OW 4918   3.687   2.960   1.606
 1340SOL    HW1 4919   3.611   3.009   1.563
 1340SOL    HW2 4920   3.655   2.870   1.637
 1341SOL     OW 4921   4.807   5.363   6.587
 1341SOL    HW1 4922   4.871   5.294   6.554
 1341SOL    HW2 4923   4.763   5.408   6.510
 1342SOL     OW 4924   1.634   6.178   1.379
 1342SOL    HW1 4925   1.614   6.127   1.463
 1342SOL    HW2 4926   1.552   6.181   1.322
 1343SOL     OW 4927   4.993   5.735   2.973
 1343SOL    HW1 4928   4.961   5.670   3.042
 1343SOL    HW2 4929   4.932   5.732   2.894
 1344SOL     OW 4930   0.902   0.773   4.591
 1344SOL    HW1 4931   0.932   0.689   4.545
 1344SOL    HW2 4932   0.803   0.775   4.594
 1345SOL     OW 4933   1.306   6.687   6.416
 1345SOL    HW1 4934   1.401   6.655   6.417
 1345SOL    HW2 4935   1.298   6.762   6.350
 1346SOL     OW 4936   3.094   4.967   4.709
 1346SOL    HW1 4937   3.032   4.948   4.784
 1346SOL    HW2 4938   3.136   5.056   4.721
 1347SOL     OW 4939   1.761   0.332   6.620
 1347SOL    HW1 4940   1.747   0.255   6.682
 1347SOL    HW2 4941   1.854   0.368   6.631
 1348SOL     OW 4942   1.188   6.328   5.467
 1348SOL    HW1 4943   1.245   6.410   5.452
 1348SOL    HW2 4944   1.092   6.354   5.465
 1349SOL     OW 4945   5.207   3.908   4.057
 1349SOL    HW1 4946   5.223   3.815   4.022
 1349SOL    HW2 4947   5.275   3.970   4.019
 1350SOL     OW 4948   4.796   4.824   6.638
 1350SOL    HW1 4949   4.840   4.862   6.719
 1350SOL    HW2 4950   4.703   4.795   6.661
 1351SOL     OW 4951   0.031   2.595   6.032
 1351SOL    HW1 4952   0.095   2.547   6.092
 1351SOL    HW2 4953   6.989   2.529   5.990
 1352SOL     OW 4954   0.258   0.821   2.602
 1352SOL    HW1 4955   0.191   0.749   2.624
 1352SOL    HW2 4956   0.327   0.825   2.673
 1353SOL     OW 4957   6.663   1.303   6.802
 1353SOL    HW1 4958   6.637   1.243   6.877
 1353SOL    HW2 4959   6.647   1.398   6.828
 1354SOL     OW 4960   5.057   5.173   2.289
 1354SOL    HW1 4961   5.107   5.246   2.337
 1354SOL    HW2 4962   4.968   5.207   2.259
 1355SOL     OW 4963   4.440   3.589   5.320
 1355SOL    HW1 4964   4.485   3.554   5.238
 1355SOL    HW2 4965   4.442   3.520   5.392
 1356SOL     OW 4966   2.664   3.119   0.066
 1356SOL    HW1 4967   2.614   3.048   0.017
 1356SOL    HW2 4968   2.665   3.203   0.011
 1357SOL     OW 4969   1.411   2.651   5.732
 1357SOL    HW1 4970   1.468   2.608   5.662
 1357SOL    HW2 4971   1.437   2.747   5.742
 1358SOL     OW 4972   2.126   6.588   6.750
 1358SOL    HW1 4973   2.218   6.549   6.758
 1358SOL    HW2 4974   2.059   6.517   6.772
 1359SOL     OW 4975   6.076   4.068   0.764
 1359SOL    HW1 4976   6.101   4.161   0.791
 1359SOL    HW2 4977   6.148   4.005   0.791
 1360SOL     OW 4978   2.555   2.299   0.329
 1360SOL    HW1 4979   2.459   2.321   0.349
 1360SOL    HW2 4980   2.604   2.284   0.415
 1361SOL     OW 4981   6.712   4.661   4.800
 1361SOL    HW1 4982   6.645   4.684   4.870
 1361SOL    HW2 4983   6.729   4.740   4.742
 1362SOL     OW 4984   3.181   4.017   3.746
 1362SOL    HW1 4985   3.224   3.931   3.720
 1362SOL    HW2 4986   3.210   4.043   3.837
 1363SOL     OW 4987   0.648   6.568   4.221
 1363SOL    HW1 4988   0.570   6.539   4.276
 1363SOL    HW2 4989   0.654   6.668   4.222
 1364SOL     OW 4990   4.586   4.279   0.450
 1364SOL    HW1 4991   4.685   4.294   0.458
 1364SOL    HW2 4992   4.543   4.362   0.415
 1365SOL     OW 4993   6.171   2.647   6.899
 1365SOL    HW1 4994   6.187   2.678   6.805
 1365SOL    HW2 4995   6.193   2.720   6.963
 1366SOL     OW 4996   1.848   0.017   5.775
 1366SOL    HW1 4997   1.926   0.080   5.783
 1366SOL    HW2 4998   1.772   0.064   5.731
 1367SOL     OW 4999   2.884   1.858   2.061
 1367SOL    HW1 5000   2.935   1.859   1.975
 1367SOL    HW2 5001   2.904   1.941   2.113
 1368SOL     OW 5002   6.541   0.088   3.307
 1368SOL    HW1 5003   6.619   0.082   3.368
 1368SOL    HW2 5004   6.573   0.082   3.212
 1369SOL     OW 5005   0.910   0.406   2.613
 1369SOL    HW1 5006   0.909   0.469   2.690
 1369SOL    HW2 5007   0.977   0.438   2.545
 1370SOL     OW 5008   2.231   1.227   2.190
 1370SOL    HW1 5009   2.248   1.274   2.276
 1370SOL    HW2 5010   2.316   1.217   2.139
 1371SOL     OW 5011   3.738   0.618   6.287
 1371SOL    HW1 5012   3.738   0.537   6.345
 1371SOL    HW2 5013   3.644   0.645   6.267
 1372SOL     OW 5014   2.713   2.231   1.848
 1372SOL    HW1 5015   2.644   2.300   1.825
 1372SOL    HW2 5016   2.791   2.276   1.893
 1373SOL     OW 5017   1.403   5.797   6.619
 1373SOL    HW1 5018   1.463   5.805   6.698
 1373SOL    HW2 5019   1.455   5.811   6.535
 1374SOL     OW 5020   5.082   4.279   6.762
 1374SOL    HW1 5021   5.047   4.272   6.855
 1374SOL    HW2 5022   5.033   4.214   6.703
 1375SOL     OW 5023   0.966   4.324   4.619
 1375SOL    HW1 5024   0.912   4.254   4.665
 1375SOL    HW2 5025   1.023   4.281   4.549
 1376SOL     OW 5026   5.186   0.656   2.465
 1376SOL    HW1 5027   5.094   0.641   2.502
 1376SOL    HW2 5028   5.236   0.719   2.525
 1377SOL     OW 5029   0.924   4.573   4.491
 1377SOL    HW1 5030   0.826   4.570   4.511
 1377SOL    HW2 5031   0.961   4.480   4.493
 1378SOL     OW 5032   2.000   2.418   0.432
 1378SOL    HW1 5033   1.943   2.500   0.421
 1378SOL    HW2 5034   1.943   2.342   0.462
 1379SOL     OW 5035   3.792   6.257   1.350
 1379SOL    HW1 5036   3.707   6.211   1.375
 1379SOL    HW2 5037   3.809   6.244   1.252
 1380SOL     OW 5038   5.805   4.784   2.603
 1380SOL    HW1 5039   5.721   4.789   2.657
 1380SOL    HW2 5040   5.831   4.688   2.591
 1381SOL     OW 5041   5.681   6.693   2.224
 1381SOL    HW1 5042   5.690   6.715   2.127
 1381SOL    HW2 5043   5.742   6.617   2.247
 1382SOL     OW 5044   0.318   4.302   6.521
 1382SOL    HW1 5045   0.250   4.360   6.476
 1382SOL    HW2 5046   0.341   4.225   6.461
 1383SOL     OW 5047   2.446   0.218   0.632
 1383SOL    HW1 5048   2.511   0.275   0.682
 1383SOL    HW2 5049   2.482   0.125   0.624
 1384SOL     OW 5050   1.206   1.455   2.155
 1384SOL    HW1 5051   1.298   1.494   2.161
 1384SOL    HW2 5052   1.139   1.520   2.191
 1385SOL     OW 5053   5.334   3.110   4.090
 1385SOL    HW1 5054   5.274   3.157   4.155
 1385SOL    HW2 5055   5.323   3.150   3.999
 1386SOL     OW 5056   2.414   2.567   3.644
 1386SOL    HW1 5057   2.406   2.655   3.597
 1386SOL    HW2 5058   2.488   2.514   3.601
 1387SOL     OW 5059   3.328   0.531   4.125
 1387SOL    HW1 5060   3.426   0.549   4.132
 1387SOL    HW2 5061   3.285   0.551   4.213
 1388SOL     OW 5062   5.276   1.606   3.984
 1388SOL    HW1 5063   5.278   1.688   3.927
 1388SOL    HW2 5064   5.350   1.610   4.051
 1389SOL     OW 5065   6.779   0.452   3.559
 1389SOL    HW1 5066   6.847   0.450   3.486
 1389SOL    HW2 5067   6.783   0.367   3.611
 1390SOL     OW 5068   4.587   2.353   3.159
 1390SOL    HW1 5069   4.653   2.404   3.215
 1390SOL    HW2 5070   4.608   2.256   3.162
 1391SOL     OW 5071   5.596   0.652   4.691
 1391SOL    HW1 5072   5.590   0.741   4.736
 1391SOL    HW2 5073   5.607   0.665   4.592
 1392SOL     OW 5074   4.025   6.720   5.438
 1392SOL    HW1 5075   4.011   6.622   5.421
 1392SOL    HW2 5076   4.000   6.741   5.532
 1393SOL     OW 5077   4.841   0.284   6.970
 1393SOL    HW1 5078   4.908   0.320   6.906
 1393SOL    HW2 5079   4.859   0.321   0.041
 1394SOL     OW 5080   4.257   0.223   4.340
 1394SOL    HW1 5081   4.207   0.215   4.427
 1394SOL    HW2 5082   4.202   0.183   4.266
 1395SOL     OW 5083   0.271   5.143   2.303
 1395SOL    HW1 5084   0.262   5.099   2.213
 1395SOL    HW2 5085   0.226   5.086   2.372
 1396SOL     OW 5086   1.179   2.163   3.378
 1396SOL    HW1 5087   1.080   2.167   3.393
 1396SOL    HW2 5088   1.209   2.249   3.335
 1397SOL     OW 5089   1.931   4.826   4.842
 1397SOL    HW1 5090   1.992   4.747   4.852
 1397SOL    HW2 5091   1.844   4.807   4.889
 1398SOL     OW 5092   2.908   0.134   6.774
 1398SOL    HW1 5093   2.863   0.121   6.685
 1398SOL    HW2 5094   2.929   0.044   6.813
 1399SOL     OW 5095   3.758   0.014   6.817
 1399SOL    HW1 5096   3.705   0.072   6.879
 1399SOL    HW2 5097   3.852   0.007   6.850
 1400SOL     OW 5098   0.407   0.993   5.596
 1400SOL    HW1 5099   0.381   0.972   5.690
 1400SOL    HW2 5100   0.482   1.059   5.596
 1401SOL     OW 5101   5.852   6.942   2.163
 1401SOL    HW1 5102   5.816   6.856   2.198
 1401SOL    HW2 5103   5.824   6.953   2.067
 1402SOL     OW 5104   5.708   4.828   2.309
 1402SOL    HW1 5105   5.756   4.857   2.392
 1402SOL    HW2 5106   5.620   4.876   2.303
 1403SOL     OW 5107   2.828   3.721   6.672
 1403SOL    HW1 5108   2.877   3.803   6.642
 1403SOL    HW2 5109   2.851   3.644   6.611
 1404SOL     OW 5110   3.812   6.386   0.876
 1404SOL    HW1 5111   3.855   6.313   0.930
 1404SOL    HW2 5112   3.762   6.346   0.799
 1405SOL     OW 5113   0.924   3.715   6.823
 1405SOL    HW1 5114   0.856   3.653   6.862
 1405SOL    HW2 5115   0.919   3.803   6.871
 1406SOL     OW 5116   2.281   2.427   6.921
 1406SOL    HW1 5117   2.189   2.410   6.885
 1406SOL    HW2 5118   2.275   2.479   7.006
 1407SOL     OW 5119   0.245   2.539   1.477
 1407SOL    HW1 5120   0.341   2.544   1.452
 1407SOL    HW2 5121   0.212   2.446   1.466
 1408SOL     OW 5122   5.559   6.130   0.335
 1408SOL    HW1 5123   5.519   6.041   0.358
 1408SOL    HW2 5124   5.659   6.123   0.335
 1409SOL     OW 5125   6.394   1.765   5.773
 1409SOL    HW1 5126   6.431   1.740   5.863
 1409SOL    HW2 5127   6.355   1.683   5.730
 1410SOL     OW 5128   2.915   0.716   0.491
 1410SOL    HW1 5129   2.922   0.643   0.423
 1410SOL    HW2 5130   2.826   0.711   0.536
 1411SOL     OW 5131   3.710   6.062   6.758
 1411SOL    HW1 5132   3.632   6.042   6.817
 1411SOL    HW2 5133   3.686   6.134   6.693
 1412SOL     OW 5134   2.456   1.851   0.643
 1412SOL    HW1 5135   2.422   1.886   0.556
 1412SOL    HW2 5136   2.443   1.752   0.646
 1413SOL     OW 5137   2.281   1.524   5.344
 1413SOL    HW1 5138   2.311   1.491   5.255
 1413SOL    HW2 5139   2.182   1.514   5.351
 1414SOL     OW 5140   0.271   5.441   2.021
 1414SOL    HW1 5141   0.263   5.519   1.958
 1414SOL    HW2 5142   0.366   5.408   2.021
 1415SOL     OW 5143   3.744   1.881   5.144
 1415SOL    HW1 5144   3.654   1.902   5.182
 1415SOL    HW2 5145   3.814   1.905   5.211
 1416SOL     OW 5146   4.892   0.363   4.767
 1416SOL    HW1 5147   4.874   0.461   4.760
 1416SOL    HW2 5148   4.935   0.344   4.855
 1417SOL     OW 5149   3.813   3.744   4.457
 1417SOL    HW1 5150   3.906   3.718   4.430
 1417SOL    HW2 5151   3.817   3.826   4.514
 1418SOL     OW 5152   2.953   3.837   4.948
 1418SOL    HW1 5153   2.970   3.934   4.962
 1418SOL    HW2 5154   2.926   3.821   4.853
 1419SOL     OW 5155   0.881   5.954   1.822
 1419SOL    HW1 5156   0.884   5.854   1.824
 1419SOL    HW2 5157   0.817   5.987   1.890
 1420SOL     OW 5158   3.112   6.366   3.243
 1420SOL    HW1 5159   3.160   6.415   3.170
 1420SOL    HW2 5160   3.020   6.343   3.212
 1421SOL     OW 5161   1.709   5.517   0.820
 1421SOL    HW1 5162   1.809   5.521   0.824
 1421SOL    HW2 5163   1.673   5.476   0.903
 1422SOL     OW 5164   1.718   3.668   6.847
 1422SOL    HW1 5165   1.773   3.597   6.802
 1422SOL    HW2 5166   1.742   3.671   6.944
 1423SOL     OW 5167   5.036   0.872   4.594
 1423SOL    HW1 5168   5.069   0.778   4.606
 1423SOL    HW2 5169   4.972   0.894   4.668
 1424SOL     OW 5170   6.645   2.626   1.565
 1424SOL    HW1 5171   6.669   2.534   1.595
 1424SOL    HW2 5172   6.724   2.687   1.575
 1425SOL     OW 5173   5.795   6.648   3.080
 1425SOL    HW1 5174   5.842   6.732   3.056
 1425SOL    HW2 5175   5.770   6.599   2.996
 1426SOL     OW 5176   3.785   0.926   0.746
 1426SOL    HW1 5177   3.813   0.841   0.791
 1426SOL    HW2 5178   3.710   0.908   0.683
 1427SOL     OW 5179   0.799   0.353   4.070
 1427SOL    HW1 5180   0.736   0.277   4.088
 1427SOL    HW2 5181   0.766   0.405   3.991
 1428SOL     OW 5182   2.274   4.162   3.807
 1428SOL    HW1 5183   2.316   4.176   3.717
 1428SOL    HW2 5184   2.176   4.179   3.800
 1429SOL     OW 5185   6.361   0.123   2.044
 1429SOL    HW1 5186   6.304   0.113   2.125
 1429SOL    HW2 5187   6.354   0.217   2.010
 1430SOL     OW 5188   2.363   4.297   4.540
 1430SOL    HW1 5189   2.424   4.260   4.610
 1430SOL    HW2 5190   2.287   4.234   4.525
 1431SOL     OW 5191   3.508   2.134   0.579
 1431SOL    HW1 5192   3.484   2.082   0.497
 1431SOL    HW2 5193   3.607   2.137   0.589
 1432SOL     OW 5194   4.337   6.939   2.700
 1432SOL    HW1 5195   4.323   6.864   2.765
 1432SOL    HW2 5196   4.251   6.959   2.653
 1433SOL     OW 5197   3.071   2.192   3.920
 1433SOL    HW1 5198   3.100   2.121   3.985
 1433SOL    HW2 5199   3.105   2.280   3.951
 1434SOL     OW 5200   5.313   3.380   0.712
 1434SOL    HW1 5201   5.247   3.453   0.729
 1434SOL    HW2 5202   5.381   3.411   0.647
 1435SOL     OW 5203   0.455   6.184   4.130
 1435SOL    HW1 5204   0.498   6.204   4.218
 1435SOL    HW2 5205   0.488   6.249   4.061
 1436SOL     OW 5206   5.059   1.021   0.274
 1436SOL    HW1 5207   5.140   0.986   0.227
 1436SOL    HW2 5208   4.992   0.948   0.284
 1437SOL     OW 5209   4.156   1.472   0.772
 1437SOL    HW1 5210   4.159   1.417   0.689
 1437SOL    HW2 5211   4.096   1.551   0.758
 1438SOL     OW 5212   2.305   0.118   2.689
 1438SOL    HW1 5213   2.208   0.095   2.685
 1438SOL    HW2 5214   2.360   0.035   2.676
 1439SOL     OW 5215   0.446   5.408   5.147
 1439SOL    HW1 5216   0.362   5.380   5.102
 1439SOL    HW2 5217   0.524   5.364   5.104
 1440SOL     OW 5218   3.524   3.441   2.148
 1440SOL    HW1 5219   3.520   3.416   2.051
 1440SOL    HW2 5220   3.437   3.483   2.175
 1441SOL     OW 5221   7.009   2.057   6.041
 1441SOL    HW1 5222   0.080   2.077   6.077
 1441SOL    HW2 5223   7.016   1.986   5.970
 1442SOL     OW 5224   5.359   5.955   0.140
 1442SOL    HW1 5225   5.259   5.946   0.137
 1442SOL    HW2 5226   5.392   5.979   0.049
 1443SOL     OW 5227   1.733   2.894   3.599
 1443SOL    HW1 5228   1.744   2.949   3.682
 1443SOL    HW2 5229   1.823   2.871   3.562
 1444SOL     OW 5230   5.032   6.746   4.591
 1444SOL    HW1 5231   4.950   6.691   4.604
 1444SOL    HW2 5232   5.027   6.829   4.647
 1445SOL     OW 5233   0.034   2.215   0.109
 1445SOL    HW1 5234   6.988   2.258   0.048
 1445SOL    HW2 5235   0.008   2.119   0.124
 1446SOL     OW 5236   3.631   6.125   2.459
 1446SOL    HW1 5237   3.582   6.171   2.533
 1446SOL    HW2 5238   3.566   6.097   2.388
 1447SOL     OW 5239   6.792   0.355   4.459
 1447SOL    HW1 5240   6.727   0.388   4.527
 1447SOL    HW2 5241   6.879   0.403   4.469
 1448SOL     OW 5242   5.281   0.872   0.195
 1448SOL    HW1 5243   5.289   0.884   0.294
 1448SOL    HW2 5244   5.368   0.895   0.151
 1449SOL     OW 5245   4.557   5.394   0.323
 1449SOL    HW1 5246   4.629   5.333   0.291
 1449SOL    HW2 5247   4.469   5.348   0.318
 1450SOL     OW 5248   5.637   1.695   3.645
 1450SOL    HW1 5249   5.627   1.755   3.724
 1450SOL    HW2 5250   5.691   1.615   3.670
 1451SOL     OW 5251   1.101   6.882   1.803
 1451SOL    HW1 5252   1.068   6.787   1.807
 1451SOL    HW2 5253   1.180   6.892   1.862
 1452SOL     OW 5254   2.764   0.195   6.142
 1452SOL    HW1 5255   2.677   0.240   6.123
 1452SOL    HW2 5256   2.831   0.263   6.171
 1453SOL     OW 5257   5.270   4.184   4.334
 1453SOL    HW1 5258   5.293   4.088   4.349
 1453SOL    HW2 5259   5.347   4.242   4.359
 1454SOL     OW 5260   5.655   3.662   1.234
 1454SOL    HW1 5261   5.611   3.665   1.324
 1454SOL    HW2 5262   5.656   3.567   1.201
 1455SOL     OW 5263   1.794   2.058   1.478
 1455SOL    HW1 5264   1.792   2.093   1.572
 1455SOL    HW2 5265   1.706   2.018   1.455
 1456SOL     OW 5266   5.876   5.574   5.608
 1456SOL    HW1 5267   5.793   5.519   5.620
 1456SOL    HW2 5268   5.854   5.656   5.555
 1457SOL     OW 5269   1.680   0.766   4.410
 1457SOL    HW1 5270   1.602   0.724   4.363
 1457SOL    HW2 5271   1.678   0.865   4.396
 1458SOL     OW 5272   0.281   5.228   6.653
 1458SOL    HW1 5273   0.318   5.143   6.616
 1458SOL    HW2 5274   0.316   5.243   6.746
 1459SOL     OW 5275   2.378   0.034   1.580
 1459SOL    HW1 5276   2.316   7.018   1.511
 1459SOL    HW2 5277   2.470   0.040   1.541
 1460SOL     OW 5278   0.339   0.070   0.056
 1460SOL    HW1 5279   0.422   0.109   0.096
 1460SOL    HW2 5280   0.357   0.042   6.983
 1461SOL     OW 5281   4.894   5.285   2.103
 1461SOL    HW1 5282   4.828   5.256   2.034
 1461SOL    HW2 5283   4.983   5.302   2.060
 1462SOL     OW 5284   5.293   6.904   5.082
 1462SOL    HW1 5285   5.340   6.987   5.112
 1462SOL    HW2 5286   5.301   6.895   4.982
 1463SOL     OW 5287   0.695   2.428   5.563
 1463SOL    HW1 5288   0.763   2.383   5.620
 1463SOL    HW2 5289   0.610   2.375   5.565
 1464SOL     OW 5290   0.706   0.810   1.575
 1464SOL    HW1 5291   0.682   0.861   1.492
 1464SOL    HW2 5292   0.676   0.859   1.656
 1465SOL     OW 5293   1.582   1.479   3.723
 1465SOL    HW1 5294   1.499   1.525   3.755
 1465SOL    HW2 5295   1.568   1.449   3.628
 1466SOL     OW 5296   5.621   5.401   4.408
 1466SOL    HW1 5297   5.649   5.319   4.358
 1466SOL    HW2 5298   5.701   5.458   4.425
 1467SOL     OW 5299   6.644   3.784   3.948
 1467SOL    HW1 5300   6.658   3.874   3.989
 1467SOL    HW2 5301   6.606   3.722   4.017
 1468SOL     OW 5302   4.612   0.522   2.485
 1468SOL    HW1 5303   4.614   0.572   2.572
 1468SOL    HW2 5304   4.522   0.478   2.474
 1469SOL     OW 5305   0.788   0.446   2.109
 1469SOL    HW1 5306   0.884   0.465   2.134
 1469SOL    HW2 5307   0.757   0.513   2.042
 1470SOL     OW 5308   0.283   6.992   2.484
 1470SOL    HW1 5309   0.310   6.942   2.566
 1470SOL    HW2 5310   0.225   6.934   2.427
 1471SOL     OW 5311   6.015   0.868   1.223
 1471SOL    HW1 5312   6.065   0.787   1.192
 1471SOL    HW2 5313   6.006   0.933   1.147
 1472SOL     OW 5314   4.862   5.198   4.751
 1472SOL    HW1 5315   4.781   5.196   4.693
 1472SOL    HW2 5316   4.841   5.246   4.836
 1473SOL     OW 5317   6.474   3.688   3.726
 1473SOL    HW1 5318   6.515   3.726   3.809
 1473SOL    HW2 5319   6.521   3.603   3.702
 1474SOL     OW 5320   4.604   5.911   2.930
 1474SOL    HW1 5321   4.543   5.861   2.991
 1474SOL    HW2 5322   4.579   5.892   2.835
 1475SOL     OW 5323   6.445   6.571   3.158
 1475SOL    HW1 5324   6.441   6.575   3.058
 1475SOL    HW2 5325   6.357   6.599   3.195
 1476SOL     OW 5326   0.737   2.194   1.612
 1476SOL    HW1 5327   0.824   2.221   1.652
 1476SOL    HW2 5328   0.693   2.126   1.670
 1477SOL     OW 5329   2.692   6.685   4.429
 1477SOL    HW1 5330   2.759   6.623   4.386
 1477SOL    HW2 5331   2.658   6.749   4.360
 1478SOL     OW 5332   0.053   3.450   1.322
 1478SOL    HW1 5333   0.073   3.533   1.375
 1478SOL    HW2 5334   0.045   3.372   1.383
 1479SOL     OW 5335   0.981   5.627   0.216
 1479SOL    HW1 5336   1.077   5.614   0.191
 1479SOL    HW2 5337   0.975   5.666   0.307
 1480SOL     OW 5338   2.582   0.809   6.952
 1480SOL    HW1 5339   2.505   0.829   6.891
 1480SOL    HW2 5340   2.587   0.878   0.003
 1481SOL     OW 5341   0.196   3.355   0.028
 1481SOL    HW1 5342   0.147   3.394   0.105
 1481SOL    HW2 5343   0.151   3.270   7.020
 1482SOL     OW 5344   5.786   0.488   6.321
 1482SOL    HW1 5345   5.850   0.419   6.355
 1482SOL    HW2 5346   5.720   0.445   6.260
 1483SOL     OW 5347   6.145   1.878   6.279
 1483SOL    HW1 5348   6.122   1.916   6.368
 1483SOL    HW2 5349   6.062   1.847   6.234
 1484SOL     OW 5350   5.980   6.835   2.870
 1484SOL    HW1 5351   6.004   6.748   2.828
 1484SOL    HW2 5352   5.990   6.908   2.803
 1485SOL     OW 5353   5.470   3.453   4.349
 1485SOL    HW1 5354   5.551   3.462   4.408
 1485SOL    HW2 5355   5.489   3.492   4.259
 1486SOL     OW 5356   5.569   2.511   2.085
 1486SOL    HW1 5357   5.514   2.556   2.156
 1486SOL    HW2 5358   5.524   2.521   1.997
 1487SOL     OW 5359   0.079   0.331   5.793
 1487SOL    HW1 5360   0.061   0.240   5.755
 1487SOL    HW2 5361   0.176   0.352   5.785
 1488SOL     OW 5362   5.203   2.000   4.710
 1488SOL    HW1 5363   5.287   2.044   4.743
 1488SOL    HW2 5364   5.124   2.049   4.747
 1489SOL     OW 5365   3.483   5.194   4.744
 1489SOL    HW1 5366   3.453   5.241   4.828
 1489SOL    HW2 5367   3.533   5.111   4.769
 1490SOL     OW 5368   2.431   2.338   1.085
 1490SOL    HW1 5369   2.353   2.395   1.112
 1490SOL    HW2 5370   2.485   2.386   1.016
 1491SOL     OW 5371   0.392   2.382   4.771
 1491SOL    HW1 5372   0.467   2.445   4.751
 1491SOL    HW2 5373   0.324   2.388   4.698
 1492SOL     OW 5374   7.003   2.213   1.812
 1492SOL    HW1 5375   0.031   2.251   1.891
 1492SOL    HW2 5376   0.030   2.130   1.781
 1493SOL     OW 5377   5.713   2.262   5.428
 1493SOL    HW1 5378   5.773   2.291   5.503
 1493SOL    HW2 5379   5.668   2.176   5.454
 1494SOL     OW 5380   5.276   1.578   4.376
 1494SOL    HW1 5381   5.369   1.587   4.340
 1494SOL    HW2 5382   5.280   1.561   4.475
 1495SOL     OW 5383   1.364   3.701   2.377
 1495SOL    HW1 5384   1.408   3.639   2.442
 1495SOL    HW2 5385   1.265   3.701   2.392
 1496SOL     OW 5386   1.267   0.446   2.147
 1496SOL    HW1 5387   1.286   0.497   2.230
 1496SOL    HW2 5388   1.353   0.416   2.105
 1497SOL     OW 5389   5.696   5.232   5.858
 1497SOL    HW1 5390   5.726   5.285   5.779
 1497SOL    HW2 5391   5.598   5.245   5.872
 1498SOL     OW 5392   2.656   5.551   0.641
 1498SOL    HW1 5393   2.754   5.532   0.646
 1498SOL    HW2 5394   2.642   5.639   0.595
 1499SOL     OW 5395   0.853   4.022   4.470
 1499SOL    HW1 5396   0.904   4.031   4.555
 1499SOL    HW2 5397   0.820   4.112   4.441
 1500SOL     OW 5398   3.458   6.802   5.833
 1500SOL    HW1 5399   3.468   6.899   5.814
 1500SOL    HW2 5400   3.511   6.750   5.765
 1501SOL     OW 5401   3.475   0.404   0.705
 1501SOL    HW1 5402   3.485   0.436   0.799
 1501SOL    HW2 5403   3.466   0.304   0.704
 1502SOL     OW 5404   0.570   0.196   5.763
 1502SOL    HW1 5405   0.596   0.292   5.773
 1502SOL    HW2 5406   0.627   0.139   5.823
 1503SOL     OW 5407   3.306   3.892   4.939
 1503SOL    HW1 5408   3.215   3.933   4.946
 1503SOL    HW2 5409   3.306   3.825   4.866
 1504SOL     OW 5410   2.857   6.879   4.015
 1504SOL    HW1 5411   2.800   6.798   4.025
 1504SOL    HW2 5412   2.879   6.892   3.918
 1505SOL     OW 5413   5.322   6.924   2.621
 1505SOL    HW1 5414   5.260   6.952   2.548
 1505SOL    HW2 5415   5.333   6.999   2.686
 1506SOL     OW 5416   1.038   6.329   4.037
 1506SOL    HW1 5417   1.040   6.295   3.942
 1506SOL    HW2 5418   0.944   6.351   4.062
 1507SOL     OW 5419   2.112   1.922   6.879
 1507SOL    HW1 5420   2.189   1.986   6.875
 1507SOL    HW2 5421   2.029   1.966   6.846
 1508SOL     OW 5422   4.438   6.823   1.167
 1508SOL    HW1 5423   4.459   6.725   1.168
 1508SOL    HW2 5424   4.504   6.872   1.223
 1509SOL     OW 5425   5.686   1.611   6.523
 1509SOL    HW1 5426   5.745   1.530   6.513
 1509SOL    HW2 5427   5.743   1.693   6.530
 1510SOL     OW 5428   6.522   1.493   2.763
 1510SOL    HW1 5429   6.563   1.571   2.715
 1510SOL    HW2 5430   6.467   1.440   2.699
 1511SOL     OW 5431   1.144   2.945   0.024
 1511SOL    HW1 5432   1.232   2.901   0.005
 1511SOL    HW2 5433   1.100   2.970   6.958
 1512SOL     OW 5434   0.003   1.346   1.499
 1512SOL    HW1 5435   0.091   1.385   1.472
 1512SOL    HW2 5436   7.018   1.343   1.599
 1513SOL     OW 5437   2.698   0.850   2.839
 1513SOL    HW1 5438   2.720   0.918   2.769
 1513SOL    HW2 5439   2.780   0.827   2.890
 1514SOL     OW 5440   4.539   0.675   5.818
 1514SOL    HW1 5441   4.542   0.762   5.868
 1514SOL    HW2 5442   4.633   0.642   5.803
 1515SOL     OW 5443   5.372   5.175   5.432
 1515SOL    HW1 5444   5.354   5.079   5.410
 1515SOL    HW2 5445   5.333   5.234   5.361
 1516SOL     OW 5446   0.001   1.353   0.630
 1516SOL    HW1 5447   0.015   1.344   0.532
 1516SOL    HW2 5448   6.965   1.434   0.648
 1517SOL     OW 5449   3.256   5.568   2.594
 1517SOL    HW1 5450   3.213   5.514   2.667
 1517SOL    HW2 5451   3.252   5.517   2.508
 1518SOL     OW 5452   0.311   4.839   0.663
 1518SOL    HW1 5453   0.409   4.854   0.652
 1518SOL    HW2 5454   0.264   4.927   0.668
 1519SOL     OW 5455   0.382   4.135   1.220
 1519SOL    HW1 5456   0.342   4.119   1.130
 1519SOL    HW2 5457   0.465   4.081   1.230
 1520SOL     OW 5458   1.076   3.233   2.895
 1520SOL    HW1 5459   1.061   3.319   2.943
 1520SOL    HW2 5460   1.168   3.233   2.854
 1521SOL     OW 5461   2.449   4.648   5.155
 1521SOL    HW1 5462   2.415   4.559   5.186
 1521SOL    HW2 5463   2.542   4.662   5.189
 1522SOL     OW 5464   1.466   1.512   6.236
 1522SOL    HW1 5465   1.545   1.572   6.245
 1522SOL    HW2 5466   1.445   1.499   6.139
 1523SOL     OW 5467   5.755   1.601   1.338
 1523SOL    HW1 5468   5.721   1.519   1.291
 1523SOL    HW2 5469   5.852   1.614   1.315
 1524SOL     OW 5470   0.313   1.269   0.988
 1524SOL    HW1 5471   0.336   1.250   1.084
 1524SOL    HW2 5472   0.215   1.258   0.974
 1525SOL     OW 5473   4.954   1.587   5.893
 1525SOL    HW1 5474   4.898   1.648   5.837
 1525SOL    HW2 5475   4.897   1.543   5.962
 1526SOL     OW 5476   5.760   1.390   0.505
 1526SOL    HW1 5477   5.660   1.386   0.506
 1526SOL    HW2 5478   5.791   1.464   0.564
 1527SOL     OW 5479   2.882   1.112   5.963
 1527SOL    HW1 5480   2.792   1.093   5.923
 1527SOL    HW2 5481   2.905   1.041   6.029
 1528SOL     OW 5482   5.223   5.548   3.794
 1528SOL    HW1 5483   5.123   5.546   3.792
 1528SOL    HW2 5484   5.257   5.602   3.717
 1529SOL     OW 5485   1.714   7.004   5.480
 1529SOL    HW1 5486   1.761   6.916   5.478
 1529SOL    HW2 5487   1.781   0.058   5.480
 1530SOL     OW 5488   2.562   6.464   1.155
 1530SOL    HW1 5489   2.555   6.534   1.084
 1530SOL    HW2 5490   2.477   6.413   1.161
 1531SOL     OW 5491   5.452   0.669   6.539
 1531SOL    HW1 5492   5.374   0.700   6.592
 1531SOL    HW2 5493   5.492   0.746   6.490
 1532SOL     OW 5494   2.785   1.877   5.276
 1532SOL    HW1 5495   2.834   1.800   5.233
 1532SOL    HW2 5496   2.832   1.962   5.255
 1533SOL     OW 5497   4.630   3.109   6.829
 1533SOL    HW1 5498   4.682   3.177   6.880
 1533SOL    HW2 5499   4.537   3.103   6.866
 1534SOL     OW 5500   6.737   0.373   0.983
 1534SOL    HW1 5501   6.639   0.363   0.966
 1534SOL    HW2 5502   6.776   0.284   1.005
 1535SOL     OW 5503   4.947   4.466   4.686
 1535SOL    HW1 5504   4.951   4.422   4.597
 1535SOL    HW2 5505   4.897   4.408   4.751
 1536SOL     OW 5506   3.293   6.740   3.244
 1536SOL    HW1 5507   3.217   6.707   3.187
 1536SOL    HW2 5508   3.368   6.769   3.185
 1537SOL     OW 5509   3.010   5.738   4.626
 1537SOL    HW1 5510   2.993   5.683   4.708
 1537SOL    HW2 5511   3.042   5.678   4.552
 1538SOL     OW 5512   3.221   5.937   0.116
 1538SOL    HW1 5513   3.143   5.980   0.071
 1538SOL    HW2 5514   3.297   5.928   0.051
 1539SOL     OW 5515   2.635   6.552   1.809
 1539SOL    HW1 5516   2.680   6.497   1.738
 1539SOL    HW2 5517   2.536   6.543   1.800
 1540SOL     OW 5518   6.012   6.756   5.227
 1540SOL    HW1 5519   6.028   6.770   5.130
 1540SOL    HW2 5520   5.987   6.843   5.270
 1541SOL     OW 5521   5.308   1.246   1.705
 1541SOL    HW1 5522   5.332   1.327   1.758
 1541SOL    HW2 5523   5.264   1.274   1.619
 1542SOL     OW 5524   6.850   6.199   1.069
 1542SOL    HW1 5525   6.784   6.221   1.141
 1542SOL    HW2 5526   6.925   6.146   1.109
 1543SOL     OW 5527   3.423   3.402   3.059
 1543SOL    HW1 5528   3.427   3.478   2.994
 1543SOL    HW2 5529   3.496   3.337   3.038
 1544SOL     OW 5530   3.516   3.809   2.215
 1544SOL    HW1 5531   3.556   3.870   2.146
 1544SOL    HW2 5532   3.526   3.714   2.184
 1545SOL     OW 5533   0.038   6.728   4.971
 1545SOL    HW1 5534   0.033   6.707   4.873
 1545SOL    HW2 5535   0.033   6.643   5.024
 1546SOL     OW 5536   6.842   6.517   6.439
 1546SOL    HW1 5537   6.823   6.600   6.387
 1546SOL    HW2 5538   6.941   6.508   6.451
 1547SOL     OW 5539   3.492   5.944   0.272
 1547SOL    HW1 5540   3.411   5.929   0.215
 1547SOL    HW2 5541   3.568   5.975   0.215
 1548SOL     OW 5542   6.718   4.092   3.096
 1548SOL    HW1 5543   6.667   4.009   3.119
 1548SOL    HW2 5544   6.782   4.073   3.022
 1549SOL     OW 5545   6.584   2.373   0.772
 1549SOL    HW1 5546   6.533   2.435   0.711
 1549SOL    HW2 5547   6.528   2.353   0.853
 1550SOL     OW 5548   2.666   5.009   2.378
 1550SOL    HW1 5549   2.750   4.997   2.326
 1550SOL    HW2 5550   2.676   5.089   2.438
 1551SOL     OW 5551   0.430   2.272   1.650
 1551SOL    HW1 5552   0.442   2.371   1.643
 1551SOL    HW2 5553   0.429   2.233   1.558
 1552SOL     OW 5554   1.495   6.742   2.089
 1552SOL    HW1 5555   1.581   6.783   2.117
 1552SOL    HW2 5556   1.471   6.667   2.151
 1553SOL     OW 5557   5.751   1.322   5.747
 1553SOL    HW1 5558   5.808   1.240   5.754
 1553SOL    HW2 5559   5.707   1.325   5.657
 1554SOL     OW 5560   2.649   2.707   0.793
 1554SOL    HW1 5561   2.696   2.668   0.715
 1554SOL    HW2 5562   2.650   2.807   0.786
 1555SOL     OW 5563   4.072   1.260   0.569
 1555SOL    HW1 5564   4.043   1.296   0.480
 1555SOL    HW2 5565   3.992   1.245   0.627
 1556SOL     OW 5566   3.357   2.384   0.191
 1556SOL    HW1 5567   3.416   2.425   0.261
 1556SOL    HW2 5568   3.289   2.325   0.235
 1557SOL     OW 5569   1.482   2.994   0.675
 1557SOL    HW1 5570   1.422   3.069   0.702
 1557SOL    HW2 5571   1.533   2.962   0.754
 1558SOL     OW 5572   5.312   2.567   6.582
 1558SOL    HW1 5573   5.259   2.485   6.604
 1558SOL    HW2 5574   5.251   2.636   6.543
 1559SOL     OW 5575   2.736   6.455   3.466
 1559SOL    HW1 5576   2.794   6.514   3.523
 1559SOL    HW2 5577   2.752   6.360   3.490
 1560SOL     OW 5578   4.730   3.174   1.442
 1560SOL    HW1 5579   4.742   3.108   1.368
 1560SOL    HW2 5580   4.653   3.234   1.421
 1561SOL     OW 5581   5.347   6.299   0.508
 1561SOL    HW1 5582   5.294   6.231   0.559
 1561SOL    HW2 5583   5.400   6.253   0.437
 1562SOL     OW 5584   2.675   0.224   2.559
 1562SOL    HW1 5585   2.596   0.250   2.503
 1562SOL    HW2 5586   2.644   0.206   2.653
 1563SOL     OW 5587   2.114   3.701   3.676
 1563SOL    HW1 5588   2.196   3.749   3.707
 1563SOL    HW2 5589   2.042   3.710   3.745
 1564SOL     OW 5590   1.050   2.199   2.530
 1564SOL    HW1 5591   1.139   2.183   2.572
 1564SOL    HW2 5592   1.040   2.296   2.507
 1565SOL     OW 5593   4.894   1.802   4.833
 1565SOL    HW1 5594   4.915   1.782   4.928
 1565SOL    HW2 5595   4.969   1.772   4.775
 1566SOL     OW 5596   0.652   3.652   3.625
 1566SOL    HW1 5597   0.675   3.737   3.672
 1566SOL    HW2 5598   0.642   3.669   3.527
 1567SOL     OW 5599   5.586   0.176   4.982
 1567SOL    HW1 5600   5.578   0.274   4.960
 1567SOL    HW2 5601   5.495   0.139   5.000
 1568SOL     OW 5602   2.357   4.572   0.704
 1568SOL    HW1 5603   2.270   4.599   0.746
 1568SOL    HW2 5604   2.416   4.530   0.774
 1569SOL     OW 5605   2.087   1.189   2.590
 1569SOL    HW1 5606   2.000   1.184   2.541
 1569SOL    HW2 5607   2.160   1.214   2.527
 1570SOL     OW 5608   3.074   6.118   6.498
 1570SOL    HW1 5609   3.072   6.031   6.547
 1570SOL    HW2 5610   3.024   6.110   6.412
 1571SOL     OW 5611   6.800   2.157   4.279
 1571SOL    HW1 5612   6.879   2.217   4.266
 1571SOL    HW2 5613   6.719   2.212   4.299
 1572SOL     OW 5614   2.194   6.169   2.970
 1572SOL    HW1 5615   2.167   6.262   2.995
 1572SOL    HW2 5616   2.219   6.118   3.052
 1573SOL     OW 5617   5.633   5.557   0.544
 1573SOL    HW1 5618   5.714   5.501   0.562
 1573SOL    HW2 5619   5.654   5.626   0.475
 1574SOL     OW 5620   0.396   4.565   3.282
 1574SOL    HW1 5621   0.297   4.547   3.288
 1574SOL    HW2 5622   0.433   4.576   3.374
 1575SOL     OW 5623   6.972   2.253   0.494
 1575SOL    HW1 5624   0.000   2.323   0.442
 1575SOL    HW2 5625   7.013   2.244   0.585
 1576SOL     OW 5626   1.449   6.256   2.259
 1576SOL    HW1 5627   1.437   6.218   2.351
 1576SOL    HW2 5628   1.439   6.355   2.262
 1577SOL     OW 5629   4.374   5.932   4.138
 1577SOL    HW1 5630   4.398   5.918   4.234
 1577SOL    HW2 5631   4.335   5.847   4.101
 1578SOL     OW 5632   5.458   1.952   1.608
 1578SOL    HW1 5633   5.441   1.856   1.586
 1578SOL    HW2 5634   5.433   1.969   1.703
 1579SOL     OW 5635   1.792   3.224   2.011
 1579SOL    HW1 5636   1.809   3.248   2.106
 1579SOL    HW2 5637   1.694   3.209   1.997
 1580SOL     OW 5638   3.267   4.018   3.417
 1580SOL    HW1 5639   3.227   4.070   3.492
 1580SOL    HW2 5640   3.260   3.920   3.436
 1581SOL     OW 5641   5.143   4.566   5.047
 1581SOL    HW1 5642   5.173   4.549   5.141
 1581SOL    HW2 5643   5.052   4.607   5.049
 1582SOL     OW 5644   4.154   6.259   4.725
 1582SOL    HW1 5645   4.220   6.284   4.653
 1582SOL    HW2 5646   4.103   6.178   4.696
 1583SOL     OW 5647   1.178   4.859   5.395
 1583SOL    HW1 5648   1.192   4.832   5.299
 1583SOL    HW2 5649   1.189   4.779   5.454
 1584SOL     OW 5650   0.099   3.793   0.217
 1584SOL    HW1 5651   0.082   3.714   0.158
 1584SOL    HW2 5652   0.136   3.868   0.163
 1585SOL     OW 5653   4.915   6.250   4.683
 1585SOL    HW1 5654   4.980   6.284   4.615
 1585SOL    HW2 5655   4.823   6.282   4.660
 1586SOL     OW 5656   2.589   5.993   3.854
 1586SOL    HW1 5657   2.655   6.066   3.839
 1586SOL    HW2 5658   2.583   5.936   3.772
 1587SOL     OW 5659   3.615   6.332   0.359
 1587SOL    HW1 5660   3.542   6.298   0.418
 1587SOL    HW2 5661   3.686   6.262   0.350
 1588SOL     OW 5662   6.296   2.029   3.443
 1588SOL    HW1 5663   6.240   1.967   3.499
 1588SOL    HW2 5664   6.260   2.030   3.349
 1589SOL     OW 5665   6.829   2.025   4.524
 1589SOL    HW1 5666   6.831   2.068   4.434
 1589SOL    HW2 5667   6.906   1.962   4.532
 1590SOL     OW 5668   5.081   0.624   3.922
 1590SOL    HW1 5669   5.070   0.563   4.001
 1590SOL    HW2 5670   5.109   0.570   3.843
 1591SOL     OW 5671   0.677   5.565   0.458
 1591SOL    HW1 5672   0.666   5.569   0.359
 1591SOL    HW2 5673   0.648   5.652   0.498
 1592SOL     OW 5674   7.000   3.904   4.802
 1592SOL    HW1 5675   7.003   3.982   4.739
 1592SOL    HW2 5676   7.007   3.819   4.750
 1593SOL     OW 5677   3.760   5.839   1.435
 1593SOL    HW1 5678   3.849   5.885   1.433
 1593SOL    HW2 5679   3.757   5.769   1.364
 1594SOL     OW 5680   4.866   0.857   2.847
 1594SOL    HW1 5681   4.911   0.916   2.780
 1594SOL    HW2 5682   4.861   0.905   2.935
 1595SOL     OW 5683   0.945   3.573   6.575
 1595SOL    HW1 5684   0.852   3.566   6.539
 1595SOL    HW2 5685   0.942   3.615   6.666
 1596SOL     OW 5686   5.076   4.231   4.128
 1596SOL    HW1 5687   5.100   4.200   4.219
 1596SOL    HW2 5688   5.047   4.153   4.072
 1597SOL     OW 5689   3.847   6.141   0.298
 1597SOL    HW1 5690   3.922   6.174   0.240
 1597SOL    HW2 5691   3.874   6.145   0.394
 1598SOL     OW 5692   1.247   4.409   6.296
 1598SOL    HW1 5693   1.162   4.429   6.344
 1598SOL    HW2 5694   1.236   4.324   6.243
 1599SOL     OW 5695   4.527   5.712   3.929
 1599SOL    HW1 5696   4.432   5.730   3.955
 1599SOL    HW2 5697   4.585   5.719   4.009
 1600SOL     OW 5698   4.429   0.620   1.300
 1600SOL    HW1 5699   4.408   0.625   1.397
 1600SOL    HW2 5700   4.529   0.619   1.287
 1601SOL     OW 5701   6.159   0.980   4.849
 1601SOL    HW1 5702   6.177   0.881   4.851
 1601SOL    HW2 5703   6.090   1.000   4.780
 1602SOL     OW 5704   4.324   5.386   3.462
 1602SOL    HW1 5705   4.419   5.387   3.492
 1602SOL    HW2 5706   4.273   5.317   3.514
 1603SOL     OW 5707   3.249   5.129   2.056
 1603SOL    HW1 5708   3.151   5.146   2.042
 1603SOL    HW2 5709   3.269   5.033   2.037
 1604SOL     OW 5710   4.195   5.323   2.503
 1604SOL    HW1 5711   4.232   5.407   2.463
 1604SOL    HW2 5712   4.251   5.296   2.581
 1605SOL     OW 5713   4.679   5.203   0.536
 1605SOL    HW1 5714   4.606   5.165   0.479
 1605SOL    HW2 5715   4.753   5.237   0.478
 1606SOL     OW 5716   3.138   5.929   5.263
 1606SOL    HW1 5717   3.107   5.943   5.169
 1606SOL    HW2 5718   3.177   6.014   5.298
 1607SOL     OW 5719   4.843   3.841   3.856
 1607SOL    HW1 5720   4.874   3.789   3.936
 1607SOL    HW2 5721   4.829   3.778   3.779
 1608SOL     OW 5722   5.715   2.862   3.774
 1608SOL    HW1 5723   5.627   2.817   3.758
 1608SOL    HW2 5724   5.700   2.958   3.796
 1609SOL     OW 5725   1.750   6.929   0.770
 1609SOL    HW1 5726   1.734   6.971   0.860
 1609SOL    HW2 5727   1.699   6.843   0.764
 1610SOL     OW 5728   5.733   6.512   0.941
 1610SOL    HW1 5729   5.746   6.517   0.842
 1610SOL    HW2 5730   5.732   6.417   0.970
 1611SOL     OW 5731   0.643   4.010   6.871
 1611SOL    HW1 5732   0.646   4.017   6.771
 1611SOL    HW2 5733   0.735   4.026   6.908
 1612SOL     OW 5734   4.835   1.228   1.608
 1612SOL    HW1 5735   4.736   1.241   1.612
 1612SOL    HW2 5736   4.857   1.133   1.633
 1613SOL     OW 5737   0.247   5.887   2.830
 1613SOL    HW1 5738   0.279   5.792   2.827
 1613SOL    HW2 5739   0.304   5.943   2.769
 1614SOL     OW 5740   6.471   1.850   5.396
 1614SOL    HW1 5741   6.565   1.848   5.362
 1614SOL    HW2 5742   6.438   1.756   5.409
 1615SOL     OW 5743   6.973   3.437   5.227
 1615SOL    HW1 5744   6.885   3.415   5.186
 1615SOL    HW2 5745   7.001   3.363   5.288
 1616SOL     OW 5746   1.024   1.311   3.070
 1616SOL    HW1 5747   1.080   1.378   3.120
 1616SOL    HW2 5748   0.994   1.239   3.132
 1617SOL     OW 5749   6.530   5.432   4.045
 1617SOL    HW1 5750   6.557   5.518   4.087
 1617SOL    HW2 5751   6.576   5.356   4.091
 1618SOL     OW 5752   3.258   5.858   3.000
 1618SOL    HW1 5753   3.208   5.772   3.000
 1618SOL    HW2 5754   3.196   5.933   2.975
 1619SOL     OW 5755   1.166   3.747   6.416
 1619SOL    HW1 5756   1.129   3.704   6.334
 1619SOL    HW2 5757   1.096   3.803   6.460
 1620SOL     OW 5758   3.370   6.915   4.468
 1620SOL    HW1 5759   3.350   6.847   4.397
 1620SOL    HW2 5760   3.387   7.004   4.425
 1621SOL     OW 5761   5.193   5.016   0.861
 1621SOL    HW1 5762   5.157   4.928   0.892
 1621SOL    HW2 5763   5.126   5.059   0.801
 1622SOL     OW 5764   6.285   4.299   3.560
 1622SOL    HW1 5765   6.340   4.225   3.521
 1622SOL    HW2 5766   6.325   4.387   3.535
 1623SOL     OW 5767   0.833   2.412   3.952
 1623SOL    HW1 5768   0.913   2.435   4.008
 1623SOL    HW2 5769   0.864   2.381   3.862
 1624SOL     OW 5770   3.877   3.187   0.726
 1624SOL    HW1 5771   3.778   3.180   0.713
 1624SOL    HW2 5772   3.922   3.109   0.683
 1625SOL     OW 5773   0.956   6.528   0.225
 1625SOL    HW1 5774   0.967   6.502   0.320
 1625SOL    HW2 5775   0.955   6.628   0.218
 1626SOL     OW 5776   2.322   1.959   2.008
 1626SOL    HW1 5777   2.335   1.872   1.960
 1626SOL    HW2 5778   2.410   2.000   2.029
 1627SOL     OW 5779   4.239   1.572   5.917
 1627SOL    HW1 5780   4.225   1.670   5.931
 1627SOL    HW2 5781   4.308   1.557   5.846
 1628SOL     OW 5782   5.421   6.400   1.196
 1628SOL    HW1 5783   5.343   6.426   1.139
 1628SOL    HW2 5784   5.439   6.302   1.187
 1629SOL     OW 5785   1.595   6.912   3.684
 1629SOL    HW1 5786   1.617   6.995   3.633
 1629SOL    HW2 5787   1.496   6.903   3.691
 1630SOL     OW 5788   0.694   4.051   6.062
 1630SOL    HW1 5789   0.793   4.037   6.069
 1630SOL    HW2 5790   0.676   4.137   6.015
 1631SOL     OW 5791   5.211   3.548   0.405
 1631SOL    HW1 5792   5.173   3.598   0.328
 1631SOL    HW2 5793   5.186   3.451   0.397
 1632SOL     OW 5794   6.003   6.240   2.538
 1632SOL    HW1 5795   5.974   6.176   2.467
 1632SOL    HW2 5796   5.944   6.321   2.535
 1633SOL     OW 5797   5.587   3.632   4.655
 1633SOL    HW1 5798   5.627   3.723   4.660
 1633SOL    HW2 5799   5.655   3.563   4.681
 1634SOL     OW 5800   1.336   3.341   5.955
 1634SOL    HW1 5801   1.430   3.374   5.954
 1634SOL    HW2 5802   1.333   3.249   5.916
 1635SOL     OW 5803   2.312   0.296   3.491
 1635SOL    HW1 5804   2.321   0.356   3.411
 1635SOL    HW2 5805   2.229   0.241   3.482
 1636SOL     OW 5806   0.136   6.108   1.713
 1636SOL    HW1 5807   0.158   6.044   1.640
 1636SOL    HW2 5808   0.171   6.199   1.691
 1637SOL     OW 5809   1.433   1.519   2.635
 1637SOL    HW1 5810   1.515   1.487   2.683
 1637SOL    HW2 5811   1.380   1.578   2.697
 1638SOL     OW 5812   5.610   2.650   3.295
 1638SOL    HW1 5813   5.567   2.563   3.320
 1638SOL    HW2 5814   5.541   2.714   3.263
 1639SOL     OW 5815   4.675   2.202   1.812
 1639SOL    HW1 5816   4.661   2.287   1.761
 1639SOL    HW2 5817   4.652   2.216   1.908
 1640SOL     OW 5818   6.078   0.532   6.789
 1640SOL    HW1 5819   6.035   0.567   6.873
 1640SOL    HW2 5820   6.007   0.508   6.723
 1641SOL     OW 5821   5.665   1.228   3.162
 1641SOL    HW1 5822   5.717   1.220   3.077
 1641SOL    HW2 5823   5.692   1.156   3.225
 1642SOL     OW 5824   6.929   3.545   5.905
 1642SOL    HW1 5825   6.891   3.481   5.973
 1642SOL    HW2 5826   6.872   3.544   5.823
 1643SOL     OW 5827   2.233   5.635   3.638
 1643SOL    HW1 5828   2.303   5.595   3.579
 1643SOL    HW2 5829   2.274   5.705   3.695
 1644SOL     OW 5830   6.245   1.328   1.708
 1644SOL    HW1 5831   6.213   1.420   1.682
 1644SOL    HW2 5832   6.212   1.262   1.641
 1645SOL     OW 5833   2.645   0.846   4.867
 1645SOL    HW1 5834   2.560   0.814   4.826
 1645SOL    HW2 5835   2.711   0.771   4.870
 1646SOL     OW 5836   0.091   5.217   1.556
 1646SOL    HW1 5837   0.036   5.133   1.563
 1646SOL    HW2 5838   0.111   5.251   1.648
 1647SOL     OW 5839   6.224   3.362   5.009
 1647SOL    HW1 5840   6.305   3.420   4.995
 1647SOL    HW2 5841   6.233   3.279   4.954
 1648SOL     OW 5842   5.390   6.243   1.491
 1648SOL    HW1 5843   5.362   6.208   1.402
 1648SOL    HW2 5844   5.431   6.169   1.545
 1649SOL     OW 5845   3.467   1.445   2.802
 1649SOL    HW1 5846   3.538   1.414   2.864
 1649SOL    HW2 5847   3.461   1.545   2.805
 1650SOL     OW 5848   2.512   2.621   5.069
 1650SOL    HW1 5849   2.490   2.691   5.001
 1650SOL    HW2 5850   2.525   2.664   5.158
 1651SOL     OW 5851   1.004   2.127   4.083
 1651SOL    HW1 5852   1.032   2.064   4.155
 1651SOL    HW2 5853   0.953   2.077   4.013
 1652SOL     OW 5854   0.347   3.865   1.894
 1652SOL    HW1 5855   0.248   3.859   1.908
 1652SOL    HW2 5856   0.394   3.818   1.969
 1653SOL     OW 5857   6.593   4.452   1.603
 1653SOL    HW1 5858   6.601   4.352   1.600
 1653SOL    HW2 5859   6.504   4.479   1.564
 1654SOL     OW 5860   0.724   3.965   1.469
 1654SOL    HW1 5861   0.753   3.962   1.565
 1654SOL    HW2 5862   0.675   3.881   1.447
 1655SOL     OW 5863   0.037   1.037   6.022
 1655SOL    HW1 5864   0.079   0.947   6.010
 1655SOL    HW2 5865   0.049   1.090   5.938
 1656SOL     OW 5866   1.921   4.138   3.106
 1656SOL    HW1 5867   1.835   4.088   3.119
 1656SOL    HW2 5868   1.940   4.193   3.187
 1657SOL     OW 5869   0.857   0.532   6.086
 1657SOL    HW1 5870   0.936   0.572   6.131
 1657SOL    HW2 5871   0.812   0.468   6.149
 1658SOL     OW 5872   5.428   6.590   6.246
 1658SOL    HW1 5873   5.474   6.657   6.188
 1658SOL    HW2 5874   5.493   6.518   6.272
 1659SOL     OW 5875   3.865   0.139   5.974
 1659SOL    HW1 5876   3.795   0.210   5.973
 1659SOL    HW2 5877   3.844   0.070   5.905
 1660SOL     OW 5878   2.320   0.667   1.832
 1660SOL    HW1 5879   2.379   0.747   1.829
 1660SOL    HW2 5880   2.371   0.590   1.872
 1661SOL     OW 5881   5.092   4.124   3.040
 1661SOL    HW1 5882   5.158   4.128   2.966
 1661SOL    HW2 5883   5.011   4.074   3.009
 1662SOL     OW 5884   0.096   1.676   3.462
 1662SOL    HW1 5885   0.107   1.636   3.370
 1662SOL    HW2 5886   0.046   1.762   3.455
 1663SOL     OW 5887   5.245   3.912   1.288
 1663SOL    HW1 5888   5.178   3.985   1.303
 1663SOL    HW2 5889   5.324   3.949   1.238
 1664SOL     OW 5890   1.334   1.126   6.089
 1664SOL    HW1 5891   1.245   1.171   6.101
 1664SOL    HW2 5892   1.360   1.129   5.993
 1665SOL     OW 5893   2.244   3.692   6.371
 1665SOL    HW1 5894   2.281   3.784   6.356
 1665SOL    HW2 5895   2.212   3.684   6.466
 1666SOL     OW 5896   5.677   6.073   5.954
 1666SOL    HW1 5897   5.666   6.128   5.871
 1666SOL    HW2 5898   5.769   6.035   5.958
 1667SOL     OW 5899   0.184   5.358   0.899
 1667SOL    HW1 5900   0.265   5.409   0.927
 1667SOL    HW2 5901   0.209   5.292   0.828
 1668SOL     OW 5902   5.882   3.046   2.284
 1668SOL    HW1 5903   5.887   2.956   2.327
 1668SOL    HW2 5904   5.950   3.106   2.326
 1669SOL     OW 5905   6.424   2.554   5.551
 1669SOL    HW1 5906   6.388   2.621   5.486
 1669SOL    HW2 5907   6.465   2.478   5.500
 1670SOL     OW 5908   3.362   4.755   5.602
 1670SOL    HW1 5909   3.321   4.846   5.609
 1670SOL    HW2 5910   3.329   4.709   5.519
 1671SOL     OW 5911   5.215   2.080   0.611
 1671SOL    HW1 5912   5.288   2.066   0.544
 1671SOL    HW2 5913   5.167   2.165   0.590
 1672SOL     OW 5914   0.372   1.825   1.378
 1672SOL    HW1 5915   0.307   1.781   1.317
 1672SOL    HW2 5916   0.364   1.924   1.369
 1673SOL     OW 5917   1.425   0.296   4.763
 1673SOL    HW1 5918   1.475   0.209   4.768
 1673SOL    HW2 5919   1.350   0.294   4.830
 1674SOL     OW 5920   4.913   2.177   3.982
 1674SOL    HW1 5921   4.873   2.110   3.918
 1674SOL    HW2 5922   5.011   2.184   3.965
 1675SOL     OW 5923   5.681   0.318   2.237
 1675SOL    HW1 5924   5.633   0.388   2.290
 1675SOL    HW2 5925   5.660   0.329   2.140
 1676SOL     OW 5926   0.837   2.434   3.370
 1676SOL    HW1 5927   0.848   2.350   3.423
 1676SOL    HW2 5928   0.899   2.504   3.405
 1677SOL     OW 5929   2.888   3.539   3.106
 1677SOL    HW1 5930   2.935   3.613   3.057
 1677SOL    HW2 5931   2.876   3.461   3.044
 1678SOL     OW 5932   0.432   6.288   0.002
 1678SOL    HW1 5933   0.497   6.347   6.974
 1678SOL    HW2 5934   0.435   6.309   0.099
 1679SOL     OW 5935   5.886   1.703   0.443
 1679SOL    HW1 5936   5.797   1.710   0.400
 1679SOL    HW2 5937   5.946   1.646   0.387
 1680SOL     OW 5938   6.340   2.940   3.112
 1680SOL    HW1 5939   6.383   2.871   3.170
 1680SOL    HW2 5940   6.411   2.999   3.072
 1681SOL     OW 5941   3.206   5.938   4.602
 1681SOL    HW1 5942   3.272   5.926   4.676
 1681SOL    HW2 5943   3.133   5.871   4.611
 1682SOL     OW 5944   4.561   0.795   4.546
 1682SOL    HW1 5945   4.610   0.874   4.509
 1682SOL    HW2 5946   4.499   0.824   4.618
 1683SOL     OW 5947   0.494   2.773   3.034
 1683SOL    HW1 5948   0.593   2.760   3.044
 1683SOL    HW2 5949   0.465   2.852   3.088
 1684SOL     OW 5950   2.810   5.591   1.437
 1684SOL    HW1 5951   2.776   5.548   1.353
 1684SOL    HW2 5952   2.733   5.630   1.488
 1685SOL     OW 5953   0.186   1.193   5.361
 1685SOL    HW1 5954   0.140   1.170   5.275
 1685SOL    HW2 5955   0.152   1.281   5.394
 1686SOL     OW 5956   3.569   5.356   1.951
 1686SOL    HW1 5957   3.502   5.355   1.877
 1686SOL    HW2 5958   3.525   5.330   2.037
 1687SOL     OW 5959   5.130   3.677   0.820
 1687SOL    HW1 5960   5.167   3.714   0.734
 1687SOL    HW2 5961   5.114   3.752   0.883
 1688SOL     OW 5962   2.817   0.450   2.825
 1688SOL    HW1 5963   2.768   0.411   2.903
 1688SOL    HW2 5964   2.755   0.508   2.773
 1689SOL     OW 5965   3.826   0.816   1.824
 1689SOL    HW1 5966   3.816   0.902   1.775
 1689SOL    HW2 5967   3.753   0.807   1.892
 1690SOL     OW 5968   6.375   4.794   4.162
 1690SOL    HW1 5969   6.368   4.730   4.086
 1690SOL    HW2 5970   6.358   4.887   4.130
 1691SOL     OW 5971   4.097   2.722   5.405
 1691SOL    HW1 5972   4.033   2.788   5.366
 1691SOL    HW2 5973   4.118   2.651   5.337
 1692SOL     OW 5974   5.928   5.109   1.624
 1692SOL    HW1 5975   5.911   5.104   1.722
 1692SOL    HW2 5976   5.848   5.076   1.574
 1693SOL     OW 5977   5.411   6.823   5.872
 1693SOL    HW1 5978   5.449   6.803   5.962
 1693SOL    HW2 5979   5.473   6.788   5.802
 1694SOL     OW 5980   4.628   1.274   6.289
 1694SOL    HW1 5981   4.678   1.283   6.375
 1694SOL    HW2 5982   4.692   1.278   6.213
 1695SOL     OW 5983   3.810   0.392   5.309
 1695SOL    HW1 5984   3.829   0.468   5.247
 1695SOL    HW2 5985   3.866   0.314   5.285
 1696SOL     OW 5986   4.794   7.003   1.056
 1696SOL    HW1 5987   4.893   6.994   1.048
 1696SOL    HW2 5988   4.770   0.078   1.071
 1697SOL     OW 5989   4.687   2.803   1.767
 1697SOL    HW1 5990   4.668   2.897   1.795
 1697SOL    HW2 5991   4.717   2.749   1.846
 1698SOL     OW 5992   3.935   1.394   1.915
 1698SOL    HW1 5993   3.966   1.453   1.989
 1698SOL    HW2 5994   3.883   1.317   1.953
 1699SOL     OW 5995   1.928   0.602   0.809
 1699SOL    HW1 5996   1.879   0.632   0.727
 1699SOL    HW2 5997   1.971   0.513   0.791
 1700SOL     OW 5998   5.496   3.097   2.910
 1700SOL    HW1 5999   5.558   3.048   2.971
 1700SOL    HW2 6000   5.404   3.059   2.917
 1701SOL     OW 6001   1.186   5.791   4.925
 1701SOL    HW1 6002   1.109   5.853   4.908
 1701SOL    HW2 6003   1.179   5.713   4.863
 1702SOL     OW 6004   2.146   2.732   6.443
 1702SOL    HW1 6005   2.118   2.726   6.347
 1702SOL    HW2 6006   2.102   2.658   6.494
 1703SOL     OW 6007   1.220   2.020   2.004
 1703SOL    HW1 6008   1.192   2.042   2.098
 1703SOL    HW2 6009   1.317   1.998   2.003
 1704SOL     OW 6010   3.034   2.855   6.826
 1704SOL    HW1 6011   2.941   2.830   6.800
 1704SOL    HW2 6012   3.031   2.916   6.905
 1705SOL     OW 6013   5.309   3.100   0.566
 1705SOL    HW1 6014   5.310   3.038   0.645
 1705SOL    HW2 6015   5.360   3.183   0.588
 1706SOL     OW 6016   5.240   1.133   6.250
 1706SOL    HW1 6017   5.265   1.195   6.324
 1706SOL    HW2 6018   5.175   1.179   6.189
 1707SOL     OW 6019   3.865   1.076   1.993
 1707SOL    HW1 6020   3.896   0.997   2.047
 1707SOL    HW2 6021   3.903   1.070   1.901
 1708SOL     OW 6022   2.563   4.602   1.949
 1708SOL    HW1 6023   2.662   4.597   1.936
 1708SOL    HW2 6024   2.521   4.639   1.867
 1709SOL     OW 6025   5.302   4.236   1.395
 1709SOL    HW1 6026   5.253   4.323   1.392
 1709SOL    HW2 6027   5.242   4.165   1.429
 1710SOL     OW 6028   4.780   2.951   2.329
 1710SOL    HW1 6029   4.776   2.951   2.229
 1710SOL    HW2 6030   4.863   2.999   2.358
 1711SOL     OW 6031   4.076   5.524   0.139
 1711SOL    HW1 6032   4.134   5.600   0.168
 1711SOL    HW2 6033   3.997   5.517   0.199
 1712SOL     OW 6034   0.220   1.539   2.089
 1712SOL    HW1 6035   0.268   1.623   2.113
 1712SOL    HW2 6036   0.209   1.535   1.989
 1713SOL     OW 6037   2.981   1.645   2.375
 1713SOL    HW1 6038   2.908   1.608   2.433
 1713SOL    HW2 6039   3.003   1.579   2.303
 1714SOL     OW 6040   2.673   4.397   0.653
 1714SOL    HW1 6041   2.646   4.466   0.586
 1714SOL    HW2 6042   2.591   4.359   0.696
 1715SOL     OW 6043   0.969   5.974   0.949
 1715SOL    HW1 6044   0.876   6.006   0.936
 1715SOL    HW2 6045   1.028   6.013   0.878
 1716SOL     OW 6046   5.177   1.775   3.171
 1716SOL    HW1 6047   5.210   1.832   3.247
 1716SOL    HW2 6048   5.244   1.702   3.153
 1717SOL     OW 6049   4.105   6.512   3.614
 1717SOL    HW1 6050   4.190   6.495   3.664
 1717SOL    HW2 6051   4.117   6.485   3.518
 1718SOL     OW 6052   1.696   3.439   1.812
 1718SOL    HW1 6053   1.616   3.451   1.752
 1718SOL    HW2 6054   1.779   3.458   1.760
 1719SOL     OW 6055   1.050   5.325   2.969
 1719SOL    HW1 6056   1.039   5.226   2.962
 1719SOL    HW2 6057   0.967   5.370   2.936
 1720SOL     OW 6058   0.933   2.894   5.377
 1720SOL    HW1 6059   0.980   2.981   5.365
 1720SOL    HW2 6060   0.849   2.907   5.430
 1721SOL     OW 6061   2.261   2.337   0.403
 1721SOL    HW1 6062   2.313   2.330   0.488
 1721SOL    HW2 6063   2.168   2.368   0.424
 1722SOL     OW 6064   2.646   2.425   3.506
 1722SOL    HW1 6065   2.596   2.360   3.563
 1722SOL    HW2 6066   2.743   2.402   3.507
 1723SOL     OW 6067   6.130   4.452   1.304
 1723SOL    HW1 6068   6.036   4.445   1.337
 1723SOL    HW2 6069   6.165   4.360   1.285
 1724SOL     OW 6070   5.771   2.935   1.066
 1724SOL    HW1 6071   5.762   2.862   0.997
 1724SOL    HW2 6072   5.810   3.017   1.023
 1725SOL     OW 6073   2.184   6.356   5.872
 1725SOL    HW1 6074   2.276   6.361   5.909
 1725SOL    HW2 6075   2.143   6.447   5.870
 1726SOL     OW 6076   4.527   4.477   3.776
 1726SOL    HW1 6077   4.561   4.568   3.802
 1726SOL    HW2 6078   4.553   4.410   3.846
 1727SOL     OW 6079   3.351   3.126   3.216
 1727SOL    HW1 6080   3.385   3.214   3.251
 1727SOL    HW2 6081   3.414   3.091   3.147
 1728SOL     OW 6082   5.663   1.972   4.423
 1728SOL    HW1 6083   5.588   1.907   4.411
 1728SOL    HW2 6084   5.636   2.062   4.389
 1729SOL     OW 6085   1.063   2.955   2.956
 1729SOL    HW1 6086   1.141   2.893   2.949
 1729SOL    HW2 6087   1.091   3.047   2.928
 1730SOL     OW 6088   2.613   0.071   4.878
 1730SOL    HW1 6089   2.575   0.139   4.941
 1730SOL    HW2 6090   2.713   0.080   4.875
 1731SOL     OW 6091   4.856   4.280   3.676
 1731SOL    HW1 6092   4.933   4.236   3.724
 1731SOL    HW2 6093   4.888   4.365   3.634
 1732SOL     OW 6094   3.964   3.462   5.071
 1732SOL    HW1 6095   3.909   3.391   5.027
 1732SOL    HW2 6096   4.040   3.487   5.012
 1733SOL     OW 6097   1.705   2.315   6.548
 1733SOL    HW1 6098   1.701   2.398   6.604
 1733SOL    HW2 6099   1.627   2.256   6.571
 1734SOL     OW 6100   0.525   4.258   0.842
 1734SOL    HW1 6101   0.599   4.243   0.908
 1734SOL    HW2 6102   0.495   4.353   0.847
 1735SOL     OW 6103   2.875   5.234   6.034
 1735SOL    HW1 6104   2.957   5.226   5.977
 1735SOL    HW2 6105   2.888   5.307   6.100
 1736SOL     OW 6106   5.358   2.022   6.542
 1736SOL    HW1 6107   5.319   1.939   6.503
 1736SOL    HW2 6108   5.365   2.092   6.470
 1737SOL     OW 6109   2.611   0.861   6.107
 1737SOL    HW1 6110   2.532   0.803   6.086
 1737SOL    HW2 6111   2.694   0.804   6.110
 1738SOL     OW 6112   1.557   4.313   2.113
 1738SOL    HW1 6113   1.505   4.233   2.143
 1738SOL    HW2 6114   1.618   4.289   2.038
 1739SOL     OW 6115   5.003   5.432   2.713
 1739SOL    HW1 6116   5.087   5.486   2.720
 1739SOL    HW2 6117   4.983   5.390   2.802
 1740SOL     OW 6118   0.075   2.652   4.753
 1740SOL    HW1 6119   7.005   2.691   4.740
 1740SOL    HW2 6120   0.068   2.553   4.761
 1741SOL     OW 6121   0.996   2.968   4.583
 1741SOL    HW1 6122   1.055   2.946   4.505
 1741SOL    HW2 6123   1.044   2.943   4.667
 1742SOL     OW 6124   6.069   6.852   6.953
 1742SOL    HW1 6125   6.156   6.886   6.916
 1742SOL    HW2 6126   5.996   6.870   6.887
 1743SOL     OW 6127   1.431   2.217   1.649
 1743SOL    HW1 6128   1.429   2.282   1.726
 1743SOL    HW2 6129   1.458   2.127   1.682
 1744SOL     OW 6130   3.106   2.257   5.383
 1744SOL    HW1 6131   3.013   2.226   5.363
 1744SOL    HW2 6132   3.150   2.285   5.297
 1745SOL     OW 6133   6.604   6.583   0.368
 1745SOL    HW1 6134   6.643   6.665   0.328
 1745SOL    HW2 6135   6.631   6.576   0.464
 1746SOL     OW 6136   2.719   4.671   2.479
 1746SOL    HW1 6137   2.629   4.715   2.486
 1746SOL    HW2 6138   2.715   4.595   2.414
 1747SOL     OW 6139   3.281   0.299   2.138
 1747SOL    HW1 6140   3.378   0.281   2.156
 1747SOL    HW2 6141   3.233   0.213   2.121
 1748SOL     OW 6142   6.900   1.799   3.773
 1748SOL    HW1 6143   6.867   1.886   3.808
 1748SOL    HW2 6144   6.826   1.752   3.725
 1749SOL     OW 6145   6.290   5.459   1.784
 1749SOL    HW1 6146   6.210   5.402   1.761
 1749SOL    HW2 6147   6.260   5.551   1.808
 1750SOL     OW 6148   3.123   1.871   0.635
 1750SOL    HW1 6149   3.158   1.853   0.543
 1750SOL    HW2 6150   3.024   1.856   0.636
 1751SOL     OW 6151   5.999   4.250   4.887
 1751SOL    HW1 6152   5.980   4.196   4.969
 1751SOL    HW2 6153   6.096   4.272   4.883
 1752SOL     OW 6154   6.232   0.452   2.179
 1752SOL    HW1 6155   6.226   0.395   2.097
 1752SOL    HW2 6156   6.196   0.401   2.258
 1753SOL     OW 6157   6.804   1.991   1.603
 1753SOL    HW1 6158   6.885   2.038   1.567
 1753SOL    HW2 6159   6.828   1.897   1.626
 1754SOL     OW 6160   2.955   5.736   3.473
 1754SOL    HW1 6161   2.985   5.821   3.428
 1754SOL    HW2 6162   2.868   5.752   3.519
 1755SOL     OW 6163   6.379   6.834   4.883
 1755SOL    HW1 6164   6.301   6.871   4.934
 1755SOL    HW2 6165   6.404   6.897   4.809
 1756SOL     OW 6166   4.215   6.338   1.594
 1756SOL    HW1 6167   4.286   6.278   1.631
 1756SOL    HW2 6168   4.244   6.433   1.606
 1757SOL     OW 6169   3.175   4.931   5.089
 1757SOL    HW1 6170   3.111   4.894   5.021
 1757SOL    HW2 6171   3.134   4.925   5.180
 1758SOL     OW 6172   1.108   6.293   3.741
 1758SOL    HW1 6173   1.183   6.345   3.699
 1758SOL    HW2 6174   1.142   6.203   3.768
 1759SOL     OW 6175   1.618   5.091   6.467
 1759SOL    HW1 6176   1.612   4.993   6.453
 1759SOL    HW2 6177   1.529   5.126   6.497
 1760SOL     OW 6178   6.100   1.896   4.043
 1760SOL    HW1 6179   6.196   1.869   4.057
 1760SOL    HW2 6180   6.040   1.821   4.072
 1761SOL     OW 6181   5.285   1.816   3.826
 1761SOL    HW1 6182   5.260   1.785   3.734
 1761SOL    HW2 6183   5.362   1.879   3.820
 1762SOL     OW 6184   0.882   1.460   6.070
 1762SOL    HW1 6185   0.800   1.512   6.047
 1762SOL    HW2 6186   0.929   1.504   6.146
 1763SOL     OW 6187   1.845   5.286   3.543
 1763SOL    HW1 6188   1.795   5.286   3.457
 1763SOL    HW2 6189   1.867   5.192   3.569
 1764SOL     OW 6190   1.278   6.380   3.417
 1764SOL    HW1 6191   1.204   6.313   3.405
 1764SOL    HW2 6192   1.240   6.472   3.416
 1765SOL     OW 6193   5.213   3.781   2.003
 1765SOL    HW1 6194   5.167   3.761   2.090
 1765SOL    HW2 6195   5.310   3.794   2.018
 1766SOL     OW 6196   4.588   4.751   4.152
 1766SOL    HW1 6197   4.634   4.694   4.220
 1766SOL    HW2 6198   4.624   4.844   4.156
 1767SOL     OW 6199   1.045   4.514   1.785
 1767SOL    HW1 6200   0.974   4.513   1.855
 1767SOL    HW2 6201   1.111   4.586   1.805
 1768SOL     OW 6202   3.857   4.862   2.818
 1768SOL    HW1 6203   3.915   4.810   2.880
 1768SOL    HW2 6204   3.908   4.885   2.736
 1769SOL     OW 6205   5.493   0.387   0.775
 1769SOL    HW1 6206   5.566   0.455   0.769
 1769SOL    HW2 6207   5.526   0.306   0.822
 1770SOL     OW 6208   2.115   5.101   0.882
 1770SOL    HW1 6209   2.127   5.187   0.832
 1770SOL    HW2 6210   2.084   5.029   0.820
 1771SOL     OW 6211   1.102   2.716   6.175
 1771SOL    HW1 6212   1.045   2.763   6.107
 1771SOL    HW2 6213   1.135   2.630   6.137
 1772SOL     OW 6214   2.252   4.396   2.983
 1772SOL    HW1 6215   2.247   4.439   2.894
 1772SOL    HW2 6216   2.347   4.366   3.000
 1773SOL     OW 6217   2.225   6.295   5.191
 1773SOL    HW1 6218   2.270   6.361   5.250
 1773SOL    HW2 6219   2.276   6.209   5.192
 1774SOL     OW 6220   5.586   5.663   1.884
 1774SOL    HW1 6221   5.593   5.640   1.981
 1774SOL    HW2 6222   5.649   5.606   1.831
 1775SOL     OW 6223   1.246   6.352   0.339
 1775SOL    HW1 6224   1.194   6.406   0.405
 1775SOL    HW2 6225   1.272   6.410   0.261
 1776SOL     OW 6226   4.152   3.656   6.280
 1776SOL    HW1 6227   4.186   3.592   6.212
 1776SOL    HW2 6228   4.055   3.676   6.263
 1777SOL     OW 6229   4.431   6.339   0.137
 1777SOL    HW1 6230   4.437   6.427   0.184
 1777SOL    HW2 6231   4.366   6.347   0.061
 1778SOL     OW 6232   6.838   0.159   3.230
 1778SOL    HW1 6233   6.868   0.079   3.179
 1778SOL    HW2 6234   6.817   0.131   3.324
 1779SOL     OW 6235   6.211   0.184   4.883
 1779SOL    HW1 6236   6.209   0.144   4.791
 1779SOL    HW2 6237   6.119   0.206   4.912
 1780SOL     OW 6238   3.063   6.154   4.727
 1780SOL    HW1 6239   3.090   6.065   4.689
 1780SOL    HW2 6240   2.999   6.199   4.665
 1781SOL     OW 6241   4.550   1.874   5.740
 1781SOL    HW1 6242   4.609   1.813   5.793
 1781SOL    HW2 6243   4.598   1.906   5.659
 1782SOL     OW 6244   5.257   0.406   2.337
 1782SOL    HW1 6245   5.230   0.500   2.357
 1782SOL    HW2 6246   5.325   0.375   2.402
 1783SOL     OW 6247   1.576   3.529   6.525
 1783SOL    HW1 6248   1.531   3.603   6.575
 1783SOL    HW2 6249   1.636   3.568   6.455
 1784SOL     OW 6250   2.226   6.404   1.252
 1784SOL    HW1 6251   2.130   6.427   1.240
 1784SOL    HW2 6252   2.251   6.414   1.349
 1785SOL     OW 6253   1.753   6.134   4.348
 1785SOL    HW1 6254   1.690   6.065   4.311
 1785SOL    HW2 6255   1.769   6.116   4.445
 1786SOL     OW 6256   0.705   6.170   1.660
 1786SOL    HW1 6257   0.756   6.096   1.615
 1786SOL    HW2 6258   0.738   6.258   1.627
 1787SOL     OW 6259   1.871   2.341   5.910
 1787SOL    HW1 6260   1.887   2.386   5.998
 1787SOL    HW2 6261   1.927   2.259   5.903
 1788SOL     OW 6262   3.663   3.919   0.737
 1788SOL    HW1 6263   3.646   3.827   0.704
 1788SOL    HW2 6264   3.697   3.976   0.662
 1789SOL     OW 6265   5.809   2.789   1.767
 1789SOL    HW1 6266   5.722   2.783   1.816
 1789SOL    HW2 6267   5.841   2.884   1.767
 1790SOL     OW 6268   2.321   1.600   4.589
 1790SOL    HW1 6269   2.270   1.678   4.626
 1790SOL    HW2 6270   2.328   1.528   4.658
 1791SOL     OW 6271   5.881   0.522   3.913
 1791SOL    HW1 6272   5.866   0.425   3.933
 1791SOL    HW2 6273   5.973   0.535   3.876
 1792SOL     OW 6274   0.141   2.673   6.427
 1792SOL    HW1 6275   0.208   2.744   6.448
 1792SOL    HW2 6276   0.163   2.590   6.478
 1793SOL     OW 6277   0.327   1.198   4.326
 1793SOL    HW1 6278   0.286   1.225   4.414
 1793SOL    HW2 6279   0.258   1.207   4.254
 1794SOL     OW 6280   6.863   1.665   6.903
 1794SOL    HW1 6281   6.933   1.736   6.906
 1794SOL    HW2 6282   6.790   1.687   6.967
 1795SOL     OW 6283   5.452   5.040   0.234
 1795SOL    HW1 6284   5.381   5.106   0.257
 1795SOL    HW2 6285   5.443   4.960   0.294
 1796SOL     OW 6286   5.902   6.473   0.166
 1796SOL    HW1 6287   5.887   6.471   0.265
 1796SOL    HW2 6288   5.878   6.384   0.127
 1797SOL     OW 6289   2.905   6.124   5.457
 1797SOL    HW1 6290   2.973   6.170   5.401
 1797SOL    HW2 6291   2.909   6.026   5.440
 1798SOL     OW 6292   2.625   3.533   5.903
 1798SOL    HW1 6293   2.697   3.546   5.835
 1798SOL    HW2 6294   2.652   3.579   5.988
 1799SOL     OW 6295   3.346   1.206   2.310
 1799SOL    HW1 6296   3.306   1.254   2.388
 1799SOL    HW2 6297   3.331   1.259   2.226
 1800SOL     OW 6298   6.448   2.540   5.895
 1800SOL    HW1 6299   6.354   2.559   5.923
 1800SOL    HW2 6300   6.450   2.452   5.846
 1801SOL     OW 6301   6.981   1.056   2.450
 1801SOL    HW1 6302   6.992   1.087   2.355
 1801SOL    HW2 6303   6.923   0.975   2.452
 1802SOL     OW 6304   5.826   4.419   4.261
 1802SOL    HW1 6305   5.785   4.389   4.174
 1802SOL    HW2 6306   5.894   4.490   4.243
 1803SOL     OW 6307   0.195   6.211   3.983
 1803SOL    HW1 6308   0.274   6.215   4.044
 1803SOL    HW2 6309   0.225   6.190   3.890
 1804SOL     OW 6310   1.117   2.831   6.409
 1804SOL    HW1 6311   1.118   2.774   6.327
 1804SOL    HW2 6312   1.026   2.830   6.450
 1805SOL     OW 6313   6.282   4.852   6.452
 1805SOL    HW1 6314   6.239   4.765   6.428
 1805SOL    HW2 6315   6.265   4.872   6.549
 1806SOL     OW 6316   0.597   1.712   1.450
 1806SOL    HW1 6317   0.508   1.756   1.445
 1806SOL    HW2 6318   0.669   1.777   1.426
 1807SOL     OW 6319   6.181   2.686   2.327
 1807SOL    HW1 6320   6.244   2.763   2.328
 1807SOL    HW2 6321   6.130   2.683   2.413
 1808SOL     OW 6322   5.913   0.599   6.575
 1808SOL    HW1 6323   5.854   0.599   6.494
 1808SOL    HW2 6324   5.991   0.660   6.560
 1809SOL     OW 6325   5.251   0.373   5.124
 1809SOL    HW1 6326   5.273   0.471   5.116
 1809SOL    HW2 6327   5.272   0.342   5.217
 1810SOL     OW 6328   1.168   1.118   4.475
 1810SOL    HW1 6329   1.111   1.164   4.407
 1810SOL    HW2 6330   1.226   1.186   4.521
 1811SOL     OW 6331   3.210   5.635   2.159
 1811SOL    HW1 6332   3.276   5.672   2.093
 1811SOL    HW2 6333   3.126   5.688   2.155
 1812SOL     OW 6334   4.332   0.661   6.463
 1812SOL    HW1 6335   4.274   0.675   6.383
 1812SOL    HW2 6336   4.410   0.722   6.458
 1813SOL     OW 6337   5.275   3.158   2.063
 1813SOL    HW1 6338   5.237   3.137   1.973
 1813SOL    HW2 6339   5.273   3.076   2.121
 1814SOL     OW 6340   6.562   5.575   0.555
 1814SOL    HW1 6341   6.529   5.646   0.618
 1814SOL    HW2 6342   6.648   5.538   0.589
 1815SOL     OW 6343   6.126   5.164   0.953
 1815SOL    HW1 6344   6.210   5.157   1.006
 1815SOL    HW2 6345   6.055   5.107   0.995
 1816SOL     OW 6346   3.700   4.933   4.723
 1816SOL    HW1 6347   3.622   4.888   4.679
 1816SOL    HW2 6348   3.742   4.997   4.658
 1817SOL     OW 6349   6.823   2.936   3.473
 1817SOL    HW1 6350   6.772   2.876   3.535
 1817SOL    HW2 6351   6.921   2.925   3.490
 1818SOL     OW 6352   2.095   1.566   0.731
 1818SOL    HW1 6353   2.133   1.518   0.652
 1818SOL    HW2 6354   2.164   1.626   0.771
 1819SOL     OW 6355   0.955   3.879   1.294
 1819SOL    HW1 6356   0.922   3.851   1.384
 1819SOL    HW2 6357   0.923   3.814   1.225
 1820SOL     OW 6358   4.002   0.193   5.329
 1820SOL    HW1 6359   3.992   0.211   5.427
 1820SOL    HW2 6360   4.061   0.113   5.316
 1821SOL     OW 6361   4.033   1.649   2.727
 1821SOL    HW1 6362   4.093   1.570   2.714
 1821SOL    HW2 6363   3.951   1.620   2.777
 1822SOL     OW 6364   1.777   3.946   4.510
 1822SOL    HW1 6365   1.818   3.901   4.588
 1822SOL    HW2 6366   1.820   4.036   4.496
 1823SOL     OW 6367   3.821   6.959   3.451
 1823SOL    HW1 6368   3.785   6.973   3.543
 1823SOL    HW2 6369   3.839   0.027   3.408
 1824SOL     OW 6370   4.804   2.729   2.005
 1824SOL    HW1 6371   4.766   2.820   2.024
 1824SOL    HW2 6372   4.903   2.736   1.998
 1825SOL     OW 6373   1.340   3.518   0.174
 1825SOL    HW1 6374   1.388   3.604   0.193
 1825SOL    HW2 6375   1.363   3.451   0.245
 1826SOL     OW 6376   3.620   2.907   0.811
 1826SOL    HW1 6377   3.683   2.893   0.887
 1826SOL    HW2 6378   3.630   2.831   0.746
 1827SOL     OW 6379   5.121   4.517   0.372
 1827SOL    HW1 6380   5.211   4.514   0.415
 1827SOL    HW2 6381   5.126   4.472   0.283
 1828SOL     OW 6382   2.672   4.966   4.788
 1828SOL    HW1 6383   2.691   5.058   4.824
 1828SOL    HW2 6384   2.610   4.973   4.710
 1829SOL     OW 6385   2.328   6.234   1.861
 1829SOL    HW1 6386   2.339   6.246   1.763
 1829SOL    HW2 6387   2.300   6.321   1.902
 1830SOL     OW 6388   4.279   1.344   6.511
 1830SOL    HW1 6389   4.195   1.296   6.535
 1830SOL    HW2 6390   4.303   1.409   6.584
 1831SOL     OW 6391   3.806   4.768   0.404
 1831SOL    HW1 6392   3.883   4.743   0.461
 1831SOL    HW2 6393   3.830   4.754   0.308
 1832SOL     OW 6394   2.041   3.637   5.703
 1832SOL    HW1 6395   2.058   3.733   5.680
 1832SOL    HW2 6396   2.114   3.581   5.666
 1833SOL     OW 6397   5.932   1.111   0.052
 1833SOL    HW1 6398   5.880   1.059   0.119
 1833SOL    HW2 6399   5.959   1.052   6.997
 1834SOL     OW 6400   1.781   3.698   6.156
 1834SOL    HW1 6401   1.789   3.797   6.146
 1834SOL    HW2 6402   1.705   3.665   6.100
 1835SOL     OW 6403   6.210   6.789   0.848
 1835SOL    HW1 6404   6.152   6.790   0.929
 1835SOL    HW2 6405   6.305   6.774   0.875
 1836SOL     OW 6406   6.079   2.176   3.928
 1836SOL    HW1 6407   6.017   2.193   3.851
 1836SOL    HW2 6408   6.070   2.080   3.956
 1837SOL     OW 6409   1.284   1.698   0.077
 1837SOL    HW1 6410   1.360   1.653   0.030
 1837SOL    HW2 6411   1.319   1.768   0.139
 1838SOL     OW 6412   4.828   0.547   0.576
 1838SOL    HW1 6413   4.906   0.529   0.517
 1838SOL    HW2 6414   4.843   0.505   0.666
 1839SOL     OW 6415   6.865   1.020   6.228
 1839SOL    HW1 6416   6.930   1.046   6.157
 1839SOL    HW2 6417   6.866   0.920   6.239
 1840SOL     OW 6418   3.104   7.010   5.286
 1840SOL    HW1 6419   3.078   7.003   5.190
 1840SOL    HW2 6420   3.127   0.085   5.307
 1841SOL     OW 6421   1.978   0.554   1.476
 1841SOL    HW1 6422   2.060   0.591   1.517
 1841SOL    HW2 6423   1.952   0.469   1.523
 1842SOL     OW 6424   6.892   5.147   1.204
 1842SOL    HW1 6425   6.822   5.086   1.167
 1842SOL    HW2 6426   6.849   5.232   1.234
 1843SOL     OW 6427   2.870   1.380   6.571
 1843SOL    HW1 6428   2.830   1.453   6.626
 1843SOL    HW2 6429   2.833   1.292   6.600
 1844SOL     OW 6430   5.110   3.213   0.819
 1844SOL    HW1 6431   5.036   3.277   0.801
 1844SOL    HW2 6432   5.196   3.252   0.787
 1845SOL     OW 6433   1.236   2.663   4.455
 1845SOL    HW1 6434   1.313   2.613   4.417
 1845SOL    HW2 6435   1.235   2.653   4.554
 1846SOL     OW 6436   3.750   1.665   2.274
 1846SOL    HW1 6437   3.779   1.681   2.368
 1846SOL    HW2 6438   3.694   1.742   2.243
 1847SOL     OW 6439   2.519   5.688   0.184
 1847SOL    HW1 6440   2.430   5.722   0.214
 1847SOL    HW2 6441   2.557   5.752   0.117
 1848SOL     OW 6442   3.737   6.210   4.029
 1848SOL    HW1 6443   3.697   6.265   3.956
 1848SOL    HW2 6444   3.784   6.270   4.093
 1849SOL     OW 6445   4.725   2.853   2.608
 1849SOL    HW1 6446   4.719   2.897   2.518
 1849SOL    HW2 6447   4.765   2.917   2.673
 1850SOL     OW 6448   4.358   1.720   0.961
 1850SOL    HW1 6449   4.286   1.654   0.982
 1850SOL    HW2 6450   4.324   1.812   0.977
 1851SOL     OW 6451   0.836   5.088   4.330
 1851SOL    HW1 6452   0.836   5.187   4.347
 1851SOL    HW2 6453   0.842   5.039   4.416
 1852SOL     OW 6454   0.306   6.819   3.441
 1852SOL    HW1 6455   0.398   6.789   3.418
 1852SOL    HW2 6456   0.297   6.825   3.541
 1853SOL     OW 6457   0.723   1.672   6.007
 1853SOL    HW1 6458   0.626   1.666   5.984
 1853SOL    HW2 6459   0.734   1.724   6.092
 1854SOL     OW 6460   0.451   0.041   4.450
 1854SOL    HW1 6461   0.405   0.084   4.527
 1854SOL    HW2 6462   0.543   0.013   4.477
 1855SOL     OW 6463   6.507   1.384   4.742
 1855SOL    HW1 6464   6.488   1.287   4.722
 1855SOL    HW2 6465   6.425   1.438   4.724
 1856SOL     OW 6466   4.899   4.202   6.544
 1856SOL    HW1 6467   4.971   4.191   6.474
 1856SOL    HW2 6468   4.816   4.156   6.513
 1857SOL     OW 6469   4.033   0.854   6.471
 1857SOL    HW1 6470   4.127   0.890   6.473
 1857SOL    HW2 6471   3.974   0.913   6.526
 1858SOL     OW 6472   5.488   1.882   5.026
 1858SOL    HW1 6473   5.516   1.792   5.060
 1858SOL    HW2 6474   5.389   1.894   5.039
 1859SOL     OW 6475   6.921   6.652   2.553
 1859SOL    HW1 6476   6.906   6.742   2.510
 1859SOL    HW2 6477   6.976   6.663   2.635
 1860SOL     OW 6478   2.486   1.164   6.550
 1860SOL    HW1 6479   2.393   1.130   6.543
 1860SOL    HW2 6480   2.550   1.087   6.550
 1861SOL     OW 6481   6.739   6.415   5.257
 1861SOL    HW1 6482   6.755   6.320   5.231
 1861SOL    HW2 6483   6.640   6.432   5.258
 1862SOL     OW 6484   3.613   5.758   5.947
 1862SOL    HW1 6485   3.712   5.748   5.950
 1862SOL    HW2 6486   3.570   5.669   5.961
 1863SOL     OW 6487   6.760   1.342   1.383
 1863SOL    HW1 6488   6.855   1.357   1.412
 1863SOL    HW2 6489   6.698   1.374   1.454
 1864SOL     OW 6490   2.168   6.610   2.526
 1864SOL    HW1 6491   2.129   6.576   2.612
 1864SOL    HW2 6492   2.097   6.608   2.455
 1865SOL     OW 6493   6.340   1.954   6.119
 1865SOL    HW1 6494   6.299   1.983   6.033
 1865SOL    HW2 6495   6.268   1.926   6.182
 1866SOL     OW 6496   6.407   4.410   4.435
 1866SOL    HW1 6497   6.499   4.432   4.464
 1866SOL    HW2 6498   6.410   4.355   4.351
 1867SOL     OW 6499   1.290   1.052   1.395
 1867SOL    HW1 6500   1.247   1.138   1.424
 1867SOL    HW2 6501   1.311   0.996   1.476
 1868SOL     OW 6502   4.995   3.843   5.783
 1868SOL    HW1 6503   4.919   3.907   5.768
 1868SOL    HW2 6504   4.996   3.814   5.878
 1869SOL     OW 6505   5.173   0.894   5.117
 1869SOL    HW1 6506   5.204   0.909   5.023
 1869SOL    HW2 6507   5.191   0.976   5.172
 1870SOL     OW 6508   6.234   0.269   6.028
 1870SOL    HW1 6509   6.228   0.290   6.126
 1870SOL    HW2 6510   6.259   0.173   6.017
 1871SOL     OW 6511   1.726   5.287   6.926
 1871SOL    HW1 6512   1.691   5.218   6.990
 1871SOL    HW2 6513   1.672   5.285   6.842
 1872SOL     OW 6514   2.452   3.372   0.837
 1872SOL    HW1 6515   2.413   3.341   0.923
 1872SOL    HW2 6516   2.549   3.395   0.850
 1873SOL     OW 6517   5.859   2.130   2.460
 1873SOL    HW1 6518   5.860   2.035   2.430
 1873SOL    HW2 6519   5.897   2.188   2.387
 1874SOL     OW 6520   1.954   5.817   6.280
 1874SOL    HW1 6521   2.035   5.837   6.336
 1874SOL    HW2 6522   1.886   5.890   6.292
 1875SOL     OW 6523   0.990   6.161   2.350
 1875SOL    HW1 6524   0.915   6.132   2.409
 1875SOL    HW2 6525   0.999   6.261   2.353
 1876SOL     OW 6526   0.817   4.713   0.265
 1876SOL    HW1 6527   0.821   4.692   0.168
 1876SOL    HW2 6528   0.903   4.687   0.309
 1877SOL     OW 6529   1.265   1.093   3.104
 1877SOL    HW1 6530   1.209   1.149   3.043
 1877SOL    HW2 6531   1.334   1.150   3.147
 1878SOL     OW 6532   5.490   3.816   4.233
 1878SOL    HW1 6533   5.575   3.805   4.285
 1878SOL    HW2 6534   5.421   3.859   4.291
 1879SOL     OW 6535   4.201   6.410   5.035
 1879SOL    HW1 6536   4.292   6.369   5.039
 1879SOL    HW2 6537   4.190   6.472   5.113
 1880SOL     OW 6538   1.288   2.943   4.403
 1880SOL    HW1 6539   1.269   2.846   4.416
 1880SOL    HW2 6540   1.332   2.980   4.485
 1881SOL     OW 6541   2.133   1.476   3.713
 1881SOL    HW1 6542   2.156   1.418   3.791
 1881SOL    HW2 6543   2.038   1.460   3.687
 1882SOL     OW 6544   3.771   5.620   0.776
 1882SOL    HW1 6545   3.736   5.607   0.869
 1882SOL    HW2 6546   3.798   5.715   0.764
 1883SOL     OW 6547   2.052   3.358   2.392
 1883SOL    HW1 6548   1.997   3.311   2.323
 1883SOL    HW2 6549   2.094   3.291   2.454
 1884SOL     OW 6550   5.121   0.676   0.098
 1884SOL    HW1 6551   5.136   0.578   0.113
 1884SOL    HW2 6552   5.196   0.728   0.138
 1885SOL     OW 6553   0.366   1.378   0.468
 1885SOL    HW1 6554   0.327   1.365   0.377
 1885SOL    HW2 6555   0.377   1.476   0.486
 1886SOL     OW 6556   3.187   2.990   5.487
 1886SOL    HW1 6557   3.195   2.932   5.406
 1886SOL    HW2 6558   3.224   3.080   5.466
 1887SOL     OW 6559   0.594   5.834   4.970
 1887SOL    HW1 6560   0.662   5.765   4.944
 1887SOL    HW2 6561   0.581   5.832   5.069
 1888SOL     OW 6562   1.922   1.502   6.200
 1888SOL    HW1 6563   1.966   1.553   6.273
 1888SOL    HW2 6564   1.990   1.477   6.131
 1889SOL     OW 6565   3.644   3.119   0.159
 1889SOL    HW1 6566   3.587   3.197   0.135
 1889SOL    HW2 6567   3.679   3.076   0.076
 1890SOL     OW 6568   6.368   5.872   6.170
 1890SOL    HW1 6569   6.369   5.935   6.092
 1890SOL    HW2 6570   6.302   5.799   6.153
 1891SOL     OW 6571   5.123   3.681   6.712
 1891SOL    HW1 6572   5.177   3.759   6.745
 1891SOL    HW2 6573   5.182   3.602   6.700
 1892SOL     OW 6574   4.688   0.238   3.167
 1892SOL    HW1 6575   4.734   0.272   3.249
 1892SOL    HW2 6576   4.638   0.313   3.124
 1893SOL     OW 6577   2.825   1.002   6.371
 1893SOL    HW1 6578   2.843   1.099   6.353
 1893SOL    HW2 6579   2.730   0.991   6.399
 1894SOL     OW 6580   5.058   3.059   0.498
 1894SOL    HW1 6581   5.008   3.126   0.443
 1894SOL    HW2 6582   5.154   3.087   0.506
 1895SOL     OW 6583   4.600   5.405   3.542
 1895SOL    HW1 6584   4.683   5.403   3.486
 1895SOL    HW2 6585   4.620   5.449   3.630
 1896SOL     OW 6586   6.812   1.702   4.856
 1896SOL    HW1 6587   6.764   1.790   4.855
 1896SOL    HW2 6588   6.782   1.646   4.779
 1897SOL     OW 6589   4.871   5.069   3.543
 1897SOL    HW1 6590   4.903   4.975   3.546
 1897SOL    HW2 6591   4.772   5.071   3.529
 1898SOL     OW 6592   5.579   6.166   6.813
 1898SOL    HW1 6593   5.567   6.242   6.877
 1898SOL    HW2 6594   5.610   6.202   6.724
 1899SOL     OW 6595   2.414   2.792   3.519
 1899SOL    HW1 6596   2.348   2.802   3.444
 1899SOL    HW2 6597   2.408   2.871   3.580
 1900SOL     OW 6598   2.439   5.578   1.874
 1900SOL    HW1 6599   2.481   5.501   1.827
 1900SOL    HW2 6600   2.477   5.664   1.839
 1901SOL     OW 6601   1.533   0.805   5.560
 1901SOL    HW1 6602   1.560   0.747   5.484
 1901SOL    HW2 6603   1.556   0.900   5.539
 1902SOL     OW 6604   0.955   2.905   4.085
 1902SOL    HW1 6605   1.040   2.957   4.095
 1902SOL    HW2 6606   0.882   2.950   4.137
 1903SOL     OW 6607   6.390   4.675   3.909
 1903SOL    HW1 6608   6.471   4.700   3.856
 1903SOL    HW2 6609   6.308   4.711   3.864
 1904SOL     OW 6610   0.813   0.574   3.877
 1904SOL    HW1 6611   0.834   0.597   3.972
 1904SOL    HW2 6612   0.855   0.641   3.816
 1905SOL     OW 6613   6.171   2.956   5.364
 1905SOL    HW1 6614   6.072   2.964   5.359
 1905SOL    HW2 6615   6.213   3.038   5.324
 1906SOL     OW 6616   2.209   6.904   5.428
 1906SOL    HW1 6617   2.191   6.813   5.392
 1906SOL    HW2 6618   2.155   6.919   5.511
 1907SOL     OW 6619   4.260   6.786   2.913
 1907SOL    HW1 6620   4.199   6.717   2.874
 1907SOL    HW2 6621   4.209   6.870   2.931
 1908SOL     OW 6622   4.904   5.519   0.840
 1908SOL    HW1 6623   4.853   5.441   0.876
 1908SOL    HW2 6624   5.002   5.497   0.840
 1909SOL     OW 6625   5.465   5.292   3.522
 1909SOL    HW1 6626   5.400   5.220   3.497
 1909SOL    HW2 6627   5.468   5.300   3.622
 1910SOL     OW 6628   4.867   3.594   4.438
 1910SOL    HW1 6629   4.860   3.528   4.512
 1910SOL    HW2 6630   4.851   3.548   4.350
 1911SOL     OW 6631   0.807   2.198   5.814
 1911SOL    HW1 6632   0.765   2.268   5.871
 1911SOL    HW2 6633   0.859   2.135   5.871
 1912SOL     OW 6634   3.510   6.489   3.004
 1912SOL    HW1 6635   3.413   6.507   3.016
 1912SOL    HW2 6636   3.521   6.405   2.950
 1913SOL     OW 6637   2.726   3.914   5.870
 1913SOL    HW1 6638   2.642   3.872   5.904
 1913SOL    HW2 6639   2.717   4.013   5.871
 1914SOL     OW 6640   4.418   1.582   4.918
 1914SOL    HW1 6641   4.334   1.597   4.971
 1914SOL    HW2 6642   4.399   1.516   4.845
 1915SOL     OW 6643   2.960   6.890   5.635
 1915SOL    HW1 6644   3.022   6.871   5.559
 1915SOL    HW2 6645   2.991   6.971   5.684
 1916SOL     OW 6646   3.260   6.072   2.650
 1916SOL    HW1 6647   3.312   5.987   2.649
 1916SOL    HW2 6648   3.268   6.114   2.740
 1917SOL     OW 6649   3.797   3.831   3.989
 1917SOL    HW1 6650   3.742   3.824   4.071
 1917SOL    HW2 6651   3.773   3.915   3.940
 1918SOL     OW 6652   0.205   6.604   5.395
 1918SOL    HW1 6653   0.280   6.583   5.332
 1918SOL    HW2 6654   0.164   6.692   5.369
 1919SOL     OW 6655   6.137   0.866   2.487
 1919SOL    HW1 6656   6.229   0.870   2.526
 1919SOL    HW2 6657   6.142   0.836   2.392
 1920SOL     OW 6658   6.493   6.436   4.920
 1920SOL    HW1 6659   6.437   6.454   5.000
 1920SOL    HW2 6660   6.590   6.451   4.943
 1921SOL     OW 6661   2.436   6.485   0.040
 1921SOL    HW1 6662   2.437   6.577   0.078
 1921SOL    HW2 6663   2.400   6.488   6.967
 1922SOL     OW 6664   3.814   4.166   0.465
 1922SOL    HW1 6665   3.755   4.086   0.449
 1922SOL    HW2 6666   3.759   4.242   0.500
 1923SOL     OW 6667   1.357   3.070   0.961
 1923SOL    HW1 6668   1.400   2.986   0.995
 1923SOL    HW2 6669   1.408   3.149   0.993
 1924SOL     OW 6670   0.430   3.620   1.017
 1924SOL    HW1 6671   0.496   3.655   1.083
 1924SOL    HW2 6672   0.472   3.547   0.963
 1925SOL     OW 6673   3.207   4.310   0.043
 1925SOL    HW1 6674   3.235   4.257   0.123
 1925SOL    HW2 6675   3.284   4.318   7.000
 1926SOL     OW 6676   0.644   1.004   3.934
 1926SOL    HW1 6677   0.564   0.973   3.986
 1926SOL    HW2 6678   0.691   1.075   3.986
 1927SOL     OW 6679   5.288   3.144   1.378
 1927SOL    HW1 6680   5.379   3.102   1.379
 1927SOL    HW2 6681   5.223   3.082   1.335
 1928SOL     OW 6682   0.460   5.408   4.335
 1928SOL    HW1 6683   0.502   5.356   4.409
 1928SOL    HW2 6684   0.461   5.354   4.251
 1929SOL     OW 6685   1.038   5.535   3.246
 1929SOL    HW1 6686   1.108   5.465   3.257
 1929SOL    HW2 6687   0.975   5.509   3.172
 1930SOL     OW 6688   6.913   5.340   6.037
 1930SOL    HW1 6689   6.832   5.373   6.085
 1930SOL    HW2 6690   6.922   5.241   6.051
 1931SOL     OW 6691   1.081   1.954   4.282
 1931SOL    HW1 6692   1.032   1.868   4.264
 1931SOL    HW2 6693   1.063   1.982   4.377
 1932SOL     OW 6694   6.061   3.612   2.941
 1932SOL    HW1 6695   6.033   3.708   2.936
 1932SOL    HW2 6696   6.026   3.571   3.025
 1933SOL     OW 6697   3.025   5.068   0.403
 1933SOL    HW1 6698   3.097   5.006   0.434
 1933SOL    HW2 6699   2.963   5.019   0.343
 1934SOL     OW 6700   0.031   5.835   3.075
 1934SOL    HW1 6701   7.019   5.914   3.023
 1934SOL    HW2 6702   0.129   5.822   3.058
 1935SOL     OW 6703   1.537   1.201   3.216
 1935SOL    HW1 6704   1.544   1.274   3.148
 1935SOL    HW2 6705   1.610   1.134   3.201
 1936SOL     OW 6706   0.163   6.184   4.881
 1936SOL    HW1 6707   0.077   6.148   4.845
 1936SOL    HW2 6708   0.217   6.109   4.919
 1937SOL     OW 6709   4.186   1.360   2.895
 1937SOL    HW1 6710   4.254   1.297   2.933
 1937SOL    HW2 6711   4.154   1.422   2.967
 1938SOL     OW 6712   5.967   6.943   4.649
 1938SOL    HW1 6713   5.946   6.865   4.590
 1938SOL    HW2 6714   5.881   6.989   4.674
 1939SOL     OW 6715   3.178   0.467   4.369
 1939SOL    HW1 6716   3.260   0.454   4.425
 1939SOL    HW2 6717   3.134   0.378   4.355
 1940SOL     OW 6718   6.494   6.369   6.696
 1940SOL    HW1 6719   6.455   6.349   6.785
 1940SOL    HW2 6720   6.497   6.286   6.641
 1941SOL     OW 6721   4.516   5.366   2.204
 1941SOL    HW1 6722   4.473   5.437   2.149
 1941SOL    HW2 6723   4.511   5.278   2.156
 1942SOL     OW 6724   0.423   3.582   2.854
 1942SOL    HW1 6725   0.465   3.498   2.820
 1942SOL    HW2 6726   0.324   3.577   2.843
 1943SOL     OW 6727   2.969   5.959   3.342
 1943SOL    HW1 6728   3.031   6.032   3.369
 1943SOL    HW2 6729   2.903   5.994   3.275
 1944SOL     OW 6730   0.256   6.648   1.613
 1944SOL    HW1 6731   0.223   6.649   1.707
 1944SOL    HW2 6732   0.347   6.608   1.610
 1945SOL     OW 6733   3.184   4.882   3.020
 1945SOL    HW1 6734   3.227   4.850   3.105
 1945SOL    HW2 6735   3.252   4.886   2.948
 1946SOL     OW 6736   1.565   6.786   6.779
 1946SOL    HW1 6737   1.566   6.885   6.793
 1946SOL    HW2 6738   1.471   6.757   6.759
 1947SOL     OW 6739   4.793   7.004   3.042
 1947SOL    HW1 6740   4.733   6.973   2.969
 1947SOL    HW2 6741   4.758   0.068   3.081
 1948SOL     OW 6742   6.125   3.587   5.305
 1948SOL    HW1 6743   6.074   3.521   5.251
 1948SOL    HW2 6744   6.197   3.628   5.249
 1949SOL     OW 6745   4.305   4.231   6.708
 1949SOL    HW1 6746   4.208   4.243   6.730
 1949SOL    HW2 6747   4.357   4.217   6.792
 1950SOL     OW 6748   3.515   5.290   0.813
 1950SOL    HW1 6749   3.582   5.241   0.869
 1950SOL    HW2 6750   3.515   5.386   0.838
 1951SOL     OW 6751   6.333   2.184   0.458
 1951SOL    HW1 6752   6.236   2.186   0.481
 1951SOL    HW2 6753   6.371   2.276   0.467
 1952SOL     OW 6754   3.501   2.873   4.551
 1952SOL    HW1 6755   3.461   2.909   4.466
 1952SOL    HW2 6756   3.493   2.774   4.552
 1953SOL     OW 6757   0.504   2.838   4.505
 1953SOL    HW1 6758   0.482   2.749   4.547
 1953SOL    HW2 6759   0.550   2.896   4.573
 1954SOL     OW 6760   2.337   1.780   4.164
 1954SOL    HW1 6761   2.384   1.694   4.144
 1954SOL    HW2 6762   2.259   1.763   4.223
 1955SOL     OW 6763   5.888   5.828   2.092
 1955SOL    HW1 6764   5.832   5.766   2.146
 1955SOL    HW2 6765   5.836   5.858   2.011
 1956SOL     OW 6766   5.088   6.294   2.736
 1956SOL    HW1 6767   5.166   6.247   2.695
 1956SOL    HW2 6768   5.093   6.286   2.836
 1957SOL     OW 6769   1.699   6.345   4.582
 1957SOL    HW1 6770   1.607   6.349   4.622
 1957SOL    HW2 6771   1.693   6.362   4.484
 1958SOL     OW 6772   3.819   3.785   5.736
 1958SOL    HW1 6773   3.790   3.754   5.826
 1958SOL    HW2 6774   3.800   3.882   5.726
 1959SOL     OW 6775   2.300   0.813   0.432
 1959SOL    HW1 6776   2.347   0.776   0.352
 1959SOL    HW2 6777   2.362   0.814   0.510
 1960SOL     OW 6778   5.248   5.680   2.987
 1960SOL    HW1 6779   5.270   5.673   3.084
 1960SOL    HW2 6780   5.153   5.708   2.976
 1961SOL     OW 6781   5.645   5.191   5.386
 1961SOL    HW1 6782   5.707   5.160   5.314
 1961SOL    HW2 6783   5.551   5.189   5.353
 1962SOL     OW 6784   0.048   6.533   3.885
 1962SOL    HW1 6785   6.988   6.501   3.835
 1962SOL    HW2 6786   0.130   6.509   3.834
 1963SOL     OW 6787   1.968   0.849   3.674
 1963SOL    HW1 6788   2.027   0.927   3.695
 1963SOL    HW2 6789   2.023   0.775   3.636
 1964SOL     OW 6790   6.095   3.248   2.724
 1964SOL    HW1 6791   6.190   3.261   2.749
 1964SOL    HW2 6792   6.046   3.335   2.736
 1965SOL     OW 6793   2.051   6.773   3.190
 1965SOL    HW1 6794   2.022   6.833   3.264
 1965SOL    HW2 6795   1.977   6.709   3.168
 1966SOL     OW 6796   6.401   0.277   6.724
 1966SOL    HW1 6797   6.338   0.208   6.762
 1966SOL    HW2 6798   6.491   0.265   6.765
 1967SOL     OW 6799   5.700   3.672   4.970
 1967SOL    HW1 6800   5.768   3.745   4.980
 1967SOL    HW2 6801   5.614   3.701   5.011
 1968SOL     OW 6802   4.028   5.234   4.862
 1968SOL    HW1 6803   4.026   5.269   4.768
 1968SOL    HW2 6804   4.002   5.138   4.862
 1969SOL     OW 6805   6.583   1.446   1.587
 1969SOL    HW1 6806   6.582   1.400   1.676
 1969SOL    HW2 6807   6.550   1.540   1.598
 1970SOL     OW 6808   1.585   0.610   3.633
 1970SOL    HW1 6809   1.506   0.665   3.605
 1970SOL    HW2 6810   1.637   0.660   3.703
 1971SOL     OW 6811   0.399   1.808   6.365
 1971SOL    HW1 6812   0.441   1.891   6.400
 1971SOL    HW2 6813   0.304   1.803   6.394
 1972SOL     OW 6814   1.548   0.348   3.691
 1972SOL    HW1 6815   1.537   0.347   3.790
 1972SOL    HW2 6816   1.578   0.439   3.661
 1973SOL     OW 6817   2.454   3.410   0.287
 1973SOL    HW1 6818   2.541   3.434   0.244
 1973SOL    HW2 6819   2.471   3.373   0.378
 1974SOL     OW 6820   5.945   6.718   4.501
 1974SOL    HW1 6821   6.043   6.717   4.482
 1974SOL    HW2 6822   5.895   6.710   4.415
 1975SOL     OW 6823   2.711   0.309   3.050
 1975SOL    HW1 6824   2.763   0.223   3.050
 1975SOL    HW2 6825   2.720   0.352   3.140
 1976SOL     OW 6826   6.520   3.945   6.408
 1976SOL    HW1 6827   6.614   3.980   6.406
 1976SOL    HW2 6828   6.490   3.924   6.315
 1977SOL     OW 6829   3.373   2.356   5.394
 1977SOL    HW1 6830   3.346   2.396   5.307
 1977SOL    HW2 6831   3.294   2.308   5.434
 1978SOL     OW 6832   6.837   2.506   5.036
 1978SOL    HW1 6833   6.807   2.593   4.998
 1978SOL    HW2 6834   6.937   2.508   5.050
 1979SOL     OW 6835   6.276   4.100   2.348
 1979SOL    HW1 6836   6.290   4.120   2.444
 1979SOL    HW2 6837   6.359   4.059   2.310
 1980SOL     OW 6838   2.741   0.924   2.294
 1980SOL    HW1 6839   2.687   0.933   2.210
 1980SOL    HW2 6840   2.725   0.834   2.335
 1981SOL     OW 6841   5.060   2.924   1.990
 1981SOL    HW1 6842   5.001   3.001   2.012
 1981SOL    HW2 6843   5.133   2.918   2.058
 1982SOL     OW 6844   6.985   6.947   5.123
 1982SOL    HW1 6845   6.897   6.936   5.170
 1982SOL    HW2 6846   6.999   6.870   5.061
 1983SOL     OW 6847   0.477   4.662   2.390
 1983SOL    HW1 6848   0.428   4.705   2.467
 1983SOL    HW2 6849   0.474   4.563   2.400
 1984SOL     OW 6850   4.968   0.568   4.977
 1984SOL    HW1 6851   4.944   0.516   5.059
 1984SOL    HW2 6852   4.935   0.662   4.985
 1985SOL     OW 6853   1.460   6.071   1.107
 1985SOL    HW1 6854   1.490   5.988   1.154
 1985SOL    HW2 6855   1.388   6.116   1.160
 1986SOL     OW 6856   6.947   2.563   0.341
 1986SOL    HW1 6857   0.013   2.515   0.334
 1986SOL    HW2 6858   6.895   2.550   0.256
 1987SOL     OW 6859   2.411   4.182   6.542
 1987SOL    HW1 6860   2.424   4.174   6.443
 1987SOL    HW2 6861   2.494   4.217   6.584
 1988SOL     OW 6862   4.646   3.120   0.307
 1988SOL    HW1 6863   4.669   3.199   0.250
 1988SOL    HW2 6864   4.569   3.143   0.366
 1989SOL     OW 6865   1.974   2.243   4.153
 1989SOL    HW1 6866   2.059   2.196   4.131
 1989SOL    HW2 6867   1.948   2.303   4.077
 1990SOL     OW 6868   1.648   0.537   3.133
 1990SOL    HW1 6869   1.715   0.590   3.186
 1990SOL    HW2 6870   1.559   0.540   3.179
 1991SOL     OW 6871   4.831   6.286   2.638
 1991SOL    HW1 6872   4.763   6.314   2.705
 1991SOL    HW2 6873   4.919   6.271   2.684
 1992SOL     OW 6874   2.391   6.106   5.569
 1992SOL    HW1 6875   2.486   6.100   5.537
 1992SOL    HW2 6876   2.388   6.159   5.654
 1993SOL     OW 6877   3.028   3.379   4.250
 1993SOL    HW1 6878   2.976   3.464   4.256
 1993SOL    HW2 6879   3.027   3.333   4.339
 1994SOL     OW 6880   6.536   2.403   2.173
 1994SOL    HW1 6881   6.538   2.484   2.114
 1994SOL    HW2 6882   6.629   2.382   2.203
 1995SOL     OW 6883   3.772   2.285   1.368
 1995SOL    HW1 6884   3.797   2.229   1.448
 1995SOL    HW2 6885   3.815   2.375   1.376
 1996SOL     OW 6886   2.719   4.335   5.310
 1996SOL    HW1 6887   2.650   4.319   5.238
 1996SOL    HW2 6888   2.791   4.395   5.274
 1997SOL     OW 6889   5.681   6.329   3.454
 1997SOL    HW1 6890   5.596   6.351   3.406
 1997SOL    HW2 6891   5.661   6.305   3.549
 1998SOL     OW 6892   3.435   4.990   5.280
 1998SOL    HW1 6893   3.359   4.937   5.243
 1998SOL    HW2 6894   3.507   4.997   5.211
 1999SOL     OW 6895   2.344   1.628   1.860
 1999SOL    HW1 6896   2.294   1.568   1.922
 1999SOL    HW2 6897   2.436   1.643   1.896
 2000SOL     OW 6898   3.111   0.982   5.188
 2000SOL    HW1 6899   3.038   0.975   5.255
 2000SOL    HW2 6900   3.074   0.969   5.096
 2001SOL     OW 6901   2.276   2.982   0.342
 2001SOL    HW1 6902   2.206   3.051   0.324
 2001SOL    HW2 6903   2.247   2.925   0.419
 2002SOL     OW 6904   1.242   5.389   4.945
 2002SOL    HW1 6905   1.320   5.445   4.921
 2002SOL    HW2 6906   1.257   5.295   4.913
 2003SOL     OW 6907   6.671   4.263   3.301
 2003SOL    HW1 6908   6.691   4.222   3.212
 2003SOL    HW2 6909   6.612   4.343   3.289
 2004SOL     OW 6910   3.436   6.935   6.483
 2004SOL    HW1 6911   3.348   6.983   6.474
 2004SOL    HW2 6912   3.433   6.872   6.560
 2005SOL     OW 6913   2.794   6.528   5.357
 2005SOL    HW1 6914   2.822   6.615   5.317
 2005SOL    HW2 6915   2.845   6.512   5.442
 2006SOL     OW 6916   4.929   6.382   3.340
 2006SOL    HW1 6917   4.866   6.311   3.308
 2006SOL    HW2 6918   4.951   6.444   3.265
 2007SOL     OW 6919   6.503   5.630   6.834
 2007SOL    HW1 6920   6.475   5.534   6.827
 2007SOL    HW2 6921   6.602   5.636   6.820
 2008SOL     OW 6922   0.275   6.089   5.618
 2008SOL    HW1 6923   0.249   5.999   5.654
 2008SOL    HW2 6924   0.194   6.137   5.586
 2009SOL     OW 6925   1.154   0.082   6.735
 2009SOL    HW1 6926   1.135   0.011   6.804
 2009SOL    HW2 6927   1.078   0.147   6.732
 2010SOL     OW 6928   2.035   0.946   1.115
 2010SOL    HW1 6929   1.995   0.866   1.160
 2010SOL    HW2 6930   2.056   0.924   1.020
 2011SOL     OW 6931   0.295   2.164   4.911
 2011SOL    HW1 6932   0.331   2.243   4.861
 2011SOL    HW2 6933   0.237   2.110   4.850
 2012SOL     OW 6934   6.668   2.782   1.057
 2012SOL    HW1 6935   6.722   2.864   1.074
 2012SOL    HW2 6936   6.718   2.721   0.997
 2013SOL     OW 6937   4.215   2.303   1.940
 2013SOL    HW1 6938   4.289   2.250   1.982
 2013SOL    HW2 6939   4.128   2.278   1.982
 2014SOL     OW 6940   3.320   6.000   3.413
 2014SOL    HW1 6941   3.302   5.946   3.331
 2014SOL    HW2 6942   3.392   5.956   3.467
 2015SOL     OW 6943   3.306   6.531   0.547
 2015SOL    HW1 6944   3.393   6.548   0.499
 2015SOL    HW2 6945   3.242   6.485   0.485
 2016SOL     OW 6946   6.155   5.965   4.178
 2016SOL    HW1 6947   6.234   6.025   4.190
 2016SOL    HW2 6948   6.184   5.883   4.129
 2017SOL     OW 6949   2.308   4.955   2.213
 2017SOL    HW1 6950   2.363   4.880   2.249
 2017SOL    HW2 6951   2.366   5.036   2.201
 2018SOL     OW 6952   0.808   3.746   6.063
 2018SOL    HW1 6953   0.750   3.676   6.021
 2018SOL    HW2 6954   0.766   3.835   6.050
 2019SOL     OW 6955   5.524   1.456   2.627
 2019SOL    HW1 6956   5.582   1.404   2.565
 2019SOL    HW2 6957   5.555   1.444   2.721
 2020SOL     OW 6958   1.983   5.479   3.107
 2020SOL    HW1 6959   1.891   5.450   3.082
 2020SOL    HW2 6960   2.014   5.549   3.043
 2021SOL     OW 6961   2.163   6.995   1.932
 2021SOL    HW1 6962   2.259   7.002   1.960
 2021SOL    HW2 6963   2.150   0.020   1.845
 2022SOL     OW 6964   2.936   5.229   1.078
 2022SOL    HW1 6965   3.005   5.203   1.145
 2022SOL    HW2 6966   2.846   5.229   1.121
 2023SOL     OW 6967   6.285   1.589   6.074
 2023SOL    HW1 6968   6.370   1.609   6.025
 2023SOL    HW2 6969   6.209   1.632   6.026
 2024SOL     OW 6970   6.063   0.422   3.030
 2024SOL    HW1 6971   6.127   0.347   3.017
 2024SOL    HW2 6972   5.990   0.417   2.961
 2025SOL     OW 6973   6.154   0.684   1.065
 2025SOL    HW1 6974   6.214   0.751   1.021
 2025SOL    HW2 6975   6.210   0.614   1.110
 2026SOL     OW 6976   1.985   1.812   4.950
 2026SOL    HW1 6977   1.933   1.875   4.892
 2026SOL    HW2 6978   1.929   1.731   4.970
 2027SOL     OW 6979   0.087   0.921   2.185
 2027SOL    HW1 6980   0.054   1.013   2.208
 2027SOL    HW2 6981   0.024   0.853   2.221
 2028SOL     OW 6982   3.625   4.166   5.934
 2028SOL    HW1 6983   3.557   4.160   5.861
 2028SOL    HW2 6984   3.579   4.186   6.021
 2029SOL     OW 6985   1.835   0.425   0.475
 2029SOL    HW1 6986   1.769   0.454   0.545
 2029SOL    HW2 6987   1.918   0.480   0.484
 2030SOL     OW 6988   1.813   2.722   3.014
 2030SOL    HW1 6989   1.819   2.627   2.982
 2030SOL    HW2 6990   1.905   2.760   3.022
 2031SOL     OW 6991   5.780   0.174   2.957
 2031SOL    HW1 6992   5.756   0.205   3.049
 2031SOL    HW2 6993   5.810   0.078   2.960
 2032SOL     OW 6994   4.494   6.514   1.864
 2032SOL    HW1 6995   4.461   6.598   1.908
 2032SOL    HW2 6996   4.495   6.440   1.931
 2033SOL     OW 6997   6.923   5.007   6.901
 2033SOL    HW1 6998   6.880   4.920   6.878
 2033SOL    HW2 6999   0.001   5.001   6.889
 2034SOL     OW 7000   2.302   6.357   3.556
 2034SOL    HW1 7001   2.344   6.434   3.509
 2034SOL    HW2 7002   2.219   6.387   3.603
 2035SOL     OW 7003   0.293   2.033   2.183
 2035SOL    HW1 7004   0.299   2.090   2.101
 2035SOL    HW2 7005   0.349   2.072   2.255
 2036SOL     OW 7006   0.743   4.658   0.702
 2036SOL    HW1 7007   0.841   4.662   0.719
 2036SOL    HW2 7008   0.696   4.635   0.787
 2037SOL     OW 7009   0.391   1.824   6.953
 2037SOL    HW1 7010   0.298   1.844   6.920
 2037SOL    HW2 7011   0.385   1.782   0.023
 2038SOL     OW 7012   1.067   0.017   4.726
 2038SOL    HW1 7013   0.996   6.970   4.742
 2038SOL    HW2 7014   1.037   0.081   4.655
 2039SOL     OW 7015   1.375   5.433   1.926
 2039SOL    HW1 7016   1.298   5.491   1.898
 2039SOL    HW2 7017   1.349   5.337   1.917
 2040SOL     OW 7018   3.759   4.060   4.298
 2040SOL    HW1 7019   3.750   4.107   4.386
 2040SOL    HW2 7020   3.855   4.038   4.282
 2041SOL     OW 7021   5.689   3.153   6.847
 2041SOL    HW1 7022   5.726   3.061   6.858
 2041SOL    HW2 7023   5.738   3.216   6.907
 2042SOL     OW 7024   3.203   5.957   0.409
 2042SOL    HW1 7025   3.253   5.875   0.436
 2042SOL    HW2 7026   3.263   6.017   0.356
 2043SOL     OW 7027   4.524   5.230   2.562
 2043SOL    HW1 7028   4.621   5.210   2.572
 2043SOL    HW2 7029   4.472   5.174   2.626
 2044SOL     OW 7030   6.574   0.989   2.076
 2044SOL    HW1 7031   6.528   0.902   2.062
 2044SOL    HW2 7032   6.654   0.995   2.017
 2045SOL     OW 7033   2.862   6.356   6.408
 2045SOL    HW1 7034   2.869   6.266   6.366
 2045SOL    HW2 7035   2.876   6.427   6.339
 2046SOL     OW 7036   6.352   6.999   5.462
 2046SOL    HW1 7037   6.333   0.050   5.528
 2046SOL    HW2 7038   6.447   7.007   5.430
 2047SOL     OW 7039   4.981   2.564   0.088
 2047SOL    HW1 7040   4.951   2.580   7.015
 2047SOL    HW2 7041   4.936   2.631   0.148
 2048SOL     OW 7042   4.926   6.206   5.688
 2048SOL    HW1 7043   4.873   6.226   5.606
 2048SOL    HW2 7044   4.908   6.277   5.757
 2049SOL     OW 7045   5.082   5.949   0.148
 2049SOL    HW1 7046   5.040   5.982   0.232
 2049SOL    HW2 7047   5.011   5.922   0.083
 2050SOL     OW 7048   5.542   0.412   4.089
 2050SOL    HW1 7049   5.561   0.506   4.060
 2050SOL    HW2 7050   5.487   0.413   4.172
 2051SOL     OW 7051   3.025   5.186   0.818
 2051SOL    HW1 7052   2.952   5.187   0.750
 2051SOL    HW2 7053   2.986   5.184   0.910
 2052SOL     OW 7054   1.271   3.057   0.475
 2052SOL    HW1 7055   1.357   3.016   0.503
 2052SOL    HW2 7056   1.206   3.056   0.551
 2053SOL     OW 7057   5.195   1.615   0.675
 2053SOL    HW1 7058   5.113   1.600   0.731
 2053SOL    HW2 7059   5.274   1.629   0.735
 2054SOL     OW 7060   0.052   3.651   1.501
 2054SOL    HW1 7061   0.026   3.691   1.589
 2054SOL    HW2 7062   0.150   3.628   1.502
 2055SOL     OW 7063   6.411   1.702   3.954
 2055SOL    HW1 7064   6.410   1.787   4.009
 2055SOL    HW2 7065   6.411   1.726   3.857
 2056SOL     OW 7066   1.288   0.089   2.209
 2056SOL    HW1 7067   1.204   0.133   2.176
 2056SOL    HW2 7068   1.269   0.040   2.294
 2057SOL     OW 7069   5.543   2.584   4.513
 2057SOL    HW1 7070   5.534   2.506   4.576
 2057SOL    HW2 7071   5.595   2.656   4.558
 2058SOL     OW 7072   0.261   1.533   1.761
 2058SOL    HW1 7073   0.312   1.616   1.737
 2058SOL    HW2 7074   0.313   1.452   1.734
 2059SOL     OW 7075   1.435   0.584   6.359
 2059SOL    HW1 7076   1.404   0.559   6.267
 2059SOL    HW2 7077   1.525   0.544   6.376
 2060SOL     OW 7078   0.034   5.402   2.107
 2060SOL    HW1 7079   0.133   5.405   2.094
 2060SOL    HW2 7080   0.010   5.452   2.189
 2061SOL     OW 7081   1.045   0.941   1.317
 2061SOL    HW1 7082   1.118   1.008   1.305
 2061SOL    HW2 7083   0.981   0.947   1.240
 2062SOL     OW 7084   3.948   0.307   4.081
 2062SOL    HW1 7085   3.959   0.395   4.126
 2062SOL    HW2 7086   4.023   0.246   4.108
 2063SOL     OW 7087   2.034   1.916   0.462
 2063SOL    HW1 7088   2.088   1.841   0.423
 2063SOL    HW2 7089   2.087   1.960   0.534
 2064SOL     OW 7090   1.309   1.823   0.325
 2064SOL    HW1 7091   1.263   1.888   0.385
 2064SOL    HW2 7092   1.404   1.812   0.356
 2065SOL     OW 7093   6.757   3.906   2.700
 2065SOL    HW1 7094   6.666   3.947   2.706
 2065SOL    HW2 7095   6.817   3.948   2.769
 2066SOL     OW 7096   1.236   6.661   2.919
 2066SOL    HW1 7097   1.250   6.660   2.820
 2066SOL    HW2 7098   1.312   6.613   2.963
 2067SOL     OW 7099   0.226   6.906   0.643
 2067SOL    HW1 7100   0.278   6.931   0.725
 2067SOL    HW2 7101   0.218   6.807   0.638
 2068SOL     OW 7102   1.996   1.526   5.304
 2068SOL    HW1 7103   1.972   1.540   5.400
 2068SOL    HW2 7104   1.920   1.483   5.256
 2069SOL     OW 7105   1.168   2.169   1.542
 2069SOL    HW1 7106   1.260   2.175   1.580
 2069SOL    HW2 7107   1.129   2.079   1.562
 2070SOL     OW 7108   0.713   1.096   2.623
 2070SOL    HW1 7109   0.800   1.133   2.588
 2070SOL    HW2 7110   0.637   1.148   2.584
 2071SOL     OW 7111   2.361   6.061   5.275
 2071SOL    HW1 7112   2.401   6.062   5.367
 2071SOL    HW2 7113   2.423   6.014   5.213
 2072SOL     OW 7114   5.022   4.840   2.117
 2072SOL    HW1 7115   5.106   4.890   2.137
 2072SOL    HW2 7116   5.043   4.757   2.065
 2073SOL     OW 7117   2.923   6.466   5.067
 2073SOL    HW1 7118   2.905   6.562   5.049
 2073SOL    HW2 7119   2.959   6.422   4.984
 2074SOL     OW 7120   6.319   2.618   2.763
 2074SOL    HW1 7121   6.367   2.645   2.679
 2074SOL    HW2 7122   6.291   2.522   2.755
 2075SOL     OW 7123   3.383   3.544   5.934
 2075SOL    HW1 7124   3.423   3.469   5.987
 2075SOL    HW2 7125   3.344   3.507   5.849
 2076SOL     OW 7126   5.218   0.307   1.126
 2076SOL    HW1 7127   5.168   0.228   1.091
 2076SOL    HW2 7128   5.198   0.387   1.069
 2077SOL     OW 7129   4.941   1.382   3.714
 2077SOL    HW1 7130   5.016   1.330   3.672
 2077SOL    HW2 7131   4.927   1.350   3.808
 2078SOL     OW 7132   3.965   5.465   4.985
 2078SOL    HW1 7133   4.011   5.528   4.922
 2078SOL    HW2 7134   3.991   5.371   4.963
 2079SOL     OW 7135   5.707   0.449   3.698
 2079SOL    HW1 7136   5.657   0.375   3.743
 2079SOL    HW2 7137   5.773   0.488   3.761
 2080SOL     OW 7138   2.985   1.684   4.159
 2080SOL    HW1 7139   3.031   1.719   4.078
 2080SOL    HW2 7140   2.925   1.608   4.133
 2081SOL     OW 7141   1.445   6.374   4.135
 2081SOL    HW1 7142   1.429   6.407   4.041
 2081SOL    HW2 7143   1.384   6.296   4.153
 2082SOL     OW 7144   4.766   0.553   2.024
 2082SOL    HW1 7145   4.847   0.562   1.965
 2082SOL    HW2 7146   4.729   0.460   2.016
 2083SOL     OW 7147   4.004   4.578   5.782
 2083SOL    HW1 7148   4.013   4.495   5.727
 2083SOL    HW2 7149   3.930   4.566   5.848
 2084SOL     OW 7150   6.719   2.084   2.648
 2084SOL    HW1 7151   6.796   2.033   2.610
 2084SOL    HW2 7152   6.646   2.089   2.580
 2085SOL     OW 7153   5.738   5.968   6.438
 2085SOL    HW1 7154   5.770   5.898   6.375
 2085SOL    HW2 7155   5.779   5.954   6.528
 2086SOL     OW 7156   3.746   5.371   0.346
 2086SOL    HW1 7157   3.732   5.338   0.253
 2086SOL    HW2 7158   3.695   5.313   0.410
 2087SOL     OW 7159   6.162   5.845   3.667
 2087SOL    HW1 7160   6.073   5.840   3.623
 2087SOL    HW2 7161   6.218   5.767   3.639
 2088SOL     OW 7162   2.345   0.003   1.274
 2088SOL    HW1 7163   2.320   0.099   1.266
 2088SOL    HW2 7164   2.338   6.980   1.184
 2089SOL     OW 7165   2.767   0.889   0.217
 2089SOL    HW1 7166   2.856   0.851   0.246
 2089SOL    HW2 7167   2.782   0.960   0.149
 2090SOL     OW 7168   2.975   3.284   3.786
 2090SOL    HW1 7169   2.944   3.296   3.692
 2090SOL    HW2 7170   3.035   3.204   3.792
 2091SOL     OW 7171   2.455   4.930   0.808
 2091SOL    HW1 7172   2.404   5.016   0.801
 2091SOL    HW2 7173   2.426   4.868   0.736
 2092SOL     OW 7174   7.021   5.978   1.068
 2092SOL    HW1 7175   0.079   5.921   1.090
 2092SOL    HW2 7176   6.939   5.941   1.113
 2093SOL     OW 7177   1.107   2.707   1.383
 2093SOL    HW1 7178   1.171   2.679   1.312
 2093SOL    HW2 7179   1.119   2.805   1.402
 2094SOL     OW 7180   6.255   0.297   1.645
 2094SOL    HW1 7181   6.311   0.335   1.571
 2094SOL    HW2 7182   6.257   0.197   1.640
 2095SOL     OW 7183   6.833   4.860   4.643
 2095SOL    HW1 7184   6.777   4.936   4.610
 2095SOL    HW2 7185   6.895   4.894   4.714
 2096SOL     OW 7186   4.918   3.595   3.297
 2096SOL    HW1 7187   4.994   3.587   3.362
 2096SOL    HW2 7188   4.954   3.622   3.207
 2097SOL     OW 7189   6.188   3.780   6.565
 2097SOL    HW1 7190   6.254   3.852   6.585
 2097SOL    HW2 7191   6.192   3.757   6.468
 2098SOL     OW 7192   4.058   6.821   3.790
 2098SOL    HW1 7193   4.055   6.746   3.724
 2098SOL    HW2 7194   4.069   6.784   3.882
 2099SOL     OW 7195   2.857   1.754   3.059
 2099SOL    HW1 7196   2.865   1.849   3.088
 2099SOL    HW2 7197   2.945   1.707   3.070
 2100SOL     OW 7198   3.776   4.833   0.123
 2100SOL    HW1 7199   3.780   4.766   0.049
 2100SOL    HW2 7200   3.698   4.894   0.109
 2101SOL     OW 7201   0.138   0.735   1.845
 2101SOL    HW1 7202   0.152   0.637   1.835
 2101SOL    HW2 7203   0.145   0.761   1.941
 2102SOL     OW 7204   0.190   5.279   1.820
 2102SOL    HW1 7205   0.187   5.325   1.909
 2102SOL    HW2 7206   0.274   5.225   1.813
 2103SOL     OW 7207   3.092   3.408   6.239
 2103SOL    HW1 7208   3.106   3.491   6.186
 2103SOL    HW2 7209   3.172   3.391   6.296
 2104SOL     OW 7210   1.621   4.222   5.637
 2104SOL    HW1 7211   1.717   4.220   5.610
 2104SOL    HW2 7212   1.565   4.183   5.564
 2105SOL     OW 7213   5.751   5.715   1.381
 2105SOL    HW1 7214   5.783   5.651   1.310
 2105SOL    HW2 7215   5.824   5.779   1.403
 2106SOL     OW 7216   5.821   5.558   6.412
 2106SOL    HW1 7217   5.787   5.581   6.503
 2106SOL    HW2 7218   5.857   5.640   6.367
 2107SOL     OW 7219   2.727   4.731   0.493
 2107SOL    HW1 7220   2.699   4.791   0.568
 2107SOL    HW2 7221   2.814   4.687   0.517
 2108SOL     OW 7222   5.653   4.299   6.150
 2108SOL    HW1 7223   5.712   4.239   6.095
 2108SOL    HW2 7224   5.702   4.383   6.172
 2109SOL     OW 7225   5.630   5.860   3.008
 2109SOL    HW1 7226   5.535   5.868   3.039
 2109SOL    HW2 7227   5.687   5.828   3.084
 2110SOL     OW 7228   1.704   4.687   4.942
 2110SOL    HW1 7229   1.642   4.755   4.983
 2110SOL    HW2 7230   1.710   4.607   5.001
 2111SOL     OW 7231   2.001   2.768   0.119
 2111SOL    HW1 7232   2.012   2.812   0.208
 2111SOL    HW2 7233   2.057   2.815   0.051
 2112SOL     OW 7234   5.618   3.285   0.342
 2112SOL    HW1 7235   5.647   3.203   0.391
 2112SOL    HW2 7236   5.523   3.306   0.364
 2113SOL     OW 7237   6.468   1.501   3.274
 2113SOL    HW1 7238   6.484   1.572   3.205
 2113SOL    HW2 7239   6.412   1.428   3.235
 2114SOL     OW 7240   2.062   3.143   0.278
 2114SOL    HW1 7241   1.992   3.096   0.333
 2114SOL    HW2 7242   2.020   3.176   0.193
 2115SOL     OW 7243   3.312   5.632   1.666
 2115SOL    HW1 7244   3.371   5.670   1.595
 2115SOL    HW2 7245   3.217   5.652   1.645
 2116SOL     OW 7246   0.578   4.279   3.353
 2116SOL    HW1 7247   0.541   4.308   3.264
 2116SOL    HW2 7248   0.577   4.179   3.359
 2117SOL     OW 7249   0.301   5.951   6.272
 2117SOL    HW1 7250   0.228   6.018   6.287
 2117SOL    HW2 7251   0.365   5.986   6.204
 2118SOL     OW 7252   0.088   3.318   2.239
 2118SOL    HW1 7253   0.103   3.387   2.309
 2118SOL    HW2 7254   0.003   3.270   2.257
 2119SOL     OW 7255   3.772   6.803   0.904
 2119SOL    HW1 7256   3.846   6.757   0.954
 2119SOL    HW2 7257   3.768   6.767   0.811
 2120SOL     OW 7258   6.459   4.528   2.445
 2120SOL    HW1 7259   6.437   4.483   2.532
 2120SOL    HW2 7260   6.404   4.611   2.436
 2121SOL     OW 7261   0.628   3.921   4.787
 2121SOL    HW1 7262   0.691   3.845   4.804
 2121SOL    HW2 7263   0.537   3.885   4.768
 2122SOL     OW 7264   4.546   5.044   5.548
 2122SOL    HW1 7265   4.485   4.966   5.530
 2122SOL    HW2 7266   4.559   5.095   5.463
 2123SOL     OW 7267   4.302   4.644   3.834
 2123SOL    HW1 7268   4.310   4.628   3.932
 2123SOL    HW2 7269   4.344   4.567   3.785
 2124SOL     OW 7270   3.187   1.993   1.495
 2124SOL    HW1 7271   3.285   1.995   1.477
 2124SOL    HW2 7272   3.158   1.899   1.512
 2125SOL     OW 7273   4.548   6.510   0.565
 2125SOL    HW1 7274   4.510   6.536   0.476
 2125SOL    HW2 7275   4.498   6.432   0.602
 2126SOL     OW 7276   3.047   1.112   1.934
 2126SOL    HW1 7277   3.012   1.195   1.976
 2126SOL    HW2 7278   2.977   1.040   1.936
 2127SOL     OW 7279   6.005   2.779   5.187
 2127SOL    HW1 7280   6.092   2.800   5.143
 2127SOL    HW2 7281   5.931   2.784   5.120
 2128SOL     OW 7282   0.650   4.356   4.537
 2128SOL    HW1 7283   0.719   4.346   4.466
 2128SOL    HW2 7284   0.661   4.283   4.604
 2129SOL     OW 7285   3.995   2.410   5.830
 2129SOL    HW1 7286   4.068   2.478   5.838
 2129SOL    HW2 7287   3.949   2.421   5.741
 2130SOL     OW 7288   4.999   0.651   3.263
 2130SOL    HW1 7289   4.906   0.660   3.297
 2130SOL    HW2 7290   5.005   0.687   3.170
 2131SOL     OW 7291   5.321   1.534   6.691
 2131SOL    HW1 7292   5.254   1.607   6.706
 2131SOL    HW2 7293   5.364   1.547   6.601
 2132SOL     OW 7294   1.761   3.622   1.184
 2132SOL    HW1 7295   1.798   3.665   1.101
 2132SOL    HW2 7296   1.677   3.669   1.211
 2133SOL     OW 7297   2.343   4.034   6.112
 2133SOL    HW1 7298   2.282   4.077   6.046
 2133SOL    HW2 7299   2.411   3.978   6.063
 2134SOL     OW 7300   0.174   6.665   0.943
 2134SOL    HW1 7301   0.107   6.668   0.870
 2134SOL    HW2 7302   0.129   6.684   1.031
 2135SOL     OW 7303   6.809   4.429   5.287
 2135SOL    HW1 7304   6.900   4.432   5.245
 2135SOL    HW2 7305   6.756   4.508   5.256
 2136SOL     OW 7306   1.277   5.524   0.172
 2136SOL    HW1 7307   1.341   5.593   0.206
 2136SOL    HW2 7308   1.303   5.434   0.208
 2137SOL     OW 7309   1.669   6.349   3.704
 2137SOL    HW1 7310   1.726   6.270   3.725
 2137SOL    HW2 7311   1.672   6.414   3.780
 2138SOL     OW 7312   5.207   1.931   2.382
 2138SOL    HW1 7313   5.295   1.969   2.411
 2138SOL    HW2 7314   5.135   1.997   2.403
 2139SOL     OW 7315   2.713   7.019   5.415
 2139SOL    HW1 7316   2.681   0.070   5.354
 2139SOL    HW2 7317   2.636   6.958   5.438
 2140SOL     OW 7318   2.402   1.493   4.156
 2140SOL    HW1 7319   2.456   1.469   4.237
 2140SOL    HW2 7320   2.330   1.425   4.144
 2141SOL     OW 7321   6.898   3.353   3.334
 2141SOL    HW1 7322   6.918   3.265   3.292
 2141SOL    HW2 7323   6.810   3.387   3.299
 2142SOL     OW 7324   1.447   2.429   2.525
 2142SOL    HW1 7325   1.382   2.403   2.453
 2142SOL    HW2 7326   1.530   2.465   2.483
 2143SOL     OW 7327   0.308   5.207   5.721
 2143SOL    HW1 7328   0.274   5.276   5.659
 2143SOL    HW2 7329   0.332   5.124   5.670
 2144SOL     OW 7330   6.227   4.468   3.030
 2144SOL    HW1 7331   6.285   4.486   2.951
 2144SOL    HW2 7332   6.131   4.482   3.005
 2145SOL     OW 7333   4.273   1.246   3.369
 2145SOL    HW1 7334   4.351   1.216   3.423
 2145SOL    HW2 7335   4.269   1.194   3.284
 2146SOL     OW 7336   2.360   2.312   6.447
 2146SOL    HW1 7337   2.382   2.295   6.351
 2146SOL    HW2 7338   2.382   2.407   6.470
 2147SOL     OW 7339   5.824   6.678   4.268
 2147SOL    HW1 7340   5.870   6.632   4.192
 2147SOL    HW2 7341   5.809   6.614   4.343
 2148SOL     OW 7342   0.213   2.369   5.492
 2148SOL    HW1 7343   0.311   2.358   5.470
 2148SOL    HW2 7344   0.182   2.457   5.457
 2149SOL     OW 7345   1.069   6.488   6.994
 2149SOL    HW1 7346   1.006   6.486   0.051
 2149SOL    HW2 7347   1.161   6.513   0.004
 2150SOL     OW 7348   1.488   3.302   1.055
 2150SOL    HW1 7349   1.470   3.395   1.088
 2150SOL    HW2 7350   1.571   3.267   1.099
 2151SOL     OW 7351   0.945   4.763   7.015
 2151SOL    HW1 7352   1.039   4.731   7.004
 2151SOL    HW2 7353   0.890   4.731   6.938
 2152SOL     OW 7354   5.286   6.039   3.779
 2152SOL    HW1 7355   5.311   6.125   3.822
 2152SOL    HW2 7356   5.346   6.022   3.701
 2153SOL     OW 7357   5.145   6.671   4.345
 2153SOL    HW1 7358   5.090   6.659   4.429
 2153SOL    HW2 7359   5.089   6.645   4.266
 2154SOL     OW 7360   2.459   6.972   2.354
 2154SOL    HW1 7361   2.427   0.042   2.379
 2154SOL    HW2 7362   2.381   6.911   2.343
 2155SOL     OW 7363   4.262   0.768   0.908
 2155SOL    HW1 7364   4.208   0.714   0.845
 2155SOL    HW2 7365   4.308   0.708   0.974
 2156SOL     OW 7366   5.755   2.507   5.040
 2156SOL    HW1 7367   5.720   2.429   5.092
 2156SOL    HW2 7368   5.796   2.474   4.955
 2157SOL     OW 7369   3.602   6.231   4.758
 2157SOL    HW1 7370   3.642   6.177   4.684
 2157SOL    HW2 7371   3.675   6.283   4.804
 2158SOL     OW 7372   2.931   6.911   0.486
 2158SOL    HW1 7373   2.852   6.967   0.462
 2158SOL    HW2 7374   3.008   6.934   0.427
 2159SOL     OW 7375   0.628   1.133   5.815
 2159SOL    HW1 7376   0.587   1.173   5.897
 2159SOL    HW2 7377   0.720   1.169   5.802
 2160SOL     OW 7378   5.680   0.255   6.749
 2160SOL    HW1 7379   5.607   0.194   6.778
 2160SOL    HW2 7380   5.641   0.343   6.721
 2161SOL     OW 7381   1.732   3.728   0.700
 2161SOL    HW1 7382   1.641   3.756   0.669
 2161SOL    HW2 7383   1.793   3.719   0.622
 2162SOL     OW 7384   1.995   0.291   1.269
 2162SOL    HW1 7385   1.949   0.356   1.329
 2162SOL    HW2 7386   1.938   0.274   1.189
 2163SOL     OW 7387   1.569   3.392   3.350
 2163SOL    HW1 7388   1.543   3.334   3.273
 2163SOL    HW2 7389   1.632   3.341   3.410
 2164SOL     OW 7390   2.039   3.566   2.196
 2164SOL    HW1 7391   2.104   3.557   2.121
 2164SOL    HW2 7392   2.059   3.497   2.266
 2165SOL     OW 7393   6.463   1.000   4.538
 2165SOL    HW1 7394   6.479   1.087   4.492
 2165SOL    HW2 7395   6.365   0.980   4.537
 2166SOL     OW 7396   6.856   3.121   2.223
 2166SOL    HW1 7397   6.819   3.110   2.130
 2166SOL    HW2 7398   6.920   3.046   2.242
 2167SOL     OW 7399   1.793   2.035   3.105
 2167SOL    HW1 7400   1.737   1.956   3.129
 2167SOL    HW2 7401   1.795   2.045   3.005
 2168SOL     OW 7402   2.118   1.977   3.384
 2168SOL    HW1 7403   2.026   1.988   3.422
 2168SOL    HW2 7404   2.157   1.891   3.416
 2169SOL     OW 7405   6.765   6.925   1.339
 2169SOL    HW1 7406   6.835   6.976   1.290
 2169SOL    HW2 7407   6.705   6.988   1.388
 2170SOL     OW 7408   1.483   3.609   6.094
 2170SOL    HW1 7409   1.496   3.537   6.025
 2170SOL    HW2 7410   1.422   3.575   6.166
 2171SOL     OW 7411   6.646   6.024   0.813
 2171SOL    HW1 7412   6.660   5.947   0.751
 2171SOL    HW2 7413   6.720   6.026   0.880
 2172SOL     OW 7414   2.541   1.677   5.401
 2172SOL    HW1 7415   2.457   1.625   5.416
 2172SOL    HW2 7416   2.518   1.762   5.352
 2173SOL     OW 7417   5.053   0.612   4.642
 2173SOL    HW1 7418   4.956   0.618   4.666
 2173SOL    HW2 7419   5.070   0.526   4.594
 2174SOL     OW 7420   5.872   0.608   5.880
 2174SOL    HW1 7421   5.827   0.555   5.807
 2174SOL    HW2 7422   5.970   0.588   5.881
 2175SOL     OW 7423   3.259   3.885   5.552
 2175SOL    HW1 7424   3.213   3.837   5.478
 2175SOL    HW2 7425   3.222   3.978   5.560
 2176SOL     OW 7426   5.885   2.240   3.118
 2176SOL    HW1 7427   5.960   2.270   3.058
 2176SOL    HW2 7428   5.839   2.320   3.156
 2177SOL     OW 7429   1.212   1.294   5.172
 2177SOL    HW1 7430   1.213   1.309   5.073
 2177SOL    HW2 7431   1.305   1.303   5.208
 2178SOL     OW 7432   1.356   2.613   2.724
 2178SOL    HW1 7433   1.263   2.580   2.741
 2178SOL    HW2 7434   1.394   2.565   2.645
 2179SOL     OW 7435   1.462   3.800   6.958
 2179SOL    HW1 7436   1.543   3.798   6.901
 2179SOL    HW2 7437   1.396   3.732   6.925
 2180SOL     OW 7438   0.723   5.648   2.621
 2180SOL    HW1 7439   0.765   5.610   2.539
 2180SOL    HW2 7440   0.635   5.690   2.597
 2181SOL     OW 7441   4.027   4.875   4.403
 2181SOL    HW1 7442   4.102   4.837   4.349
 2181SOL    HW2 7443   3.947   4.887   4.345
 2182SOL     OW 7444   0.287   6.488   1.303
 2182SOL    HW1 7445   0.351   6.565   1.304
 2182SOL    HW2 7446   0.196   6.521   1.329
 2183SOL     OW 7447   3.376   3.292   6.634
 2183SOL    HW1 7448   3.337   3.362   6.694
 2183SOL    HW2 7449   3.307   3.221   6.618
 2184SOL     OW 7450   6.318   1.315   0.507
 2184SOL    HW1 7451   6.355   1.359   0.589
 2184SOL    HW2 7452   6.313   1.217   0.522
 2185SOL     OW 7453   0.937   1.034   5.884
 2185SOL    HW1 7454   0.854   1.088   5.873
 2185SOL    HW2 7455   1.013   1.093   5.910
 2186SOL     OW 7456   6.561   6.174   5.384
 2186SOL    HW1 7457   6.493   6.221   5.440
 2186SOL    HW2 7458   6.516   6.106   5.326
 2187SOL     OW 7459   5.838   4.745   1.646
 2187SOL    HW1 7460   5.775   4.775   1.574
 2187SOL    HW2 7461   5.786   4.707   1.723
 2188SOL     OW 7462   2.731   0.951   0.703
 2188SOL    HW1 7463   2.797   1.006   0.653
 2188SOL    HW2 7464   2.762   0.939   0.798
 2189SOL     OW 7465   1.730   0.853   1.908
 2189SOL    HW1 7466   1.707   0.840   1.812
 2189SOL    HW2 7467   1.663   0.805   1.965
 2190SOL     OW 7468   6.746   4.554   1.805
 2190SOL    HW1 7469   6.665   4.507   1.770
 2190SOL    HW2 7470   6.720   4.612   1.883
 2191SOL     OW 7471   3.383   0.631   6.758
 2191SOL    HW1 7472   3.368   0.600   6.852
 2191SOL    HW2 7473   3.480   0.648   6.744
 2192SOL     OW 7474   5.033   1.805   2.145
 2192SOL    HW1 7475   5.096   1.811   2.223
 2192SOL    HW2 7476   4.945   1.769   2.176
 2193SOL     OW 7477   2.442   0.276   5.010
 2193SOL    HW1 7478   2.346   0.280   5.037
 2193SOL    HW2 7479   2.473   0.367   4.985
 2194SOL     OW 7480   0.492   3.921   6.166
 2194SOL    HW1 7481   0.453   3.861   6.097
 2194SOL    HW2 7482   0.566   3.975   6.126
 2195SOL     OW 7483   0.288   4.039   4.502
 2195SOL    HW1 7484   0.251   3.946   4.509
 2195SOL    HW2 7485   0.366   4.040   4.440
 2196SOL     OW 7486   3.692   0.833   7.003
 2196SOL    HW1 7487   3.611   0.813   0.038
 2196SOL    HW2 7488   3.666   0.834   6.907
 2197SOL     OW 7489   3.449   5.493   5.965
 2197SOL    HW1 7490   3.483   5.416   6.019
 2197SOL    HW2 7491   3.353   5.479   5.944
 2198SOL     OW 7492   1.207   1.039   6.611
 2198SOL    HW1 7493   1.140   1.102   6.651
 2198SOL    HW2 7494   1.188   0.946   6.643
 2199SOL     OW 7495   4.249   6.736   3.511
 2199SOL    HW1 7496   4.243   6.662   3.579
 2199SOL    HW2 7497   4.294   6.815   3.553
 2200SOL     OW 7498   2.506   2.451   3.906
 2200SOL    HW1 7499   2.443   2.484   3.836
 2200SOL    HW2 7500   2.600   2.461   3.874
 2201SOL     OW 7501   5.861   3.886   4.946
 2201SOL    HW1 7502   5.828   3.977   4.969
 2201SOL    HW2 7503   5.929   3.857   5.014
 2202SOL     OW 7504   3.507   0.082   3.314
 2202SOL    HW1 7505   3.604   0.062   3.328
 2202SOL    HW2 7506   3.491   0.103   3.217
 2203SOL     OW 7507   2.115   5.520   1.264
 2203SOL    HW1 7508   2.081   5.582   1.194
 2203SOL    HW2 7509   2.043   5.455   1.288
 2204SOL     OW 7510   5.778   2.142   0.927
 2204SOL    HW1 7511   5.765   2.205   1.003
 2204SOL    HW2 7512   5.859   2.168   0.875
 2205SOL     OW 7513   6.362   5.734   1.156
 2205SOL    HW1 7514   6.266   5.742   1.184
 2205SOL    HW2 7515   6.367   5.723   1.057
 2206SOL     OW 7516   3.654   2.550   5.985
 2206SOL    HW1 7517   3.664   2.545   5.885
 2206SOL    HW2 7518   3.725   2.609   6.022
 2207SOL     OW 7519   4.752   5.794   1.719
 2207SOL    HW1 7520   4.778   5.708   1.762
 2207SOL    HW2 7521   4.834   5.843   1.690
 2208SOL     OW 7522   6.969   6.574   3.309
 2208SOL    HW1 7523   0.039   6.609   3.287
 2208SOL    HW2 7524   6.926   6.540   3.225
 2209SOL     OW 7525   3.043   5.484   3.557
 2209SOL    HW1 7526   2.968   5.432   3.597
 2209SOL    HW2 7527   3.011   5.574   3.528
 2210SOL     OW 7528   5.153   0.063   1.661
 2210SOL    HW1 7529   5.155   7.014   1.590
 2210SOL    HW2 7530   5.220   0.134   1.640
 2211SOL     OW 7531   1.502   1.847   1.112
 2211SOL    HW1 7532   1.599   1.871   1.103
 2211SOL    HW2 7533   1.456   1.859   1.024
 2212SOL     OW 7534   2.800   5.812   6.292
 2212SOL    HW1 7535   2.732   5.870   6.247
 2212SOL    HW2 7536   2.825   5.853   6.380
 2213SOL     OW 7537   3.313   1.618   5.149
 2213SOL    HW1 7538   3.269   1.705   5.169
 2213SOL    HW2 7539   3.411   1.633   5.133
 2214SOL     OW 7540   3.967   4.194   6.680
 2214SOL    HW1 7541   3.985   4.105   6.637
 2214SOL    HW2 7542   3.930   4.179   6.772
 2215SOL     OW 7543   4.810   6.431   0.585
 2215SOL    HW1 7544   4.826   6.430   0.684
 2215SOL    HW2 7545   4.726   6.481   0.565
 2216SOL     OW 7546   0.687   5.865   6.953
 2216SOL    HW1 7547   0.760   5.825   7.008
 2216SOL    HW2 7548   0.722   5.889   6.863
 2217SOL     OW 7549   4.447   1.322   3.775
 2217SOL    HW1 7550   4.542   1.350   3.764
 2217SOL    HW2 7551   4.421   1.332   3.872
 2218SOL     OW 7552   6.799   5.214   5.264
 2218SOL    HW1 7553   6.814   5.194   5.360
 2218SOL    HW2 7554   6.728   5.284   5.256
 2219SOL     OW 7555   5.220   1.224   0.953
 2219SOL    HW1 7556   5.186   1.301   1.006
 2219SOL    HW2 7557   5.150   1.194   0.889
 2220SOL     OW 7558   6.718   5.981   4.153
 2220SOL    HW1 7559   6.653   6.034   4.098
 2220SOL    HW2 7560   6.777   5.928   4.093
 2221SOL     OW 7561   5.829   0.965   4.290
 2221SOL    HW1 7562   5.890   1.028   4.243
 2221SOL    HW2 7563   5.740   0.964   4.245
 2222SOL     OW 7564   4.217   0.211   3.128
 2222SOL    HW1 7565   4.297   0.214   3.069
 2222SOL    HW2 7566   4.159   0.134   3.102
 2223SOL     OW 7567   0.841   0.087   5.221
 2223SOL    HW1 7568   0.836   0.183   5.193
 2223SOL    HW2 7569   0.857   0.082   5.319
 2224SOL     OW 7570   5.082   4.366   0.137
 2224SOL    HW1 7571   5.024   4.287   0.120
 2224SOL    HW2 7572   5.171   4.353   0.092
 2225SOL     OW 7573   0.050   6.580   1.447
 2225SOL    HW1 7574   6.983   6.597   1.493
 2225SOL    HW2 7575   0.125   6.597   1.510
 2226SOL     OW 7576   2.491   3.987   7.007
 2226SOL    HW1 7577   2.531   3.953   0.072
 2226SOL    HW2 7578   2.475   4.085   7.015
 2227SOL     OW 7579   4.100   2.212   2.334
 2227SOL    HW1 7580   4.070   2.117   2.346
 2227SOL    HW2 7581   4.127   2.226   2.239
 2228SOL     OW 7582   5.636   5.558   6.653
 2228SOL    HW1 7583   5.578   5.482   6.683
 2228SOL    HW2 7584   5.725   5.552   6.699
 2229SOL     OW 7585   2.919   3.482   4.003
 2229SOL    HW1 7586   2.944   3.435   3.918
 2229SOL    HW2 7587   2.922   3.417   4.079
 2230SOL     OW 7588   6.099   0.743   6.436
 2230SOL    HW1 7589   6.196   0.719   6.444
 2230SOL    HW2 7590   6.091   0.839   6.410
 2231SOL     OW 7591   1.692   0.426   6.039
 2231SOL    HW1 7592   1.716   0.332   6.063
 2231SOL    HW2 7593   1.768   0.467   5.988
 2232SOL     OW 7594   1.902   0.634   6.005
 2232SOL    HW1 7595   1.870   0.723   6.039
 2232SOL    HW2 7596   2.001   0.638   5.989
 2233SOL     OW 7597   2.967   4.815   1.045
 2233SOL    HW1 7598   3.011   4.803   0.956
 2233SOL    HW2 7599   2.871   4.838   1.032
 2234SOL     OW 7600   5.012   2.195   2.131
 2234SOL    HW1 7601   5.018   2.209   2.230
 2234SOL    HW2 7602   5.102   2.169   2.095
 2235SOL     OW 7603   0.711   2.050   2.773
 2235SOL    HW1 7604   0.758   2.138   2.770
 2235SOL    HW2 7605   0.618   2.063   2.805
 2236SOL     OW 7606   2.699   4.986   5.530
 2236SOL    HW1 7607   2.690   4.897   5.573
 2236SOL    HW2 7608   2.612   5.035   5.534
 2237SOL     OW 7609   6.027   6.259   5.599
 2237SOL    HW1 7610   5.938   6.294   5.628
 2237SOL    HW2 7611   6.099   6.318   5.636
 2238SOL     OW 7612   6.202   3.503   2.338
 2238SOL    HW1 7613   6.116   3.477   2.382
 2238SOL    HW2 7614   6.264   3.424   2.335
 2239SOL     OW 7615   4.592   6.724   2.901
 2239SOL    HW1 7616   4.516   6.721   2.965
 2239SOL    HW2 7617   4.603   6.817   2.867
 2240SOL     OW 7618   5.221   5.358   2.405
 2240SOL    HW1 7619   5.304   5.343   2.459
 2240SOL    HW2 7620   5.173   5.439   2.440
 2241SOL     OW 7621   0.329   1.574   2.617
 2241SOL    HW1 7622   0.301   1.535   2.529
 2241SOL    HW2 7623   0.429   1.572   2.625
 2242SOL     OW 7624   5.195   2.382   4.249
 2242SOL    HW1 7625   5.276   2.389   4.191
 2242SOL    HW2 7626   5.205   2.442   4.328
 2243SOL     OW 7627   2.376   6.716   0.699
 2243SOL    HW1 7628   2.380   6.771   0.616
 2243SOL    HW2 7629   2.316   6.637   0.685
 2244SOL     OW 7630   2.252   1.780   0.860
 2244SOL    HW1 7631   2.349   1.803   0.866
 2244SOL    HW2 7632   2.199   1.864   0.846
 2245SOL     OW 7633   0.401   0.380   0.185
 2245SOL    HW1 7634   0.457   0.419   0.258
 2245SOL    HW2 7635   0.306   0.378   0.213
 2246SOL     OW 7636   4.217   1.924   5.260
 2246SOL    HW1 7637   4.279   1.965   5.193
 2246SOL    HW2 7638   4.213   1.981   5.341
 2247SOL     OW 7639   2.971   3.113   2.119
 2247SOL    HW1 7640   2.940   3.096   2.026
 2247SOL    HW2 7641   2.897   3.156   2.171
 2248SOL     OW 7642   5.134   3.746   5.240
 2248SOL    HW1 7643   5.091   3.817   5.295
 2248SOL    HW2 7644   5.147   3.780   5.147
 2249SOL     OW 7645   2.431   6.863   3.353
 2249SOL    HW1 7646   2.399   6.883   3.260
 2249SOL    HW2 7647   2.530   6.853   3.353
 2250SOL     OW 7648   4.432   6.104   6.332
 2250SOL    HW1 7649   4.463   6.181   6.277
 2250SOL    HW2 7650   4.402   6.137   6.421
 2251SOL     OW 7651   4.513   6.364   4.861
 2251SOL    HW1 7652   4.466   6.276   4.863
 2251SOL    HW2 7653   4.556   6.378   4.772
 2252SOL     OW 7654   3.846   0.769   2.497
 2252SOL    HW1 7655   3.796   0.838   2.548
 2252SOL    HW2 7656   3.794   0.742   2.416
 2253SOL     OW 7657   0.214   3.270   1.774
 2253SOL    HW1 7658   0.267   3.354   1.781
 2253SOL    HW2 7659   0.273   3.191   1.790
 2254SOL     OW 7660   4.036   3.205   2.764
 2254SOL    HW1 7661   3.975   3.128   2.784
 2254SOL    HW2 7662   4.072   3.242   2.850
 2255SOL     OW 7663   1.546   2.600   6.258
 2255SOL    HW1 7664   1.504   2.632   6.173
 2255SOL    HW2 7665   1.619   2.535   6.236
 2256SOL     OW 7666   5.603   0.193   0.921
 2256SOL    HW1 7667   5.624   0.097   0.940
 2256SOL    HW2 7668   5.662   0.252   0.976
 2257SOL     OW 7669   6.739   0.633   5.248
 2257SOL    HW1 7670   6.802   0.562   5.278
 2257SOL    HW2 7671   6.787   0.721   5.245
 2258SOL     OW 7672   2.156   6.813   4.043
 2258SOL    HW1 7673   2.230   6.838   3.981
 2258SOL    HW2 7674   2.097   6.893   4.059
 2259SOL     OW 7675   6.131   1.489   4.946
 2259SOL    HW1 7676   6.132   1.415   5.013
 2259SOL    HW2 7677   6.178   1.569   4.984
 2260SOL     OW 7678   0.919   3.579   1.157
 2260SOL    HW1 7679   0.936   3.514   1.083
 2260SOL    HW2 7680   0.831   3.625   1.142
 2261SOL     OW 7681   5.365   4.290   0.112
 2261SOL    HW1 7682   5.424   4.260   0.036
 2261SOL    HW2 7683   5.325   4.210   0.157
 2262SOL     OW 7684   6.485   6.634   4.286
 2262SOL    HW1 7685   6.562   6.672   4.234
 2262SOL    HW2 7686   6.414   6.704   4.294
 2263SOL     OW 7687   2.019   4.208   6.462
 2263SOL    HW1 7688   1.944   4.268   6.431
 2263SOL    HW2 7689   1.988   4.154   6.539
 2264SOL     OW 7690   2.348   0.142   5.397
 2264SOL    HW1 7691   2.264   0.196   5.398
 2264SOL    HW2 7692   2.325   0.045   5.391
 2265SOL     OW 7693   6.849   6.420   4.059
 2265SOL    HW1 7694   6.941   6.457   4.050
 2265SOL    HW2 7695   6.841   6.371   4.146
 2266SOL     OW 7696   4.228   2.982   6.738
 2266SOL    HW1 7697   4.286   2.911   6.697
 2266SOL    HW2 7698   4.284   3.062   6.761
 2267SOL     OW 7699   5.632   2.795   4.689
 2267SOL    HW1 7700   5.683   2.850   4.622
 2267SOL    HW2 7701   5.663   2.818   4.781
 2268SOL     OW 7702   1.524   6.590   5.003
 2268SOL    HW1 7703   1.481   6.499   4.998
 2268SOL    HW2 7704   1.612   6.582   5.050
 2269SOL     OW 7705   1.693   2.547   5.625
 2269SOL    HW1 7706   1.701   2.605   5.544
 2269SOL    HW2 7707   1.766   2.569   5.689
 2270SOL     OW 7708   4.822   1.250   6.065
 2270SOL    HW1 7709   4.878   1.330   6.089
 2270SOL    HW2 7710   4.795   1.257   5.969
 2271SOL     OW 7711   4.223   5.636   5.373
 2271SOL    HW1 7712   4.210   5.724   5.420
 2271SOL    HW2 7713   4.141   5.616   5.318
 2272SOL     OW 7714   5.574   1.256   5.947
 2272SOL    HW1 7715   5.648   1.299   5.896
 2272SOL    HW2 7716   5.504   1.324   5.968
 2273SOL     OW 7717   1.148   2.862   3.430
 2273SOL    HW1 7718   1.182   2.774   3.398
 2273SOL    HW2 7719   1.191   2.884   3.518
 2274SOL     OW 7720   1.493   1.130   0.013
 2274SOL    HW1 7721   1.402   1.143   0.053
 2274SOL    HW2 7722   1.485   1.128   6.934
 2275SOL     OW 7723   5.140   3.950   2.702
 2275SOL    HW1 7724   5.199   3.989   2.773
 2275SOL    HW2 7725   5.053   3.999   2.700
 2276SOL     OW 7726   1.928   1.870   0.966
 2276SOL    HW1 7727   1.879   1.855   1.053
 2276SOL    HW2 7728   1.915   1.790   0.907
 2277SOL     OW 7729   3.777   2.938   3.382
 2277SOL    HW1 7730   3.740   2.968   3.470
 2277SOL    HW2 7731   3.830   3.013   3.341
 2278SOL     OW 7732   0.461   2.802   3.839
 2278SOL    HW1 7733   0.547   2.815   3.889
 2278SOL    HW2 7734   0.401   2.742   3.892
 2279SOL     OW 7735   1.022   5.403   5.793
 2279SOL    HW1 7736   1.091   5.471   5.771
 2279SOL    HW2 7737   1.066   5.324   5.836
 2280SOL     OW 7738   4.796   1.782   5.773
 2280SOL    HW1 7739   4.854   1.863   5.787
 2280SOL    HW2 7740   4.806   1.751   5.679
 2281SOL     OW 7741   5.671   6.783   2.526
 2281SOL    HW1 7742   5.727   6.856   2.565
 2281SOL    HW2 7743   5.662   6.797   2.427
 2282SOL     OW 7744   3.551   6.173   6.107
 2282SOL    HW1 7745   3.518   6.263   6.080
 2282SOL    HW2 7746   3.650   6.177   6.121
 2283SOL     OW 7747   0.202   0.835   4.345
 2283SOL    HW1 7748   0.130   0.777   4.306
 2283SOL    HW2 7749   0.273   0.777   4.384
 2284SOL     OW 7750   1.280   2.942   6.582
 2284SOL    HW1 7751   1.280   3.042   6.587
 2284SOL    HW2 7752   1.221   2.913   6.508
 2285SOL     OW 7753   1.771   4.259   6.850
 2285SOL    HW1 7754   1.698   4.318   6.814
 2285SOL    HW2 7755   1.742   4.164   6.848
 2286SOL     OW 7756   4.635   5.023   2.991
 2286SOL    HW1 7757   4.666   5.030   3.085
 2286SOL    HW2 7758   4.639   5.113   2.947
 2287SOL     OW 7759   0.999   1.560   3.606
 2287SOL    HW1 7760   0.938   1.607   3.671
 2287SOL    HW2 7761   1.094   1.576   3.632
 2288SOL     OW 7762   0.159   5.364   2.587
 2288SOL    HW1 7763   0.150   5.399   2.680
 2288SOL    HW2 7764   0.083   5.397   2.531
 2289SOL     OW 7765   0.679   5.597   0.906
 2289SOL    HW1 7766   0.613   5.666   0.875
 2289SOL    HW2 7767   0.771   5.634   0.898
 2290SOL     OW 7768   1.079   5.211   6.825
 2290SOL    HW1 7769   1.050   5.272   6.900
 2290SOL    HW2 7770   1.123   5.130   6.864
 2291SOL     OW 7771   2.085   1.594   6.979
 2291SOL    HW1 7772   2.060   1.620   0.051
 2291SOL    HW2 7773   2.016   1.531   6.942
 2292SOL     OW 7774   2.408   1.275   4.427
 2292SOL    HW1 7775   2.464   1.204   4.471
 2292SOL    HW2 7776   2.455   1.363   4.435
 2293SOL     OW 7777   5.478   3.670   2.379
 2293SOL    HW1 7778   5.460   3.613   2.459
 2293SOL    HW2 7779   5.512   3.759   2.408
 2294SOL     OW 7780   4.020   6.277   0.139
 2294SOL    HW1 7781   3.946   6.327   0.094
 2294SOL    HW2 7782   4.076   6.341   0.192
 2295SOL     OW 7783   0.347   1.900   1.670
 2295SOL    HW1 7784   0.327   1.911   1.573
 2295SOL    HW2 7785   0.443   1.921   1.687
 2296SOL     OW 7786   3.314   6.928   0.745
 2296SOL    HW1 7787   3.326   7.000   0.677
 2296SOL    HW2 7788   3.313   6.969   0.836
 2297SOL     OW 7789   4.345   6.257   6.551
 2297SOL    HW1 7790   4.311   6.350   6.534
 2297SOL    HW2 7791   4.371   6.248   6.647
 2298SOL     OW 7792   4.020   2.920   6.374
 2298SOL    HW1 7793   4.033   2.893   6.469
 2298SOL    HW2 7794   4.038   3.017   6.363
 2299SOL     OW 7795   4.392   6.832   7.002
 2299SOL    HW1 7796   4.412   6.923   0.018
 2299SOL    HW2 7797   4.344   6.840   6.915
 2300SOL     OW 7798   1.192   4.338   1.020
 2300SOL    HW1 7799   1.119   4.399   1.052
 2300SOL    HW2 7800   1.201   4.346   0.921
 2301SOL     OW 7801   4.129   3.450   1.859
 2301SOL    HW1 7802   4.137   3.487   1.952
 2301SOL    HW2 7803   4.035   3.418   1.844
 2302SOL     OW 7804   2.554   5.625   3.075
 2302SOL    HW1 7805   2.617   5.640   3.151
 2302SOL    HW2 7806   2.487   5.700   3.072
 2303SOL     OW 7807   0.113   3.108   5.161
 2303SOL    HW1 7808   0.093   3.148   5.250
 2303SOL    HW2 7809   0.163   3.022   5.173
 2304SOL     OW 7810   2.590   0.984   4.583
 2304SOL    HW1 7811   2.659   0.911   4.584
 2304SOL    HW2 7812   2.589   1.030   4.672
 2305SOL     OW 7813   4.262   4.735   1.912
 2305SOL    HW1 7814   4.213   4.775   1.835
 2305SOL    HW2 7815   4.304   4.649   1.884
 2306SOL     OW 7816   0.144   4.214   0.496
 2306SOL    HW1 7817   0.112   4.283   0.561
 2306SOL    HW2 7818   0.196   4.143   0.545
 2307SOL     OW 7819   0.079   1.430   2.793
 2307SOL    HW1 7820   0.035   1.398   2.877
 2307SOL    HW2 7821   0.095   1.529   2.800
 2308SOL     OW 7822   0.065   6.928   0.360
 2308SOL    HW1 7823   0.033   7.009   0.310
 2308SOL    HW2 7824   0.147   6.951   0.412
 2309SOL     OW 7825   3.445   5.123   5.941
 2309SOL    HW1 7826   3.535   5.106   5.981
 2309SOL    HW2 7827   3.386   5.044   5.958
 2310SOL     OW 7828   5.848   1.724   2.744
 2310SOL    HW1 7829   5.860   1.635   2.701
 2310SOL    HW2 7830   5.935   1.773   2.745
 2311SOL     OW 7831   2.567   0.605   2.784
 2311SOL    HW1 7832   2.609   0.694   2.802
 2311SOL    HW2 7833   2.514   0.610   2.699
 2312SOL     OW 7834   2.636   1.230   2.847
 2312SOL    HW1 7835   2.617   1.229   2.748
 2312SOL    HW2 7836   2.550   1.230   2.897
 2313SOL     OW 7837   4.933   3.726   1.665
 2313SOL    HW1 7838   4.943   3.681   1.576
 2313SOL    HW2 7839   4.945   3.659   1.738
 2314SOL     OW 7840   6.828   6.461   3.114
 2314SOL    HW1 7841   6.777   6.378   3.135
 2314SOL    HW2 7842   6.764   6.530   3.078
 2315SOL     OW 7843   4.030   6.009   4.629
 2315SOL    HW1 7844   4.097   5.958   4.683
 2315SOL    HW2 7845   3.941   5.965   4.637
 2316SOL     OW 7846   2.794   1.770   6.138
 2316SOL    HW1 7847   2.803   1.752   6.235
 2316SOL    HW2 7848   2.879   1.809   6.103
 2317SOL     OW 7849   6.936   5.611   2.969
 2317SOL    HW1 7850   6.988   5.684   3.013
 2317SOL    HW2 7851   6.867   5.652   2.908
 2318SOL     OW 7852   1.277   4.625   5.517
 2318SOL    HW1 7853   1.214   4.619   5.594
 2318SOL    HW2 7854   1.363   4.580   5.539
 2319SOL     OW 7855   1.758   4.984   3.313
 2319SOL    HW1 7856   1.788   4.936   3.231
 2319SOL    HW2 7857   1.694   5.057   3.287
 2320SOL     OW 7858   1.028   2.002   5.254
 2320SOL    HW1 7859   1.045   1.963   5.163
 2320SOL    HW2 7860   1.042   2.101   5.251
 2321SOL     OW 7861   2.242   4.803   5.994
 2321SOL    HW1 7862   2.330   4.764   5.966
 2321SOL    HW2 7863   2.184   4.729   6.029
 2322SOL     OW 7864   1.705   3.868   1.402
 2322SOL    HW1 7865   1.738   3.837   1.491
 2322SOL    HW2 7866   1.702   3.968   1.400
 2323SOL     OW 7867   2.663   5.177   1.164
 2323SOL    HW1 7868   2.663   5.277   1.168
 2323SOL    HW2 7869   2.577   5.145   1.124
 2324SOL     OW 7870   6.896   5.289   2.718
 2324SOL    HW1 7871   6.817   5.228   2.708
 2324SOL    HW2 7872   6.876   5.356   2.789
 2325SOL     OW 7873   6.527   5.380   1.655
 2325SOL    HW1 7874   6.438   5.409   1.691
 2325SOL    HW2 7875   6.522   5.284   1.628
 2326SOL     OW 7876   1.912   0.690   0.216
 2326SOL    HW1 7877   1.948   0.717   0.306
 2326SOL    HW2 7878   1.953   0.748   0.146
 2327SOL     OW 7879   0.194   0.248   2.436
 2327SOL    HW1 7880   0.166   0.251   2.340
 2327SOL    HW2 7881   0.236   0.159   2.456
 2328SOL     OW 7882   2.031   3.331   2.842
 2328SOL    HW1 7883   2.030   3.410   2.904
 2328SOL    HW2 7884   1.955   3.270   2.864
 2329SOL     OW 7885   0.455   5.334   2.655
 2329SOL    HW1 7886   0.381   5.353   2.590
 2329SOL    HW2 7887   0.543   5.338   2.608
 2330SOL     OW 7888   6.295   3.114   0.657
 2330SOL    HW1 7889   6.282   3.207   0.620
 2330SOL    HW2 7890   6.389   3.085   0.641
 2331SOL     OW 7891   4.585   6.015   1.286
 2331SOL    HW1 7892   4.676   5.977   1.305
 2331SOL    HW2 7893   4.592   6.114   1.272
 2332SOL     OW 7894   5.853   6.748   6.025
 2332SOL    HW1 7895   5.947   6.759   6.056
 2332SOL    HW2 7896   5.840   6.798   5.939
 2333SOL     OW 7897   0.228   4.449   2.372
 2333SOL    HW1 7898   0.229   4.475   2.276
 2333SOL    HW2 7899   0.145   4.396   2.391
 2334SOL     OW 7900   3.031   1.958   6.415
 2334SOL    HW1 7901   3.026   2.026   6.488
 2334SOL    HW2 7902   2.938   1.930   6.389
 2335SOL     OW 7903   6.273   1.159   3.160
 2335SOL    HW1 7904   6.268   1.191   3.255
 2335SOL    HW2 7905   6.312   1.232   3.103
 2336SOL     OW 7906   1.742   1.761   2.870
 2336SOL    HW1 7907   1.752   1.687   2.937
 2336SOL    HW2 7908   1.826   1.769   2.816
 2337SOL     OW 7909   4.352   1.809   1.554
 2337SOL    HW1 7910   4.413   1.861   1.614
 2337SOL    HW2 7911   4.310   1.735   1.606
 2338SOL     OW 7912   0.054   3.854   3.431
 2338SOL    HW1 7913   0.038   3.937   3.484
 2338SOL    HW2 7914   0.057   3.775   3.493
 2339SOL     OW 7915   3.514   3.090   3.000
 2339SOL    HW1 7916   3.527   3.092   2.901
 2339SOL    HW2 7917   3.562   3.012   3.039
 2340SOL     OW 7918   2.122   4.779   6.546
 2340SOL    HW1 7919   2.089   4.861   6.593
 2340SOL    HW2 7920   2.156   4.713   6.613
 2341SOL     OW 7921   2.388   4.751   3.457
 2341SOL    HW1 7922   2.332   4.752   3.374
 2341SOL    HW2 7923   2.411   4.845   3.483
 2342SOL     OW 7924   3.289   0.446   3.866
 2342SOL    HW1 7925   3.302   0.453   3.965
 2342SOL    HW2 7926   3.284   0.350   3.839
 2343SOL     OW 7927   1.053   0.204   1.858
 2343SOL    HW1 7928   0.973   0.145   1.853
 2343SOL    HW2 7929   1.069   0.230   1.953
 2344SOL     OW 7930   5.587   3.766   0.533
 2344SOL    HW1 7931   5.684   3.740   0.539
 2344SOL    HW2 7932   5.549   3.777   0.624
 2345SOL     OW 7933   2.588   5.504   4.902
 2345SOL    HW1 7934   2.568   5.516   4.999
 2345SOL    HW2 7935   2.591   5.593   4.857
 2346SOL     OW 7936   4.037   3.759   6.697
 2346SOL    HW1 7937   4.034   3.829   6.769
 2346SOL    HW2 7938   4.106   3.784   6.630
 2347SOL     OW 7939   0.988   1.842   1.955
 2347SOL    HW1 7940   1.026   1.751   1.937
 2347SOL    HW2 7941   1.062   1.909   1.959
 2348SOL     OW 7942   0.283   5.107   2.602
 2348SOL    HW1 7943   0.307   5.092   2.698
 2348SOL    HW2 7944   0.242   5.197   2.592
 2349SOL     OW 7945   0.681   4.270   5.887
 2349SOL    HW1 7946   0.598   4.287   5.834
 2349SOL    HW2 7947   0.756   4.248   5.825
 2350SOL     OW 7948   5.746   3.678   0.012
 2350SOL    HW1 7949   5.796   3.624   6.966
 2350SOL    HW2 7950   5.738   3.627   0.098
 2351SOL     OW 7951   2.931   5.328   2.555
 2351SOL    HW1 7952   2.839   5.292   2.569
 2351SOL    HW2 7953   2.986   5.262   2.503
 2352SOL     OW 7954   0.055   2.874   3.575
 2352SOL    HW1 7955   0.080   2.840   3.484
 2352SOL    HW2 7956   0.131   2.928   3.612
 2353SOL     OW 7957   3.420   5.624   4.594
 2353SOL    HW1 7958   3.510   5.608   4.555
 2353SOL    HW2 7959   3.422   5.603   4.692
 2354SOL     OW 7960   2.110   2.750   3.572
 2354SOL    HW1 7961   2.068   2.719   3.657
 2354SOL    HW2 7962   2.169   2.828   3.590
 2355SOL     OW 7963   2.499   5.928   5.052
 2355SOL    HW1 7964   2.593   5.959   5.059
 2355SOL    HW2 7965   2.467   5.939   4.957
 2356SOL     OW 7966   6.313   3.160   0.038
 2356SOL    HW1 7967   6.283   3.209   6.976
 2356SOL    HW2 7968   6.381   3.215   0.086
 2357SOL     OW 7969   2.415   6.478   2.413
 2357SOL    HW1 7970   2.341   6.536   2.447
 2357SOL    HW2 7971   2.502   6.527   2.422
 2358SOL     OW 7972   3.787   4.944   6.742
 2358SOL    HW1 7973   3.763   4.870   6.680
 2358SOL    HW2 7974   3.705   4.996   6.765
 2359SOL     OW 7975   1.603   0.059   4.753
 2359SOL    HW1 7976   1.689   0.008   4.748
 2359SOL    HW2 7977   1.528   0.002   4.718
 2360SOL     OW 7978   6.703   3.462   0.090
 2360SOL    HW1 7979   6.711   3.561   0.101
 2360SOL    HW2 7980   6.719   3.437   7.015
 2361SOL     OW 7981   3.468   1.179   6.513
 2361SOL    HW1 7982   3.420   1.095   6.536
 2361SOL    HW2 7983   3.449   1.204   6.418
 2362SOL     OW 7984   3.463   5.770   3.246
 2362SOL    HW1 7985   3.395   5.718   3.297
 2362SOL    HW2 7986   3.438   5.769   3.149
 2363SOL     OW 7987   3.783   0.579   4.403
 2363SOL    HW1 7988   3.771   0.678   4.400
 2363SOL    HW2 7989   3.872   0.555   4.364
 2364SOL     OW 7990   1.106   2.539   0.711
 2364SOL    HW1 7991   1.018   2.495   0.695
 2364SOL    HW2 7992   1.166   2.476   0.761
 2365SOL     OW 7993   5.660   2.298   6.594
 2365SOL    HW1 7994   5.671   2.225   6.526
 2365SOL    HW2 7995   5.563   2.314   6.611
 2366SOL     OW 7996   4.093   5.360   0.731
 2366SOL    HW1 7997   3.993   5.365   0.721
 2366SOL    HW2 7998   4.118   5.372   0.827
 2367SOL     OW 7999   2.545   3.172   6.043
 2367SOL    HW1 8000   2.485   3.116   5.985
 2367SOL    HW2 8001   2.636   3.132   6.045
 2368SOL     OW 8002   6.558   5.874   2.493
 2368SOL    HW1 8003   6.580   5.839   2.402
 2368SOL    HW2 8004   6.461   5.895   2.498
 2369SOL     OW 8005   2.265   0.948   3.472
 2369SOL    HW1 8006   2.337   0.879   3.471
 2369SOL    HW2 8007   2.304   1.036   3.445
 2370SOL     OW 8008   6.067   2.028   6.859
 2370SOL    HW1 8009   6.044   1.978   6.942
 2370SOL    HW2 8010   6.166   2.026   6.844
 2371SOL     OW 8011   2.406   6.713   1.530
 2371SOL    HW1 8012   2.493   6.723   1.481
 2371SOL    HW2 8013   2.332   6.751   1.475
 2372SOL     OW 8014   6.663   3.449   2.976
 2372SOL    HW1 8015   6.685   3.509   2.900
 2372SOL    HW2 8016   6.587   3.389   2.952
 2373SOL     OW 8017   2.320   3.285   6.469
 2373SOL    HW1 8018   2.260   3.205   6.462
 2373SOL    HW2 8019   2.328   3.329   6.380
 2374SOL     OW 8020   5.846   3.090   4.781
 2374SOL    HW1 8021   5.775   3.135   4.835
 2374SOL    HW2 8022   5.916   3.157   4.755
 2375SOL     OW 8023   3.144   6.569   5.253
 2375SOL    HW1 8024   3.145   6.654   5.199
 2375SOL    HW2 8025   3.067   6.512   5.223
 2376SOL     OW 8026   6.424   3.202   4.739
 2376SOL    HW1 8027   6.475   3.247   4.813
 2376SOL    HW2 8028   6.479   3.203   4.656
 2377SOL     OW 8029   3.724   3.505   3.801
 2377SOL    HW1 8030   3.681   3.588   3.765
 2377SOL    HW2 8031   3.814   3.493   3.760
 2378SOL     OW 8032   5.540   2.650   6.775
 2378SOL    HW1 8033   5.475   2.581   6.744
 2378SOL    HW2 8034   5.578   2.623   6.863
 2379SOL     OW 8035   6.674   0.100   0.316
 2379SOL    HW1 8036   6.706   0.046   0.393
 2379SOL    HW2 8037   6.591   0.150   0.342
 2380SOL     OW 8038   6.303   1.880   2.287
 2380SOL    HW1 8039   6.363   1.826   2.228
 2380SOL    HW2 8040   6.283   1.967   2.242
 2381SOL     OW 8041   1.695   6.793   3.233
 2381SOL    HW1 8042   1.667   6.725   3.300
 2381SOL    HW2 8043   1.642   6.877   3.246
 2382SOL     OW 8044   1.465   3.690   5.211
 2382SOL    HW1 8045   1.528   3.613   5.206
 2382SOL    HW2 8046   1.476   3.736   5.299
 2383SOL     OW 8047   5.958   5.872   1.466
 2383SOL    HW1 8048   5.938   5.906   1.558
 2383SOL    HW2 8049   6.052   5.894   1.442
 2384SOL     OW 8050   4.528   1.948   1.779
 2384SOL    HW1 8051   4.520   1.859   1.825
 2384SOL    HW2 8052   4.597   2.003   1.826
 2385SOL     OW 8053   0.721   2.096   6.281
 2385SOL    HW1 8054   0.639   2.072   6.333
 2385SOL    HW2 8055   0.720   2.193   6.258
 2386SOL     OW 8056   4.653   5.504   4.265
 2386SOL    HW1 8057   4.670   5.601   4.249
 2386SOL    HW2 8058   4.672   5.453   4.181
 2387SOL     OW 8059   1.846   1.176   3.710
 2387SOL    HW1 8060   1.939   1.140   3.699
 2387SOL    HW2 8061   1.836   1.259   3.656
 2388SOL     OW 8062   6.395   1.767   4.392
 2388SOL    HW1 8063   6.372   1.820   4.311
 2388SOL    HW2 8064   6.413   1.672   4.366
 2389SOL     OW 8065   4.459   5.859   2.691
 2389SOL    HW1 8066   4.528   5.842   2.621
 2389SOL    HW2 8067   4.375   5.891   2.649
 2390SOL     OW 8068   3.184   4.299   1.432
 2390SOL    HW1 8069   3.171   4.321   1.335
 2390SOL    HW2 8070   3.271   4.251   1.444
 2391SOL     OW 8071   3.975   5.019   5.333
 2391SOL    HW1 8072   3.901   4.956   5.311
 2391SOL    HW2 8073   4.041   5.019   5.257
 2392SOL     OW 8074   3.712   1.149   6.881
 2392SOL    HW1 8075   3.676   1.148   6.974
 2392SOL    HW2 8076   3.738   1.242   6.857
 2393SOL     OW 8077   4.050   4.981   5.606
 2393SOL    HW1 8078   4.032   4.998   5.509
 2393SOL    HW2 8079   4.081   5.066   5.650
 2394SOL     OW 8080   0.187   4.483   5.400
 2394SOL    HW1 8081   0.158   4.428   5.478
 2394SOL    HW2 8082   0.273   4.529   5.421
 2395SOL     OW 8083   4.089   0.311   5.909
 2395SOL    HW1 8084   4.028   0.248   5.958
 2395SOL    HW2 8085   4.114   0.386   5.969
 2396SOL     OW 8086   4.168   4.419   0.932
 2396SOL    HW1 8087   4.125   4.351   0.873
 2396SOL    HW2 8088   4.244   4.376   0.982
 2397SOL     OW 8089   0.085   3.664   4.241
 2397SOL    HW1 8090   0.161   3.705   4.191
 2397SOL    HW2 8091   0.066   3.573   4.204
 2398SOL     OW 8092   4.140   4.822   5.805
 2398SOL    HW1 8093   4.103   4.892   5.744
 2398SOL    HW2 8094   4.095   4.735   5.786
 2399SOL     OW 8095   4.323   2.143   1.690
 2399SOL    HW1 8096   4.279   2.204   1.755
 2399SOL    HW2 8097   4.397   2.093   1.736
 2400SOL     OW 8098   2.408   5.274   1.445
 2400SOL    HW1 8099   2.393   5.321   1.359
 2400SOL    HW2 8100   2.347   5.195   1.452
 2401SOL     OW 8101   0.199   6.413   6.204
 2401SOL    HW1 8102   0.161   6.447   6.290
 2401SOL    HW2 8103   0.294   6.443   6.195
 2402SOL     OW 8104   6.913   6.619   4.325
 2402SOL    HW1 8105   6.870   6.677   4.394
 2402SOL    HW2 8106   6.875   6.526   4.331
 2403SOL     OW 8107   0.349   1.730   4.924
 2403SOL    HW1 8108   0.388   1.791   4.993
 2403SOL    HW2 8109   0.250   1.738   4.925
 2404SOL     OW 8110   1.213   0.415   0.240
 2404SOL    HW1 8111   1.269   0.379   0.165
 2404SOL    HW2 8112   1.249   0.503   0.269
 2405SOL     OW 8113   3.002   4.118   1.517
 2405SOL    HW1 8114   2.965   4.067   1.440
 2405SOL    HW2 8115   3.072   4.182   1.485
 2406SOL     OW 8116   4.634   1.154   1.325
 2406SOL    HW1 8117   4.563   1.220   1.352
 2406SOL    HW2 8118   4.597   1.090   1.258
 2407SOL     OW 8119   4.785   0.589   3.919
 2407SOL    HW1 8120   4.857   0.657   3.933
 2407SOL    HW2 8121   4.788   0.556   3.824
 2408SOL     OW 8122   4.508   4.516   2.195
 2408SOL    HW1 8123   4.533   4.604   2.156
 2408SOL    HW2 8124   4.442   4.470   2.135
 2409SOL     OW 8125   1.312   4.051   0.464
 2409SOL    HW1 8126   1.364   3.991   0.526
 2409SOL    HW2 8127   1.371   4.080   0.389
 2410SOL     OW 8128   3.105   3.009   2.692
 2410SOL    HW1 8129   3.159   3.082   2.733
 2410SOL    HW2 8130   3.042   2.972   2.759
 2411SOL     OW 8131   4.659   6.607   4.377
 2411SOL    HW1 8132   4.708   6.546   4.315
 2411SOL    HW2 8133   4.666   6.701   4.346
 2412SOL     OW 8134   4.392   3.438   0.907
 2412SOL    HW1 8135   4.399   3.471   1.001
 2412SOL    HW2 8136   4.438   3.350   0.898
 2413SOL     OW 8137   5.141   0.001   2.389
 2413SOL    HW1 8138   5.080   0.074   2.358
 2413SOL    HW2 8139   5.090   6.954   2.441
 2414SOL     OW 8140   5.478   3.839   3.947
 2414SOL    HW1 8141   5.561   3.891   3.931
 2414SOL    HW2 8142   5.467   3.823   4.045
 2415SOL     OW 8143   4.533   1.113   3.147
 2415SOL    HW1 8144   4.560   1.203   3.183
 2415SOL    HW2 8145   4.521   1.049   3.223
 2416SOL     OW 8146   5.556   1.826   6.398
 2416SOL    HW1 8147   5.458   1.803   6.392
 2416SOL    HW2 8148   5.597   1.772   6.471
 2417SOL     OW 8149   3.465   4.175   4.493
 2417SOL    HW1 8150   3.415   4.244   4.545
 2417SOL    HW2 8151   3.555   4.161   4.533
 2418SOL     OW 8152   3.185   2.970   3.012
 2418SOL    HW1 8153   3.231   2.898   3.063
 2418SOL    HW2 8154   3.138   3.031   3.076
 2419SOL     OW 8155   0.431   0.196   2.892
 2419SOL    HW1 8156   0.504   0.264   2.901
 2419SOL    HW2 8157   0.370   0.223   2.818
 2420SOL     OW 8158   2.155   0.190   2.124
 2420SOL    HW1 8159   2.080   0.170   2.061
 2420SOL    HW2 8160   2.231   0.129   2.104
 2421SOL     OW 8161   3.383   1.921   3.706
 2421SOL    HW1 8162   3.416   1.827   3.693
 2421SOL    HW2 8163   3.361   1.961   3.617
 2422SOL     OW 8164   4.639   1.499   0.722
 2422SOL    HW1 8165   4.638   1.495   0.822
 2422SOL    HW2 8166   4.659   1.407   0.685
 2423SOL     OW 8167   1.898   4.692   2.222
 2423SOL    HW1 8168   1.969   4.648   2.167
 2423SOL    HW2 8169   1.870   4.630   2.295
 2424SOL     OW 8170   6.073   0.205   0.931
 2424SOL    HW1 8171   6.025   0.151   1.000
 2424SOL    HW2 8172   6.020   0.205   0.846
 2425SOL     OW 8173   0.089   6.691   4.135
 2425SOL    HW1 8174   0.027   6.668   4.210
 2425SOL    HW2 8175   0.078   6.625   4.061
 2426SOL     OW 8176   2.584   4.552   4.184
 2426SOL    HW1 8177   2.537   4.568   4.097
 2426SOL    HW2 8178   2.517   4.535   4.256
 2427SOL     OW 8179   6.027   0.226   5.755
 2427SOL    HW1 8180   5.928   0.242   5.748
 2427SOL    HW2 8181   6.044   0.156   5.824
 2428SOL     OW 8182   6.235   0.710   0.634
 2428SOL    HW1 8183   6.302   0.777   0.667
 2428SOL    HW2 8184   6.142   0.747   0.645
 2429SOL     OW 8185   5.140   5.356   1.975
 2429SOL    HW1 8186   5.142   5.275   1.915
 2429SOL    HW2 8187   5.193   5.429   1.933
 2430SOL     OW 8188   5.221   0.210   2.649
 2430SOL    HW1 8189   5.190   0.194   2.555
 2430SOL    HW2 8190   5.185   0.297   2.682
 2431SOL     OW 8191   4.433   0.263   2.213
 2431SOL    HW1 8192   4.443   0.197   2.287
 2431SOL    HW2 8193   4.356   0.237   2.155
 2432SOL     OW 8194   2.492   6.103   2.838
 2432SOL    HW1 8195   2.441   6.020   2.860
 2432SOL    HW2 8196   2.590   6.086   2.849
 2433SOL     OW 8197   4.260   0.273   0.791
 2433SOL    HW1 8198   4.170   0.285   0.749
 2433SOL    HW2 8199   4.330   0.265   0.719
 2434SOL     OW 8200   3.867   3.205   5.045
 2434SOL    HW1 8201   3.881   3.202   5.144
 2434SOL    HW2 8202   3.916   3.129   5.002
 2435SOL     OW 8203   6.501   5.630   5.623
 2435SOL    HW1 8204   6.458   5.688   5.554
 2435SOL    HW2 8205   6.507   5.536   5.589
 2436SOL     OW 8206   3.034   4.873   0.774
 2436SOL    HW1 8207   3.021   4.972   0.771
 2436SOL    HW2 8208   3.036   4.837   0.681
 2437SOL     OW 8209   6.946   0.429   6.040
 2437SOL    HW1 8210   6.998   0.388   5.966
 2437SOL    HW2 8211   6.934   0.527   6.022
 2438SOL     OW 8212   2.864   3.224   0.795
 2438SOL    HW1 8213   2.913   3.137   0.792
 2438SOL    HW2 8214   2.929   3.300   0.786
 2439SOL     OW 8215   5.767   4.167   5.951
 2439SOL    HW1 8216   5.844   4.182   5.889
 2439SOL    HW2 8217   5.684   4.149   5.898
 2440SOL     OW 8218   5.671   4.999   5.604
 2440SOL    HW1 8219   5.758   5.023   5.647
 2440SOL    HW2 8220   5.651   5.064   5.531
 2441SOL     OW 8221   6.373   2.017   0.846
 2441SOL    HW1 8222   6.450   2.004   0.783
 2441SOL    HW2 8223   6.392   2.095   0.906
 2442SOL     OW 8224   0.038   2.207   5.641
 2442SOL    HW1 8225   6.974   2.253   5.668
 2442SOL    HW2 8226   0.097   2.272   5.594
 2443SOL     OW 8227   2.703   4.744   5.226
 2443SOL    HW1 8228   2.746   4.687   5.155
 2443SOL    HW2 8229   2.739   4.837   5.219
 2444SOL     OW 8230   3.379   2.712   5.432
 2444SOL    HW1 8231   3.365   2.767   5.515
 2444SOL    HW2 8232   3.301   2.650   5.419
 2445SOL     OW 8233   0.914   6.935   0.820
 2445SOL    HW1 8234   0.956   7.002   0.758
 2445SOL    HW2 8235   0.951   6.948   0.912
 2446SOL     OW 8236   5.278   3.318   6.288
 2446SOL    HW1 8237   5.268   3.408   6.244
 2446SOL    HW2 8238   5.323   3.255   6.224
 2447SOL     OW 8239   0.407   3.262   6.262
 2447SOL    HW1 8240   0.481   3.196   6.247
 2447SOL    HW2 8241   0.328   3.214   6.302
 2448SOL     OW 8242   7.000   6.952   4.056
 2448SOL    HW1 8243   0.041   6.878   4.080
 2448SOL    HW2 8244   0.032   0.016   4.045
 2449SOL     OW 8245   0.732   3.261   4.869
 2449SOL    HW1 8246   0.767   3.346   4.831
 2449SOL    HW2 8247   0.657   3.227   4.812
 2450SOL     OW 8248   2.025   2.766   1.720
 2450SOL    HW1 8249   2.086   2.819   1.778
 2450SOL    HW2 8250   1.961   2.827   1.674
 2451SOL     OW 8251   2.155   6.409   4.194
 2451SOL    HW1 8252   2.136   6.313   4.174
 2451SOL    HW2 8253   2.253   6.421   4.209
 2452SOL     OW 8254   2.406   2.613   4.456
 2452SOL    HW1 8255   2.448   2.627   4.366
 2452SOL    HW2 8256   2.365   2.522   4.460
 2453SOL     OW 8257   0.421   3.433   1.303
 2453SOL    HW1 8258   0.471   3.417   1.218
 2453SOL    HW2 8259   0.469   3.390   1.379
 2454SOL     OW 8260   2.150   0.104   1.694
 2454SOL    HW1 8261   2.238   0.084   1.652
 2454SOL    HW2 8262   2.132   0.202   1.689
 2455SOL     OW 8263   5.630   3.379   1.343
 2455SOL    HW1 8264   5.668   3.287   1.351
 2455SOL    HW2 8265   5.693   3.445   1.386
 2456SOL     OW 8266   2.669   6.912   1.212
 2456SOL    HW1 8267   2.738   6.886   1.145
 2456SOL    HW2 8268   2.585   6.938   1.165
 2457SOL     OW 8269   5.806   6.137   1.240
 2457SOL    HW1 8270   5.817   6.192   1.323
 2457SOL    HW2 8271   5.721   6.084   1.246
 2458SOL     OW 8272   0.383   6.364   1.791
 2458SOL    HW1 8273   0.446   6.296   1.828
 2458SOL    HW2 8274   0.383   6.358   1.691
 2459SOL     OW 8275   0.919   1.480   0.544
 2459SOL    HW1 8276   0.832   1.466   0.497
 2459SOL    HW2 8277   0.994   1.475   0.478
 2460SOL     OW 8278   2.989   4.570   1.332
 2460SOL    HW1 8279   3.023   4.554   1.425
 2460SOL    HW2 8280   2.924   4.645   1.333
 2461SOL     OW 8281   4.970   1.033   2.641
 2461SOL    HW1 8282   4.890   1.088   2.662
 2461SOL    HW2 8283   4.984   1.029   2.542
 2462SOL     OW 8284   2.479   3.826   5.971
 2462SOL    HW1 8285   2.481   3.772   6.055
 2462SOL    HW2 8286   2.460   3.767   5.893
 2463SOL     OW 8287   0.899   2.809   5.094
 2463SOL    HW1 8288   0.827   2.740   5.102
 2463SOL    HW2 8289   0.938   2.827   5.184
 2464SOL     OW 8290   1.174   3.473   0.573
 2464SOL    HW1 8291   1.140   3.437   0.486
 2464SOL    HW2 8292   1.260   3.522   0.558
 2465SOL     OW 8293   5.864   5.162   1.883
 2465SOL    HW1 8294   5.780   5.216   1.883
 2465SOL    HW2 8295   5.884   5.132   1.977
 2466SOL     OW 8296   3.790   1.305   1.612
 2466SOL    HW1 8297   3.878   1.284   1.654
 2466SOL    HW2 8298   3.747   1.382   1.659
 2467SOL     OW 8299   0.613   1.113   4.619
 2467SOL    HW1 8300   0.539   1.140   4.681
 2467SOL    HW2 8301   0.686   1.069   4.671
 2468SOL     OW 8302   6.326   4.606   6.808
 2468SOL    HW1 8303   6.262   4.578   6.879
 2468SOL    HW2 8304   6.306   4.700   6.780
 2469SOL     OW 8305   3.057   2.657   5.917
 2469SOL    HW1 8306   3.132   2.722   5.930
 2469SOL    HW2 8307   2.985   2.699   5.862
 2470SOL     OW 8308   5.450   2.754   0.639
 2470SOL    HW1 8309   5.418   2.699   0.563
 2470SOL    HW2 8310   5.480   2.695   0.714
 2471SOL     OW 8311   0.291   1.259   2.770
 2471SOL    HW1 8312   0.240   1.344   2.784
 2471SOL    HW2 8313   0.242   1.200   2.707
 2472SOL     OW 8314   5.725   1.370   3.708
 2472SOL    HW1 8315   5.655   1.299   3.707
 2472SOL    HW2 8316   5.757   1.387   3.614
 2473SOL     OW 8317   0.463   6.174   5.224
 2473SOL    HW1 8318   0.462   6.147   5.320
 2473SOL    HW2 8319   0.548   6.223   5.204
 2474SOL     OW 8320   6.178   6.794   4.344
 2474SOL    HW1 8321   6.239   6.864   4.383
 2474SOL    HW2 8322   6.107   6.838   4.289
 2475SOL     OW 8323   4.371   1.964   6.445
 2475SOL    HW1 8324   4.320   2.004   6.521
 2475SOL    HW2 8325   4.327   1.989   6.358
 2476SOL     OW 8326   0.745   1.373   3.289
 2476SOL    HW1 8327   0.692   1.356   3.372
 2476SOL    HW2 8328   0.841   1.349   3.306
 2477SOL     OW 8329   4.386   5.117   2.301
 2477SOL    HW1 8330   4.395   5.208   2.341
 2477SOL    HW2 8331   4.465   5.061   2.326
 2478SOL     OW 8332   0.109   6.849   2.286
 2478SOL    HW1 8333   0.028   6.845   2.228
 2478SOL    HW2 8334   0.160   6.764   2.277
 2479SOL     OW 8335   0.766   2.592   6.906
 2479SOL    HW1 8336   0.760   2.608   7.004
 2479SOL    HW2 8337   0.842   2.643   6.868
 2480SOL     OW 8338   6.586   4.896   1.807
 2480SOL    HW1 8339   6.590   4.991   1.838
 2480SOL    HW2 8340   6.614   4.890   1.712
 2481SOL     OW 8341   3.790   5.277   2.283
 2481SOL    HW1 8342   3.745   5.344   2.224
 2481SOL    HW2 8343   3.720   5.227   2.335
 2482SOL     OW 8344   4.658   2.457   5.329
 2482SOL    HW1 8345   4.579   2.507   5.363
 2482SOL    HW2 8346   4.718   2.519   5.278
 2483SOL     OW 8347   0.538   3.064   0.043
 2483SOL    HW1 8348   0.588   2.986   0.083
 2483SOL    HW2 8349   0.482   3.107   0.114
 2484SOL     OW 8350   3.875   4.070   5.826
 2484SOL    HW1 8351   3.943   4.134   5.863
 2484SOL    HW2 8352   3.790   4.080   5.876
 2485SOL     OW 8353   0.952   5.824   0.005
 2485SOL    HW1 8354   0.974   5.794   6.933
 2485SOL    HW2 8355   1.020   5.788   0.069
 2486SOL     OW 8356   0.606   5.535   3.776
 2486SOL    HW1 8357   0.569   5.448   3.744
 2486SOL    HW2 8358   0.685   5.517   3.835
 2487SOL     OW 8359   3.630   1.529   1.688
 2487SOL    HW1 8360   3.534   1.529   1.719
 2487SOL    HW2 8361   3.663   1.623   1.685
 2488SOL     OW 8362   3.434   6.108   6.550
 2488SOL    HW1 8363   3.370   6.174   6.590
 2488SOL    HW2 8364   3.421   6.019   6.593
 2489SOL     OW 8365   0.290   5.837   4.373
 2489SOL    HW1 8366   0.321   5.860   4.281
 2489SOL    HW2 8367   0.268   5.920   4.423
 2490SOL     OW 8368   5.805   2.729   1.497
 2490SOL    HW1 8369   5.721   2.720   1.443
 2490SOL    HW2 8370   5.782   2.761   1.589
 2491SOL     OW 8371   0.113   4.536   3.349
 2491SOL    HW1 8372   0.100   4.527   3.250
 2491SOL    HW2 8373   0.078   4.455   3.395
 2492SOL     OW 8374   4.432   1.525   6.323
 2492SOL    HW1 8375   4.424   1.488   6.231
 2492SOL    HW2 8376   4.399   1.457   6.389
 2493SOL     OW 8377   6.410   0.783   5.014
 2493SOL    HW1 8378   6.499   0.823   4.992
 2493SOL    HW2 8379   6.391   0.795   5.111
 2494SOL     OW 8380   4.299   5.260   1.248
 2494SOL    HW1 8381   4.262   5.192   1.184
 2494SOL    HW2 8382   4.290   5.227   1.341
 2495SOL     OW 8383   6.802   0.824   2.530
 2495SOL    HW1 8384   6.766   0.740   2.570
 2495SOL    HW2 8385   6.767   0.903   2.582
 2496SOL     OW 8386   1.783   5.111   0.589
 2496SOL    HW1 8387   1.745   5.174   0.521
 2496SOL    HW2 8388   1.882   5.125   0.595
 2497SOL     OW 8389   5.416   0.419   6.397
 2497SOL    HW1 8390   5.449   0.499   6.447
 2497SOL    HW2 8391   5.471   0.339   6.422
 2498SOL     OW 8392   0.811   3.420   4.643
 2498SOL    HW1 8393   0.750   3.468   4.580
 2498SOL    HW2 8394   0.801   3.321   4.631
 2499SOL     OW 8395   5.192   1.139   0.582
 2499SOL    HW1 8396   5.172   1.224   0.533
 2499SOL    HW2 8397   5.285   1.109   0.559
 2500SOL     OW 8398   4.564   3.837   6.308
 2500SOL    HW1 8399   4.465   3.848   6.300
 2500SOL    HW2 8400   4.604   3.917   6.353
 2501SOL     OW 8401   6.696   4.956   1.093
 2501SOL    HW1 8402   6.676   4.872   1.144
 2501SOL    HW2 8403   6.613   4.985   1.044
 2502SOL     OW 8404   0.574   0.717   3.655
 2502SOL    HW1 8405   0.492   0.764   3.689
 2502SOL    HW2 8406   0.598   0.643   3.718
 2503SOL     OW 8407   5.582   6.455   4.069
 2503SOL    HW1 8408   5.565   6.553   4.057
 2503SOL    HW2 8409   5.662   6.442   4.126
 2504SOL     OW 8410   2.474   4.770   3.108
 2504SOL    HW1 8411   2.572   4.784   3.123
 2504SOL    HW2 8412   2.461   4.710   3.029
 2505SOL     OW 8413   4.799   4.249   5.083
 2505SOL    HW1 8414   4.768   4.222   4.992
 2505SOL    HW2 8415   4.818   4.167   5.138
 2506SOL     OW 8416   0.970   0.937   0.564
 2506SOL    HW1 8417   1.015   0.912   0.649
 2506SOL    HW2 8418   0.983   1.035   0.547
 2507SOL     OW 8419   6.340   6.354   6.913
 2507SOL    HW1 8420   6.366   6.405   6.995
 2507SOL    HW2 8421   6.251   6.386   6.881
 2508SOL     OW 8422   1.688   2.280   2.001
 2508SOL    HW1 8423   1.612   2.264   1.938
 2508SOL    HW2 8424   1.752   2.345   1.962
 2509SOL     OW 8425   5.848   0.777   3.567
 2509SOL    HW1 8426   5.827   0.756   3.472
 2509SOL    HW2 8427   5.763   0.782   3.620
 2510SOL     OW 8428   4.311   6.236   2.353
 2510SOL    HW1 8429   4.294   6.300   2.428
 2510SOL    HW2 8430   4.405   6.204   2.358
 2511SOL     OW 8431   0.668   6.541   3.784
 2511SOL    HW1 8432   0.716   6.621   3.818
 2511SOL    HW2 8433   0.730   6.487   3.727
 2512SOL     OW 8434   5.984   3.939   4.392
 2512SOL    HW1 8435   6.060   3.874   4.395
 2512SOL    HW2 8436   5.986   3.996   4.475
 2513SOL     OW 8437   0.013   4.591   0.868
 2513SOL    HW1 8438   6.984   4.518   0.914
 2513SOL    HW2 8439   6.969   4.654   0.825
 2514SOL     OW 8440   7.017   2.325   3.518
 2514SOL    HW1 8441   0.063   2.399   3.524
 2514SOL    HW2 8442   0.043   2.237   3.530
 2515SOL     OW 8443   1.008   4.448   6.455
 2515SOL    HW1 8444   0.965   4.362   6.480
 2515SOL    HW2 8445   0.940   4.510   6.417
 2516SOL     OW 8446   5.220   6.402   3.768
 2516SOL    HW1 8447   5.188   6.496   3.779
 2516SOL    HW2 8448   5.197   6.369   3.677
 2517SOL     OW 8449   1.977   5.537   0.757
 2517SOL    HW1 8450   2.045   5.467   0.778
 2517SOL    HW2 8451   2.007   5.625   0.793
 2518SOL     OW 8452   2.471   2.731   0.064
 2518SOL    HW1 8453   2.405   2.695   0.131
 2518SOL    HW2 8454   2.450   2.827   0.045
 2519SOL     OW 8455   5.638   4.136   5.259
 2519SOL    HW1 8456   5.589   4.130   5.173
 2519SOL    HW2 8457   5.638   4.231   5.291
 2520SOL     OW 8458   3.410   5.480   1.416
 2520SOL    HW1 8459   3.336   5.518   1.360
 2520SOL    HW2 8460   3.391   5.384   1.435
 2521SOL     OW 8461   5.666   6.518   5.886
 2521SOL    HW1 8462   5.655   6.608   5.843
 2521SOL    HW2 8463   5.582   6.465   5.874
 2522SOL     OW 8464   1.931   5.070   4.709
 2522SOL    HW1 8465   1.936   4.978   4.748
 2522SOL    HW2 8466   1.923   5.063   4.609
 2523SOL     OW 8467   0.967   1.697   5.830
 2523SOL    HW1 8468   0.898   1.705   5.902
 2523SOL    HW2 8469   0.924   1.714   5.741
 2524SOL     OW 8470   1.510   0.045   4.387
 2524SOL    HW1 8471   1.522   0.013   4.481
 2524SOL    HW2 8472   1.600   0.058   4.344
 2525SOL     OW 8473   2.588   4.599   2.250
 2525SOL    HW1 8474   2.591   4.606   2.150
 2525SOL    HW2 8475   2.536   4.518   2.276
 2526SOL     OW 8476   1.239   2.646   4.729
 2526SOL    HW1 8477   1.244   2.715   4.801
 2526SOL    HW2 8478   1.330   2.610   4.710
 2527SOL     OW 8479   6.669   0.086   3.912
 2527SOL    HW1 8480   6.575   0.096   3.879
 2527SOL    HW2 8481   6.670   0.035   3.997
 2528SOL     OW 8482   5.361   5.622   0.433
 2528SOL    HW1 8483   5.434   5.604   0.500
 2528SOL    HW2 8484   5.366   5.717   0.403
 2529SOL     OW 8485   5.072   4.359   5.514
 2529SOL    HW1 8486   4.978   4.389   5.526
 2529SOL    HW2 8487   5.082   4.265   5.549
 2530SOL     OW 8488   0.945   6.410   3.381
 2530SOL    HW1 8489   0.998   6.325   3.380
 2530SOL    HW2 8490   0.942   6.449   3.290
 2531SOL     OW 8491   5.514   1.566   6.866
 2531SOL    HW1 8492   5.591   1.528   6.814
 2531SOL    HW2 8493   5.432   1.565   6.808
 2532SOL     OW 8494   1.080   5.020   5.609
 2532SOL    HW1 8495   1.136   4.994   5.688
 2532SOL    HW2 8496   1.088   4.949   5.539
 2533SOL     OW 8497   5.621   0.579   5.263
 2533SOL    HW1 8498   5.676   0.500   5.293
 2533SOL    HW2 8499   5.682   0.650   5.230
 2534SOL     OW 8500   6.364   1.382   3.644
 2534SOL    HW1 8501   6.373   1.399   3.742
 2534SOL    HW2 8502   6.451   1.350   3.608
 2535SOL     OW 8503   2.780   1.216   2.215
 2535SOL    HW1 8504   2.824   1.231   2.303
 2535SOL    HW2 8505   2.779   1.302   2.163
 2536SOL     OW 8506   0.094   0.611   4.200
 2536SOL    HW1 8507   0.046   0.530   4.165
 2536SOL    HW2 8508   0.153   0.648   4.129
 2537SOL     OW 8509   3.336   6.184   2.400
 2537SOL    HW1 8510   3.304   6.152   2.489
 2537SOL    HW2 8511   3.371   6.106   2.347
 2538SOL     OW 8512   0.655   5.045   5.514
 2538SOL    HW1 8513   0.669   5.140   5.539
 2538SOL    HW2 8514   0.740   5.009   5.474
 2539SOL     OW 8515   2.055   0.489   5.589
 2539SOL    HW1 8516   2.131   0.517   5.647
 2539SOL    HW2 8517   2.031   0.564   5.527
 2540SOL     OW 8518   4.931   2.337   2.731
 2540SOL    HW1 8519   4.922   2.242   2.760
 2540SOL    HW2 8520   4.847   2.366   2.685
 2541SOL     OW 8521   1.025   1.529   6.597
 2541SOL    HW1 8522   1.011   1.548   6.500
 2541SOL    HW2 8523   1.090   1.595   6.636
 2542SOL     OW 8524   3.972   1.700   3.329
 2542SOL    HW1 8525   3.957   1.786   3.377
 2542SOL    HW2 8526   4.067   1.670   3.344
 2543SOL     OW 8527   5.921   0.642   5.279
 2543SOL    HW1 8528   5.880   0.624   5.368
 2543SOL    HW2 8529   5.984   0.569   5.255
 2544SOL     OW 8530   0.153   6.923   1.156
 2544SOL    HW1 8531   0.214   6.965   1.088
 2544SOL    HW2 8532   0.207   6.881   1.228
 2545SOL     OW 8533   6.937   1.179   0.095
 2545SOL    HW1 8534   0.004   1.153   0.134
 2545SOL    HW2 8535   6.882   1.097   0.077
 2546SOL     OW 8536   6.405   3.693   2.563
 2546SOL    HW1 8537   6.306   3.697   2.551
 2546SOL    HW2 8538   6.447   3.772   2.517
 2547SOL     OW 8539   5.538   3.348   0.839
 2547SOL    HW1 8540   5.442   3.346   0.811
 2547SOL    HW2 8541   5.577   3.437   0.818
 2548SOL     OW 8542   6.493   0.582   5.381
 2548SOL    HW1 8543   6.560   0.632   5.325
 2548SOL    HW2 8544   6.540   0.533   5.454
 2549SOL     OW 8545   2.859   5.201   0.599
 2549SOL    HW1 8546   2.913   5.161   0.524
 2549SOL    HW2 8547   2.764   5.211   0.570
 2550SOL     OW 8548   3.817   0.059   1.287
 2550SOL    HW1 8549   3.732   0.008   1.268
 2550SOL    HW2 8550   3.805   0.113   1.370
 2551SOL     OW 8551   3.777   4.541   1.455
 2551SOL    HW1 8552   3.824   4.479   1.517
 2551SOL    HW2 8553   3.695   4.497   1.419
 2552SOL     OW 8554   2.286   4.528   1.453
 2552SOL    HW1 8555   2.215   4.489   1.396
 2552SOL    HW2 8556   2.376   4.508   1.414
 2553SOL     OW 8557   4.782   1.350   0.222
 2553SOL    HW1 8558   4.788   1.448   0.242
 2553SOL    HW2 8559   4.687   1.326   0.199
 2554SOL     OW 8560   0.774   5.354   1.000
 2554SOL    HW1 8561   0.781   5.270   0.946
 2554SOL    HW2 8562   0.754   5.431   0.939
 2555SOL     OW 8563   0.652   6.669   5.148
 2555SOL    HW1 8564   0.668   6.748   5.206
 2555SOL    HW2 8565   0.715   6.672   5.070
 2556SOL     OW 8566   5.273   0.488   0.904
 2556SOL    HW1 8567   5.218   0.407   0.885
 2556SOL    HW2 8568   5.357   0.485   0.851
 2557SOL     OW 8569   2.587   1.400   6.878
 2557SOL    HW1 8570   2.587   1.303   6.901
 2557SOL    HW2 8571   2.496   1.438   6.892
 2558SOL     OW 8572   5.143   2.018   1.684
 2558SOL    HW1 8573   5.168   2.010   1.588
 2558SOL    HW2 8574   5.142   2.115   1.710
 2559SOL     OW 8575   6.278   5.064   3.751
 2559SOL    HW1 8576   6.352   5.131   3.754
 2559SOL    HW2 8577   6.221   5.081   3.670
 2560SOL     OW 8578   4.408   2.434   2.178
 2560SOL    HW1 8579   4.312   2.453   2.195
 2560SOL    HW2 8580   4.456   2.519   2.156
 2561SOL     OW 8581   3.334   0.298   4.776
 2561SOL    HW1 8582   3.286   0.323   4.860
 2561SOL    HW2 8583   3.312   0.203   4.752
 2562SOL     OW 8584   1.757   6.975   5.184
 2562SOL    HW1 8585   1.676   6.966   5.241
 2562SOL    HW2 8586   1.797   6.885   5.169
 2563SOL     OW 8587   4.020   2.610   6.518
 2563SOL    HW1 8588   3.971   2.533   6.477
 2563SOL    HW2 8589   4.086   2.576   6.584
 2564SOL     OW 8590   1.326   1.160   0.523
 2564SOL    HW1 8591   1.266   1.193   0.450
 2564SOL    HW2 8592   1.419   1.153   0.488
 2565SOL     OW 8593   0.773   0.740   0.685
 2565SOL    HW1 8594   0.846   0.792   0.642
 2565SOL    HW2 8595   0.691   0.797   0.691
 2566SOL     OW 8596   3.016   1.495   0.817
 2566SOL    HW1 8597   2.949   1.467   0.748
 2566SOL    HW2 8598   3.108   1.481   0.781
 2567SOL     OW 8599   1.853   0.702   6.669
 2567SOL    HW1 8600   1.898   0.704   6.580
 2567SOL    HW2 8601   1.784   0.630   6.670
 2568SOL     OW 8602   2.167   5.734   0.968
 2568SOL    HW1 8603   2.177   5.784   0.882
 2568SOL    HW2 8604   2.070   5.734   0.995
 2569SOL     OW 8605   1.801   6.403   6.614
 2569SOL    HW1 8606   1.781   6.500   6.629
 2569SOL    HW2 8607   1.855   6.393   6.531
 2570SOL     OW 8608   0.392   6.798   3.931
 2570SOL    HW1 8609   0.422   6.710   3.894
 2570SOL    HW2 8610   0.395   6.794   4.031
 2571SOL     OW 8611   3.683   3.733   2.552
 2571SOL    HW1 8612   3.658   3.828   2.532
 2571SOL    HW2 8613   3.600   3.677   2.554
 2572SOL     OW 8614   2.257   5.967   2.578
 2572SOL    HW1 8615   2.234   5.951   2.482
 2572SOL    HW2 8616   2.303   6.055   2.587
 2573SOL     OW 8617   6.991   1.077   3.110
 2573SOL    HW1 8618   6.992   1.041   3.204
 2573SOL    HW2 8619   0.064   1.084   3.076
 2574SOL     OW 8620   0.393   3.466   1.827
 2574SOL    HW1 8621   0.475   3.457   1.771
 2574SOL    HW2 8622   0.403   3.544   1.888
 2575SOL     OW 8623   4.402   3.991   5.472
 2575SOL    HW1 8624   4.304   4.006   5.477
 2575SOL    HW2 8625   4.425   3.900   5.507
 2576SOL     OW 8626   0.875   0.241   3.099
 2576SOL    HW1 8627   0.791   0.271   3.053
 2576SOL    HW2 8628   0.858   0.231   3.197
 2577SOL     OW 8629   1.851   4.585   1.200
 2577SOL    HW1 8630   1.756   4.615   1.191
 2577SOL    HW2 8631   1.912   4.659   1.172
 2578SOL     OW 8632   4.480   2.805   5.205
 2578SOL    HW1 8633   4.473   2.717   5.158
 2578SOL    HW2 8634   4.570   2.811   5.250
 2579SOL     OW 8635   0.242   1.243   6.694
 2579SOL    HW1 8636   0.244   1.343   6.694
 2579SOL    HW2 8637   0.335   1.208   6.685
 2580SOL     OW 8638   1.779   1.863   5.445
 2580SOL    HW1 8639   1.876   1.888   5.439
 2580SOL    HW2 8640   1.726   1.945   5.465
 2581SOL     OW 8641   5.788   6.468   4.468
 2581SOL    HW1 8642   5.782   6.435   4.373
 2581SOL    HW2 8643   5.824   6.395   4.526
 2582SOL     OW 8644   6.790   4.578   3.224
 2582SOL    HW1 8645   6.878   4.598   3.182
 2582SOL    HW2 8646   6.761   4.485   3.199
 2583SOL     OW 8647   2.821   1.070   0.036
 2583SOL    HW1 8648   2.765   1.086   6.975
 2583SOL    HW2 8649   2.917   1.087   0.014
 2584SOL     OW 8650   4.501   0.882   3.328
 2584SOL    HW1 8651   4.573   0.816   3.306
 2584SOL    HW2 8652   4.421   0.833   3.362
 2585SOL     OW 8653   3.689   0.625   2.312
 2585SOL    HW1 8654   3.653   0.658   2.225
 2585SOL    HW2 8655   3.709   0.527   2.305
 2586SOL     OW 8656   0.652   1.772   3.991
 2586SOL    HW1 8657   0.605   1.731   4.070
 2586SOL    HW2 8658   0.584   1.800   3.923
 2587SOL     OW 8659   6.758   5.053   2.719
 2587SOL    HW1 8660   6.780   5.008   2.805
 2587SOL    HW2 8661   6.777   4.991   2.643
 2588SOL     OW 8662   3.722   6.553   2.774
 2588SOL    HW1 8663   3.648   6.553   2.706
 2588SOL    HW2 8664   3.682   6.540   2.865
 2589SOL     OW 8665   4.331   6.590   1.445
 2589SOL    HW1 8666   4.290   6.563   1.358
 2589SOL    HW2 8667   4.429   6.569   1.443
 2590SOL     OW 8668   3.681   5.901   3.747
 2590SOL    HW1 8669   3.595   5.874   3.704
 2590SOL    HW2 8670   3.698   5.998   3.728
 2591SOL     OW 8671   5.836   0.372   0.124
 2591SOL    HW1 8672   5.838   0.472   0.117
 2591SOL    HW2 8673   5.906   0.333   0.064
 2592SOL     OW 8674   2.754   4.628   1.631
 2592SOL    HW1 8675   2.663   4.662   1.655
 2592SOL    HW2 8676   2.800   4.595   1.714
 2593SOL     OW 8677   3.188   0.112   3.702
 2593SOL    HW1 8678   3.248   0.068   3.635
 2593SOL    HW2 8679   3.243   0.158   3.770
 2594SOL     OW 8680   1.732   5.809   6.852
 2594SOL    HW1 8681   1.657   5.874   6.851
 2594SOL    HW2 8682   1.707   5.729   6.907
 2595SOL     OW 8683   6.963   3.028   4.533
 2595SOL    HW1 8684   6.975   2.950   4.472
 2595SOL    HW2 8685   0.032   3.066   4.556
 2596SOL     OW 8686   4.205   1.962   1.063
 2596SOL    HW1 8687   4.221   1.946   1.160
 2596SOL    HW2 8688   4.140   2.037   1.052
 2597SOL     OW 8689   2.406   2.265   6.184
 2597SOL    HW1 8690   2.503   2.244   6.173
 2597SOL    HW2 8691   2.379   2.335   6.119
 2598SOL     OW 8692   7.010   0.867   2.849
 2598SOL    HW1 8693   0.040   0.818   2.778
 2598SOL    HW2 8694   0.050   0.932   2.895
 2599SOL     OW 8695   4.951   5.683   6.419
 2599SOL    HW1 8696   4.951   5.669   6.518
 2599SOL    HW2 8697   5.037   5.648   6.380
 2600SOL     OW 8698   0.607   2.222   4.656
 2600SOL    HW1 8699   0.551   2.298   4.623
 2600SOL    HW2 8700   0.703   2.251   4.661
 2601SOL     OW 8701   3.985   3.430   5.331
 2601SOL    HW1 8702   3.962   3.467   5.240
 2601SOL    HW2 8703   4.055   3.488   5.373
 2602SOL     OW 8704   6.171   6.478   6.218
 2602SOL    HW1 8705   6.171   6.454   6.315
 2602SOL    HW2 8706   6.077   6.493   6.187
 2603SOL     OW 8707   1.458   1.840   6.704
 2603SOL    HW1 8708   1.478   1.902   6.628
 2603SOL    HW2 8709   1.438   1.894   6.786
 2604SOL     OW 8710   5.304   1.667   1.034
 2604SOL    HW1 8711   5.331   1.724   1.111
 2604SOL    HW2 8712   5.244   1.719   0.973
 2605SOL     OW 8713   5.417   3.069   4.519
 2605SOL    HW1 8714   5.513   3.046   4.538
 2605SOL    HW2 8715   5.357   3.019   4.581
 2606SOL     OW 8716   6.338   4.531   1.500
 2606SOL    HW1 8717   6.393   4.608   1.469
 2606SOL    HW2 8718   6.262   4.517   1.437
 2607SOL     OW 8719   0.989   1.061   4.099
 2607SOL    HW1 8720   0.897   1.089   4.123
 2607SOL    HW2 8721   0.985   0.975   4.047
 2608SOL     OW 8722   4.930   0.235   0.481
 2608SOL    HW1 8723   4.989   0.298   0.532
 2608SOL    HW2 8724   4.985   0.161   0.443
 2609SOL     OW 8725   0.863   3.166   3.254
 2609SOL    HW1 8726   0.905   3.254   3.278
 2609SOL    HW2 8727   0.874   3.151   3.155
 2610SOL     OW 8728   5.390   5.871   4.633
 2610SOL    HW1 8729   5.349   5.945   4.687
 2610SOL    HW2 8730   5.361   5.878   4.538
 2611SOL     OW 8731   2.866   5.623   2.197
 2611SOL    HW1 8732   2.803   5.652   2.125
 2611SOL    HW2 8733   2.928   5.697   2.219
 2612SOL     OW 8734   0.262   0.358   5.509
 2612SOL    HW1 8735   0.273   0.262   5.534
 2612SOL    HW2 8736   0.262   0.414   5.592
 2613SOL     OW 8737   4.077   0.979   0.334
 2613SOL    HW1 8738   3.999   1.014   0.386
 2613SOL    HW2 8739   4.056   0.979   0.236
 2614SOL     OW 8740   6.429   5.833   6.673
 2614SOL    HW1 8741   6.442   5.815   6.576
 2614SOL    HW2 8742   6.495   5.779   6.726
 2615SOL     OW 8743   6.088   3.923   1.613
 2615SOL    HW1 8744   6.084   3.918   1.713
 2615SOL    HW2 8745   6.041   4.006   1.583
 2616SOL     OW 8746   4.156   3.620   2.073
 2616SOL    HW1 8747   4.214   3.580   2.145
 2616SOL    HW2 8748   4.192   3.710   2.049
 2617SOL     OW 8749   2.145   6.722   1.162
 2617SOL    HW1 8750   2.057   6.677   1.178
 2617SOL    HW2 8751   2.191   6.737   1.250
 2618SOL     OW 8752   1.501   6.498   0.227
 2618SOL    HW1 8753   1.567   6.534   0.293
 2618SOL    HW2 8754   1.540   6.504   0.135
 2619SOL     OW 8755   6.126   1.264   1.443
 2619SOL    HW1 8756   6.072   1.256   1.359
 2619SOL    HW2 8757   6.221   1.285   1.420
 2620SOL     OW 8758   1.276   5.925   4.209
 2620SOL    HW1 8759   1.193   5.898   4.257
 2620SOL    HW2 8760   1.286   5.871   4.125
 2621SOL     OW 8761   0.822   5.529   4.441
 2621SOL    HW1 8762   0.768   5.543   4.358
 2621SOL    HW2 8763   0.919   5.527   4.418
 2622SOL     OW 8764   2.326   2.383   5.052
 2622SOL    HW1 8765   2.373   2.471   5.063
 2622SOL    HW2 8766   2.263   2.388   4.974
 2623SOL     OW 8767   3.455   0.287   6.227
 2623SOL    HW1 8768   3.539   0.303   6.174
 2623SOL    HW2 8769   3.474   0.302   6.324
 2624SOL     OW 8770   5.817   2.205   4.106
 2624SOL    HW1 8771   5.834   2.230   4.011
 2624SOL    HW2 8772   5.733   2.152   4.113
 2625SOL     OW 8773   3.156   0.228   5.960
 2625SOL    HW1 8774   3.065   0.252   5.925
 2625SOL    HW2 8775   3.183   0.295   6.030
 2626SOL     OW 8776   1.525   6.916   2.648
 2626SOL    HW1 8777   1.472   7.001   2.658
 2626SOL    HW2 8778   1.485   6.845   2.706
 2627SOL     OW 8779   0.374   0.107   5.042
 2627SOL    HW1 8780   0.399   0.174   5.112
 2627SOL    HW2 8781   0.287   0.063   5.067
 2628SOL     OW 8782   4.240   6.017   0.259
 2628SOL    HW1 8783   4.175   6.093   0.265
 2628SOL    HW2 8784   4.332   6.051   0.280
 2629SOL     OW 8785   2.906   3.706   1.899
 2629SOL    HW1 8786   2.954   3.791   1.922
 2629SOL    HW2 8787   2.927   3.636   1.966
 2630SOL     OW 8788   3.031   2.228   2.651
 2630SOL    HW1 8789   2.985   2.202   2.735
 2630SOL    HW2 8790   3.130   2.214   2.661
 2631SOL     OW 8791   3.796   6.438   4.604
 2631SOL    HW1 8792   3.733   6.514   4.586
 2631SOL    HW2 8793   3.771   6.361   4.545
 2632SOL     OW 8794   4.808   1.544   1.111
 2632SOL    HW1 8795   4.906   1.540   1.091
 2632SOL    HW2 8796   4.776   1.454   1.137
 2633SOL     OW 8797   6.900   2.788   6.723
 2633SOL    HW1 8798   6.986   2.750   6.690
 2633SOL    HW2 8799   6.901   2.887   6.713
 2634SOL     OW 8800   3.453   4.722   0.828
 2634SOL    HW1 8801   3.480   4.746   0.921
 2634SOL    HW2 8802   3.497   4.784   0.763
 2635SOL     OW 8803   5.915   4.843   3.384
 2635SOL    HW1 8804   6.006   4.810   3.410
 2635SOL    HW2 8805   5.882   4.908   3.453
 2636SOL     OW 8806   5.950   5.933   5.655
 2636SOL    HW1 8807   6.046   5.942   5.683
 2636SOL    HW2 8808   5.946   5.911   5.557
 2637SOL     OW 8809   5.114   6.599   2.492
 2637SOL    HW1 8810   5.213   6.613   2.489
 2637SOL    HW2 8811   5.086   6.575   2.585
 2638SOL     OW 8812   4.936   5.884   1.144
 2638SOL    HW1 8813   4.861   5.831   1.103
 2638SOL    HW2 8814   4.989   5.928   1.072
 2639SOL     OW 8815   6.971   6.296   6.917
 2639SOL    HW1 8816   6.877   6.269   6.939
 2639SOL    HW2 8817   0.007   6.293   7.000
 2640SOL     OW 8818   6.468   6.927   6.430
 2640SOL    HW1 8819   6.561   6.922   6.467
 2640SOL    HW2 8820   6.443   6.839   6.390
 2641SOL     OW 8821   6.893   5.945   0.655
 2641SOL    HW1 8822   6.947   6.027   0.674
 2641SOL    HW2 8823   6.948   5.863   0.669
 2642SOL     OW 8824   6.510   0.691   3.959
 2642SOL    HW1 8825   6.596   0.673   4.007
 2642SOL    HW2 8826   6.444   0.730   4.023
 2643SOL     OW 8827   2.353   0.219   2.324
 2643SOL    HW1 8828   2.283   0.225   2.253
 2643SOL    HW2 8829   2.335   0.288   2.394
 2644SOL     OW 8830   0.071   5.880   4.839
 2644SOL    HW1 8831   7.014   5.893   4.777
 2644SOL    HW2 8832   0.040   5.836   4.923
 2645SOL     OW 8833   5.981   6.033   6.070
 2645SOL    HW1 8834   5.953   6.122   6.034
 2645SOL    HW2 8835   6.019   6.045   6.162
 2646SOL     OW 8836   5.923   5.982   6.645
 2646SOL    HW1 8837   5.874   5.976   6.732
 2646SOL    HW2 8838   6.013   5.939   6.654
 2647SOL     OW 8839   2.999   3.363   6.988
 2647SOL    HW1 8840   2.991   3.325   0.059
 2647SOL    HW2 8841   2.951   3.451   6.984
 2648SOL     OW 8842   4.102   1.387   3.568
 2648SOL    HW1 8843   4.152   1.368   3.483
 2648SOL    HW2 8844   4.137   1.472   3.608
 2649SOL     OW 8845   2.861   3.544   5.182
 2649SOL    HW1 8846   2.923   3.481   5.230
 2649SOL    HW2 8847   2.875   3.637   5.217
 2650SOL     OW 8848   0.156   6.419   2.908
 2650SOL    HW1 8849   0.193   6.398   2.999
 2650SOL    HW2 8850   0.115   6.336   2.869
 2651SOL     OW 8851   0.978   0.339   3.472
 2651SOL    HW1 8852   1.030   0.411   3.426
 2651SOL    HW2 8853   1.014   0.325   3.564
 2652SOL     OW 8854   2.996   3.366   2.749
 2652SOL    HW1 8855   2.938   3.341   2.827
 2652SOL    HW2 8856   3.069   3.299   2.739
 2653SOL     OW 8857   0.119   6.137   0.643
 2653SOL    HW1 8858   0.092   6.204   0.574
 2653SOL    HW2 8859   0.159   6.057   0.598
 2654SOL     OW 8860   6.538   1.656   5.981
 2654SOL    HW1 8861   6.610   1.587   5.971
 2654SOL    HW2 8862   6.574   1.735   6.031
 2655SOL     OW 8863   5.476   5.095   4.831
 2655SOL    HW1 8864   5.554   5.096   4.894
 2655SOL    HW2 8865   5.407   5.160   4.862
 2656SOL     OW 8866   5.817   3.478   4.816
 2656SOL    HW1 8867   5.854   3.407   4.876
 2656SOL    HW2 8868   5.758   3.539   4.869
 2657SOL     OW 8869   3.810   1.839   6.094
 2657SOL    HW1 8870   3.714   1.851   6.119
 2657SOL    HW2 8871   3.844   1.753   6.132
 2658SOL     OW 8872   5.874   4.128   5.136
 2658SOL    HW1 8873   5.808   4.145   5.210
 2658SOL    HW2 8874   5.964   4.111   5.175
 2659SOL     OW 8875   6.693   1.673   3.634
 2659SOL    HW1 8876   6.737   1.661   3.545
 2659SOL    HW2 8877   6.696   1.587   3.685
 2660SOL     OW 8878   0.153   2.100   3.192
 2660SOL    HW1 8879   0.204   2.185   3.174
 2660SOL    HW2 8880   0.059   2.110   3.159
 2661SOL     OW 8881   3.530   0.223   3.063
 2661SOL    HW1 8882   3.504   0.140   3.014
 2661SOL    HW2 8883   3.613   0.261   3.023
 2662SOL     OW 8884   3.456   1.261   3.635
 2662SOL    HW1 8885   3.467   1.255   3.734
 2662SOL    HW2 8886   3.531   1.314   3.596
 2663SOL     OW 8887   0.337   4.409   3.047
 2663SOL    HW1 8888   0.353   4.471   3.123
 2663SOL    HW2 8889   0.398   4.330   3.055
 2664SOL     OW 8890   4.094   3.875   1.981
 2664SOL    HW1 8891   4.096   3.973   1.963
 2664SOL    HW2 8892   4.037   3.857   2.061
 2665SOL     OW 8893   4.675   0.004   4.896
 2665SOL    HW1 8894   4.688   7.000   4.800
 2665SOL    HW2 8895   4.595   0.064   4.904
 2666SOL     OW 8896   4.589   6.380   1.644
 2666SOL    HW1 8897   4.546   6.290   1.636
 2666SOL    HW2 8898   4.544   6.432   1.717
 2667SOL     OW 8899   1.715   5.540   3.158
 2667SOL    HW1 8900   1.795   5.570   3.210
 2667SOL    HW2 8901   1.653   5.617   3.146
 2668SOL     OW 8902   6.502   2.352   5.398
 2668SOL    HW1 8903   6.433   2.285   5.372
 2668SOL    HW2 8904   6.572   2.357   5.327
 2669SOL     OW 8905   4.038   5.956   5.147
 2669SOL    HW1 8906   3.993   5.937   5.060
 2669SOL    HW2 8907   4.109   6.024   5.134
 2670SOL     OW 8908   2.906   6.543   4.266
 2670SOL    HW1 8909   2.969   6.469   4.240
 2670SOL    HW2 8910   2.948   6.631   4.245
 2671SOL     OW 8911   3.286   4.329   6.241
 2671SOL    HW1 8912   3.226   4.260   6.200
 2671SOL    HW2 8913   3.235   4.415   6.252
 2672SOL     OW 8914   0.753   4.307   6.923
 2672SOL    HW1 8915   0.819   4.367   6.877
 2672SOL    HW2 8916   0.670   4.301   6.868
 2673SOL     OW 8917   3.516   2.102   3.365
 2673SOL    HW1 8918   3.470   2.122   3.278
 2673SOL    HW2 8919   3.597   2.160   3.374
 2674SOL     OW 8920   6.339   5.551   5.156
 2674SOL    HW1 8921   6.408   5.613   5.119
 2674SOL    HW2 8922   6.277   5.602   5.216
 2675SOL     OW 8923   0.353   4.697   5.658
 2675SOL    HW1 8924   0.414   4.619   5.641
 2675SOL    HW2 8925   0.271   4.666   5.706
 2676SOL     OW 8926   4.583   0.318   1.784
 2676SOL    HW1 8927   4.504   0.350   1.732
 2676SOL    HW2 8928   4.590   0.219   1.777
 2677SOL     OW 8929   2.341   4.530   2.128
 2677SOL    HW1 8930   2.282   4.610   2.125
 2677SOL    HW2 8931   2.424   4.548   2.074
 2678SOL     OW 8932   0.453   6.219   6.384
 2678SOL    HW1 8933   0.444   6.179   6.293
 2678SOL    HW2 8934   0.441   6.148   6.453
 2679SOL     OW 8935   2.600   5.191   1.887
 2679SOL    HW1 8936   2.646   5.124   1.828
 2679SOL    HW2 8937   2.543   5.142   1.953
 2680SOL     OW 8938   1.280   2.641   1.141
 2680SOL    HW1 8939   1.329   2.662   1.057
 2680SOL    HW2 8940   1.206   2.577   1.122
 2681SOL     OW 8941   1.825   1.767   2.033
 2681SOL    HW1 8942   1.876   1.843   2.073
 2681SOL    HW2 8943   1.814   1.782   1.935
 2682SOL     OW 8944   6.523   2.689   4.211
 2682SOL    HW1 8945   6.500   2.723   4.120
 2682SOL    HW2 8946   6.622   2.676   4.218
 2683SOL     OW 8947   1.732   6.835   0.295
 2683SOL    HW1 8948   1.815   6.806   0.247
 2683SOL    HW2 8949   1.680   6.755   0.324
 2684SOL     OW 8950   2.483   5.613   2.750
 2684SOL    HW1 8951   2.455   5.551   2.676
 2684SOL    HW2 8952   2.557   5.571   2.802
 2685SOL     OW 8953   5.406   5.787   5.446
 2685SOL    HW1 8954   5.336   5.836   5.498
 2685SOL    HW2 8955   5.468   5.852   5.402
 2686SOL     OW 8956   1.210   3.309   5.038
 2686SOL    HW1 8957   1.220   3.395   5.088
 2686SOL    HW2 8958   1.295   3.256   5.045
 2687SOL     OW 8959   4.701   4.633   3.537
 2687SOL    HW1 8960   4.736   4.701   3.473
 2687SOL    HW2 8961   4.633   4.576   3.491
 2688SOL     OW 8962   3.731   4.451   5.871
 2688SOL    HW1 8963   3.703   4.362   5.908
 2688SOL    HW2 8964   3.673   4.475   5.793
 2689SOL     OW 8965   6.478   2.905   4.622
 2689SOL    HW1 8966   6.487   2.872   4.716
 2689SOL    HW2 8967   6.417   2.984   4.620
 2690SOL     OW 8968   3.072   3.106   3.527
 2690SOL    HW1 8969   3.056   3.032   3.591
 2690SOL    HW2 8970   3.067   3.071   3.433
 2691SOL     OW 8971   1.413   6.384   1.634
 2691SOL    HW1 8972   1.479   6.418   1.566
 2691SOL    HW2 8973   1.453   6.308   1.685
 2692SOL     OW 8974   0.079   4.900   3.163
 2692SOL    HW1 8975   0.160   4.859   3.122
 2692SOL    HW2 8976   0.079   4.881   3.261
 2693SOL     OW 8977   1.634   3.396   2.943
 2693SOL    HW1 8978   1.688   3.478   2.963
 2693SOL    HW2 8979   1.553   3.423   2.890
 2694SOL     OW 8980   1.942   1.576   2.686
 2694SOL    HW1 8981   1.920   1.501   2.748
 2694SOL    HW2 8982   1.946   1.662   2.737
 2695SOL     OW 8983   4.071   2.140   2.879
 2695SOL    HW1 8984   4.086   2.042   2.871
 2695SOL    HW2 8985   4.117   2.187   2.803
 2696SOL     OW 8986   3.969   3.941   5.249
 2696SOL    HW1 8987   3.943   4.034   5.222
 2696SOL    HW2 8988   4.028   3.946   5.330
 2697SOL     OW 8989   2.561   1.108   5.085
 2697SOL    HW1 8990   2.468   1.076   5.103
 2697SOL    HW2 8991   2.571   1.127   4.987
 2698SOL     OW 8992   1.956   2.573   6.545
 2698SOL    HW1 8993   1.947   2.476   6.523
 2698SOL    HW2 8994   1.880   2.624   6.504
 2699SOL     OW 8995   1.533   5.752   3.144
 2699SOL    HW1 8996   1.568   5.778   3.055
 2699SOL    HW2 8997   1.510   5.834   3.197
 2700SOL     OW 8998   2.116   4.635   2.998
 2700SOL    HW1 8999   2.153   4.543   3.007
 2700SOL    HW2 9000   2.099   4.655   2.902
 2701SOL     OW 9001   3.339   0.582   5.753
 2701SOL    HW1 9002   3.427   0.612   5.715
 2701SOL    HW2 9003   3.290   0.660   5.792
 2702SOL     OW 9004   6.587   6.403   2.554
 2702SOL    HW1 9005   6.557   6.330   2.615
 2702SOL    HW2 9006   6.606   6.485   2.608
 2703SOL     OW 9007   1.625   1.826   3.176
 2703SOL    HW1 9008   1.547   1.864   3.126
 2703SOL    HW2 9009   1.608   1.833   3.274
 2704SOL     OW 9010   1.523   5.973   0.575
 2704SOL    HW1 9011   1.499   6.019   0.661
 2704SOL    HW2 9012   1.493   6.030   0.498
 2705SOL     OW 9013   0.153   3.872   2.652
 2705SOL    HW1 9014   0.163   3.971   2.658
 2705SOL    HW2 9015   0.165   3.832   2.742
 2706SOL     OW 9016   6.525   2.344   3.316
 2706SOL    HW1 9017   6.528   2.331   3.415
 2706SOL    HW2 9018   6.589   2.282   3.271
 2707SOL     OW 9019   2.859   1.268   6.300
 2707SOL    HW1 9020   2.879   1.333   6.373
 2707SOL    HW2 9021   2.874   1.312   6.211
 2708SOL     OW 9022   1.342   4.601   0.300
 2708SOL    HW1 9023   1.341   4.579   0.203
 2708SOL    HW2 9024   1.430   4.643   0.323
 2709SOL     OW 9025   4.701   6.742   1.477
 2709SOL    HW1 9026   4.678   6.742   1.574
 2709SOL    HW2 9027   4.690   6.651   1.439
 2710SOL     OW 9028   6.527   4.065   2.635
 2710SOL    HW1 9029   6.578   4.150   2.646
 2710SOL    HW2 9030   6.520   4.043   2.538
 2711SOL     OW 9031   1.197   7.018   2.446
 2711SOL    HW1 9032   1.193   6.923   2.414
 2711SOL    HW2 9033   1.141   0.007   2.528
 2712SOL     OW 9034   3.632   5.344   2.798
 2712SOL    HW1 9035   3.562   5.363   2.867
 2712SOL    HW2 9036   3.621   5.406   2.721
 2713SOL     OW 9037   2.155   2.640   5.464
 2713SOL    HW1 9038   2.129   2.691   5.546
 2713SOL    HW2 9039   2.073   2.600   5.422
 2714SOL     OW 9040   5.641   7.020   6.176
 2714SOL    HW1 9041   5.585   0.047   6.243
 2714SOL    HW2 9042   5.737   0.001   6.205
 2715SOL     OW 9043   6.032   0.291   6.988
 2715SOL    HW1 9044   6.020   0.194   7.010
 2715SOL    HW2 9045   6.008   0.306   6.892
 2716SOL     OW 9046   6.454   6.524   2.353
 2716SOL    HW1 9047   6.515   6.521   2.274
 2716SOL    HW2 9048   6.496   6.473   2.428
 2717SOL     OW 9049   0.842   0.103   3.364
 2717SOL    HW1 9050   0.918   0.052   3.324
 2717SOL    HW2 9051   0.877   0.189   3.401
 2718SOL     OW 9052   0.805   4.273   3.557
 2718SOL    HW1 9053   0.720   4.234   3.520
 2718SOL    HW2 9054   0.858   4.314   3.483
 2719SOL     OW 9055   4.393   4.919   3.155
 2719SOL    HW1 9056   4.409   4.844   3.219
 2719SOL    HW2 9057   4.466   4.921   3.087
 2720SOL     OW 9058   1.246   6.187   4.168
 2720SOL    HW1 9059   1.169   6.227   4.118
 2720SOL    HW2 9060   1.239   6.088   4.166
 2721SOL     OW 9061   4.934   6.248   3.900
 2721SOL    HW1 9062   4.999   6.299   3.955
 2721SOL    HW2 9063   4.900   6.169   3.952
 2722SOL     OW 9064   1.410   6.082   1.658
 2722SOL    HW1 9065   1.377   6.102   1.750
 2722SOL    HW2 9066   1.381   5.990   1.631
 2723SOL     OW 9067   2.177   2.135   4.660
 2723SOL    HW1 9068   2.180   2.035   4.656
 2723SOL    HW2 9069   2.152   2.164   4.752
 2724SOL     OW 9070   4.073   5.862   6.156
 2724SOL    HW1 9071   4.117   5.951   6.156
 2724SOL    HW2 9072   4.138   5.792   6.186
 2725SOL     OW 9073   2.731   4.693   3.893
 2725SOL    HW1 9074   2.715   4.655   3.802
 2725SOL    HW2 9075   2.653   4.748   3.921
 2726SOL     OW 9076   4.984   6.846   2.557
 2726SOL    HW1 9077   5.006   6.858   2.654
 2726SOL    HW2 9078   5.010   6.753   2.529
 2727SOL     OW 9079   2.192   6.089   3.666
 2727SOL    HW1 9080   2.209   6.155   3.593
 2727SOL    HW2 9081   2.113   6.032   3.641
 2728SOL     OW 9082   2.901   6.804   5.325
 2728SOL    HW1 9083   2.993   6.843   5.321
 2728SOL    HW2 9084   2.836   6.873   5.358
 2729SOL     OW 9085   0.070   4.779   2.911
 2729SOL    HW1 9086   0.015   4.759   2.830
 2729SOL    HW2 9087   0.042   4.867   2.950
 2730SOL     OW 9088   1.231   4.864   1.304
 2730SOL    HW1 9089   1.288   4.787   1.277
 2730SOL    HW2 9090   1.150   4.868   1.246
 2731SOL     OW 9091   2.969   3.746   0.942
 2731SOL    HW1 9092   2.892   3.764   1.003
 2731SOL    HW2 9093   3.051   3.793   0.977
 2732SOL     OW 9094   5.056   3.266   4.890
 2732SOL    HW1 9095   5.051   3.283   4.791
 2732SOL    HW2 9096   5.063   3.353   4.939
 2733SOL     OW 9097   2.007   0.717   6.435
 2733SOL    HW1 9098   2.104   0.740   6.425
 2733SOL    HW2 9099   1.983   0.643   6.372
 2734SOL     OW 9100   2.355   0.347   4.133
 2734SOL    HW1 9101   2.267   0.316   4.169
 2734SOL    HW2 9102   2.411   0.382   4.208
 2735SOL     OW 9103   1.320   5.537   1.446
 2735SOL    HW1 9104   1.252   5.500   1.509
 2735SOL    HW2 9105   1.380   5.600   1.496
 2736SOL     OW 9106   3.765   6.749   6.227
 2736SOL    HW1 9107   3.764   6.710   6.319
 2736SOL    HW2 9108   3.712   6.834   6.226
 2737SOL     OW 9109   4.256   3.454   5.760
 2737SOL    HW1 9110   4.308   3.505   5.692
 2737SOL    HW2 9111   4.160   3.449   5.731
 2738SOL     OW 9112   5.734   3.947   3.877
 2738SOL    HW1 9113   5.791   4.003   3.818
 2738SOL    HW2 9114   5.744   3.976   3.972
 2739SOL     OW 9115   4.862   4.465   0.469
 2739SOL    HW1 9116   4.789   4.531   0.456
 2739SOL    HW2 9117   4.939   4.488   0.409
 2740SOL     OW 9118   6.196   2.613   4.017
 2740SOL    HW1 9119   6.107   2.614   3.971
 2740SOL    HW2 9120   6.207   2.526   4.066
 2741SOL     OW 9121   2.178   3.342   4.607
 2741SOL    HW1 9122   2.203   3.373   4.698
 2741SOL    HW2 9123   2.180   3.242   4.604
 2742SOL     OW 9124   2.767   6.266   5.672
 2742SOL    HW1 9125   2.826   6.214   5.611
 2742SOL    HW2 9126   2.766   6.223   5.762
 2743SOL     OW 9127   6.061   4.650   0.015
 2743SOL    HW1 9128   6.065   4.556   0.051
 2743SOL    HW2 9129   6.105   4.712   0.080
 2744SOL     OW 9130   4.493   6.862   0.376
 2744SOL    HW1 9131   4.448   6.895   0.459
 2744SOL    HW2 9132   4.511   6.939   0.315
 2745SOL     OW 9133   2.858   6.090   2.036
 2745SOL    HW1 9134   2.848   6.189   2.031
 2745SOL    HW2 9135   2.954   6.067   2.052
 2746SOL     OW 9136   1.055   2.145   6.176
 2746SOL    HW1 9137   0.976   2.108   6.127
 2746SOL    HW2 9138   1.116   2.070   6.204
 2747SOL     OW 9139   5.347   5.706   3.588
 2747SOL    HW1 9140   5.344   5.674   3.493
 2747SOL    HW2 9141   5.378   5.801   3.590
 2748SOL     OW 9142   5.213   0.562   4.865
 2748SOL    HW1 9143   5.187   0.544   4.770
 2748SOL    HW2 9144   5.134   0.547   4.925
 2749SOL     OW 9145   4.948   4.529   3.569
 2749SOL    HW1 9146   5.008   4.588   3.623
 2749SOL    HW2 9147   4.854   4.564   3.574
 2750SOL     OW 9148   0.700   6.739   0.403
 2750SOL    HW1 9149   0.628   6.687   0.356
 2750SOL    HW2 9150   0.659   6.792   0.477
 2751SOL     OW 9151   1.971   0.120   6.769
 2751SOL    HW1 9152   1.888   0.111   6.823
 2751SOL    HW2 9153   2.040   0.172   6.821
 2752SOL     OW 9154   0.298   6.704   6.191
 2752SOL    HW1 9155   0.236   6.753   6.129
 2752SOL    HW2 9156   0.367   6.768   6.226
 2753SOL     OW 9157   3.700   5.348   5.387
 2753SOL    HW1 9158   3.759   5.284   5.435
 2753SOL    HW2 9159   3.697   5.435   5.437
 2754SOL     OW 9160   0.780   5.937   4.398
 2754SOL    HW1 9161   0.703   5.899   4.346
 2754SOL    HW2 9162   0.750   5.959   4.491
 2755SOL     OW 9163   4.812   6.076   2.458
 2755SOL    HW1 9164   4.900   6.032   2.438
 2755SOL    HW2 9165   4.825   6.147   2.527
 2756SOL     OW 9166   0.343   2.925   5.392
 2756SOL    HW1 9167   0.364   2.831   5.418
 2756SOL    HW2 9168   0.377   2.942   5.300
 2757SOL     OW 9169   5.079   3.868   6.402
 2757SOL    HW1 9170   5.027   3.831   6.479
 2757SOL    HW2 9171   5.083   3.968   6.409
 2758SOL     OW 9172   0.116   6.736   1.860
 2758SOL    HW1 9173   0.049   6.692   1.920
 2758SOL    HW2 9174   0.195   6.765   1.914
 2759SOL     OW 9175   3.439   3.741   5.125
 2759SOL    HW1 9176   3.364   3.709   5.184
 2759SOL    HW2 9177   3.402   3.805   5.057
 2760SOL     OW 9178   5.661   5.476   2.708
 2760SOL    HW1 9179   5.741   5.435   2.751
 2760SOL    HW2 9180   5.586   5.479   2.774
 2761SOL     OW 9181   1.408   3.197   4.001
 2761SOL    HW1 9182   1.459   3.186   3.916
 2761SOL    HW2 9183   1.416   3.292   4.032
 2762SOL     OW 9184   4.049   1.302   1.679
 2762SOL    HW1 9185   4.147   1.312   1.662
 2762SOL    HW2 9186   4.024   1.352   1.762
 2763SOL     OW 9187   5.907   1.177   4.092
 2763SOL    HW1 9188   5.925   1.268   4.128
 2763SOL    HW2 9189   5.951   1.167   4.002
 2764SOL     OW 9190   0.087   2.778   3.306
 2764SOL    HW1 9191   0.074   2.850   3.238
 2764SOL    HW2 9192   0.041   2.695   3.275
 2765SOL     OW 9193   0.042   6.546   6.034
 2765SOL    HW1 9194   0.104   6.501   6.098
 2765SOL    HW2 9195   0.074   6.532   5.941
 2766SOL     OW 9196   4.539   0.009   0.145
 2766SOL    HW1 9197   4.602   0.022   0.069
 2766SOL    HW2 9198   4.487   0.093   0.161
 2767SOL     OW 9199   0.431   5.642   5.653
 2767SOL    HW1 9200   0.431   5.616   5.556
 2767SOL    HW2 9201   0.389   5.568   5.707
 2768SOL     OW 9202   3.514   6.318   1.518
 2768SOL    HW1 9203   3.505   6.234   1.573
 2768SOL    HW2 9204   3.602   6.361   1.538
 2769SOL     OW 9205   0.744   4.888   5.833
 2769SOL    HW1 9206   0.760   4.967   5.773
 2769SOL    HW2 9207   0.798   4.811   5.801
 2770SOL     OW 9208   2.152   6.643   0.476
 2770SOL    HW1 9209   2.230   6.702   0.454
 2770SOL    HW2 9210   2.179   6.577   0.546
 2771SOL     OW 9211   4.135   6.928   5.280
 2771SOL    HW1 9212   4.092   6.867   5.347
 2771SOL    HW2 9213   4.228   6.896   5.262
 2772SOL     OW 9214   5.209   1.758   3.580
 2772SOL    HW1 9215   5.115   1.729   3.565
 2772SOL    HW2 9216   5.267   1.677   3.593
 2773SOL     OW 9217   5.794   2.532   6.529
 2773SOL    HW1 9218   5.865   2.529   6.599
 2773SOL    HW2 9219   5.743   2.445   6.529
 2774SOL     OW 9220   6.552   0.380   4.159
 2774SOL    HW1 9221   6.651   0.368   4.166
 2774SOL    HW2 9222   6.513   0.305   4.106
 2775SOL     OW 9223   0.220   2.286   4.560
 2775SOL    HW1 9224   0.171   2.210   4.518
 2775SOL    HW2 9225   0.236   2.357   4.491
 2776SOL     OW 9226   4.727   4.022   6.486
 2776SOL    HW1 9227   4.657   4.002   6.554
 2776SOL    HW2 9228   4.796   3.950   6.487
 2777SOL     OW 9229   2.091   2.292   0.135
 2777SOL    HW1 9230   2.117   2.285   0.231
 2777SOL    HW2 9231   2.047   2.380   0.118
 2778SOL     OW 9232   3.364   0.301   5.797
 2778SOL    HW1 9233   3.345   0.397   5.778
 2778SOL    HW2 9234   3.301   0.267   5.867
 2779SOL     OW 9235   5.451   0.920   2.423
 2779SOL    HW1 9236   5.388   0.872   2.363
 2779SOL    HW2 9237   5.507   0.983   2.369
 2780SOL     OW 9238   0.083   0.908   4.611
 2780SOL    HW1 9239   0.063   0.818   4.650
 2780SOL    HW2 9240   0.179   0.911   4.583
 2781SOL     OW 9241   0.659   0.327   2.930
 2781SOL    HW1 9242   0.670   0.289   2.838
 2781SOL    HW2 9243   0.673   0.426   2.926
 2782SOL     OW 9244   5.433   0.033   5.294
 2782SOL    HW1 9245   5.440   0.051   5.392
 2782SOL    HW2 9246   5.517   0.062   5.248
 2783SOL     OW 9247   5.576   2.694   1.347
 2783SOL    HW1 9248   5.560   2.631   1.423
 2783SOL    HW2 9249   5.524   2.663   1.267
 2784SOL     OW 9250   0.178   2.814   1.826
 2784SOL    HW1 9251   0.143   2.735   1.777
 2784SOL    HW2 9252   0.111   2.888   1.825
 2785SOL     OW 9253   4.963   3.569   2.957
 2785SOL    HW1 9254   5.056   3.601   2.974
 2785SOL    HW2 9255   4.966   3.480   2.912
 2786SOL     OW 9256   0.340   5.698   0.500
 2786SOL    HW1 9257   0.360   5.641   0.580
 2786SOL    HW2 9258   0.364   5.648   0.417
 2787SOL     OW 9259   0.444   6.331   5.626
 2787SOL    HW1 9260   0.477   6.241   5.599
 2787SOL    HW2 9261   0.509   6.401   5.595
 2788SOL     OW 9262   2.849   6.669   0.577
 2788SOL    HW1 9263   2.903   6.746   0.542
 2788SOL    HW2 9264   2.908   6.610   0.632
 2789SOL     OW 9265   1.989   2.075   3.747
 2789SOL    HW1 9266   2.055   2.007   3.777
 2789SOL    HW2 9267   1.935   2.108   3.825
 2790SOL     OW 9268   0.034   5.522   1.631
 2790SOL    HW1 9269   6.986   5.450   1.629
 2790SOL    HW2 9270   0.031   5.569   1.719
 2791SOL     OW 9271   0.570   3.243   5.098
 2791SOL    HW1 9272   0.501   3.292   5.045
 2791SOL    HW2 9273   0.641   3.209   5.036
 2792SOL     OW 9274   3.095   1.846   6.111
 2792SOL    HW1 9275   3.121   1.924   6.055
 2792SOL    HW2 9276   3.176   1.812   6.160
 2793SOL     OW 9277   4.077   3.514   6.811
 2793SOL    HW1 9278   4.084   3.609   6.781
 2793SOL    HW2 9279   4.011   3.466   6.754
 2794SOL     OW 9280   1.891   2.072   6.832
 2794SOL    HW1 9281   1.888   2.097   6.736
 2794SOL    HW2 9282   1.837   2.138   6.885
 2795SOL     OW 9283   1.539   6.708   0.733
 2795SOL    HW1 9284   1.449   6.750   0.741
 2795SOL    HW2 9285   1.570   6.680   0.824
 2796SOL     OW 9286   2.612   5.837   6.979
 2796SOL    HW1 9287   2.545   5.865   6.909
 2796SOL    HW2 9288   2.668   5.916   7.004
 2797SOL     OW 9289   4.913   3.747   4.133
 2797SOL    HW1 9290   4.983   3.730   4.203
 2797SOL    HW2 9291   4.841   3.805   4.172
 2798SOL     OW 9292   5.430   2.043   2.526
 2798SOL    HW1 9293   5.474   1.956   2.548
 2798SOL    HW2 9294   5.497   2.117   2.531
 2799SOL     OW 9295   3.394   6.422   5.356
 2799SOL    HW1 9296   3.334   6.462   5.287
 2799SOL    HW2 9297   3.398   6.323   5.343
 2800SOL     OW 9298   4.871   1.138   0.039
 2800SOL    HW1 9299   4.934   1.114   0.113
 2800SOL    HW2 9300   4.833   1.229   0.056
 2801SOL     OW 9301   0.487   4.598   3.832
 2801SOL    HW1 9302   0.404   4.573   3.783
 2801SOL    HW2 9303   0.471   4.679   3.887
 2802SOL     OW 9304   1.505   5.156   4.711
 2802SOL    HW1 9305   1.482   5.237   4.657
 2802SOL    HW2 9306   1.567   5.182   4.785
 2803SOL     OW 9307   3.595   2.228   6.380
 2803SOL    HW1 9308   3.653   2.170   6.436
 2803SOL    HW2 9309   3.538   2.171   6.321
 2804SOL     OW 9310   6.647   2.974   3.778
 2804SOL    HW1 9311   6.591   3.028   3.841
 2804SOL    HW2 9312   6.592   2.948   3.699
 2805SOL     OW 9313   4.357   4.230   0.667
 2805SOL    HW1 9314   4.424   4.171   0.624
 2805SOL    HW2 9315   4.273   4.178   0.686
 2806SOL     OW 9316   0.399   3.406   4.939
 2806SOL    HW1 9317   0.344   3.442   5.014
 2806SOL    HW2 9318   0.339   3.371   4.867
 2807SOL     OW 9319   4.656   1.595   3.951
 2807SOL    HW1 9320   4.686   1.690   3.950
 2807SOL    HW2 9321   4.623   1.571   4.042
 2808SOL     OW 9322   1.555   5.939   5.993
 2808SOL    HW1 9323   1.500   5.882   6.054
 2808SOL    HW2 9324   1.593   5.882   5.919
 2809SOL     OW 9325   0.462   5.712   1.107
 2809SOL    HW1 9326   0.437   5.691   1.202
 2809SOL    HW2 9327   0.485   5.627   1.059
 2810SOL     OW 9328   0.673   6.072   2.993
 2810SOL    HW1 9329   0.738   5.999   2.971
 2810SOL    HW2 9330   0.591   6.032   3.033
 2811SOL     OW 9331   0.828   1.211   0.575
 2811SOL    HW1 9332   0.735   1.231   0.608
 2811SOL    HW2 9333   0.894   1.262   0.630
 2812SOL     OW 9334   2.162   1.355   0.895
 2812SOL    HW1 9335   2.150   1.446   0.855
 2812SOL    HW2 9336   2.105   1.346   0.976
 2813SOL     OW 9337   6.786   2.156   0.839
 2813SOL    HW1 9338   6.728   2.234   0.812
 2813SOL    HW2 9339   6.868   2.154   0.782
 2814SOL     OW 9340   2.650   4.255   6.682
 2814SOL    HW1 9341   2.724   4.225   6.622
 2814SOL    HW2 9342   2.689   4.296   6.765
 2815SOL     OW 9343   6.978   5.280   4.524
 2815SOL    HW1 9344   6.880   5.288   4.537
 2815SOL    HW2 9345   0.005   5.346   4.582
 2816SOL     OW 9346   1.095   4.743   4.889
 2816SOL    HW1 9347   1.044   4.829   4.897
 2816SOL    HW2 9348   1.031   4.667   4.886
 2817SOL     OW 9349   3.001   0.940   2.304
 2817SOL    HW1 9350   3.037   0.978   2.390
 2817SOL    HW2 9351   2.906   0.967   2.293
 2818SOL     OW 9352   1.669   0.991   0.554
 2818SOL    HW1 9353   1.653   0.940   0.470
 2818SOL    HW2 9354   1.612   1.073   0.555
 2819SOL     OW 9355   0.218   0.757   6.557
 2819SOL    HW1 9356   0.298   0.810   6.527
 2819SOL    HW2 9357   0.160   0.815   6.613
 2820SOL     OW 9358   2.372   1.897   0.127
 2820SOL    HW1 9359   2.463   1.881   0.166
 2820SOL    HW2 9360   2.366   1.991   0.092
 2821SOL     OW 9361   3.429   2.322   6.135
 2821SOL    HW1 9362   3.454   2.342   6.040
 2821SOL    HW2 9363   3.351   2.378   6.162
 2822SOL     OW 9364   4.373   2.889   0.726
 2822SOL    HW1 9365   4.316   2.910   0.647
 2822SOL    HW2 9366   4.469   2.886   0.698
 2823SOL     OW 9367   5.912   3.580   2.159
 2823SOL    HW1 9368   5.812   3.579   2.166
 2823SOL    HW2 9369   5.952   3.560   2.248
 2824SOL     OW 9370   0.859   4.753   5.575
 2824SOL    HW1 9371   0.796   4.694   5.525
 2824SOL    HW2 9372   0.895   4.823   5.514
 2825SOL     OW 9373   5.417   1.900   5.952
 2825SOL    HW1 9374   5.424   1.923   5.855
 2825SOL    HW2 9375   5.473   1.819   5.972
 2826SOL     OW 9376   2.467   3.497   0.030
 2826SOL    HW1 9377   2.496   3.413   7.005
 2826SOL    HW2 9378   2.483   3.488   0.129
 2827SOL     OW 9379   6.341   1.591   6.554
 2827SOL    HW1 9380   6.355   1.647   6.473
 2827SOL    HW2 9381   6.258   1.620   6.601
 2828SOL     OW 9382   1.525   3.885   0.648
 2828SOL    HW1 9383   1.534   3.980   0.678
 2828SOL    HW2 9384   1.465   3.835   0.711
 2829SOL     OW 9385   3.338   4.129   1.890
 2829SOL    HW1 9386   3.239   4.131   1.879
 2829SOL    HW2 9387   3.361   4.138   1.987
 2830SOL     OW 9388   3.213   5.659   4.432
 2830SOL    HW1 9389   3.219   5.722   4.355
 2830SOL    HW2 9390   3.282   5.682   4.500
 2831SOL     OW 9391   6.482   1.703   1.656
 2831SOL    HW1 9392   6.430   1.783   1.625
 2831SOL    HW2 9393   6.578   1.729   1.668
 2832SOL     OW 9394   1.025   3.777   1.959
 2832SOL    HW1 9395   0.938   3.825   1.951
 2832SOL    HW2 9396   1.011   3.680   1.941
 2833SOL     OW 9397   6.754   3.276   3.550
 2833SOL    HW1 9398   6.816   3.309   3.479
 2833SOL    HW2 9399   6.801   3.208   3.606
 2834SOL     OW 9400   3.539   0.669   4.710
 2834SOL    HW1 9401   3.440   0.677   4.702
 2834SOL    HW2 9402   3.582   0.758   4.694
 2835SOL     OW 9403   6.620   1.114   6.994
 2835SOL    HW1 9404   6.545   1.076   0.027
 2835SOL    HW2 9405   6.669   1.039   6.948
 2836SOL     OW 9406   3.135   6.028   1.824
 2836SOL    HW1 9407   3.099   6.120   1.810
 2836SOL    HW2 9408   3.216   6.016   1.767
 2837SOL     OW 9409   5.639   3.536   2.199
 2837SOL    HW1 9410   5.581   3.553   2.278
 2837SOL    HW2 9411   5.586   3.491   2.127
 2838SOL     OW 9412   6.520   3.956   5.743
 2838SOL    HW1 9413   6.572   4.001   5.670
 2838SOL    HW2 9414   6.576   3.884   5.784
 2839SOL     OW 9415   5.991   2.988   6.169
 2839SOL    HW1 9416   5.941   3.059   6.119
 2839SOL    HW2 9417   6.086   3.017   6.181
 2840SOL     OW 9418   5.812   6.562   5.262
 2840SOL    HW1 9419   5.830   6.467   5.239
 2840SOL    HW2 9420   5.898   6.610   5.279
 2841SOL     OW 9421   5.433   3.553   2.639
 2841SOL    HW1 9422   5.427   3.463   2.681
 2841SOL    HW2 9423   5.345   3.600   2.649
 2842SOL     OW 9424   0.573   6.999   3.917
 2842SOL    HW1 9425   0.518   6.917   3.932
 2842SOL    HW2 9426   0.650   6.977   3.858
 2843SOL     OW 9427   1.792   3.152   4.429
 2843SOL    HW1 9428   1.772   3.169   4.525
 2843SOL    HW2 9429   1.706   3.146   4.378
 2844SOL     OW 9430   5.258   4.108   0.457
 2844SOL    HW1 9431   5.266   4.072   0.550
 2844SOL    HW2 9432   5.175   4.162   0.449
 2845SOL     OW 9433   3.549   1.764   1.404
 2845SOL    HW1 9434   3.636   1.803   1.435
 2845SOL    HW2 9435   3.482   1.838   1.395
 2846SOL     OW 9436   5.063   6.693   6.734
 2846SOL    HW1 9437   5.132   6.756   6.770
 2846SOL    HW2 9438   5.010   6.654   6.809
 2847SOL     OW 9439   5.339   4.800   2.029
 2847SOL    HW1 9440   5.327   4.896   2.053
 2847SOL    HW2 9441   5.425   4.766   2.066
 2848SOL     OW 9442   0.272   3.643   6.814
 2848SOL    HW1 9443   0.303   3.548   6.815
 2848SOL    HW2 9444   0.232   3.666   6.903
 2849SOL     OW 9445   5.712   0.601   1.585
 2849SOL    HW1 9446   5.615   0.603   1.611
 2849SOL    HW2 9447   5.766   0.643   1.657
 2850SOL     OW 9448   0.749   1.082   1.387
 2850SOL    HW1 9449   0.674   1.023   1.357
 2850SOL    HW2 9450   0.835   1.048   1.349
 2851SOL     OW 9451   3.557   3.404   1.868
 2851SOL    HW1 9452   3.561   3.494   1.825
 2851SOL    HW2 9453   3.465   3.366   1.858
 2852SOL     OW 9454   0.376   5.676   5.317
 2852SOL    HW1 9455   0.445   5.741   5.287
 2852SOL    HW2 9456   0.398   5.584   5.283
 2853SOL     OW 9457   0.578   4.299   4.964
 2853SOL    HW1 9458   0.636   4.277   5.043
 2853SOL    HW2 9459   0.515   4.373   4.989
 2854SOL     OW 9460   3.287   0.297   6.676
 2854SOL    HW1 9461   3.225   0.306   6.754
 2854SOL    HW2 9462   3.335   0.209   6.681
 2855SOL     OW 9463   1.967   2.176   4.464
 2855SOL    HW1 9464   1.995   2.260   4.417
 2855SOL    HW2 9465   2.044   2.143   4.519
 2856SOL     OW 9466   1.415   6.031   4.795
 2856SOL    HW1 9467   1.333   5.992   4.837
 2856SOL    HW2 9468   1.458   6.095   4.860
 2857SOL     OW 9469   0.130   4.411   0.692
 2857SOL    HW1 9470   0.102   4.486   0.753
 2857SOL    HW2 9471   0.229   4.402   0.694
 2858SOL     OW 9472   5.379   4.512   3.465
 2858SOL    HW1 9473   5.342   4.421   3.484
 2858SOL    HW2 9474   5.406   4.517   3.369
 2859SOL     OW 9475   6.338   4.603   1.873
 2859SOL    HW1 9476   6.424   4.652   1.860
 2859SOL    HW2 9477   6.262   4.669   1.872
 2860SOL     OW 9478   1.483   6.661   3.501
 2860SOL    HW1 9479   1.545   6.594   3.542
 2860SOL    HW2 9480   1.412   6.685   3.567
 2861SOL     OW 9481   5.096   4.152   5.288
 2861SOL    HW1 9482   5.001   4.122   5.280
 2861SOL    HW2 9483   5.113   4.225   5.222
 2862SOL     OW 9484   4.300   0.996   6.914
 2862SOL    HW1 9485   4.398   1.012   6.906
 2862SOL    HW2 9486   4.281   0.946   6.999
 2863SOL     OW 9487   5.584   1.685   6.001
 2863SOL    HW1 9488   5.650   1.737   6.056
 2863SOL    HW2 9489   5.540   1.617   6.058
 2864SOL     OW 9490   4.212   4.217   1.144
 2864SOL    HW1 9491   4.221   4.120   1.121
 2864SOL    HW2 9492   4.207   4.227   1.244
 2865SOL     OW 9493   5.643   4.944   6.072
 2865SOL    HW1 9494   5.682   5.035   6.056
 2865SOL    HW2 9495   5.600   4.911   5.987
 2866SOL     OW 9496   3.778   5.324   0.994
 2866SOL    HW1 9497   3.823   5.240   0.963
 2866SOL    HW2 9498   3.837   5.371   1.059
 2867SOL     OW 9499   0.067   6.108   2.860
 2867SOL    HW1 9500   0.147   6.048   2.859
 2867SOL    HW2 9501   0.047   6.139   2.767
 2868SOL     OW 9502   6.746   6.975   5.620
 2868SOL    HW1 9503   6.841   6.948   5.639
 2868SOL    HW2 9504   6.707   7.019   5.701
 2869SOL     OW 9505   5.642   4.740   5.504
 2869SOL    HW1 9506   5.722   4.695   5.545
 2869SOL    HW2 9507   5.643   4.837   5.526
 2870SOL     OW 9508   0.614   1.328   1.431
 2870SOL    HW1 9509   0.647   1.239   1.399
 2870SOL    HW2 9510   0.547   1.314   1.504
 2871SOL     OW 9511   4.959   1.629   3.568
 2871SOL    HW1 9512   4.952   1.534   3.597
 2871SOL    HW2 9513   4.951   1.635   3.469
 2872SOL     OW 9514   3.550   1.881   2.530
 2872SOL    HW1 9515   3.630   1.941   2.529
 2872SOL    HW2 9516   3.515   1.870   2.437
 2873SOL     OW 9517   0.800   6.770   2.821
 2873SOL    HW1 9518   0.893   6.770   2.784
 2873SOL    HW2 9519   0.746   6.701   2.775
 2874SOL     OW 9520   2.201   1.252   3.214
 2874SOL    HW1 9521   2.180   1.349   3.226
 2874SOL    HW2 9522   2.131   1.210   3.157
 2875SOL     OW 9523   2.307   0.375   2.532
 2875SOL    HW1 9524   2.251   0.448   2.569
 2875SOL    HW2 9525   2.315   0.301   2.599
 2876SOL     OW 9526   0.779   6.712   0.721
 2876SOL    HW1 9527   0.811   6.618   0.730
 2876SOL    HW2 9528   0.844   6.773   0.767
 2877SOL     OW 9529   1.837   3.235   5.784
 2877SOL    HW1 9530   1.824   3.193   5.873
 2877SOL    HW2 9531   1.914   3.299   5.788
 2878SOL     OW 9532   3.137   3.055   4.635
 2878SOL    HW1 9533   3.110   2.960   4.653
 2878SOL    HW2 9534   3.224   3.074   4.681
 2879SOL     OW 9535   5.442   5.407   0.242
 2879SOL    HW1 9536   5.398   5.477   0.299
 2879SOL    HW2 9537   5.372   5.348   0.201
 2880SOL     OW 9538   1.387   1.934   3.075
 2880SOL    HW1 9539   1.345   1.932   3.165
 2880SOL    HW2 9540   1.316   1.929   3.005
 2881SOL     OW 9541   5.232   5.155   0.377
 2881SOL    HW1 9542   5.198   5.066   0.346
 2881SOL    HW2 9543   5.204   5.225   0.311
 2882SOL     OW 9544   4.238   6.508   6.669
 2882SOL    HW1 9545   4.139   6.495   6.665
 2882SOL    HW2 9546   4.262   6.595   6.625
 2883SOL     OW 9547   5.478   6.007   3.547
 2883SOL    HW1 9548   5.412   6.036   3.479
 2883SOL    HW2 9549   5.528   6.086   3.583
 2884SOL     OW 9550   6.222   5.653   3.448
 2884SOL    HW1 9551   6.124   5.641   3.435
 2884SOL    HW2 9552   6.264   5.679   3.361
 2885SOL     OW 9553   0.495   3.417   3.584
 2885SOL    HW1 9554   0.542   3.505   3.589
 2885SOL    HW2 9555   0.562   3.344   3.570
 2886SOL     OW 9556   2.356   4.435   4.878
 2886SOL    HW1 9557   2.410   4.474   4.804
 2886SOL    HW2 9558   2.318   4.347   4.850
 2887SOL     OW 9559   0.096   5.430   2.856
 2887SOL    HW1 9560   0.121   5.404   2.949
 2887SOL    HW2 9561   0.019   5.494   2.858
 2888SOL     OW 9562   4.524   6.466   6.787
 2888SOL    HW1 9563   4.536   6.368   6.801
 2888SOL    HW2 9564   4.453   6.483   6.719
 2889SOL     OW 9565   3.634   6.235   4.474
 2889SOL    HW1 9566   3.544   6.278   4.488
 2889SOL    HW2 9567   3.621   6.147   4.426
 2890SOL     OW 9568   1.947   2.498   0.077
 2890SOL    HW1 9569   1.856   2.498   0.036
 2890SOL    HW2 9570   1.973   2.592   0.100
 2891SOL     OW 9571   0.936   1.411   5.161
 2891SOL    HW1 9572   0.850   1.376   5.123
 2891SOL    HW2 9573   0.993   1.334   5.189
 2892SOL     OW 9574   5.205   4.236   2.134
 2892SOL    HW1 9575   5.248   4.245   2.224
 2892SOL    HW2 9576   5.273   4.252   2.063
 2893SOL     OW 9577   6.960   5.067   4.857
 2893SOL    HW1 9578   6.918   5.140   4.911
 2893SOL    HW2 9579   6.981   5.100   4.765
 2894SOL     OW 9580   1.584   5.382   1.058
 2894SOL    HW1 9581   1.490   5.412   1.039
 2894SOL    HW2 9582   1.583   5.287   1.090
 2895SOL     OW 9583   4.760   6.826   6.108
 2895SOL    HW1 9584   4.733   6.765   6.183
 2895SOL    HW2 9585   4.693   6.819   6.034
 2896SOL     OW 9586   6.339   0.469   5.191
 2896SOL    HW1 9587   6.397   0.512   5.260
 2896SOL    HW2 9588   6.245   0.463   5.224
 2897SOL     OW 9589   3.690   5.876   3.325
 2897SOL    HW1 9590   3.598   5.838   3.314
 2897SOL    HW2 9591   3.702   5.952   3.260
 2898SOL     OW 9592   5.126   2.998   3.523
 2898SOL    HW1 9593   5.217   3.019   3.488
 2898SOL    HW2 9594   5.100   2.905   3.496
 2899SOL     OW 9595   6.334   2.541   0.744
 2899SOL    HW1 9596   6.252   2.496   0.778
 2899SOL    HW2 9597   6.378   2.591   0.819
 2900SOL     OW 9598   2.452   2.783   5.780
 2900SOL    HW1 9599   2.502   2.853   5.729
 2900SOL    HW2 9600   2.487   2.693   5.755
 2901SOL     OW 9601   1.430   3.781   1.873
 2901SOL    HW1 9602   1.412   3.879   1.886
 2901SOL    HW2 9603   1.362   3.743   1.810
 2902SOL     OW 9604   5.610   5.862   3.345
 2902SOL    HW1 9605   5.572   5.907   3.426
 2902SOL    HW2 9606   5.687   5.916   3.310
 2903SOL     OW 9607   0.494   5.149   0.790
 2903SOL    HW1 9608   0.540   5.216   0.731
 2903SOL    HW2 9609   0.424   5.101   0.738
 2904SOL     OW 9610   2.904   4.871   4.914
 2904SOL    HW1 9611   2.828   4.914   4.864
 2904SOL    HW2 9612   2.870   4.790   4.962
 2905SOL     OW 9613   0.701   4.942   1.590
 2905SOL    HW1 9614   0.635   4.870   1.612
 2905SOL    HW2 9615   0.765   4.952   1.666
 2906SOL     OW 9616   0.092   6.107   5.919
 2906SOL    HW1 9617   0.042   6.105   6.006
 2906SOL    HW2 9618   0.190   6.106   5.937
 2907SOL     OW 9619   6.854   0.891   5.256
 2907SOL    HW1 9620   6.930   0.872   5.318
 2907SOL    HW2 9621   6.889   0.930   5.171
 2908SOL     OW 9622   4.235   6.632   4.006
 2908SOL    HW1 9623   4.286   6.600   3.925
 2908SOL    HW2 9624   4.158   6.571   4.023
 2909SOL     OW 9625   0.112   0.059   1.475
 2909SOL    HW1 9626   0.094   7.019   1.552
 2909SOL    HW2 9627   0.102   0.009   1.389
 2910SOL     OW 9628   1.343   0.870   4.170
 2910SOL    HW1 9629   1.370   0.878   4.266
 2910SOL    HW2 9630   1.286   0.788   4.159
 2911SOL     OW 9631   6.960   4.115   4.664
 2911SOL    HW1 9632   6.910   4.073   4.589
 2911SOL    HW2 9633   0.007   4.180   4.628
 2912SOL     OW 9634   0.716   1.665   2.152
 2912SOL    HW1 9635   0.673   1.601   2.216
 2912SOL    HW2 9636   0.702   1.759   2.184
 2913SOL     OW 9637   0.832   6.779   3.886
 2913SOL    HW1 9638   0.867   6.761   3.794
 2913SOL    HW2 9639   0.893   6.844   3.933
 2914SOL     OW 9640   3.586   4.182   1.295
 2914SOL    HW1 9641   3.563   4.268   1.340
 2914SOL    HW2 9642   3.659   4.136   1.346
 2915SOL     OW 9643   1.790   1.079   4.187
 2915SOL    HW1 9644   1.837   1.146   4.245
 2915SOL    HW2 9645   1.705   1.050   4.231
 2916SOL     OW 9646   0.693   5.276   6.559
 2916SOL    HW1 9647   0.732   5.367   6.561
 2916SOL    HW2 9648   0.713   5.229   6.646
 2917SOL     OW 9649   2.055   0.566   3.286
 2917SOL    HW1 9650   1.965   0.602   3.265
 2917SOL    HW2 9651   2.082   0.595   3.378
 2918SOL     OW 9652   5.055   2.329   1.291
 2918SOL    HW1 9653   5.077   2.233   1.303
 2918SOL    HW2 9654   4.984   2.356   1.356
 2919SOL     OW 9655   0.916   6.429   4.789
 2919SOL    HW1 9656   0.981   6.503   4.770
 2919SOL    HW2 9657   0.896   6.380   4.704
 2920SOL     OW 9658   2.751   2.564   1.716
 2920SOL    HW1 9659   2.825   2.607   1.664
 2920SOL    HW2 9660   2.786   2.534   1.805
 2921SOL     OW 9661   0.636   5.942   3.360
 2921SOL    HW1 9662   0.702   5.867   3.349
 2921SOL    HW2 9663   0.681   6.029   3.339
 2922SOL     OW 9664   3.689   5.166   3.499
 2922SOL    HW1 9665   3.704   5.180   3.401
 2922SOL    HW2 9666   3.629   5.239   3.534
 2923SOL     OW 9667   1.779   5.852   4.499
 2923SOL    HW1 9668   1.702   5.835   4.561
 2923SOL    HW2 9669   1.748   5.842   4.404
 2924SOL     OW 9670   5.306   1.293   6.503
 2924SOL    HW1 9671   5.406   1.299   6.499
 2924SOL    HW2 9672   5.268   1.383   6.524
 2925SOL     OW 9673   5.673   6.640   4.851
 2925SOL    HW1 9674   5.685   6.682   4.941
 2925SOL    HW2 9675   5.763   6.615   4.814
 2926SOL     OW 9676   6.244   2.806   5.035
 2926SOL    HW1 9677   6.319   2.872   5.026
 2926SOL    HW2 9678   6.280   2.720   5.070
 2927SOL     OW 9679   1.338   1.986   2.609
 2927SOL    HW1 9680   1.412   1.959   2.671
 2927SOL    HW2 9681   1.299   2.073   2.640
 2928SOL     OW 9682   5.444   4.291   0.571
 2928SOL    HW1 9683   5.421   4.206   0.523
 2928SOL    HW2 9684   5.386   4.299   0.653
 2929SOL     OW 9685   2.219   1.738   3.529
 2929SOL    HW1 9686   2.314   1.769   3.521
 2929SOL    HW2 9687   2.210   1.648   3.487
 2930SOL     OW 9688   0.586   3.604   4.203
 2930SOL    HW1 9689   0.680   3.576   4.185
 2930SOL    HW2 9690   0.523   3.530   4.177
 2931SOL     OW 9691   6.224   4.513   6.454
 2931SOL    HW1 9692   6.286   4.438   6.433
 2931SOL    HW2 9693   6.203   4.513   6.551
 2932SOL     OW 9694   6.565   5.743   0.795
 2932SOL    HW1 9695   6.469   5.747   0.825
 2932SOL    HW2 9696   6.617   5.686   0.858
 2933SOL     OW 9697   0.820   6.904   6.953
 2933SOL    HW1 9698   0.917   6.904   6.929
 2933SOL    HW2 9699   0.768   6.946   6.879
 2934SOL     OW 9700   5.684   5.014   1.536
 2934SOL    HW1 9701   5.694   4.933   1.479
 2934SOL    HW2 9702   5.619   4.995   1.610
 2935SOL     OW 9703   0.695   3.827   5.506
 2935SOL    HW1 9704   0.657   3.789   5.591
 2935SOL    HW2 9705   0.758   3.760   5.466
 2936SOL     OW 9706   4.189   6.283   1.929
 2936SOL    HW1 9707   4.139   6.362   1.894
 2936SOL    HW2 9708   4.193   6.288   2.029
 2937SOL     OW 9709   6.160   3.699   3.325
 2937SOL    HW1 9710   6.170   3.752   3.241
 2937SOL    HW2 9711   6.103   3.619   3.307
 2938SOL     OW 9712   0.571   5.153   0.379
 2938SOL    HW1 9713   0.594   5.057   0.392
 2938SOL    HW2 9714   0.485   5.161   0.329
 2939SOL     OW 9715   6.574   6.669   1.691
 2939SOL    HW1 9716   6.526   6.629   1.613
 2939SOL    HW2 9717   6.561   6.612   1.772
 2940SOL     OW 9718   4.525   6.589   4.076
 2940SOL    HW1 9719   4.482   6.626   3.994
 2940SOL    HW2 9720   4.516   6.654   4.151
 2941SOL     OW 9721   2.934   4.793   2.851
 2941SOL    HW1 9722   3.024   4.806   2.892
 2941SOL    HW2 9723   2.935   4.828   2.757
 2942SOL     OW 9724   3.461   2.328   1.704
 2942SOL    HW1 9725   3.465   2.414   1.652
 2942SOL    HW2 9726   3.537   2.326   1.770
 2943SOL     OW 9727   0.491   4.010   3.657
 2943SOL    HW1 9728   0.539   3.985   3.573
 2943SOL    HW2 9729   0.411   3.951   3.669
 2944SOL     OW 9730   1.079   6.165   3.386
 2944SOL    HW1 9731   1.127   6.132   3.304
 2944SOL    HW2 9732   1.050   6.087   3.442
 2945SOL     OW 9733   5.994   3.384   1.172
 2945SOL    HW1 9734   5.934   3.328   1.115
 2945SOL    HW2 9735   5.948   3.469   1.196
 2946SOL     OW 9736   3.311   3.490   4.354
 2946SOL    HW1 9737   3.228   3.441   4.328
 2946SOL    HW2 9738   3.334   3.556   4.282
 2947SOL     OW 9739   6.375   5.342   0.101
 2947SOL    HW1 9740   6.407   5.371   0.011
 2947SOL    HW2 9741   6.335   5.419   0.149
 2948SOL     OW 9742   6.464   4.065   1.075
 2948SOL    HW1 9743   6.367   4.049   1.090
 2948SOL    HW2 9744   6.515   4.042   1.159
 2949SOL     OW 9745   1.531   6.407   0.717
 2949SOL    HW1 9746   1.518   6.505   0.705
 2949SOL    HW2 9747   1.441   6.362   0.725
 2950SOL     OW 9748   5.958   5.269   2.391
 2950SOL    HW1 9749   5.905   5.203   2.444
 2950SOL    HW2 9750   5.945   5.360   2.429
 2951SOL     OW 9751   0.751   2.181   1.341
 2951SOL    HW1 9752   0.724   2.190   1.437
 2951SOL    HW2 9753   0.815   2.254   1.317
 2952SOL     OW 9754   0.336   1.346   3.647
 2952SOL    HW1 9755   0.361   1.319   3.741
 2952SOL    HW2 9756   0.294   1.268   3.600
 2953SOL     OW 9757   1.239   6.188   3.098
 2953SOL    HW1 9758   1.284   6.278   3.102
 2953SOL    HW2 9759   1.281   6.127   3.165
 2954SOL     OW 9760   0.844   4.234   6.380
 2954SOL    HW1 9761   0.850   4.136   6.359
 2954SOL    HW2 9762   0.802   4.282   6.303
 2955SOL     OW 9763   1.782   4.648   6.570
 2955SOL    HW1 9764   1.730   4.564   6.584
 2955SOL    HW2 9765   1.799   4.692   6.658
 2956SOL     OW 9766   5.425   3.897   4.672
 2956SOL    HW1 9767   5.417   3.881   4.770
 2956SOL    HW2 9768   5.506   3.952   4.653
 2957SOL     OW 9769   1.491   5.635   2.450
 2957SOL    HW1 9770   1.564   5.663   2.387
 2957SOL    HW2 9771   1.496   5.688   2.534
 2958SOL     OW 9772   1.686   4.597   1.686
 2958SOL    HW1 9773   1.782   4.572   1.701
 2958SOL    HW2 9774   1.652   4.550   1.604
 2959SOL     OW 9775   6.754   4.450   4.139
 2959SOL    HW1 9776   6.780   4.380   4.072
 2959SOL    HW2 9777   6.694   4.517   4.095
 2960SOL     OW 9778   4.515   6.553   1.141
 2960SOL    HW1 9779   4.479   6.461   1.126
 2960SOL    HW2 9780   4.574   6.553   1.222
 2961SOL     OW 9781   5.732   2.482   1.780
 2961SOL    HW1 9782   5.732   2.578   1.808
 2961SOL    HW2 9783   5.805   2.434   1.828
 2962SOL     OW 9784   0.211   0.124   3.685
 2962SOL    HW1 9785   0.238   0.031   3.660
 2962SOL    HW2 9786   0.252   0.149   3.772
 2963SOL     OW 9787   2.086   0.951   5.648
 2963SOL    HW1 9788   2.031   1.023   5.689
 2963SOL    HW2 9789   2.182   0.963   5.673
 2964SOL     OW 9790   1.545   0.124   6.397
 2964SOL    HW1 9791   1.528   0.209   6.348
 2964SOL    HW2 9792   1.474   0.111   6.467
 2965SOL     OW 9793   5.841   0.837   6.308
 2965SOL    HW1 9794   5.856   0.741   6.331
 2965SOL    HW2 9795   5.760   0.845   6.250
 2966SOL     OW 9796   3.947   5.642   2.984
 2966SOL    HW1 9797   3.918   5.625   3.078
 2966SOL    HW2 9798   3.922   5.735   2.958
 2967SOL     OW 9799   5.655   6.747   5.112
 2967SOL    HW1 9800   5.563   6.715   5.092
 2967SOL    HW2 9801   5.695   6.692   5.185
 2968SOL     OW 9802   1.545   4.107   1.390
 2968SOL    HW1 9803   1.508   4.101   1.298
 2968SOL    HW2 9804   1.591   4.194   1.403
 2969SOL     OW 9805   4.631   2.645   4.682
 2969SOL    HW1 9806   4.622   2.688   4.592
 2969SOL    HW2 9807   4.602   2.550   4.676
 2970SOL     OW 9808   2.482   2.740   6.059
 2970SOL    HW1 9809   2.476   2.765   5.962
 2970SOL    HW2 9810   2.421   2.798   6.112
 2971SOL     OW 9811   4.434   3.715   6.613
 2971SOL    HW1 9812   4.387   3.799   6.639
 2971SOL    HW2 9813   4.452   3.716   6.515
 2972SOL     OW 9814   0.377   5.764   6.521
 2972SOL    HW1 9815   0.358   5.833   6.451
 2972SOL    HW2 9816   0.416   5.683   6.478
 2973SOL     OW 9817   5.348   0.809   4.290
 2973SOL    HW1 9818   5.286   0.741   4.329
 2973SOL    HW2 9819   5.300   0.862   4.220
 2974SOL     OW 9820   5.645   6.234   2.392
 2974SOL    HW1 9821   5.596   6.261   2.309
 2974SOL    HW2 9822   5.737   6.201   2.368
 2975SOL     OW 9823   0.031   3.330   4.847
 2975SOL    HW1 9824   0.023   3.411   4.906
 2975SOL    HW2 9825   0.109   3.275   4.877
 2976SOL     OW 9826   3.721   0.641   1.641
 2976SOL    HW1 9827   3.781   0.700   1.694
 2976SOL    HW2 9828   3.642   0.694   1.610
 2977SOL     OW 9829   1.629   1.344   1.826
 2977SOL    HW1 9830   1.720   1.303   1.810
 2977SOL    HW2 9831   1.640   1.431   1.874
 2978SOL     OW 9832   3.565   5.868   0.538
 2978SOL    HW1 9833   3.488   5.815   0.574
 2978SOL    HW2 9834   3.542   5.902   0.446
 2979SOL     OW 9835   2.770   1.088   5.600
 2979SOL    HW1 9836   2.766   1.188   5.600
 2979SOL    HW2 9837   2.704   1.053   5.666
 2980SOL     OW 9838   3.392   2.953   3.770
 2980SOL    HW1 9839   3.303   2.981   3.804
 2980SOL    HW2 9840   3.449   2.922   3.846
 2981SOL     OW 9841   3.221   2.253   1.616
 2981SOL    HW1 9842   3.218   2.166   1.567
 2981SOL    HW2 9843   3.313   2.270   1.651
 2982SOL     OW 9844   1.567   0.758   1.130
 2982SOL    HW1 9845   1.624   0.833   1.163
 2982SOL    HW2 9846   1.471   0.785   1.136
 2983SOL     OW 9847   6.473   2.794   6.482
 2983SOL    HW1 9848   6.535   2.854   6.532
 2983SOL    HW2 9849   6.502   2.699   6.492
 2984SOL     OW 9850   0.398   6.115   1.360
 2984SOL    HW1 9851   0.363   6.027   1.328
 2984SOL    HW2 9852   0.385   6.183   1.289
 2985SOL     OW 9853   6.321   0.621   5.707
 2985SOL    HW1 9854   6.247   0.564   5.742
 2985SOL    HW2 9855   6.377   0.653   5.783
 2986SOL     OW 9856   3.252   3.259   2.582
 2986SOL    HW1 9857   3.343   3.271   2.541
 2986SOL    HW2 9858   3.202   3.189   2.530
 2987SOL     OW 9859   2.396   5.766   4.642
 2987SOL    HW1 9860   2.357   5.724   4.723
 2987SOL    HW2 9861   2.419   5.695   4.575
 2988SOL     OW 9862   0.211   1.587   6.635
 2988SOL    HW1 9863   0.132   1.560   6.690
 2988SOL    HW2 9864   0.204   1.684   6.611
 2989SOL     OW 9865   5.848   3.608   5.532
 2989SOL    HW1 9866   5.798   3.616   5.446
 2989SOL    HW2 9867   5.944   3.628   5.517
 2990SOL     OW 9868   5.205   1.118   5.285
 2990SOL    HW1 9869   5.118   1.148   5.323
 2990SOL    HW2 9870   5.239   1.187   5.221
 2991SOL     OW 9871   6.601   3.018   6.933
 2991SOL    HW1 9872   6.515   3.038   6.980
 2991SOL    HW2 9873   6.585   3.017   6.834
 2992SOL     OW 9874   0.926   4.218   5.453
 2992SOL    HW1 9875   0.974   4.163   5.385
 2992SOL    HW2 9876   0.888   4.300   5.411
 2993SOL     OW 9877   3.375   5.017   0.278
 2993SOL    HW1 9878   3.375   4.976   0.370
 2993SOL    HW2 9879   3.287   4.998   0.234
 2994SOL     OW 9880   2.313   5.083   4.984
 2994SOL    HW1 9881   2.239   5.103   5.048
 2994SOL    HW2 9882   2.347   4.990   5.001
 2995SOL     OW 9883   4.844   0.287   1.623
 2995SOL    HW1 9884   4.852   0.386   1.613
 2995SOL    HW2 9885   4.777   0.265   1.693
 2996SOL     OW 9886   6.842   0.947   4.128
 2996SOL    HW1 9887   6.869   0.989   4.041
 2996SOL    HW2 9888   6.911   0.967   4.198
 2997SOL     OW 9889   4.427   5.838   4.393
 2997SOL    HW1 9890   4.456   5.755   4.440
 2997SOL    HW2 9891   4.382   5.899   4.459
 2998SOL     OW 9892   2.501   0.496   1.924
 2998SOL    HW1 9893   2.578   0.556   1.942
 2998SOL    HW2 9894   2.501   0.421   1.990
 2999SOL     OW 9895   1.072   4.660   0.414
 2999SOL    HW1 9896   1.020   4.574   0.415
 2999SOL    HW2 9897   1.168   4.641   0.392
 3000SOL     OW 9898   2.411   3.695   5.666
 3000SOL    HW1 9899   2.380   3.605   5.697
 3000SOL    HW2 9900   2.334   3.744   5.625
 3001SOL     OW 9901   4.139   0.714   6.243
 3001SOL    HW1 9902   4.103   0.782   6.307
 3001SOL    HW2 9903   4.065   0.682   6.184
 3002SOL     OW 9904   1.174   2.079   2.259
 3002SOL    HW1 9905   1.185   1.997   2.315
 3002SOL    HW2 9906   1.172   2.160   2.318
 3003SOL     OW 9907   0.677   6.045   0.578
 3003SOL    HW1 9908   0.699   6.025   0.482
 3003SOL    HW2 9909   0.662   5.960   0.628
 3004SOL     OW 9910   3.161   6.979   4.019
 3004SOL    HW1 9911   3.081   6.974   3.959
 3004SOL    HW2 9912   3.166   0.049   4.060
 3005SOL     OW 9913   2.436   2.022   0.968
 3005SOL    HW1 9914   2.360   2.086   0.970
 3005SOL    HW2 9915   2.451   1.984   1.059
 3006SOL     OW 9916   5.703   1.302   5.443
 3006SOL    HW1 9917   5.700   1.212   5.488
 3006SOL    HW2 9918   5.630   1.308   5.375
 3007SOL     OW 9919   6.389   5.743   5.830
 3007SOL    HW1 9920   6.435   5.701   5.752
 3007SOL    HW2 9921   6.383   5.842   5.815
 3008SOL     OW 9922   5.191   4.035   5.723
 3008SOL    HW1 9923   5.233   4.062   5.809
 3008SOL    HW2 9924   5.143   3.948   5.734
 3009SOL     OW 9925   5.564   3.094   2.034
 3009SOL    HW1 9926   5.578   2.996   2.019
 3009SOL    HW2 9927   5.468   3.117   2.020
 3010SOL     OW 9928   4.578   5.129   2.032
 3010SOL    HW1 9929   4.575   5.191   1.954
 3010SOL    HW2 9930   4.651   5.062   2.020
 3011SOL     OW 9931   5.923   6.744   0.123
 3011SOL    HW1 9932   5.976   6.770   0.041
 3011SOL    HW2 9933   5.918   6.645   0.129
 3012SOL     OW 9934   2.336   1.349   4.731
 3012SOL    HW1 9935   2.427   1.359   4.772
 3012SOL    HW2 9936   2.289   1.272   4.772
 3013SOL     OW 9937   0.957   5.307   5.192
 3013SOL    HW1 9938   0.885   5.343   5.252
 3013SOL    HW2 9939   1.046   5.321   5.236
 3014SOL     OW 9940   3.978   0.333   6.851
 3014SOL    HW1 9941   4.044   0.408   6.843
 3014SOL    HW2 9942   4.021   0.254   6.895
 3015SOL     OW 9943   2.137   7.007   5.678
 3015SOL    HW1 9944   2.095   0.064   5.724
 3015SOL    HW2 9945   2.217   6.976   5.730
 3016SOL     OW 9946   2.935   0.596   3.839
 3016SOL    HW1 9947   3.032   0.609   3.818
 3016SOL    HW2 9948   2.908   0.659   3.911
 3017SOL     OW 9949   0.946   6.140   6.898
 3017SOL    HW1 9950   0.864   6.160   6.843
 3017SOL    HW2 9951   0.961   6.041   6.900
 3018SOL     OW 9952   2.861   2.429   1.346
 3018SOL    HW1 9953   2.916   2.363   1.397
 3018SOL    HW2 9954   2.778   2.451   1.397
 3019SOL     OW 9955   1.395   0.518   5.317
 3019SOL    HW1 9956   1.431   0.606   5.285
 3019SOL    HW2 9957   1.335   0.480   5.246
 3020SOL     OW 9958   4.718   4.612   0.282
 3020SOL    HW1 9959   4.636   4.657   0.319
 3020SOL    HW2 9960   4.693   4.525   0.240
 3021SOL     OW 9961   4.648   6.372   4.612
 3021SOL    HW1 9962   4.675   6.469   4.612
 3021SOL    HW2 9963   4.658   6.335   4.520
 3022SOL     OW 9964   4.279   6.877   4.101
 3022SOL    HW1 9965   4.375   6.904   4.100
 3022SOL    HW2 9966   4.269   6.788   4.056
 3023SOL     OW 9967   5.607   4.566   5.238
 3023SOL    HW1 9968   5.602   4.629   5.316
 3023SOL    HW2 9969   5.555   4.602   5.162
 3024SOL     OW 9970   6.559   1.213   0.289
 3024SOL    HW1 9971   6.531   1.309   0.287
 3024SOL    HW2 9972   6.650   1.205   0.330
 3025SOL     OW 9973   4.159   5.415   0.982
 3025SOL    HW1 9974   4.208   5.341   1.028
 3025SOL    HW2 9975   4.217   5.497   0.980
 3026SOL     OW 9976   0.520   0.142   2.425
 3026SOL    HW1 9977   0.525   0.234   2.387
 3026SOL    HW2 9978   0.431   0.102   2.404
 3027SOL     OW 9979   4.153   6.880   0.860
 3027SOL    HW1 9980   4.183   6.792   0.825
 3027SOL    HW2 9981   4.149   6.876   0.960
 3028SOL     OW 9982   3.750   3.416   4.609
 3028SOL    HW1 9983   3.705   3.502   4.631
 3028SOL    HW2 9984   3.764   3.410   4.510
 3029SOL     OW 9985   0.398   2.515   5.107
 3029SOL    HW1 9986   0.402   2.487   5.011
 3029SOL    HW2 9987   0.337   2.453   5.157
 3030SOL     OW 9988   0.917   2.895   6.044
 3030SOL    HW1 9989   0.960   2.900   5.954
 3030SOL    HW2 9990   0.876   2.983   6.067
 3031SOL     OW 9991   0.768   4.761   6.785
 3031SOL    HW1 9992   0.733   4.798   6.699
 3031SOL    HW2 9993   0.704   4.693   6.821
 3032SOL     OW 9994   3.603   6.905   3.678
 3032SOL    HW1 9995   3.602   6.890   3.777
 3032SOL    HW2 9996   3.628   6.820   3.632
 3033SOL     OW 9997   2.064   1.336   6.665
 3033SOL    HW1 9998   2.112   1.334   6.577
 3033SOL    HW2 9999   1.982   1.393   6.656
 3034SOL     OW10000   5.384   3.396   3.419
 3034SOL    HW110001   5.434   3.482   3.414
 3034SOL    HW210002   5.445   3.322   3.449
 3035SOL     OW10003   6.914   3.358   6.815
 3035SOL    HW110004   6.843   3.429   6.818
 3035SOL    HW210005   6.996   3.396   6.773
 3036SOL     OW10006   3.205   2.169   6.402
 3036SOL    HW110007   3.154   2.083   6.398
 3036SOL    HW210008   3.297   2.154   6.366
 3037SOL     OW10009   0.456   5.049   6.239
 3037SOL    HW110010   0.518   4.979   6.204
 3037SOL    HW210011   0.423   5.105   6.163
 3038SOL     OW10012   6.085   4.672   5.511
 3038SOL    HW110013   6.101   4.576   5.486
 3038SOL    HW210014   6.070   4.678   5.610
 3039SOL     OW10015   5.726   3.304   6.233
 3039SOL    HW110016   5.722   3.352   6.320
 3039SOL    HW210017   5.639   3.317   6.184
 3040SOL     OW10018   3.956   6.493   6.424
 3040SOL    HW110019   3.860   6.515   6.442
 3040SOL    HW210020   3.976   6.401   6.458
 3041SOL     OW10021   2.139   5.260   6.538
 3041SOL    HW110022   2.054   5.308   6.563
 3041SOL    HW210023   2.205   5.326   6.503
 3042SOL     OW10024   0.083   5.120   4.014
 3042SOL    HW110025   0.105   5.124   4.111
 3042SOL    HW210026   0.047   5.030   3.991
 3043SOL     OW10027   2.998   4.030   1.244
 3043SOL    HW110028   2.969   4.123   1.222
 3043SOL    HW210029   2.918   3.969   1.243
 3044SOL     OW10030   4.119   3.597   4.859
 3044SOL    HW110031   4.137   3.506   4.819
 3044SOL    HW210032   4.101   3.662   4.786
 3045SOL     OW10033   5.359   0.516   2.750
 3045SOL    HW110034   5.338   0.611   2.728
 3045SOL    HW210035   5.274   0.465   2.764
 3046SOL     OW10036   6.124   5.504   1.170
 3046SOL    HW110037   6.124   5.592   1.218
 3046SOL    HW210038   6.108   5.519   1.073
 3047SOL     OW10039   5.695   1.553   3.926
 3047SOL    HW110040   5.701   1.476   3.863
 3047SOL    HW210041   5.683   1.518   4.019
 3048SOL     OW10042   4.224   4.569   1.586
 3048SOL    HW110043   4.216   4.660   1.628
 3048SOL    HW210044   4.210   4.576   1.488
 3049SOL     OW10045   0.382   1.304   2.059
 3049SOL    HW110046   0.359   1.394   2.096
 3049SOL    HW210047   0.471   1.275   2.095
 3050SOL     OW10048   3.953   2.110   6.146
 3050SOL    HW110049   3.925   2.184   6.085
 3050SOL    HW210050   3.892   2.032   6.135
 3051SOL     OW10051   2.322   5.053   6.539
 3051SOL    HW110052   2.267   5.128   6.573
 3051SOL    HW210053   2.400   5.089   6.487
 3052SOL     OW10054   6.001   6.451   3.693
 3052SOL    HW110055   6.053   6.458   3.608
 3052SOL    HW210056   6.027   6.367   3.741
 3053SOL     OW10057   0.789   4.964   6.366
 3053SOL    HW110058   0.783   4.944   6.269
 3053SOL    HW210059   0.878   4.935   6.401
 3054SOL     OW10060   6.158   6.696   3.226
 3054SOL    HW110061   6.090   6.768   3.245
 3054SOL    HW210062   6.117   6.625   3.169
 3055SOL     OW10063   5.121   6.668   0.185
 3055SOL    HW110064   5.051   6.718   0.134
 3055SOL    HW210065   5.109   6.570   0.170
 3056SOL     OW10066   4.403   2.207   1.158
 3056SOL    HW110067   4.474   2.271   1.130
 3056SOL    HW210068   4.444   2.117   1.174
 3057SOL     OW10069   6.715   3.796   3.446
 3057SOL    HW110070   6.764   3.781   3.532
 3057SOL    HW210071   6.779   3.820   3.374
 3058SOL     OW10072   7.008   4.914   5.858
 3058SOL    HW110073   0.010   4.945   5.766
 3058SOL    HW210074   0.071   4.881   5.904
 3059SOL     OW10075   1.253   2.758   3.016
 3059SOL    HW110076   1.232   2.760   3.113
 3059SOL    HW210077   1.346   2.724   3.002
 3060SOL     OW10078   5.820   3.642   3.355
 3060SOL    HW110079   5.880   3.625   3.276
 3060SOL    HW210080   5.845   3.580   3.429
 3061SOL     OW10081   5.886   6.479   2.572
 3061SOL    HW110082   5.795   6.448   2.601
 3061SOL    HW210083   5.922   6.544   2.639
 3062SOL     OW10084   3.688   5.236   1.540
 3062SOL    HW110085   3.715   5.236   1.443
 3062SOL    HW210086   3.678   5.142   1.572
 3063SOL     OW10087   6.616   4.429   0.276
 3063SOL    HW110088   6.605   4.335   0.246
 3063SOL    HW210089   6.532   4.480   0.257
 3064SOL     OW10090   4.871   1.994   6.300
 3064SOL    HW110091   4.902   2.060   6.231
 3064SOL    HW210092   4.772   2.000   6.310
 3065SOL     OW10093   5.450   0.925   6.448
 3065SOL    HW110094   5.532   0.980   6.462
 3065SOL    HW210095   5.375   0.984   6.417
 3066SOL     OW10096   5.396   0.418   5.930
 3066SOL    HW110097   5.368   0.336   5.881
 3066SOL    HW210098   5.318   0.454   5.982
 3067SOL     OW10099   1.774   2.024   4.544
 3067SOL    HW110100   1.857   2.070   4.510
 3067SOL    HW210101   1.695   2.058   4.493
 3068SOL     OW10102   5.917   0.174   0.714
 3068SOL    HW110103   5.941   0.078   0.726
 3068SOL    HW210104   5.833   0.181   0.660
 3069SOL     OW10105   5.588   6.186   3.704
 3069SOL    HW110106   5.579   6.140   3.792
 3069SOL    HW210107   5.622   6.279   3.717
 3070SOL     OW10108   2.827   0.986   1.397
 3070SOL    HW110109   2.852   0.995   1.494
 3070SOL    HW210110   2.910   0.968   1.343
 3071SOL     OW10111   5.839   4.711   5.232
 3071SOL    HW110112   5.917   4.652   5.253
 3071SOL    HW210113   5.755   4.657   5.233
 3072SOL     OW10114   1.300   6.671   5.165
 3072SOL    HW110115   1.335   6.732   5.236
 3072SOL    HW210116   1.375   6.643   5.105
 3073SOL     OW10117   6.805   5.696   2.589
 3073SOL    HW110118   6.724   5.732   2.543
 3073SOL    HW210119   6.777   5.646   2.671
 3074SOL     OW10120   3.257   2.768   1.864
 3074SOL    HW110121   3.304   2.753   1.950
 3074SOL    HW210122   3.209   2.857   1.867
 3075SOL     OW10123   4.075   5.312   1.455
 3075SOL    HW110124   4.023   5.308   1.540
 3075SOL    HW210125   4.015   5.340   1.380
 3076SOL     OW10126   1.892   1.773   4.132
 3076SOL    HW110127   1.900   1.758   4.034
 3076SOL    HW210128   1.872   1.870   4.149
 3077SOL     OW10129   6.827   3.507   1.948
 3077SOL    HW110130   6.875   3.424   1.918
 3077SOL    HW210131   6.831   3.514   2.047
 3078SOL     OW10132   6.797   4.168   1.226
 3078SOL    HW110133   6.739   4.244   1.199
 3078SOL    HW210134   6.876   4.163   1.163
 3079SOL     OW10135   0.934   3.984   4.153
 3079SOL    HW110136   1.015   3.963   4.208
 3079SOL    HW210137   0.949   4.068   4.103
 3080SOL     OW10138   3.857   4.810   1.696
 3080SOL    HW110139   3.872   4.746   1.621
 3080SOL    HW210140   3.798   4.768   1.765
 3081SOL     OW10141   2.094   2.738   6.166
 3081SOL    HW110142   2.030   2.791   6.221
 3081SOL    HW210143   2.170   2.797   6.137
 3082SOL     OW10144   5.528   4.051   5.035
 3082SOL    HW110145   5.450   4.023   4.981
 3082SOL    HW210146   5.562   4.139   5.002
 3083SOL     OW10147   4.137   5.806   1.277
 3083SOL    HW110148   4.223   5.845   1.246
 3083SOL    HW210149   4.153   5.715   1.317
 3084SOL     OW10150   6.680   5.196   4.082
 3084SOL    HW110151   6.672   5.176   3.984
 3084SOL    HW210152   6.767   5.242   4.099
 3085SOL     OW10153   6.758   5.831   7.014
 3085SOL    HW110154   6.665   5.869   7.018
 3085SOL    HW210155   6.819   5.885   0.051
 3086SOL     OW10156   6.128   6.374   6.480
 3086SOL    HW110157   6.032   6.356   6.458
 3086SOL    HW210158   6.133   6.448   6.548
 3087SOL     OW10159   3.039   0.426   2.189
 3087SOL    HW110160   3.033   0.390   2.282
 3087SOL    HW210161   3.126   0.398   2.147
 3088SOL     OW10162   2.662   3.441   5.396
 3088SOL    HW110163   2.668   3.520   5.457
 3088SOL    HW210164   2.692   3.467   5.304
 3089SOL     OW10165   3.970   6.343   6.765
 3089SOL    HW110166   3.989   6.277   6.692
 3089SOL    HW210167   3.948   6.432   6.724
 3090SOL     OW10168   1.721   2.544   2.518
 3090SOL    HW110169   1.748   2.480   2.590
 3090SOL    HW210170   1.795   2.552   2.451
 3091SOL     OW10171   1.215   2.613   6.905
 3091SOL    HW110172   1.249   2.548   6.837
 3091SOL    HW210173   1.132   2.657   6.870
 3092SOL     OW10174   5.393   1.221   3.062
 3092SOL    HW110175   5.373   1.143   3.122
 3092SOL    HW210176   5.483   1.258   3.084
 3093SOL     OW10177   6.543   5.164   6.616
 3093SOL    HW110178   6.641   5.147   6.610
 3093SOL    HW210179   6.507   5.183   6.524
 3094SOL     OW10180   2.185   1.426   6.110
 3094SOL    HW110181   2.208   1.330   6.092
 3094SOL    HW210182   2.258   1.468   6.165
 3095SOL     OW10183   1.681   3.896   5.290
 3095SOL    HW110184   1.693   3.827   5.220
 3095SOL    HW210185   1.600   3.874   5.345
 3096SOL     OW10186   1.932   2.773   3.788
 3096SOL    HW110187   1.851   2.715   3.797
 3096SOL    HW210188   1.973   2.789   3.878
 3097SOL     OW10189   5.590   2.781   5.962
 3097SOL    HW110190   5.494   2.797   5.940
 3097SOL    HW210191   5.643   2.776   5.877
 3098SOL     OW10192   1.399   3.182   2.421
 3098SOL    HW110193   1.437   3.091   2.407
 3098SOL    HW210194   1.473   3.245   2.447
 3099SOL     OW10195   0.796   6.718   5.524
 3099SOL    HW110196   0.817   6.785   5.453
 3099SOL    HW210197   0.878   6.666   5.546
 3100SOL     OW10198   6.174   4.387   2.395
 3100SOL    HW110199   6.204   4.327   2.320
 3100SOL    HW210200   6.155   4.478   2.358
 3101SOL     OW10201   4.808   0.243   4.538
 3101SOL    HW110202   4.716   0.272   4.513
 3101SOL    HW210203   4.829   0.276   4.630
 3102SOL     OW10204   5.600   3.946   2.473
 3102SOL    HW110205   5.598   4.022   2.538
 3102SOL    HW210206   5.612   3.982   2.381
 3103SOL     OW10207   1.392   1.704   1.985
 3103SOL    HW110208   1.417   1.654   2.068
 3103SOL    HW210209   1.297   1.686   1.962
 3104SOL     OW10210   5.854   1.847   5.907
 3104SOL    HW110211   5.825   1.796   5.826
 3104SOL    HW210212   5.804   1.934   5.911
 3105SOL     OW10213   5.674   4.157   0.606
 3105SOL    HW110214   5.585   4.202   0.609
 3105SOL    HW210215   5.703   4.146   0.511
 3106SOL     OW10216   5.277   1.808   6.354
 3106SOL    HW110217   5.226   1.724   6.372
 3106SOL    HW210218   5.241   1.852   6.272
 3107SOL     OW10219   4.129   2.167   4.608
 3107SOL    HW110220   4.144   2.215   4.695
 3107SOL    HW210221   4.039   2.124   4.609
 3108SOL     OW10222   1.915   4.448   3.533
 3108SOL    HW110223   1.999   4.474   3.581
 3108SOL    HW210224   1.837   4.461   3.594
 3109SOL     OW10225   6.726   5.699   3.324
 3109SOL    HW110226   6.736   5.643   3.407
 3109SOL    HW210227   6.724   5.639   3.244
 3110SOL     OW10228   1.139   6.199   4.441
 3110SOL    HW110229   1.232   6.161   4.436
 3110SOL    HW210230   1.119   6.251   4.359
 3111SOL     OW10231   6.657   4.037   3.716
 3111SOL    HW110232   6.582   4.028   3.782
 3111SOL    HW210233   6.718   3.958   3.725
 3112SOL     OW10234   4.554   0.548   0.589
 3112SOL    HW110235   4.647   0.518   0.571
 3112SOL    HW210236   4.555   0.624   0.655
 3113SOL     OW10237   1.298   0.334   3.568
 3113SOL    HW110238   1.224   0.352   3.633
 3113SOL    HW210239   1.386   0.337   3.615
 3114SOL     OW10240   4.713   6.222   5.445
 3114SOL    HW110241   4.649   6.148   5.465
 3114SOL    HW210242   4.762   6.202   5.360
 3115SOL     OW10243   4.471   5.622   4.556
 3115SOL    HW110244   4.568   5.610   4.573
 3115SOL    HW210245   4.434   5.543   4.508
 3116SOL     OW10246   0.856   1.965   6.543
 3116SOL    HW110247   0.901   2.014   6.469
 3116SOL    HW210248   0.780   1.911   6.506
 3117SOL     OW10249   3.787   0.034   1.007
 3117SOL    HW110250   3.771   6.957   0.994
 3117SOL    HW210251   3.789   0.055   1.105
 3118SOL     OW10252   0.765   1.940   3.062
 3118SOL    HW110253   0.818   1.855   3.070
 3118SOL    HW210254   0.733   1.950   2.968
 3119SOL     OW10255   4.540   6.252   3.842
 3119SOL    HW110256   4.498   6.219   3.927
 3119SOL    HW210257   4.635   6.220   3.839
 3120SOL     OW10258   2.938   5.962   0.293
 3120SOL    HW110259   3.036   5.954   0.306
 3120SOL    HW210260   2.902   6.038   0.347
 3121SOL     OW10261   3.771   2.144   3.470
 3121SOL    HW110262   3.847   2.208   3.461
 3121SOL    HW210263   3.796   2.071   3.534
 3122SOL     OW10264   5.912   4.047   6.187
 3122SOL    HW110265   5.834   4.001   6.231
 3122SOL    HW210266   5.886   4.076   6.095
 3123SOL     OW10267   2.173   2.484   2.512
 3123SOL    HW110268   2.133   2.498   2.603
 3123SOL    HW210269   2.269   2.513   2.513
 3124SOL     OW10270   5.084   0.041   5.450
 3124SOL    HW110271   5.137   7.012   5.518
 3124SOL    HW210272   5.098   7.020   5.360
 3125SOL     OW10273   1.817   1.639   5.048
 3125SOL    HW110274   1.783   1.550   5.018
 3125SOL    HW210275   1.784   1.658   5.140
 3126SOL     OW10276   4.648   4.530   5.756
 3126SOL    HW110277   4.625   4.479   5.674
 3126SOL    HW210278   4.609   4.622   5.751
 3127SOL     OW10279   6.730   1.739   5.607
 3127SOL    HW110280   6.815   1.763   5.560
 3127SOL    HW210281   6.717   1.799   5.686
 3128SOL     OW10282   3.624   1.048   1.056
 3128SOL    HW110283   3.570   1.079   1.134
 3128SOL    HW210284   3.653   1.127   1.002
 3129SOL     OW10285   4.132   4.246   0.487
 3129SOL    HW110286   4.229   4.249   0.509
 3129SOL    HW210287   4.078   4.258   0.571
 3130SOL     OW10288   6.788   6.107   1.767
 3130SOL    HW110289   6.873   6.066   1.796
 3130SOL    HW210290   6.714   6.082   1.830
 3131SOL     OW10291   6.771   2.709   2.648
 3131SOL    HW110292   6.752   2.780   2.581
 3131SOL    HW210293   6.708   2.718   2.725
 3132SOL     OW10294   4.745   4.246   6.927
 3132SOL    HW110295   4.809   4.322   6.932
 3132SOL    HW210296   4.704   4.230   7.017
 3133SOL     OW10297   5.437   6.392   3.366
 3133SOL    HW110298   5.412   6.385   3.270
 3133SOL    HW210299   5.358   6.369   3.423
 3134SOL     OW10300   5.251   4.536   2.886
 3134SOL    HW110301   5.213   4.620   2.848
 3134SOL    HW210302   5.222   4.526   2.981
 3135SOL     OW10303   3.710   0.435   6.497
 3135SOL    HW110304   3.728   0.355   6.554
 3135SOL    HW210305   3.770   0.510   6.524
 3136SOL     OW10306   6.629   6.855   2.533
 3136SOL    HW110307   6.547   6.886   2.487
 3136SOL    HW210308   6.709   6.901   2.494
 3137SOL     OW10309   4.473   5.016   0.067
 3137SOL    HW110310   4.570   5.034   0.085
 3137SOL    HW210311   4.452   5.040   6.993
 3138SOL     OW10312   6.792   6.793   4.580
 3138SOL    HW110313   6.709   6.775   4.632
 3138SOL    HW210314   6.779   6.875   4.524
 3139SOL     OW10315   1.733   5.068   1.981
 3139SOL    HW110316   1.797   5.047   2.055
 3139SOL    HW210317   1.784   5.078   1.895
 3140SOL     OW10318   5.367   5.922   6.849
 3140SOL    HW110319   5.431   5.850   6.875
 3140SOL    HW210320   5.418   6.007   6.830
 3141SOL     OW10321   5.763   1.425   6.763
 3141SOL    HW110322   5.860   1.433   6.739
 3141SOL    HW210323   5.753   1.358   6.837
 3142SOL     OW10324   4.656   1.241   4.068
 3142SOL    HW110325   4.592   1.176   4.027
 3142SOL    HW210326   4.607   1.325   4.093
 3143SOL     OW10327   7.008   1.049   0.443
 3143SOL    HW110328   0.013   0.996   0.523
 3143SOL    HW210329   7.007   1.146   0.467
 3144SOL     OW10330   4.052   4.896   0.197
 3144SOL    HW110331   3.957   4.898   0.166
 3144SOL    HW210332   4.105   4.833   0.139
 3145SOL     OW10333   0.921   5.387   6.157
 3145SOL    HW110334   0.840   5.341   6.192
 3145SOL    HW210335   0.895   5.460   6.094
 3146SOL     OW10336   6.029   2.105   4.272
 3146SOL    HW110337   6.009   2.151   4.186
 3146SOL    HW210338   6.000   2.162   4.348
 3147SOL     OW10339   4.513   6.932   0.895
 3147SOL    HW110340   4.483   6.900   0.985
 3147SOL    HW210341   4.609   6.959   0.900
 3148SOL     OW10342   6.372   4.983   0.437
 3148SOL    HW110343   6.397   4.901   0.386
 3148SOL    HW210344   6.419   5.062   0.397
 3149SOL     OW10345   3.834   2.686   6.953
 3149SOL    HW110346   3.819   2.756   6.884
 3149SOL    HW210347   3.880   2.726   0.011
 3150SOL     OW10348   6.982   0.237   5.454
 3150SOL    HW110349   6.902   0.256   5.511
 3150SOL    HW210350   0.025   0.178   5.503
 3151SOL     OW10351   6.724   0.908   5.994
 3151SOL    HW110352   6.745   1.004   6.014
 3151SOL    HW210353   6.661   0.873   6.063
 3152SOL     OW10354   2.188   1.894   5.729
 3152SOL    HW110355   2.198   1.886   5.828
 3152SOL    HW210356   2.223   1.811   5.685
 3153SOL     OW10357   5.746   5.904   1.882
 3153SOL    HW110358   5.729   5.849   1.800
 3153SOL    HW210359   5.665   5.959   1.903
 3154SOL     OW10360   3.587   2.208   0.926
 3154SOL    HW110361   3.518   2.159   0.874
 3154SOL    HW210362   3.585   2.305   0.902
 3155SOL     OW10363   0.164   5.484   6.649
 3155SOL    HW110364   0.112   5.476   6.563
 3155SOL    HW210365   0.210   5.397   6.667
 3156SOL     OW10366   3.547   4.378   1.066
 3156SOL    HW110367   3.539   4.310   1.139
 3156SOL    HW210368   3.458   4.420   1.049
 3157SOL     OW10369   1.142   1.282   3.857
 3157SOL    HW110370   1.141   1.224   3.938
 3157SOL    HW210371   1.101   1.371   3.879
 3158SOL     OW10372   2.428   0.590   6.097
 3158SOL    HW110373   2.525   0.581   6.075
 3158SOL    HW210374   2.382   0.502   6.085
 3159SOL     OW10375   5.085   6.978   1.381
 3159SOL    HW110376   5.081   7.000   1.283
 3159SOL    HW210377   5.040   6.890   1.398
 3160SOL     OW10378   2.053   0.921   4.694
 3160SOL    HW110379   1.979   0.855   4.684
 3160SOL    HW210380   2.112   0.919   4.613
 3161SOL     OW10381   1.533   2.734   2.253
 3161SOL    HW110382   1.584   2.782   2.182
 3161SOL    HW210383   1.550   2.636   2.246
 3162SOL     OW10384   1.092   5.811   1.338
 3162SOL    HW110385   1.057   5.719   1.321
 3162SOL    HW210386   1.100   5.826   1.437
 3163SOL     OW10387   5.038   4.243   1.196
 3163SOL    HW110388   5.069   4.306   1.267
 3163SOL    HW210389   5.004   4.159   1.237
 3164SOL     OW10390   2.529   6.898   4.340
 3164SOL    HW110391   2.519   6.936   4.432
 3164SOL    HW210392   2.451   6.838   4.321
 3165SOL     OW10393   0.832   5.863   6.713
 3165SOL    HW110394   0.798   5.868   6.620
 3165SOL    HW210395   0.922   5.818   6.714
 3166SOL     OW10396   4.226   2.013   4.391
 3166SOL    HW110397   4.208   2.070   4.471
 3166SOL    HW210398   4.177   2.050   4.312
 3167SOL     OW10399   6.427   2.906   1.804
 3167SOL    HW110400   6.516   2.891   1.846
 3167SOL    HW210401   6.431   2.882   1.707
 3168SOL     OW10402   5.593   1.367   1.277
 3168SOL    HW110403   5.602   1.351   1.375
 3168SOL    HW210404   5.633   1.289   1.227
 3169SOL     OW10405   1.229   3.949   1.969
 3169SOL    HW110406   1.176   4.034   1.973
 3169SOL    HW210407   1.169   3.871   1.990
 3170SOL     OW10408   2.261   4.149   3.522
 3170SOL    HW110409   2.253   4.088   3.443
 3170SOL    HW210410   2.341   4.208   3.511
 3171SOL     OW10411   5.395   1.181   4.678
 3171SOL    HW110412   5.408   1.261   4.736
 3171SOL    HW210413   5.312   1.192   4.624
 3172SOL     OW10414   5.853   4.073   1.233
 3172SOL    HW110415   5.805   4.034   1.312
 3172SOL    HW210416   5.907   4.002   1.188
 3173SOL     OW10417   5.539   3.319   0.084
 3173SOL    HW110418   5.503   3.236   0.041
 3173SOL    HW210419   5.582   3.295   0.171
 3174SOL     OW10420   3.689   2.015   6.532
 3174SOL    HW110421   3.788   2.030   6.537
 3174SOL    HW210422   3.671   1.930   6.483
 3175SOL     OW10423   6.187   6.177   5.219
 3175SOL    HW110424   6.200   6.083   5.248
 3175SOL    HW210425   6.093   6.206   5.238
 3176SOL     OW10426   0.680   4.969   4.144
 3176SOL    HW110427   0.718   4.884   4.106
 3176SOL    HW210428   0.725   4.990   4.230
 3177SOL     OW10429   4.966   2.928   3.062
 3177SOL    HW110430   4.966   2.995   3.136
 3177SOL    HW210431   4.912   2.848   3.090
 3178SOL     OW10432   0.933   0.043   2.627
 3178SOL    HW110433   0.920   0.140   2.648
 3178SOL    HW210434   0.870   0.016   2.554
 3179SOL     OW10435   0.835   3.128   2.207
 3179SOL    HW110436   0.875   3.205   2.257
 3179SOL    HW210437   0.818   3.052   2.270
 3180SOL     OW10438   6.757   6.812   6.760
 3180SOL    HW110439   6.746   6.719   6.794
 3180SOL    HW210440   6.854   6.830   6.741
 3181SOL     OW10441   0.661   6.127   4.869
 3181SOL    HW110442   0.640   6.047   4.927
 3181SOL    HW210443   0.758   6.148   4.876
 3182SOL     OW10444   1.232   6.618   1.531
 3182SOL    HW110445   1.254   6.712   1.506
 3182SOL    HW210446   1.240   6.608   1.630
 3183SOL     OW10447   4.120   3.569   0.967
 3183SOL    HW110448   4.142   3.556   1.063
 3183SOL    HW210449   4.192   3.529   0.910
 3184SOL     OW10450   6.147   1.654   4.222
 3184SOL    HW110451   6.171   1.641   4.125
 3184SOL    HW210452   6.187   1.581   4.276
 3185SOL     OW10453   0.903   6.652   6.049
 3185SOL    HW110454   0.903   6.678   5.952
 3185SOL    HW210455   0.989   6.605   6.070
 3186SOL     OW10456   0.267   2.678   5.800
 3186SOL    HW110457   0.176   2.638   5.791
 3186SOL    HW210458   0.259   2.772   5.833
 3187SOL     OW10459   5.361   0.023   3.296
 3187SOL    HW110460   5.341   0.031   3.394
 3187SOL    HW210461   5.438   0.082   3.272
 3188SOL     OW10462   1.706   6.395   1.217
 3188SOL    HW110463   1.687   6.365   1.124
 3188SOL    HW210464   1.700   6.317   1.279
 3189SOL     OW10465   2.595   1.692   6.603
 3189SOL    HW110466   2.645   1.617   6.646
 3189SOL    HW210467   2.565   1.758   6.672
 3190SOL     OW10468   5.922   6.516   4.084
 3190SOL    HW110469   5.909   6.418   4.073
 3190SOL    HW210470   5.914   6.562   3.995
 3191SOL     OW10471   3.657   5.000   1.648
 3191SOL    HW110472   3.717   4.923   1.624
 3191SOL    HW210473   3.588   4.969   1.713
 3192SOL     OW10474   5.359   0.800   2.684
 3192SOL    HW110475   5.300   0.881   2.678
 3192SOL    HW210476   5.453   0.830   2.700
 3193SOL     OW10477   3.021   5.486   5.224
 3193SOL    HW110478   3.046   5.518   5.316
 3193SOL    HW210479   3.098   5.501   5.162
 3194SOL     OW10480   2.078   6.688   5.250
 3194SOL    HW110481   2.042   6.668   5.341
 3194SOL    HW210482   2.006   6.726   5.193
 3195SOL     OW10483   0.963   6.801   0.316
 3195SOL    HW110484   0.877   6.779   0.362
 3195SOL    HW210485   0.951   6.885   0.262
 3196SOL     OW10486   6.235   6.969   2.958
 3196SOL    HW110487   6.161   6.944   3.020
 3196SOL    HW210488   6.247   6.897   2.890
 3197SOL     OW10489   3.042   0.479   0.050
 3197SOL    HW110490   2.987   0.494   0.132
 3197SOL    HW210491   2.982   0.451   6.996
 3198SOL     OW10492   5.282   2.812   4.131
 3198SOL    HW110493   5.283   2.756   4.214
 3198SOL    HW210494   5.239   2.900   4.151
 3199SOL     OW10495   4.860   3.898   3.385
 3199SOL    HW110496   4.812   3.837   3.321
 3199SOL    HW210497   4.958   3.896   3.365
 3200SOL     OW10498   5.795   3.809   4.698
 3200SOL    HW110499   5.814   3.823   4.796
 3200SOL    HW210500   5.835   3.884   4.646
 3201SOL     OW10501   6.698   4.115   2.133
 3201SOL    HW110502   6.740   4.025   2.120
 3201SOL    HW210503   6.770   4.184   2.143
 3202SOL     OW10504   2.649   2.812   6.583
 3202SOL    HW110505   2.677   2.727   6.538
 3202SOL    HW210506   2.721   2.881   6.572
 3203SOL     OW10507   3.174   6.816   1.909
 3203SOL    HW110508   3.244   6.774   1.966
 3203SOL    HW210509   3.192   6.794   1.813
 3204SOL     OW10510   4.117   0.280   3.841
 3204SOL    HW110511   4.188   0.344   3.869
 3204SOL    HW210512   4.033   0.299   3.892
 3205SOL     OW10513   4.538   2.899   6.066
 3205SOL    HW110514   4.506   2.927   5.975
 3205SOL    HW210515   4.467   2.845   6.110
 3206SOL     OW10516   3.298   4.280   0.841
 3206SOL    HW110517   3.281   4.358   0.780
 3206SOL    HW210518   3.390   4.287   0.879
 3207SOL     OW10519   2.466   6.543   3.442
 3207SOL    HW110520   2.559   6.509   3.460
 3207SOL    HW210521   2.472   6.625   3.385
 3208SOL     OW10522   6.914   4.430   6.009
 3208SOL    HW110523   6.979   4.492   6.052
 3208SOL    HW210524   6.942   4.336   6.025
 3209SOL     OW10525   5.030   6.794   6.073
 3209SOL    HW110526   5.076   6.716   6.115
 3209SOL    HW210527   4.936   6.799   6.106
 3210SOL     OW10528   5.076   5.147   1.751
 3210SOL    HW110529   4.984   5.176   1.724
 3210SOL    HW210530   5.092   5.054   1.719
 3211SOL     OW10531   2.196   6.484   6.505
 3211SOL    HW110532   2.187   6.540   6.422
 3211SOL    HW210533   2.163   6.536   6.584
 3212SOL     OW10534   3.414   6.866   4.155
 3212SOL    HW110535   3.501   6.911   4.132
 3212SOL    HW210536   3.347   6.886   4.084
 3213SOL     OW10537   1.347   0.419   5.667
 3213SOL    HW110538   1.263   0.471   5.654
 3213SOL    HW210539   1.423   0.483   5.681
 3214SOL     OW10540   3.395   0.718   2.987
 3214SOL    HW110541   3.479   0.684   2.946
 3214SOL    HW210542   3.354   0.787   2.928
 3215SOL     OW10543   2.135   3.032   1.927
 3215SOL    HW110544   2.130   3.127   1.958
 3215SOL    HW210545   2.160   3.030   1.830
 3216SOL     OW10546   6.369   5.319   0.625
 3216SOL    HW110547   6.405   5.391   0.565
 3216SOL    HW210548   6.275   5.299   0.599
 3217SOL     OW10549   6.853   5.691   4.157
 3217SOL    HW110550   6.935   5.645   4.191
 3217SOL    HW210551   6.866   5.714   4.060
 3218SOL     OW10552   5.588   1.454   3.297
 3218SOL    HW110553   5.590   1.376   3.234
 3218SOL    HW210554   5.594   1.539   3.245
 3219SOL     OW10555   5.691   2.084   4.939
 3219SOL    HW110556   5.735   2.054   4.854
 3219SOL    HW210557   5.629   2.013   4.971
 3220SOL     OW10558   0.588   3.744   5.777
 3220SOL    HW110559   0.589   3.650   5.744
 3220SOL    HW210560   0.523   3.753   5.853
 3221SOL     OW10561   4.286   1.563   2.197
 3221SOL    HW110562   4.373   1.515   2.212
 3221SOL    HW210563   4.213   1.516   2.247
 3222SOL     OW10564   3.756   1.443   3.147
 3222SOL    HW110565   3.748   1.436   3.246
 3222SOL    HW210566   3.818   1.371   3.114
 3223SOL     OW10567   1.675   5.709   0.539
 3223SOL    HW110568   1.749   5.703   0.472
 3223SOL    HW210569   1.631   5.799   0.531
 3224SOL     OW10570   4.738   2.786   4.904
 3224SOL    HW110571   4.681   2.733   4.841
 3224SOL    HW210572   4.735   2.883   4.880
 3225SOL     OW10573   4.812   1.241   4.797
 3225SOL    HW110574   4.752   1.309   4.840
 3225SOL    HW210575   4.889   1.288   4.753
 3226SOL     OW10576   6.440   0.879   0.790
 3226SOL    HW110577   6.388   0.863   0.874
 3226SOL    HW210578   6.511   0.947   0.808
 3227SOL     OW10579   6.057   4.410   5.725
 3227SOL    HW110580   6.140   4.461   5.702
 3227SOL    HW210581   6.068   4.366   5.814
 3228SOL     OW10582   2.414   4.240   0.020
 3228SOL    HW110583   2.507   4.274   0.036
 3228SOL    HW210584   2.350   4.288   0.080
 3229SOL     OW10585   1.544   1.664   0.826
 3229SOL    HW110586   1.644   1.661   0.822
 3229SOL    HW210587   1.514   1.760   0.829
 3230SOL     OW10588   2.719   6.067   5.130
 3230SOL    HW110589   2.728   6.167   5.127
 3230SOL    HW210590   2.810   6.025   5.127
 3231SOL     OW10591   2.263   2.904   2.395
 3231SOL    HW110592   2.278   2.892   2.493
 3231SOL    HW210593   2.235   2.998   2.377
 3232SOL     OW10594   2.716   4.838   3.165
 3232SOL    HW110595   2.756   4.820   3.255
 3232SOL    HW210596   2.776   4.801   3.095
 3233SOL     OW10597   2.442   0.079   6.812
 3233SOL    HW110598   2.424   0.087   6.910
 3233SOL    HW210599   2.356   0.065   6.763
 3234SOL     OW10600   3.365   3.251   1.042
 3234SOL    HW110601   3.422   3.191   1.098
 3234SOL    HW210602   3.422   3.323   1.001
 3235SOL     OW10603   6.716   1.288   2.797
 3235SOL    HW110604   6.667   1.375   2.790
 3235SOL    HW210605   6.677   1.222   2.733
 3236SOL     OW10606   5.123   0.473   0.503
 3236SOL    HW110607   5.167   0.527   0.574
 3236SOL    HW210608   5.183   0.468   0.423
 3237SOL     OW10609   5.814   1.373   4.957
 3237SOL    HW110610   5.856   1.358   5.047
 3237SOL    HW210611   5.846   1.460   4.920
 3238SOL     OW10612   6.662   4.869   1.567
 3238SOL    HW110613   6.755   4.839   1.543
 3238SOL    HW210614   6.597   4.830   1.501
 3239SOL     OW10615   5.947   0.463   4.932
 3239SOL    HW110616   6.013   0.513   4.987
 3239SOL    HW210617   5.854   0.490   4.957
 3240SOL     OW10618   0.793   1.743   0.678
 3240SOL    HW110619   0.875   1.688   0.659
 3240SOL    HW210620   0.815   1.813   0.745
 3241SOL     OW10621   0.017   3.228   5.388
 3241SOL    HW110622   0.080   3.292   5.433
 3241SOL    HW210623   6.964   3.205   5.450
 3242SOL     OW10624   6.752   4.111   4.853
 3242SOL    HW110625   6.759   4.211   4.854
 3242SOL    HW210626   6.821   4.073   4.792
 3243SOL     OW10627   5.764   5.306   3.908
 3243SOL    HW110628   5.829   5.245   3.863
 3243SOL    HW210629   5.751   5.388   3.853
 3244SOL     OW10630   4.678   0.066   6.952
 3244SOL    HW110631   4.733   0.147   6.971
 3244SOL    HW210632   4.717   0.018   6.873
 3245SOL     OW10633   3.314   6.631   4.252
 3245SOL    HW110634   3.375   6.591   4.321
 3245SOL    HW210635   3.355   6.716   4.218
 3246SOL     OW10636   6.540   5.811   3.137
 3246SOL    HW110637   6.601   5.783   3.062
 3246SOL    HW210638   6.587   5.800   3.224
 3247SOL     OW10639   2.165   4.678   3.878
 3247SOL    HW110640   2.250   4.632   3.905
 3247SOL    HW210641   2.097   4.667   3.951
 3248SOL     OW10642   6.086   2.654   3.449
 3248SOL    HW110643   6.036   2.728   3.494
 3248SOL    HW210644   6.045   2.566   3.473
 3249SOL     OW10645   3.260   4.027   4.015
 3249SOL    HW110646   3.274   4.120   4.050
 3249SOL    HW210647   3.167   3.998   4.035
 3250SOL     OW10648   4.806   6.000   3.988
 3250SOL    HW110649   4.767   5.983   3.897
 3250SOL    HW210650   4.732   6.025   4.051
 3251SOL     OW10651   2.819   2.173   2.491
 3251SOL    HW110652   2.812   2.074   2.502
 3251SOL    HW210653   2.892   2.208   2.549
 3252SOL     OW10654   2.045   2.106   3.154
 3252SOL    HW110655   2.077   2.059   3.236
 3252SOL    HW210656   1.947   2.092   3.144
 3253SOL     OW10657   6.843   3.938   0.116
 3253SOL    HW110658   6.854   4.024   0.167
 3253SOL    HW210659   6.924   3.922   0.060
 3254SOL     OW10660   5.946   6.465   0.481
 3254SOL    HW110661   5.862   6.454   0.533
 3254SOL    HW210662   5.998   6.543   0.516
 3255SOL     OW10663   3.555   5.895   2.029
 3255SOL    HW110664   3.590   5.922   1.940
 3255SOL    HW210665   3.511   5.805   2.021
 3256SOL     OW10666   5.264   2.563   1.315
 3256SOL    HW110667   5.229   2.471   1.299
 3256SOL    HW210668   5.194   2.620   1.357
 3257SOL     OW10669   3.469   1.405   3.150
 3257SOL    HW110670   3.421   1.455   3.223
 3257SOL    HW210671   3.567   1.423   3.157
 3258SOL     OW10672   1.941   5.717   3.605
 3258SOL    HW110673   2.040   5.701   3.604
 3258SOL    HW210674   1.895   5.636   3.641
 3259SOL     OW10675   5.472   4.338   4.434
 3259SOL    HW110676   5.474   4.420   4.490
 3259SOL    HW210677   5.562   4.294   4.436
 3260SOL     OW10678   1.617   4.639   2.845
 3260SOL    HW110679   1.618   4.661   2.748
 3260SOL    HW210680   1.679   4.562   2.862
 3261SOL     OW10681   6.127   0.145   4.609
 3261SOL    HW110682   6.070   0.223   4.633
 3261SOL    HW210683   6.077   0.060   4.624
 3262SOL     OW10684   3.133   1.934   3.327
 3262SOL    HW110685   3.057   1.943   3.262
 3262SOL    HW210686   3.144   1.837   3.351
 3263SOL     OW10687   6.619   0.699   1.037
 3263SOL    HW110688   6.598   0.623   1.099
 3263SOL    HW210689   6.687   0.670   0.970
 3264SOL     OW10690   1.609   4.441   6.690
 3264SOL    HW110691   1.553   4.385   6.630
 3264SOL    HW210692   1.560   4.459   6.775
 3265SOL     OW10693   0.278   5.698   6.171
 3265SOL    HW110694   0.190   5.652   6.182
 3265SOL    HW210695   0.277   5.785   6.221
 3266SOL     OW10696   3.496   4.841   6.109
 3266SOL    HW110697   3.401   4.813   6.119
 3266SOL    HW210698   3.519   4.846   6.012
 3267SOL     OW10699   3.509   6.830   0.972
 3267SOL    HW110700   3.488   6.748   1.026
 3267SOL    HW210701   3.604   6.825   0.940
 3268SOL     OW10702   5.686   4.624   1.836
 3268SOL    HW110703   5.724   4.535   1.859
 3268SOL    HW210704   5.594   4.612   1.799
 3269SOL     OW10705   2.090   4.943   1.643
 3269SOL    HW110706   1.990   4.941   1.652
 3269SOL    HW210707   2.119   4.873   1.579
 3270SOL     OW10708   1.175   2.557   5.954
 3270SOL    HW110709   1.210   2.550   5.861
 3270SOL    HW210710   1.076   2.544   5.954
 3271SOL     OW10711   1.163   3.624   0.954
 3271SOL    HW110712   1.155   3.700   1.019
 3271SOL    HW210713   1.089   3.628   0.888
 3272SOL     OW10714   3.938   6.684   1.095
 3272SOL    HW110715   4.002   6.747   1.141
 3272SOL    HW210716   3.990   6.619   1.040
 3273SOL     OW10717   3.938   3.986   6.463
 3273SOL    HW110718   3.896   3.929   6.392
 3273SOL    HW210719   3.967   4.073   6.424
 3274SOL     OW10720   4.919   0.008   1.816
 3274SOL    HW110721   4.827   0.038   1.794
 3274SOL    HW210722   4.983   0.044   1.749
 3275SOL     OW10723   4.703   0.631   1.370
 3275SOL    HW110724   4.736   0.576   1.447
 3275SOL    HW210725   4.717   0.728   1.390
 3276SOL     OW10726   6.244   5.674   6.905
 3276SOL    HW110727   6.336   5.672   6.866
 3276SOL    HW210728   6.210   5.768   6.905
 3277SOL     OW10729   3.112   1.880   2.280
 3277SOL    HW110730   3.065   1.792   2.294
 3277SOL    HW210731   3.044   1.954   2.277
 3278SOL     OW10732   4.924   0.688   6.152
 3278SOL    HW110733   4.934   0.786   6.134
 3278SOL    HW210734   4.990   0.659   6.221
 3279SOL     OW10735   3.721   0.102   2.367
 3279SOL    HW110736   3.697   0.010   2.396
 3279SOL    HW210737   3.821   0.112   2.368
 3280SOL     OW10738   0.257   2.965   3.762
 3280SOL    HW110739   0.274   3.062   3.743
 3280SOL    HW210740   0.341   2.913   3.746
 3281SOL     OW10741   5.855   1.904   2.179
 3281SOL    HW110742   5.802   1.889   2.262
 3281SOL    HW210743   5.818   1.849   2.104
 3282SOL     OW10744   6.849   4.912   5.225
 3282SOL    HW110745   6.849   5.007   5.257
 3282SOL    HW210746   6.940   4.888   5.192
 3283SOL     OW10747   2.929   1.818   0.294
 3283SOL    HW110748   2.921   1.776   0.385
 3283SOL    HW210749   2.877   1.904   0.293
 3284SOL     OW10750   1.925   0.181   4.830
 3284SOL    HW110751   1.876   0.214   4.911
 3284SOL    HW210752   1.868   0.193   4.749
 3285SOL     OW10753   3.962   2.047   4.227
 3285SOL    HW110754   3.885   2.085   4.278
 3285SOL    HW210755   3.983   2.107   4.150
 3286SOL     OW10756   1.530   3.223   3.150
 3286SOL    HW110757   1.565   3.278   3.074
 3286SOL    HW210758   1.549   3.126   3.133
 3287SOL     OW10759   2.509   0.974   0.988
 3287SOL    HW110760   2.491   1.067   1.021
 3287SOL    HW210761   2.608   0.961   0.978
 3288SOL     OW10762   2.859   6.091   2.351
 3288SOL    HW110763   2.832   6.080   2.256
 3288SOL    HW210764   2.778   6.088   2.410
 3289SOL     OW10765   4.659   0.673   6.957
 3289SOL    HW110766   4.718   0.669   6.876
 3289SOL    HW210767   4.692   0.607   0.004
 3290SOL     OW10768   0.757   5.300   0.249
 3290SOL    HW110769   0.694   5.249   0.308
 3290SOL    HW210770   0.706   5.336   0.171
 3291SOL     OW10771   4.967   6.327   4.939
 3291SOL    HW110772   4.943   6.289   4.850
 3291SOL    HW210773   5.063   6.355   4.938
 3292SOL     OW10774   7.012   2.558   0.009
 3292SOL    HW110775   6.965   2.503   0.078
 3292SOL    HW210776   7.015   2.653   0.038
 3293SOL     OW10777   6.746   4.902   2.949
 3293SOL    HW110778   6.767   4.866   3.040
 3293SOL    HW210779   6.675   4.845   2.907
 3294SOL     OW10780   3.698   2.830   5.642
 3294SOL    HW110781   3.657   2.911   5.600
 3294SOL    HW210782   3.629   2.758   5.650
 3295SOL     OW10783   1.614   2.674   3.246
 3295SOL    HW110784   1.713   2.684   3.239
 3295SOL    HW210785   1.578   2.632   3.163
 3296SOL     OW10786   2.396   0.926   6.791
 3296SOL    HW110787   2.355   0.963   6.874
 3296SOL    HW210788   2.339   0.949   6.712
 3297SOL     OW10789   3.830   0.706   4.987
 3297SOL    HW110790   3.906   0.679   4.929
 3297SOL    HW210791   3.850   0.794   5.030
 3298SOL     OW10792   3.589   4.910   5.492
 3298SOL    HW110793   3.501   4.929   5.447
 3298SOL    HW210794   3.586   4.819   5.533
 3299SOL     OW10795   2.953   7.016   3.800
 3299SOL    HW110796   2.897   0.078   3.809
 3299SOL    HW210797   3.040   0.018   3.756
 3300SOL     OW10798   1.484   0.997   3.553
 3300SOL    HW110799   1.422   0.919   3.557
 3300SOL    HW210800   1.486   1.043   3.642
 3301SOL     OW10801   1.225   1.153   2.756
 3301SOL    HW110802   1.313   1.110   2.778
 3301SOL    HW210803   1.203   1.221   2.826
 3302SOL     OW10804   1.356   5.100   5.342
 3302SOL    HW110805   1.425   5.110   5.414
 3302SOL    HW210806   1.317   5.008   5.345
 3303SOL     OW10807   3.679   3.922   0.393
 3303SOL    HW110808   3.736   3.857   0.443
 3303SOL    HW210809   3.644   3.880   0.310
 3304SOL     OW10810   2.263   4.362   0.252
 3304SOL    HW110811   2.266   4.462   0.242
 3304SOL    HW210812   2.221   4.339   0.339
 3305SOL     OW10813   3.099   2.906   0.124
 3305SOL    HW110814   3.016   2.941   0.167
 3305SOL    HW210815   3.138   2.977   0.066
 3306SOL     OW10816   2.618   6.960   0.408
 3306SOL    HW110817   2.641   0.022   0.356
 3306SOL    HW210818   2.630   6.880   0.350
 3307SOL     OW10819   2.019   5.729   4.223
 3307SOL    HW110820   1.928   5.769   4.215
 3307SOL    HW210821   2.012   5.632   4.248
 3308SOL     OW10822   4.358   5.121   1.704
 3308SOL    HW110823   4.301   5.072   1.770
 3308SOL    HW210824   4.319   5.112   1.613
 3309SOL     OW10825   5.224   3.664   3.018
 3309SOL    HW110826   5.278   3.734   3.063
 3309SOL    HW210827   5.260   3.573   3.042
 3310SOL     OW10828   6.290   4.309   6.185
 3310SOL    HW110829   6.256   4.215   6.196
 3310SOL    HW210830   6.389   4.310   6.202
 3311SOL     OW10831   1.984   2.851   0.398
 3311SOL    HW110832   2.049   2.849   0.474
 3311SOL    HW210833   1.915   2.779   0.411
 3312SOL     OW10834   4.863   2.968   6.798
 3312SOL    HW110835   4.874   2.918   6.712
 3312SOL    HW210836   4.778   3.022   6.795
 3313SOL     OW10837   0.099   0.286   4.580
 3313SOL    HW110838   0.179   0.304   4.636
 3313SOL    HW210839   0.126   0.277   4.484
 3314SOL     OW10840   3.628   6.158   2.772
 3314SOL    HW110841   3.584   6.077   2.811
 3314SOL    HW210842   3.564   6.234   2.772
 3315SOL     OW10843   1.705   6.496   3.924
 3315SOL    HW110844   1.764   6.440   3.982
 3315SOL    HW210845   1.671   6.574   3.977
 3316SOL     OW10846   3.901   2.466   0.095
 3316SOL    HW110847   3.911   2.389   0.032
 3316SOL    HW210848   3.876   2.548   0.043
 3317SOL     OW10849   5.766   1.898   1.655
 3317SOL    HW110850   5.678   1.891   1.702
 3317SOL    HW210851   5.752   1.887   1.556
 3318SOL     OW10852   3.593   3.125   0.665
 3318SOL    HW110853   3.616   3.028   0.677
 3318SOL    HW210854   3.499   3.140   0.696
 3319SOL     OW10855   6.419   6.353   4.242
 3319SOL    HW110856   6.322   6.369   4.223
 3319SOL    HW210857   6.464   6.439   4.266
 3320SOL     OW10858   6.558   0.521   2.229
 3320SOL    HW110859   6.522   0.447   2.285
 3320SOL    HW210860   6.483   0.562   2.177
 3321SOL     OW10861   4.783   1.986   0.050
 3321SOL    HW110862   4.740   2.045   7.003
 3321SOL    HW210863   4.777   2.029   0.141
 3322SOL     OW10864   6.090   2.915   0.903
 3322SOL    HW110865   6.099   2.891   0.807
 3322SOL    HW210866   6.090   2.831   0.959
 3323SOL     OW10867   1.688   1.731   1.379
 3323SOL    HW110868   1.729   1.742   1.470
 3323SOL    HW210869   1.609   1.669   1.386
 3324SOL     OW10870   5.850   5.197   6.077
 3324SOL    HW110871   5.793   5.216   5.997
 3324SOL    HW210872   5.802   5.226   6.160
 3325SOL     OW10873   2.752   5.045   5.245
 3325SOL    HW110874   2.679   5.097   5.201
 3325SOL    HW210875   2.717   5.003   5.329
 3326SOL     OW10876   3.455   2.089   2.154
 3326SOL    HW110877   3.377   2.130   2.106
 3326SOL    HW210878   3.540   2.124   2.115
 3327SOL     OW10879   1.259   5.697   5.858
 3327SOL    HW110880   1.275   5.734   5.949
 3327SOL    HW210881   1.314   5.615   5.845
 3328SOL     OW10882   4.958   2.702   5.654
 3328SOL    HW110883   5.041   2.662   5.617
 3328SOL    HW210884   4.963   2.802   5.649
 3329SOL     OW10885   7.009   6.299   5.299
 3329SOL    HW110886   6.952   6.239   5.356
 3329SOL    HW210887   0.079   6.306   5.340
 3330SOL     OW10888   6.884   3.295   2.964
 3330SOL    HW110889   6.867   3.219   3.027
 3330SOL    HW210890   6.814   3.365   2.976
 3331SOL     OW10891   1.713   3.261   0.663
 3331SOL    HW110892   1.673   3.346   0.696
 3331SOL    HW210893   1.738   3.270   0.567
 3332SOL     OW10894   6.619   3.965   1.311
 3332SOL    HW110895   6.679   4.043   1.329
 3332SOL    HW210896   6.667   3.897   1.257
 3333SOL     OW10897   2.674   5.940   5.775
 3333SOL    HW110898   2.602   5.872   5.763
 3333SOL    HW210899   2.757   5.910   5.728
 3334SOL     OW10900   1.447   3.383   1.358
 3334SOL    HW110901   1.411   3.435   1.281
 3334SOL    HW210902   1.547   3.377   1.350
 3335SOL     OW10903   5.511   4.361   4.989
 3335SOL    HW110904   5.541   4.456   4.975
 3335SOL    HW210905   5.452   4.332   4.914
 3336SOL     OW10906   3.068   6.020   5.886
 3336SOL    HW110907   3.100   6.060   5.972
 3336SOL    HW210908   3.117   6.062   5.809
 3337SOL     OW10909   3.542   1.742   0.792
 3337SOL    HW110910   3.461   1.723   0.847
 3337SOL    HW210911   3.611   1.787   0.848
 3338SOL     OW10912   0.001   4.572   0.122
 3338SOL    HW110913   0.040   4.480   0.119
 3338SOL    HW210914   6.983   4.590   0.212
 3339SOL     OW10915   1.181   5.296   6.112
 3339SOL    HW110916   1.083   5.310   6.131
 3339SOL    HW210917   1.193   5.209   6.065
 3340SOL     OW10918   4.018   0.577   2.111
 3340SOL    HW110919   4.099   0.562   2.054
 3340SOL    HW210920   3.961   0.495   2.109
 3341SOL     OW10921   0.572   6.864   0.810
 3341SOL    HW110922   0.609   6.937   0.867
 3341SOL    HW210923   0.647   6.806   0.778
 3342SOL     OW10924   2.811   0.507   5.470
 3342SOL    HW110925   2.855   0.418   5.465
 3342SOL    HW210926   2.714   0.495   5.489
 3343SOL     OW10927   0.481   2.495   1.332
 3343SOL    HW110928   0.556   2.480   1.398
 3343SOL    HW210929   0.419   2.417   1.333
 3344SOL     OW10930   0.412   2.420   6.189
 3344SOL    HW110931   0.407   2.404   6.090
 3344SOL    HW210932   0.441   2.514   6.206
 3345SOL     OW10933   1.957   3.615   5.383
 3345SOL    HW110934   1.996   3.676   5.451
 3345SOL    HW210935   2.015   3.534   5.373
 3346SOL     OW10936   1.723   5.925   2.463
 3346SOL    HW110937   1.758   5.876   2.384
 3346SOL    HW210938   1.758   5.883   2.547
 3347SOL     OW10939   5.899   3.749   3.717
 3347SOL    HW110940   5.836   3.810   3.765
 3347SOL    HW210941   5.849   3.671   3.680
 3348SOL     OW10942   3.696   3.586   3.053
 3348SOL    HW110943   3.776   3.575   3.113
 3348SOL    HW210944   3.690   3.507   2.991
 3349SOL     OW10945   5.513   3.377   6.453
 3349SOL    HW110946   5.449   3.387   6.529
 3349SOL    HW210947   5.463   3.376   6.367
 3350SOL     OW10948   1.308   2.390   0.813
 3350SOL    HW110949   1.314   2.373   0.911
 3350SOL    HW210950   1.400   2.388   0.773
 3351SOL     OW10951   5.701   2.756   0.456
 3351SOL    HW110952   5.626   2.704   0.416
 3351SOL    HW210953   5.719   2.723   0.548
 3352SOL     OW10954   0.339   3.170   0.180
 3352SOL    HW110955   0.273   3.095   0.182
 3352SOL    HW210956   0.301   3.246   0.127
 3353SOL     OW10957   1.739   6.604   5.944
 3353SOL    HW110958   1.723   6.668   6.020
 3353SOL    HW210959   1.662   6.541   5.937
 3354SOL     OW10960   1.030   0.985   1.725
 3354SOL    HW110961   1.029   0.903   1.667
 3354SOL    HW210962   0.947   1.038   1.709
 3355SOL     OW10963   6.441   0.906   2.564
 3355SOL    HW110964   6.484   0.823   2.529
 3355SOL    HW210965   6.505   0.953   2.625
 3356SOL     OW10966   1.465   3.511   5.594
 3356SOL    HW110967   1.508   3.487   5.681
 3356SOL    HW210968   1.520   3.581   5.548
 3357SOL     OW10969   2.575   5.437   2.211
 3357SOL    HW110970   2.504   5.496   2.173
 3357SOL    HW210971   2.619   5.483   2.289
 3358SOL     OW10972   6.892   4.837   3.658
 3358SOL    HW110973   6.875   4.747   3.617
 3358SOL    HW210974   6.836   4.906   3.613
 3359SOL     OW10975   2.094   1.386   1.752
 3359SOL    HW110976   2.021   1.327   1.786
 3359SOL    HW210977   2.144   1.424   1.830
 3360SOL     OW10978   2.291   0.734   6.444
 3360SOL    HW110979   2.343   0.699   6.522
 3360SOL    HW210980   2.312   0.680   6.363
 3361SOL     OW10981   3.836   0.912   3.132
 3361SOL    HW110982   3.880   0.965   3.205
 3361SOL    HW210983   3.746   0.950   3.113
 3362SOL     OW10984   2.950   1.856   4.374
 3362SOL    HW110985   2.997   1.783   4.324
 3362SOL    HW210986   2.905   1.917   4.309
 3363SOL     OW10987   6.811   0.730   6.293
 3363SOL    HW110988   6.767   0.649   6.332
 3363SOL    HW210989   6.858   0.705   6.208
 3364SOL     OW10990   2.697   4.782   5.913
 3364SOL    HW110991   2.609   4.740   5.933
 3364SOL    HW210992   2.737   4.738   5.832
 3365SOL     OW10993   6.396   2.260   5.698
 3365SOL    HW110994   6.369   2.175   5.652
 3365SOL    HW210995   6.379   2.338   5.637
 3366SOL     OW10996   5.511   1.198   6.820
 3366SOL    HW110997   5.488   1.101   6.819
 3366SOL    HW210998   5.427   1.252   6.820
 3367SOL     OW10999   1.785   0.223   2.247
 3367SOL    HW111000   1.866   0.276   2.273
 3367SOL    HW211001   1.720   0.281   2.199
 3368SOL     OW11002   6.619   1.507   5.493
 3368SOL    HW111003   6.651   1.585   5.548
 3368SOL    HW211004   6.544   1.537   5.435
 3369SOL     OW11005   3.664   6.272   6.565
 3369SOL    HW111006   3.738   6.252   6.501
 3369SOL    HW211007   3.577   6.243   6.525
 3370SOL     OW11008   5.831   6.919   5.806
 3370SOL    HW111009   5.839   6.903   5.707
 3370SOL    HW211010   5.755   6.982   5.824
 3371SOL     OW11011   6.908   4.898   1.341
 3371SOL    HW111012   6.861   4.810   1.330
 3371SOL    HW211013   6.866   4.966   1.282
 3372SOL     OW11014   0.255   2.118   2.768
 3372SOL    HW111015   0.166   2.072   2.769
 3372SOL    HW211016   0.242   2.214   2.742
 3373SOL     OW11017   0.722   2.352   6.738
 3373SOL    HW111018   0.802   2.293   6.731
 3373SOL    HW211019   0.751   2.443   6.770
 3374SOL     OW11020   3.928   5.957   5.555
 3374SOL    HW111021   3.936   5.971   5.654
 3374SOL    HW211022   3.898   5.863   5.537
 3375SOL     OW11023   3.535   3.913   4.686
 3375SOL    HW111024   3.538   3.963   4.773
 3375SOL    HW211025   3.611   3.942   4.628
 3376SOL     OW11026   2.867   3.085   1.871
 3376SOL    HW111027   2.847   3.183   1.869
 3376SOL    HW211028   2.802   3.037   1.811
 3377SOL     OW11029   2.481   5.408   5.405
 3377SOL    HW111030   2.544   5.459   5.464
 3377SOL    HW211031   2.387   5.429   5.432
 3378SOL     OW11032   0.571   1.270   0.635
 3378SOL    HW111033   0.502   1.309   0.574
 3378SOL    HW211034   0.581   1.328   0.716
 3379SOL     OW11035   6.337   4.960   5.626
 3379SOL    HW111036   6.269   5.019   5.668
 3379SOL    HW211037   6.425   4.970   5.673
 3380SOL     OW11038   0.916   3.876   5.138
 3380SOL    HW111039   0.962   3.796   5.178
 3380SOL    HW211040   0.817   3.866   5.146
 3381SOL     OW11041   3.524   2.741   1.682
 3381SOL    HW111042   3.578   2.658   1.699
 3381SOL    HW211043   3.476   2.767   1.766
 3382SOL     OW11044   6.866   6.545   6.846
 3382SOL    HW111045   6.802   6.528   6.921
 3382SOL    HW211046   6.901   6.458   6.811
 3383SOL     OW11047   0.830   4.488   2.054
 3383SOL    HW111048   0.839   4.587   2.040
 3383SOL    HW211049   0.733   4.464   2.055
 3384SOL     OW11050   3.062   3.297   4.523
 3384SOL    HW111051   3.113   3.218   4.558
 3384SOL    HW211052   3.051   3.365   4.595
 3385SOL     OW11053   6.580   4.339   3.827
 3385SOL    HW111054   6.623   4.359   3.739
 3385SOL    HW211055   6.649   4.305   3.891
 3386SOL     OW11056   6.173   3.876   4.907
 3386SOL    HW111057   6.144   3.855   5.000
 3386SOL    HW211058   6.132   3.811   4.843
 3387SOL     OW11059   3.092   2.108   2.913
 3387SOL    HW111060   3.033   2.189   2.913
 3387SOL    HW211061   3.178   2.130   2.867
 3388SOL     OW11062   5.554   2.479   1.564
 3388SOL    HW111063   5.621   2.491   1.637
 3388SOL    HW211064   5.540   2.382   1.546
 3389SOL     OW11065   4.313   5.176   2.801
 3389SOL    HW111066   4.273   5.108   2.740
 3389SOL    HW211067   4.328   5.135   2.891
 3390SOL     OW11068   4.620   2.612   6.055
 3390SOL    HW111069   4.720   2.620   6.055
 3390SOL    HW211070   4.580   2.682   6.115
 3391SOL     OW11071   3.551   2.134   4.036
 3391SOL    HW111072   3.647   2.106   4.045
 3391SOL    HW211073   3.532   2.210   4.098
 3392SOL     OW11074   5.042   5.930   3.206
 3392SOL    HW111075   4.977   5.981   3.151
 3392SOL    HW211076   5.031   5.954   3.302
 3393SOL     OW11077   6.976   0.565   0.211
 3393SOL    HW111078   6.932   0.587   0.298
 3393SOL    HW211079   6.932   0.616   0.137
 3394SOL     OW11080   5.744   1.863   2.425
 3394SOL    HW111081   5.787   1.778   2.394
 3394SOL    HW211082   5.671   1.843   2.490
 3395SOL     OW11083   1.123   4.093   5.259
 3395SOL    HW111084   1.178   4.129   5.184
 3395SOL    HW211085   1.091   4.001   5.235
 3396SOL     OW11086   6.223   3.384   4.624
 3396SOL    HW111087   6.289   3.409   4.553
 3396SOL    HW211088   6.251   3.299   4.668
 3397SOL     OW11089   3.302   6.023   6.302
 3397SOL    HW111090   3.388   6.018   6.354
 3397SOL    HW211091   3.238   6.084   6.350
 3398SOL     OW11092   0.851   0.649   3.201
 3398SOL    HW111093   0.822   0.631   3.108
 3398SOL    HW211094   0.786   0.608   3.265
 3399SOL     OW11095   4.371   5.522   5.010
 3399SOL    HW111096   4.321   5.478   5.085
 3399SOL    HW211097   4.307   5.546   4.937
 3400SOL     OW11098   5.020   2.333   6.905
 3400SOL    HW111099   5.037   2.286   6.992
 3400SOL    HW211100   5.001   2.430   6.923
 3401SOL     OW11101   6.842   4.335   6.955
 3401SOL    HW111102   6.808   4.248   6.921
 3401SOL    HW211103   6.843   4.402   6.881
 3402SOL     OW11104   5.551   5.152   2.215
 3402SOL    HW111105   5.520   5.070   2.263
 3402SOL    HW211106   5.480   5.222   2.221
 3403SOL     OW11107   2.954   2.055   5.086
 3403SOL    HW111108   3.021   2.127   5.066
 3403SOL    HW211109   2.963   1.982   5.018
 3404SOL     OW11110   4.434   0.333   1.356
 3404SOL    HW111111   4.361   0.328   1.425
 3404SOL    HW211112   4.434   0.424   1.314
 3405SOL     OW11113   6.090   3.507   0.324
 3405SOL    HW111114   6.075   3.422   0.273
 3405SOL    HW211115   6.154   3.565   0.275
 3406SOL     OW11116   0.970   4.312   1.323
 3406SOL    HW111117   0.877   4.279   1.310
 3406SOL    HW211118   1.033   4.235   1.325
 3407SOL     OW11119   1.459   5.183   2.833
 3407SOL    HW111120   1.412   5.258   2.880
 3407SOL    HW211121   1.401   5.102   2.834
 3408SOL     OW11122   5.161   3.676   2.673
 3408SOL    HW111123   5.155   3.775   2.679
 3408SOL    HW211124   5.122   3.645   2.586
 3409SOL     OW11125   2.970   1.002   5.434
 3409SOL    HW111126   2.944   0.908   5.415
 3409SOL    HW211127   2.917   1.036   5.512
 3410SOL     OW11128   0.143   1.093   0.205
 3410SOL    HW111129   0.218   1.049   0.157
 3410SOL    HW211130   0.134   1.054   0.297
 3411SOL     OW11131   4.407   2.474   2.642
 3411SOL    HW111132   4.471   2.546   2.667
 3411SOL    HW211133   4.449   2.413   2.575
 3412SOL     OW11134   4.039   5.683   6.901
 3412SOL    HW111135   4.044   5.626   6.982
 3412SOL    HW211136   3.943   5.704   6.881
 3413SOL     OW11137   4.601   1.704   2.352
 3413SOL    HW111138   4.671   1.710   2.282
 3413SOL    HW211139   4.535   1.778   2.340
 3414SOL     OW11140   3.392   1.192   5.194
 3414SOL    HW111141   3.294   1.193   5.213
 3414SOL    HW211142   3.433   1.111   5.235
 3415SOL     OW11143   1.338   5.615   4.432
 3415SOL    HW111144   1.243   5.637   4.409
 3415SOL    HW211145   1.394   5.618   4.349
 3416SOL     OW11146   2.721   4.725   6.390
 3416SOL    HW111147   2.680   4.634   6.388
 3416SOL    HW211148   2.667   4.788   6.333
 3417SOL     OW11149   5.760   0.835   1.318
 3417SOL    HW111150   5.853   0.817   1.286
 3417SOL    HW211151   5.699   0.765   1.282
 3418SOL     OW11152   3.096   2.222   6.112
 3418SOL    HW111153   3.121   2.316   6.089
 3418SOL    HW211154   3.142   2.196   6.197
 3419SOL     OW11155   4.854   3.488   0.437
 3419SOL    HW111156   4.919   3.537   0.495
 3419SOL    HW211157   4.770   3.469   0.489
 3420SOL     OW11158   4.235   1.558   3.770
 3420SOL    HW111159   4.278   1.642   3.804
 3420SOL    HW211160   4.275   1.480   3.818
 3421SOL     OW11161   0.064   6.697   2.993
 3421SOL    HW111162   0.102   6.707   3.085
 3421SOL    HW211163   0.086   6.605   2.959
 3422SOL     OW11164   3.307   2.137   2.667
 3422SOL    HW111165   3.286   2.039   2.665
 3422SOL    HW211166   3.338   2.165   2.576
 3423SOL     OW11167   2.724   0.640   2.008
 3423SOL    HW111168   2.736   0.686   1.921
 3423SOL    HW211169   2.802   0.659   2.067
 3424SOL     OW11170   4.271   0.762   2.181
 3424SOL    HW111171   4.370   0.760   2.164
 3424SOL    HW211172   4.246   0.681   2.235
 3425SOL     OW11173   4.665   4.087   1.545
 3425SOL    HW111174   4.596   4.159   1.540
 3425SOL    HW211175   4.652   4.024   1.469
 3426SOL     OW11176   4.737   3.772   0.960
 3426SOL    HW111177   4.768   3.724   0.878
 3426SOL    HW211178   4.659   3.831   0.936
 3427SOL     OW11179   0.937   1.464   0.815
 3427SOL    HW111180   0.964   1.372   0.844
 3427SOL    HW211181   0.917   1.463   0.717
 3428SOL     OW11182   4.093   4.810   3.465
 3428SOL    HW111183   4.009   4.864   3.477
 3428SOL    HW211184   4.113   4.760   3.549
 3429SOL     OW11185   0.086   2.830   0.415
 3429SOL    HW111186   0.140   2.784   0.487
 3429SOL    HW211187   7.013   2.797   0.418
 3430SOL     OW11188   1.372   5.350   6.472
 3430SOL    HW111189   1.323   5.436   6.483
 3430SOL    HW211190   1.307   5.273   6.477
 3431SOL     OW11191   1.569   6.248   6.674
 3431SOL    HW111192   1.481   6.281   6.707
 3431SOL    HW211193   1.639   6.318   6.689
 3432SOL     OW11194   2.667   2.031   6.972
 3432SOL    HW111195   2.646   2.057   6.877
 3432SOL    HW211196   2.679   2.114   0.006
 3433SOL     OW11197   4.878   0.731   4.250
 3433SOL    HW111198   4.845   0.642   4.281
 3433SOL    HW211199   4.842   0.802   4.310
 3434SOL     OW11200   4.276   1.905   3.482
 3434SOL    HW111201   4.314   1.960   3.407
 3434SOL    HW211202   4.351   1.873   3.540
 3435SOL     OW11203   0.523   1.243   0.026
 3435SOL    HW111204   0.609   1.226   0.073
 3435SOL    HW211205   0.500   1.164   6.989
 3436SOL     OW11206   4.692   6.839   3.275
 3436SOL    HW111207   4.595   6.849   3.295
 3436SOL    HW211208   4.718   6.902   3.202
 3437SOL     OW11209   4.880   0.681   6.784
 3437SOL    HW111210   4.948   0.750   6.811
 3437SOL    HW211211   4.883   0.670   6.685
 3438SOL     OW11212   1.377   4.700   6.663
 3438SOL    HW111213   1.469   4.701   6.702
 3438SOL    HW211214   1.343   4.793   6.654
 3439SOL     OW11215   2.678   0.166   3.473
 3439SOL    HW111216   2.700   0.187   3.568
 3439SOL    HW211217   2.675   0.250   3.419
 3440SOL     OW11218   3.329   2.445   0.721
 3440SOL    HW111219   3.325   2.449   0.621
 3440SOL    HW211220   3.236   2.437   0.757
 3441SOL     OW11221   4.155   0.533   4.520
 3441SOL    HW111222   4.152   0.630   4.548
 3441SOL    HW211223   4.239   0.491   4.555
 3442SOL     OW11224   0.854   5.023   3.301
 3442SOL    HW111225   0.952   5.004   3.313
 3442SOL    HW211226   0.813   5.043   3.390
 3443SOL     OW11227   6.027   6.894   3.951
 3443SOL    HW111228   6.003   6.957   3.877
 3443SOL    HW211229   5.976   6.809   3.940
 3444SOL     OW11230   4.480   5.099   0.363
 3444SOL    HW111231   4.402   5.108   0.424
 3444SOL    HW211232   4.448   5.079   0.270
 3445SOL     OW11233   5.414   5.056   4.574
 3445SOL    HW111234   5.385   4.961   4.579
 3445SOL    HW211235   5.443   5.087   4.664
 3446SOL     OW11236   3.231   6.466   3.008
 3446SOL    HW111237   3.249   6.523   2.928
 3446SOL    HW211238   3.234   6.369   2.981
 3447SOL     OW11239   6.419   4.694   5.793
 3447SOL    HW111240   6.411   4.721   5.889
 3447SOL    HW211241   6.431   4.775   5.737
 3448SOL     OW11242   3.441   2.637   1.049
 3448SOL    HW111243   3.521   2.696   1.058
 3448SOL    HW211244   3.411   2.636   0.953
 3449SOL     OW11245   6.318   5.961   2.782
 3449SOL    HW111246   6.261   6.037   2.751
 3449SOL    HW211247   6.410   5.994   2.803
 3450SOL     OW11248   0.791   1.879   1.354
 3450SOL    HW111249   0.782   1.978   1.349
 3450SOL    HW211250   0.854   1.847   1.283
 3451SOL     OW11251   1.395   4.986   4.178
 3451SOL    HW111252   1.406   5.003   4.276
 3451SOL    HW211253   1.364   4.892   4.164
 3452SOL     OW11254   6.790   2.166   0.331
 3452SOL    HW111255   6.865   2.196   0.391
 3452SOL    HW211256   6.789   2.066   0.327
 3453SOL     OW11257   6.073   6.637   5.855
 3453SOL    HW111258   6.043   6.689   5.775
 3453SOL    HW211259   6.021   6.666   5.935
 3454SOL     OW11260   1.380   0.940   0.317
 3454SOL    HW111261   1.316   1.002   0.271
 3454SOL    HW211262   1.457   0.921   0.255
 3455SOL     OW11263   2.248   2.921   4.393
 3455SOL    HW111264   2.298   2.834   4.405
 3455SOL    HW211265   2.250   2.946   4.296
 3456SOL     OW11266   6.579   0.081   0.931
 3456SOL    HW111267   6.567   0.015   1.005
 3456SOL    HW211268   6.490   0.117   0.903
 3457SOL     OW11269   2.267   6.852   3.597
 3457SOL    HW111270   2.228   6.762   3.617
 3457SOL    HW211271   2.316   6.848   3.510
 3458SOL     OW11272   5.284   5.319   0.592
 3458SOL    HW111273   5.382   5.324   0.606
 3458SOL    HW211274   5.263   5.248   0.525
 3459SOL     OW11275   6.825   6.398   3.464
 3459SOL    HW111276   6.863   6.468   3.404
 3459SOL    HW211277   6.836   6.308   3.421
 3460SOL     OW11278   3.391   2.956   5.669
 3460SOL    HW111279   3.347   2.888   5.728
 3460SOL    HW211280   3.334   2.972   5.589
 3461SOL     OW11281   2.397   5.849   3.111
 3461SOL    HW111282   2.419   5.945   3.129
 3461SOL    HW211283   2.337   5.843   3.031
 3462SOL     OW11284   5.251   2.933   2.960
 3462SOL    HW111285   5.249   2.852   2.901
 3462SOL    HW211286   5.158   2.951   2.994
 3463SOL     OW11287   1.897   2.405   1.071
 3463SOL    HW111288   1.946   2.489   1.094
 3463SOL    HW211289   1.906   2.339   1.146
 3464SOL     OW11290   5.112   2.347   6.209
 3464SOL    HW111291   5.035   2.353   6.272
 3464SOL    HW211292   5.164   2.433   6.211
 3465SOL     OW11293   2.218   4.796   1.412
 3465SOL    HW111294   2.237   4.701   1.437
 3465SOL    HW211295   2.122   4.805   1.386
 3466SOL     OW11296   6.125   4.081   3.990
 3466SOL    HW111297   6.204   4.120   3.944
 3466SOL    HW211298   6.125   4.109   4.086
 3467SOL     OW11299   2.926   3.130   1.167
 3467SOL    HW111300   2.964   3.110   1.257
 3467SOL    HW211301   2.839   3.081   1.156
 3468SOL     OW11302   3.530   1.767   0.509
 3468SOL    HW111303   3.523   1.752   0.607
 3468SOL    HW211304   3.483   1.851   0.484
 3469SOL     OW11305   3.856   5.957   5.876
 3469SOL    HW111306   3.867   5.867   5.920
 3469SOL    HW211307   3.771   5.958   5.823
 3470SOL     OW11308   1.187   2.600   1.891
 3470SOL    HW111309   1.213   2.607   1.795
 3470SOL    HW211310   1.092   2.572   1.898
 3471SOL     OW11311   4.717   2.825   5.312
 3471SOL    HW111312   4.731   2.829   5.411
 3471SOL    HW211313   4.752   2.909   5.270
 3472SOL     OW11314   4.345   1.620   3.002
 3472SOL    HW111315   4.285   1.566   3.060
 3472SOL    HW211316   4.378   1.564   2.926
 3473SOL     OW11317   5.977   4.809   2.153
 3473SOL    HW111318   5.915   4.888   2.158
 3473SOL    HW211319   6.005   4.795   2.059
 3474SOL     OW11320   5.034   4.810   4.206
 3474SOL    HW111321   5.052   4.803   4.108
 3474SOL    HW211322   5.078   4.891   4.243
 3475SOL     OW11323   0.031   4.836   3.906
 3475SOL    HW111324   6.979   4.842   3.837
 3475SOL    HW211325   0.025   4.747   3.952
 3476SOL     OW11326   1.727   1.480   3.056
 3476SOL    HW111327   1.760   1.400   3.106
 3476SOL    HW211328   1.631   1.466   3.031
 3477SOL     OW11329   0.689   4.191   2.035
 3477SOL    HW111330   0.671   4.263   1.968
 3477SOL    HW211331   0.720   4.109   1.987
 3478SOL     OW11332   2.329   0.766   1.406
 3478SOL    HW111333   2.289   0.847   1.364
 3478SOL    HW211334   2.427   0.777   1.415
 3479SOL     OW11335   1.527   4.924   4.525
 3479SOL    HW111336   1.481   4.986   4.588
 3479SOL    HW211337   1.509   4.829   4.552
 3480SOL     OW11338   1.449   4.970   6.832
 3480SOL    HW111339   1.374   4.936   6.776
 3480SOL    HW211340   1.461   5.068   6.817
 3481SOL     OW11341   5.870   0.742   4.581
 3481SOL    HW111342   5.951   0.683   4.584
 3481SOL    HW211343   5.796   0.694   4.534
 3482SOL     OW11344   5.731   3.243   6.569
 3482SOL    HW111345   5.692   3.162   6.614
 3482SOL    HW211346   5.657   3.295   6.526
 3483SOL     OW11347   5.433   2.966   5.536
 3483SOL    HW111348   5.422   3.061   5.508
 3483SOL    HW211349   5.402   2.955   5.631
 3484SOL     OW11350   1.025   4.027   4.934
 3484SOL    HW111351   1.121   4.053   4.927
 3484SOL    HW211352   1.013   3.961   5.008
 3485SOL     OW11353   6.640   3.055   6.644
 3485SOL    HW111354   6.635   3.069   6.545
 3485SOL    HW211355   6.734   3.033   6.669
 3486SOL     OW11356   1.966   6.562   5.827
 3486SOL    HW111357   1.880   6.597   5.863
 3486SOL    HW211358   1.953   6.527   5.735
 3487SOL     OW11359   4.628   1.265   6.908
 3487SOL    HW111360   4.598   1.270   6.812
 3487SOL    HW211361   4.605   1.174   6.944
 3488SOL     OW11362   5.741   0.081   4.705
 3488SOL    HW111363   5.678   0.044   4.637
 3488SOL    HW211364   5.692   0.096   4.791
 3489SOL     OW11365   2.942   6.215   1.271
 3489SOL    HW111366   3.004   6.225   1.349
 3489SOL    HW211367   2.893   6.301   1.256
 3490SOL     OW11368   3.526   6.765   0.677
 3490SOL    HW111369   3.494   6.698   0.610
 3490SOL    HW211370   3.448   6.810   0.719
 3491SOL     OW11371   3.940   4.853   6.290
 3491SOL    HW111372   3.898   4.762   6.289
 3491SOL    HW211373   3.948   4.887   6.197
 3492SOL     OW11374   5.820   4.240   2.912
 3492SOL    HW111375   5.839   4.185   2.993
 3492SOL    HW211376   5.874   4.207   2.835
 3493SOL     OW11377   6.787   2.919   5.539
 3493SOL    HW111378   6.781   2.865   5.622
 3493SOL    HW211379   6.833   3.006   5.558
 3494SOL     OW11380   4.239   1.986   2.583
 3494SOL    HW111381   4.168   1.941   2.636
 3494SOL    HW211382   4.231   2.085   2.593
 3495SOL     OW11383   1.010   3.391   3.316
 3495SOL    HW111384   1.100   3.362   3.348
 3495SOL    HW211385   1.013   3.409   3.218
 3496SOL     OW11386   5.931   4.970   1.011
 3496SOL    HW111387   5.928   4.926   1.101
 3496SOL    HW211388   5.848   5.024   0.998
 3497SOL     OW11389   2.995   6.893   2.375
 3497SOL    HW111390   2.936   6.935   2.445
 3497SOL    HW211391   3.036   6.964   2.319
 3498SOL     OW11392   2.104   2.605   1.501
 3498SOL    HW111393   2.192   2.557   1.510
 3498SOL    HW211394   2.088   2.661   1.583
 3499SOL     OW11395   6.208   6.418   4.548
 3499SOL    HW111396   6.160   6.475   4.480
 3499SOL    HW211397   6.210   6.466   4.636
 3500SOL     OW11398   1.955   2.478   4.704
 3500SOL    HW111399   1.885   2.473   4.632
 3500SOL    HW211400   1.912   2.501   4.791
 3501SOL     OW11401   1.244   6.954   5.416
 3501SOL    HW111402   1.181   6.937   5.340
 3501SOL    HW211403   1.227   0.025   5.453
 3502SOL     OW11404   4.676   2.703   2.355
 3502SOL    HW111405   4.687   2.799   2.331
 3502SOL    HW211406   4.675   2.693   2.454
 3503SOL     OW11407   6.912   6.134   6.697
 3503SOL    HW111408   6.933   6.205   6.765
 3503SOL    HW211409   6.907   6.045   6.743
 3504SOL     OW11410   1.609   0.369   0.323
 3504SOL    HW111411   1.689   0.405   0.371
 3504SOL    HW211412   1.526   0.405   0.365
 3505SOL     OW11413   4.733   4.208   6.271
 3505SOL    HW111414   4.729   4.304   6.298
 3505SOL    HW211415   4.709   4.150   6.350
 3506SOL     OW11416   4.430   5.180   4.939
 3506SOL    HW111417   4.428   5.145   5.033
 3506SOL    HW211418   4.438   5.280   4.942
 3507SOL     OW11419   2.912   1.184   0.686
 3507SOL    HW111420   2.855   1.218   0.761
 3507SOL    HW211421   3.008   1.193   0.710
 3508SOL     OW11422   3.190   1.556   5.402
 3508SOL    HW111423   3.240   1.584   5.484
 3508SOL    HW211424   3.242   1.583   5.320
 3509SOL     OW11425   3.591   5.504   6.234
 3509SOL    HW111426   3.526   5.431   6.252
 3509SOL    HW211427   3.553   5.591   6.265
 3510SOL     OW11428   2.558   1.317   0.643
 3510SOL    HW111429   2.568   1.252   0.568
 3510SOL    HW211430   2.486   1.286   0.706
 3511SOL     OW11431   3.075   4.489   1.598
 3511SOL    HW111432   3.010   4.460   1.668
 3511SOL    HW211433   3.110   4.409   1.550
 3512SOL     OW11434   0.164   5.683   5.511
 3512SOL    HW111435   0.241   5.684   5.448
 3512SOL    HW211436   0.182   5.745   5.587
 3513SOL     OW11437   5.972   1.534   0.744
 3513SOL    HW111438   6.057   1.586   0.738
 3513SOL    HW211439   5.925   1.557   0.830
 3514SOL     OW11440   3.544   1.681   2.028
 3514SOL    HW111441   3.579   1.695   1.935
 3514SOL    HW211442   3.548   1.583   2.051
 3515SOL     OW11443   0.634   5.121   4.596
 3515SOL    HW111444   0.675   5.032   4.579
 3515SOL    HW211445   0.704   5.186   4.624
 3516SOL     OW11446   4.876   0.541   1.568
 3516SOL    HW111447   4.949   0.551   1.500
 3516SOL    HW211448   4.905   0.583   1.654
 3517SOL     OW11449   5.869   0.403   1.471
 3517SOL    HW111450   5.949   0.385   1.528
 3517SOL    HW211451   5.803   0.458   1.522
 3518SOL     OW11452   5.332   0.662   5.156
 3518SOL    HW111453   5.414   0.652   5.211
 3518SOL    HW211454   5.304   0.758   5.153
 3519SOL     OW11455   3.324   0.621   0.961
 3519SOL    HW111456   3.290   0.534   0.997
 3519SOL    HW211457   3.419   0.610   0.933
 3520SOL     OW11458   2.460   6.248   4.861
 3520SOL    HW111459   2.441   6.165   4.809
 3520SOL    HW211460   2.447   6.230   4.959
 3521SOL     OW11461   2.803   3.030   6.552
 3521SOL    HW111462   2.853   3.056   6.469
 3521SOL    HW211463   2.732   3.098   6.570
 3522SOL     OW11464   0.846   6.053   6.257
 3522SOL    HW111465   0.801   6.039   6.168
 3522SOL    HW211466   0.819   6.142   6.293
 3523SOL     OW11467   2.059   6.073   6.840
 3523SOL    HW111468   2.094   5.996   6.892
 3523SOL    HW211469   2.082   6.062   6.744
 3524SOL     OW11470   4.924   1.278   3.987
 3524SOL    HW111471   4.968   1.366   4.001
 3524SOL    HW211472   4.830   1.282   4.022
 3525SOL     OW11473   0.097   3.181   2.871
 3525SOL    HW111474   7.018   3.178   2.875
 3525SOL    HW211475   0.134   3.199   2.962
 3526SOL     OW11476   0.011   6.485   2.338
 3526SOL    HW111477   7.001   6.549   2.407
 3526SOL    HW211478   0.101   6.449   2.363
 3527SOL     OW11479   0.580   2.421   6.523
 3527SOL    HW111480   0.617   2.416   6.615
 3527SOL    HW211481   0.650   2.396   6.457
 3528SOL     OW11482   2.604   5.829   4.393
 3528SOL    HW111483   2.678   5.855   4.454
 3528SOL    HW211484   2.545   5.908   4.376
 3529SOL     OW11485   4.656   5.232   0.980
 3529SOL    HW111486   4.607   5.271   0.902
 3529SOL    HW211487   4.672   5.134   0.964
 3530SOL     OW11488   6.284   6.526   1.114
 3530SOL    HW111489   6.196   6.488   1.088
 3530SOL    HW211490   6.357   6.467   1.080
 3531SOL     OW11491   4.680   2.346   0.567
 3531SOL    HW111492   4.729   2.360   0.653
 3531SOL    HW211493   4.588   2.385   0.574
 3532SOL     OW11494   1.879   1.223   1.840
 3532SOL    HW111495   1.883   1.167   1.757
 3532SOL    HW211496   1.842   1.169   1.915
 3533SOL     OW11497   1.159   1.916   2.920
 3533SOL    HW111498   1.143   1.853   2.996
 3533SOL    HW211499   1.088   1.904   2.851
 3534SOL     OW11500   0.067   0.897   0.654
 3534SOL    HW111501   7.019   0.897   0.726
 3534SOL    HW211502   0.152   0.935   0.688
 3535SOL     OW11503   2.926   5.518   4.327
 3535SOL    HW111504   3.016   5.481   4.349
 3535SOL    HW211505   2.866   5.509   4.406
 3536SOL     OW11506   3.762   2.078   2.814
 3536SOL    HW111507   3.828   2.091   2.889
 3536SOL    HW211508   3.783   2.142   2.740
 3537SOL     OW11509   1.836   0.116   3.198
 3537SOL    HW111510   1.879   0.052   3.262
 3537SOL    HW211511   1.885   0.113   3.111
 3538SOL     OW11512   3.054   5.614   2.960
 3538SOL    HW111513   2.994   5.563   3.022
 3538SOL    HW211514   3.058   5.568   2.871
 3539SOL     OW11515   3.829   3.422   4.301
 3539SOL    HW111516   3.736   3.384   4.301
 3539SOL    HW211517   3.838   3.486   4.225
 3540SOL     OW11518   1.668   2.287   3.143
 3540SOL    HW111519   1.711   2.197   3.139
 3540SOL    HW211520   1.708   2.339   3.218
 3541SOL     OW11521   3.632   4.162   4.046
 3541SOL    HW111522   3.664   4.116   4.129
 3541SOL    HW211523   3.700   4.154   3.974
 3542SOL     OW11524   6.657   5.147   1.476
 3542SOL    HW111525   6.683   5.133   1.571
 3542SOL    HW211526   6.651   5.058   1.430
 3543SOL     OW11527   5.878   2.987   5.341
 3543SOL    HW111528   5.886   2.976   5.440
 3543SOL    HW211529   5.904   2.902   5.295
 3544SOL     OW11530   1.805   6.113   0.050
 3544SOL    HW111531   1.854   6.093   6.986
 3544SOL    HW211532   1.869   6.149   0.118
 3545SOL     OW11533   3.082   4.786   0.510
 3545SOL    HW111534   3.042   4.704   0.468
 3545SOL    HW211535   3.181   4.783   0.500
 3546SOL     OW11536   6.580   4.757   2.596
 3546SOL    HW111537   6.655   4.814   2.562
 3546SOL    HW211538   6.588   4.745   2.694
 3547SOL     OW11539   5.209   4.505   4.458
 3547SOL    HW111540   5.279   4.555   4.406
 3547SOL    HW211541   5.246   4.416   4.485
 3548SOL     OW11542   4.647   3.318   5.360
 3548SOL    HW111543   4.713   3.276   5.422
 3548SOL    HW211544   4.688   3.400   5.319
 3549SOL     OW11545   5.940   3.468   2.418
 3549SOL    HW111546   5.965   3.398   2.485
 3549SOL    HW211547   5.851   3.507   2.441
 3550SOL     OW11548   5.876   2.133   2.751
 3550SOL    HW111549   5.850   2.112   2.657
 3550SOL    HW211550   5.813   2.201   2.789
 3551SOL     OW11551   2.385   6.880   2.647
 3551SOL    HW111552   2.318   6.848   2.581
 3551SOL    HW211553   2.353   6.860   2.740
 3552SOL     OW11554   6.822   4.852   3.227
 3552SOL    HW111555   6.794   4.759   3.249
 3552SOL    HW211556   6.919   4.863   3.249
 3553SOL     OW11557   5.774   2.008   3.348
 3553SOL    HW111558   5.847   2.018   3.280
 3553SOL    HW211559   5.734   2.097   3.367
 3554SOL     OW11560   3.735   5.788   6.839
 3554SOL    HW111561   3.715   5.724   6.765
 3554SOL    HW211562   3.715   5.881   6.808
 3555SOL     OW11563   0.226   2.499   3.455
 3555SOL    HW111564   0.301   2.453   3.408
 3555SOL    HW211565   0.159   2.531   3.388
 3556SOL     OW11566   4.769   0.963   6.387
 3556SOL    HW111567   4.670   0.954   6.373
 3556SOL    HW211568   4.790   0.958   6.484
 3557SOL     OW11569   0.359   0.407   4.506
 3557SOL    HW111570   0.393   0.316   4.529
 3557SOL    HW211571   0.399   0.474   4.568
 3558SOL     OW11572   6.986   5.677   1.843
 3558SOL    HW111573   6.996   5.704   1.939
 3558SOL    HW211574   6.891   5.649   1.827
 3559SOL     OW11575   1.147   0.605   5.629
 3559SOL    HW111576   1.083   0.672   5.668
 3559SOL    HW211577   1.154   0.620   5.530
 3560SOL     OW11578   6.530   6.485   1.892
 3560SOL    HW111579   6.620   6.524   1.912
 3560SOL    HW211580   6.529   6.388   1.917
 3561SOL     OW11581   4.688   4.267   3.882
 3561SOL    HW111582   4.660   4.174   3.906
 3561SOL    HW211583   4.761   4.263   3.814
 3562SOL     OW11584   4.087   2.230   3.400
 3562SOL    HW111585   4.065   2.218   3.303
 3562SOL    HW211586   4.177   2.272   3.408
 3563SOL     OW11587   4.913   0.625   1.171
 3563SOL    HW111588   4.989   0.607   1.232
 3563SOL    HW211589   4.828   0.632   1.223
 3564SOL     OW11590   0.008   4.576   3.083
 3564SOL    HW111591   0.017   4.665   3.037
 3564SOL    HW211592   6.975   4.515   3.025
 3565SOL     OW11593   1.610   0.432   5.437
 3565SOL    HW111594   1.593   0.392   5.527
 3565SOL    HW211595   1.524   0.458   5.395
 3566SOL     OW11596   0.657   4.564   6.538
 3566SOL    HW111597   0.634   4.658   6.562
 3566SOL    HW211598   0.695   4.561   6.445
 3567SOL     OW11599   0.090   2.962   1.090
 3567SOL    HW111600   0.140   2.881   1.120
 3567SOL    HW211601   0.128   3.043   1.134
 3568SOL     OW11602   5.099   3.861   3.573
 3568SOL    HW111603   5.030   3.792   3.594
 3568SOL    HW211604   5.103   3.874   3.474
 3569SOL     OW11605   3.931   3.138   3.968
 3569SOL    HW111606   3.979   3.212   4.017
 3569SOL    HW211607   3.867   3.094   4.031
 3570SOL     OW11608   0.513   1.640   5.261
 3570SOL    HW111609   0.508   1.689   5.348
 3570SOL    HW211610   0.599   1.660   5.215
 3571SOL     OW11611   2.462   6.990   4.678
 3571SOL    HW111612   2.362   6.989   4.689
 3571SOL    HW211613   2.502   0.022   4.753
 3572SOL     OW11614   5.322   3.937   1.793
 3572SOL    HW111615   5.344   3.882   1.713
 3572SOL    HW211616   5.247   3.894   1.844
 3573SOL     OW11617   0.247   4.961   3.738
 3573SOL    HW111618   0.248   4.926   3.645
 3573SOL    HW211619   0.166   4.925   3.786
 3574SOL     OW11620   1.846   2.045   5.727
 3574SOL    HW111621   1.939   2.083   5.724
 3574SOL    HW211622   1.790   2.088   5.657
 3575SOL     OW11623   4.986   0.092   6.734
 3575SOL    HW111624   5.026   0.094   6.643
 3575SOL    HW211625   4.970   0.186   6.766
 3576SOL     OW11626   1.629   2.795   0.523
 3576SOL    HW111627   1.554   2.832   0.579
 3576SOL    HW211628   1.624   2.835   0.432
 3577SOL     OW11629   1.559   2.765   5.017
 3577SOL    HW111630   1.628   2.768   4.945
 3577SOL    HW211631   1.480   2.818   4.989
 3578SOL     OW11632   3.862   2.381   6.443
 3578SOL    HW111633   3.788   2.439   6.478
 3578SOL    HW211634   3.845   2.360   6.347
 3579SOL     OW11635   0.948   3.990   1.672
 3579SOL    HW111636   1.003   4.056   1.621
 3579SOL    HW211637   0.985   3.898   1.658
 3580SOL     OW11638   6.848   4.204   1.846
 3580SOL    HW111639   6.772   4.225   1.784
 3580SOL    HW211640   6.845   4.108   1.873
 3581SOL     OW11641   1.505   0.619   2.522
 3581SOL    HW111642   1.550   0.704   2.494
 3581SOL    HW211643   1.497   0.617   2.622
 3582SOL     OW11644   4.129   5.586   6.647
 3582SOL    HW111645   4.191   5.663   6.631
 3582SOL    HW211646   4.078   5.601   6.732
 3583SOL     OW11647   1.478   5.285   1.417
 3583SOL    HW111648   1.393   5.333   1.438
 3583SOL    HW211649   1.485   5.203   1.474
 3584SOL     OW11650   5.800   4.994   4.704
 3584SOL    HW111651   5.753   5.082   4.693
 3584SOL    HW211652   5.842   4.990   4.795
 3585SOL     OW11653   3.786   2.103   3.873
 3585SOL    HW111654   3.709   2.161   3.845
 3585SOL    HW211655   3.776   2.014   3.829
 3586SOL     OW11656   6.961   1.693   5.213
 3586SOL    HW111657   6.914   1.608   5.238
 3586SOL    HW211658   0.033   1.672   5.184
 3587SOL     OW11659   3.220   0.427   6.157
 3587SOL    HW111660   3.254   0.520   6.140
 3587SOL    HW211661   3.295   0.369   6.189
 3588SOL     OW11662   5.714   4.549   4.897
 3588SOL    HW111663   5.779   4.574   4.968
 3588SOL    HW211664   5.762   4.544   4.809
 3589SOL     OW11665   0.760   6.893   6.103
 3589SOL    HW111666   0.789   6.799   6.083
 3589SOL    HW211667   0.769   6.910   6.201
 3590SOL     OW11668   6.864   5.448   5.588
 3590SOL    HW111669   6.883   5.473   5.683
 3590SOL    HW211670   6.887   5.524   5.528
 3591SOL     OW11671   5.387   1.732   0.337
 3591SOL    HW111672   5.325   1.773   0.404
 3591SOL    HW211673   5.347   1.647   0.302
 3592SOL     OW11674   1.302   6.392   1.053
 3592SOL    HW111675   1.275   6.486   1.075
 3592SOL    HW211676   1.402   6.386   1.052
 3593SOL     OW11677   4.096   3.137   5.686
 3593SOL    HW111678   4.140   3.170   5.603
 3593SOL    HW211679   4.140   3.052   5.716
 3594SOL     OW11680   4.774   4.894   5.152
 3594SOL    HW111681   4.865   4.922   5.184
 3594SOL    HW211682   4.722   4.858   5.229
 3595SOL     OW11683   5.495   6.116   4.410
 3595SOL    HW111684   5.526   6.094   4.502
 3595SOL    HW211685   5.563   6.084   4.343
 3596SOL     OW11686   4.146   1.866   2.855
 3596SOL    HW111687   4.231   1.843   2.806
 3596SOL    HW211688   4.083   1.789   2.849
 3597SOL     OW11689   3.301   4.165   5.527
 3597SOL    HW111690   3.328   4.260   5.512
 3597SOL    HW211691   3.316   4.112   5.444
 3598SOL     OW11692   0.076   5.451   4.700
 3598SOL    HW111693   0.154   5.513   4.696
 3598SOL    HW211694   0.027   5.464   4.786
 3599SOL     OW11695   2.657   1.360   5.600
 3599SOL    HW111696   2.685   1.449   5.563
 3599SOL    HW211697   2.578   1.326   5.549
 3600SOL     OW11698   2.557   3.690   6.593
 3600SOL    HW111699   2.504   3.609   6.618
 3600SOL    HW211700   2.649   3.683   6.633
 3601SOL     OW11701   4.917   0.833   5.028
 3601SOL    HW111702   5.010   0.847   5.063
 3601SOL    HW211703   4.852   0.838   5.104
 3602SOL     OW11704   1.456   2.226   1.343
 3602SOL    HW111705   1.444   2.127   1.356
 3602SOL    HW211706   1.460   2.271   1.432
 3603SOL     OW11707   2.336   0.653   5.518
 3603SOL    HW111708   2.327   0.743   5.474
 3603SOL    HW211709   2.358   0.584   5.449
 3604SOL     OW11710   0.026   0.966   3.353
 3604SOL    HW111711   6.976   0.944   3.421
 3604SOL    HW211712   0.096   1.024   3.395
 3605SOL     OW11713   0.914   6.760   4.858
 3605SOL    HW111714   0.855   6.839   4.870
 3605SOL    HW211715   0.996   6.770   4.915
 3606SOL     OW11716   1.994   0.386   2.286
 3606SOL    HW111717   2.051   0.312   2.250
 3606SOL    HW211718   2.049   0.468   2.297
 3607SOL     OW11719   6.023   1.368   3.226
 3607SOL    HW111720   6.106   1.352   3.280
 3607SOL    HW211721   6.025   1.461   3.190
 3608SOL     OW11722   3.113   1.851   5.656
 3608SOL    HW111723   3.115   1.923   5.726
 3608SOL    HW211724   3.024   1.853   5.610
 3609SOL     OW11725   3.612   0.623   5.655
 3609SOL    HW111726   3.698   0.581   5.626
 3609SOL    HW211727   3.574   0.677   5.580
 3610SOL     OW11728   1.918   1.113   5.823
 3610SOL    HW111729   1.821   1.113   5.798
 3610SOL    HW211730   1.927   1.105   5.922
 3611SOL     OW11731   5.577   4.159   2.662
 3611SOL    HW111732   5.619   4.178   2.751
 3611SOL    HW211733   5.500   4.221   2.648
 3612SOL     OW11734   4.903   1.811   0.535
 3612SOL    HW111735   4.894   1.905   0.504
 3612SOL    HW211736   4.997   1.781   0.522
 3613SOL     OW11737   3.769   6.763   3.190
 3613SOL    HW111738   3.777   6.780   3.289
 3613SOL    HW211739   3.773   6.665   3.173
 3614SOL     OW11740   3.346   5.889   6.677
 3614SOL    HW111741   3.265   5.839   6.708
 3614SOL    HW211742   3.398   5.919   6.757
 3615SOL     OW11743   5.252   3.057   5.836
 3615SOL    HW111744   5.183   3.079   5.767
 3615SOL    HW211745   5.305   3.139   5.858
 3616SOL     OW11746   1.559   2.605   0.196
 3616SOL    HW111747   1.570   2.509   0.220
 3616SOL    HW211748   1.463   2.631   0.206
 3617SOL     OW11749   4.194   5.411   5.558
 3617SOL    HW111750   4.236   5.455   5.637
 3617SOL    HW211751   4.190   5.477   5.482
 3618SOL     OW11752   1.477   5.524   4.151
 3618SOL    HW111753   1.574   5.504   4.135
 3618SOL    HW211754   1.437   5.451   4.206
 3619SOL     OW11755   6.148   2.281   1.959
 3619SOL    HW111756   6.057   2.246   1.981
 3619SOL    HW211757   6.157   2.375   1.992
 3620SOL     OW11758   5.769   6.008   5.137
 3620SOL    HW111759   5.851   6.045   5.179
 3620SOL    HW211760   5.748   6.057   5.053
 3621SOL     OW11761   3.617   3.027   3.623
 3621SOL    HW111762   3.666   3.100   3.671
 3621SOL    HW211763   3.537   3.000   3.677
 3622SOL     OW11764   1.987   5.520   6.273
 3622SOL    HW111765   1.904   5.465   6.284
 3622SOL    HW211766   1.967   5.599   6.215
 3623SOL     OW11767   1.361   5.838   6.179
 3623SOL    HW111768   1.346   5.739   6.172
 3623SOL    HW211769   1.300   5.885   6.115
 3624SOL     OW11770   2.193   2.298   2.320
 3624SOL    HW111771   2.185   2.360   2.398
 3624SOL    HW211772   2.275   2.320   2.268
 3625SOL     OW11773   5.810   2.316   1.176
 3625SOL    HW111774   5.765   2.405   1.176
 3625SOL    HW211775   5.805   2.275   1.267
 3626SOL     OW11776   1.736   2.831   5.790
 3626SOL    HW111777   1.804   2.757   5.784
 3626SOL    HW211778   1.741   2.872   5.882
 3627SOL     OW11779   3.663   1.560   2.570
 3627SOL    HW111780   3.670   1.655   2.600
 3627SOL    HW211781   3.601   1.553   2.492
 3628SOL     OW11782   6.612   1.938   1.392
 3628SOL    HW111783   6.668   1.992   1.453
 3628SOL    HW211784   6.518   1.973   1.391
 3629SOL     OW11785   1.372   1.305   4.268
 3629SOL    HW111786   1.325   1.238   4.211
 3629SOL    HW211787   1.354   1.285   4.364
 3630SOL     OW11788   6.462   2.082   2.537
 3630SOL    HW111789   6.436   2.145   2.463
 3630SOL    HW211790   6.396   2.088   2.611
 3631SOL     OW11791   2.077   6.263   2.510
 3631SOL    HW111792   2.088   6.246   2.412
 3631SOL    HW211793   2.167   6.272   2.553
 3632SOL     OW11794   5.059   3.026   2.379
 3632SOL    HW111795   5.060   2.993   2.473
 3632SOL    HW211796   5.020   3.117   2.376
 3633SOL     OW11797   3.997   4.088   0.283
 3633SOL    HW111798   4.091   4.122   0.280
 3633SOL    HW211799   3.945   4.137   0.353
 3634SOL     OW11800   2.828   5.510   6.536
 3634SOL    HW111801   2.889   5.456   6.594
 3634SOL    HW211802   2.836   5.607   6.559
 3635SOL     OW11803   1.017   6.449   2.361
 3635SOL    HW111804   1.066   6.448   2.448
 3635SOL    HW211805   1.061   6.513   2.299
 3636SOL     OW11806   0.195   5.560   5.022
 3636SOL    HW111807   0.120   5.626   5.030
 3636SOL    HW211808   0.279   5.609   4.999
 3637SOL     OW11809   6.254   2.861   0.018
 3637SOL    HW111810   6.239   2.952   0.057
 3637SOL    HW211811   6.301   2.803   0.085
 3638SOL     OW11812   0.325   3.410   3.299
 3638SOL    HW111813   0.355   3.333   3.356
 3638SOL    HW211814   0.339   3.496   3.348
 3639SOL     OW11815   4.125   3.468   4.478
 3639SOL    HW111816   4.154   3.456   4.573
 3639SOL    HW211817   4.105   3.378   4.438
 3640SOL     OW11818   4.389   1.816   2.111
 3640SOL    HW111819   4.331   1.845   2.036
 3640SOL    HW211820   4.359   1.726   2.143
 3641SOL     OW11821   6.315   3.778   2.286
 3641SOL    HW111822   6.301   3.683   2.315
 3641SOL    HW211823   6.268   3.794   2.199
 3642SOL     OW11824   4.876   4.011   6.848
 3642SOL    HW111825   4.923   4.020   6.760
 3642SOL    HW211826   4.820   4.092   6.864
 3643SOL     OW11827   3.988   5.877   4.899
 3643SOL    HW111828   4.070   5.837   4.859
 3643SOL    HW211829   3.915   5.879   4.831
 3644SOL     OW11830   2.860   0.909   1.945
 3644SOL    HW111831   2.809   0.850   1.882
 3644SOL    HW211832   2.796   0.960   2.003
 3645SOL     OW11833   1.952   4.383   3.246
 3645SOL    HW111834   2.000   4.456   3.198
 3645SOL    HW211835   1.945   4.407   3.343
 3646SOL     OW11836   1.916   5.263   5.560
 3646SOL    HW111837   1.996   5.204   5.576
 3646SOL    HW211838   1.834   5.218   5.595
 3647SOL     OW11839   3.860   0.065   0.254
 3647SOL    HW111840   3.766   0.100   0.256
 3647SOL    HW211841   3.879   0.018   0.340
 3648SOL     OW11842   5.185   4.470   3.193
 3648SOL    HW111843   5.118   4.396   3.197
 3648SOL    HW211844   5.154   4.546   3.251
 3649SOL     OW11845   5.435   2.510   0.337
 3649SOL    HW111846   5.434   2.460   0.251
 3649SOL    HW211847   5.343   2.544   0.358
 3650SOL     OW11848   5.466   5.928   6.096
 3650SOL    HW111849   5.459   5.983   6.179
 3650SOL    HW211850   5.550   5.952   6.048
 3651SOL     OW11851   0.633   1.993   5.842
 3651SOL    HW111852   0.592   1.919   5.790
 3651SOL    HW211853   0.672   2.061   5.780
 3652SOL     OW11854   4.620   2.620   2.740
 3652SOL    HW111855   4.641   2.717   2.732
 3652SOL    HW211856   4.595   2.599   2.834
 3653SOL     OW11857   2.146   1.444   0.483
 3653SOL    HW111858   2.223   1.387   0.456
 3653SOL    HW211859   2.070   1.432   0.419
 3654SOL     OW11860   4.061   6.503   1.780
 3654SOL    HW111861   3.961   6.509   1.774
 3654SOL    HW211862   4.101   6.593   1.763
 3655SOL     OW11863   0.920   0.765   3.709
 3655SOL    HW111864   0.945   0.732   3.618
 3655SOL    HW211865   0.859   0.844   3.701
 3656SOL     OW11866   0.259   0.092   0.841
 3656SOL    HW111867   0.172   0.140   0.853
 3656SOL    HW211868   0.296   0.111   0.750
 3657SOL     OW11869   6.061   5.342   6.471
 3657SOL    HW111870   6.014   5.418   6.424
 3657SOL    HW211871   6.066   5.263   6.410
 3658SOL     OW11872   1.865   4.333   5.206
 3658SOL    HW111873   1.789   4.274   5.179
 3658SOL    HW211874   1.866   4.343   5.305
 3659SOL     OW11875   1.075   2.352   6.348
 3659SOL    HW111876   1.073   2.282   6.277
 3659SOL    HW211877   1.164   2.398   6.348
 3660SOL     OW11878   3.997   5.556   5.243
 3660SOL    HW111879   3.970   5.563   5.147
 3660SOL    HW211880   3.987   5.462   5.274
 3661SOL     OW11881   0.745   1.300   4.429
 3661SOL    HW111882   0.700   1.245   4.500
 3661SOL    HW211883   0.676   1.339   4.368
 3662SOL     OW11884   3.312   1.630   5.703
 3662SOL    HW111885   3.262   1.550   5.736
 3662SOL    HW211886   3.262   1.713   5.725
 3663SOL     OW11887   2.097   2.345   6.434
 3663SOL    HW111888   2.090   2.369   6.337
 3663SOL    HW211889   2.193   2.341   6.460
 3664SOL     OW11890   2.964   2.006   1.348
 3664SOL    HW111891   2.976   1.928   1.286
 3664SOL    HW211892   3.035   2.003   1.418
 3665SOL     OW11893   6.927   5.568   5.279
 3665SOL    HW111894   6.896   5.633   5.348
 3665SOL    HW211895   7.008   5.520   5.314
 3666SOL     OW11896   2.061   3.562   4.515
 3666SOL    HW111897   2.107   3.649   4.532
 3666SOL    HW211898   2.113   3.488   4.558
 3667SOL     OW11899   1.856   6.602   0.846
 3667SOL    HW111900   1.900   6.519   0.879
 3667SOL    HW211901   1.771   6.617   0.896
 3668SOL     OW11902   6.166   1.146   0.878
 3668SOL    HW111903   6.151   1.194   0.791
 3668SOL    HW211904   6.079   1.113   0.914
 3669SOL     OW11905   6.760   1.083   1.641
 3669SOL    HW111906   6.739   0.990   1.670
 3669SOL    HW211907   6.846   1.113   1.684
 3670SOL     OW11908   2.036   6.879   2.216
 3670SOL    HW111909   2.092   6.886   2.133
 3670SOL    HW211910   2.087   6.913   2.294
 3671SOL     OW11911   0.031   0.763   4.864
 3671SOL    HW111912   0.073   0.719   4.784
 3671SOL    HW211913   0.045   0.705   4.944
 3672SOL     OW11914   4.157   0.164   3.388
 3672SOL    HW111915   4.194   0.206   3.305
 3672SOL    HW211916   4.114   0.077   3.365
 3673SOL     OW11917   3.164   1.091   1.438
 3673SOL    HW111918   3.099   1.082   1.513
 3673SOL    HW211919   3.139   1.030   1.363
 3674SOL     OW11920   0.332   4.355   5.886
 3674SOL    HW111921   0.263   4.319   5.823
 3674SOL    HW211922   0.291   4.371   5.976
 3675SOL     OW11923   6.813   1.011   4.569
 3675SOL    HW111924   6.727   1.031   4.615
 3675SOL    HW211925   6.827   0.912   4.563
 3676SOL     OW11926   3.153   0.980   5.673
 3676SOL    HW111927   3.137   0.994   5.576
 3676SOL    HW211928   3.151   1.068   5.721
 3677SOL     OW11929   1.389   0.950   4.468
 3677SOL    HW111930   1.374   0.876   4.533
 3677SOL    HW211931   1.306   1.005   4.460
 3678SOL     OW11932   2.377   1.189   3.383
 3678SOL    HW111933   2.380   1.265   3.448
 3678SOL    HW211934   2.306   1.205   3.315
 3679SOL     OW11935   2.992   0.564   2.521
 3679SOL    HW111936   2.982   0.477   2.473
 3679SOL    HW211937   3.086   0.597   2.511
 3680SOL     OW11938   3.323   2.029   4.693
 3680SOL    HW111939   3.236   2.069   4.665
 3680SOL    HW211940   3.313   1.985   4.782
 3681SOL     OW11941   1.177   6.556   3.869
 3681SOL    HW111942   1.242   6.481   3.857
 3681SOL    HW211943   1.096   6.523   3.916
 3682SOL     OW11944   5.349   2.207   1.298
 3682SOL    HW111945   5.251   2.191   1.281
 3682SOL    HW211946   5.398   2.120   1.293
 3683SOL     OW11947   6.663   1.678   0.796
 3683SOL    HW111948   6.574   1.632   0.804
 3683SOL    HW211949   6.649   1.771   0.763
 3684SOL     OW11950   2.701   6.394   6.082
 3684SOL    HW111951   2.729   6.454   6.008
 3684SOL    HW211952   2.751   6.307   6.075
 3685SOL     OW11953   2.645   6.697   3.918
 3685SOL    HW111954   2.605   6.761   3.984
 3685SOL    HW211955   2.691   6.749   3.846
 3686SOL     OW11956   6.947   4.154   0.334
 3686SOL    HW111957   0.005   4.191   0.383
 3686SOL    HW211958   6.881   4.119   0.400
 3687SOL     OW11959   6.151   4.271   4.460
 3687SOL    HW111960   6.159   4.368   4.436
 3687SOL    HW211961   6.212   4.250   4.537
 3688SOL     OW11962   0.101   2.785   1.399
 3688SOL    HW111963   0.147   2.706   1.441
 3688SOL    HW211964   0.117   2.782   1.300
 3689SOL     OW11965   1.281   1.341   5.699
 3689SOL    HW111966   1.378   1.329   5.719
 3689SOL    HW211967   1.270   1.365   5.602
 3690SOL     OW11968   5.892   4.507   1.468
 3690SOL    HW111969   5.886   4.599   1.506
 3690SOL    HW211970   5.853   4.441   1.533
 3691SOL     OW11971   1.576   2.468   0.704
 3691SOL    HW111972   1.611   2.435   0.617
 3691SOL    HW211973   1.652   2.502   0.760
 3692SOL     OW11974   1.199   3.039   5.385
 3692SOL    HW111975   1.147   3.113   5.344
 3692SOL    HW211976   1.197   2.959   5.324
 3693SOL     OW11977   0.075   1.322   2.514
 3693SOL    HW111978   7.003   1.290   2.493
 3693SOL    HW211979   0.086   1.327   2.614
 3694SOL     OW11980   6.674   6.544   2.196
 3694SOL    HW111981   6.724   6.539   2.110
 3694SOL    HW211982   6.723   6.491   2.266
 3695SOL     OW11983   6.123   3.896   3.654
 3695SOL    HW111984   6.042   3.838   3.668
 3695SOL    HW211985   6.095   3.984   3.616
 3696SOL     OW11986   4.436   0.153   3.927
 3696SOL    HW111987   4.364   0.098   3.885
 3696SOL    HW211988   4.397   0.238   3.960
 3697SOL     OW11989   6.264   5.356   2.462
 3697SOL    HW111990   6.330   5.308   2.405
 3697SOL    HW211991   6.175   5.358   2.416
 3698SOL     OW11992   1.269   6.953   4.380
 3698SOL    HW111993   1.359   6.993   4.364
 3698SOL    HW211994   1.279   6.858   4.410
 3699SOL     OW11995   2.683   2.348   2.772
 3699SOL    HW111996   2.652   2.385   2.684
 3699SOL    HW211997   2.653   2.253   2.780
 3700SOL     OW11998   1.256   4.979   4.451
 3700SOL    HW111999   1.202   4.926   4.516
 3700SOL    HW212000   1.238   5.076   4.465
 3701SOL     OW12001   0.344   0.896   1.772
 3701SOL    HW112002   0.256   0.852   1.788
 3701SOL    HW212003   0.418   0.831   1.789
 3702SOL     OW12004   6.539   4.699   3.582
 3702SOL    HW112005   6.599   4.718   3.659
 3702SOL    HW212006   6.579   4.737   3.498
 3703SOL     OW12007   1.192   2.296   2.924
 3703SOL    HW112008   1.274   2.289   2.980
 3703SOL    HW212009   1.126   2.226   2.951
 3704SOL     OW12010   5.998   6.937   0.726
 3704SOL    HW112011   6.075   6.888   0.767
 3704SOL    HW212012   5.917   6.878   0.724
 3705SOL     OW12013   6.073   4.124   3.541
 3705SOL    HW112014   6.066   4.123   3.442
 3705SOL    HW212015   6.123   4.206   3.570
 3706SOL     OW12016   1.025   5.118   6.339
 3706SOL    HW112017   0.927   5.124   6.353
 3706SOL    HW212018   1.044   5.076   6.250
 3707SOL     OW12019   0.759   5.003   3.574
 3707SOL    HW112020   0.726   4.944   3.648
 3707SOL    HW212021   0.760   5.098   3.605
 3708SOL     OW12022   1.370   5.931   0.026
 3708SOL    HW112023   1.299   6.001   0.027
 3708SOL    HW212024   1.327   5.840   0.024
 3709SOL     OW12025   0.512   1.529   2.291
 3709SOL    HW112026   0.435   1.473   2.322
 3709SOL    HW212027   0.477   1.605   2.236
 3710SOL     OW12028   2.190   3.780   5.532
 3710SOL    HW112029   2.219   3.760   5.439
 3710SOL    HW212030   2.182   3.879   5.544
 3711SOL     OW12031   2.035   5.161   5.104
 3711SOL    HW112032   1.980   5.244   5.112
 3711SOL    HW212033   2.060   5.129   5.195
 3712SOL     OW12034   3.339   5.162   4.092
 3712SOL    HW112035   3.333   5.062   4.094
 3712SOL    HW212036   3.418   5.189   4.038
 3713SOL     OW12037   6.067   0.408   5.257
 3713SOL    HW112038   6.049   0.317   5.221
 3713SOL    HW212039   6.097   0.402   5.352
 3714SOL     OW12040   0.151   4.932   6.768
 3714SOL    HW112041   0.175   5.010   6.709
 3714SOL    HW212042   0.235   4.887   6.798
 3715SOL     OW12043   6.148   4.411   3.285
 3715SOL    HW112044   6.225   4.426   3.346
 3715SOL    HW212045   6.180   4.410   3.190
 3716SOL     OW12046   5.774   6.160   5.706
 3716SOL    HW112047   5.839   6.131   5.636
 3716SOL    HW212048   5.682   6.159   5.668
 3717SOL     OW12049   4.885   0.377   0.864
 3717SOL    HW112050   4.833   0.311   0.918
 3717SOL    HW212051   4.907   0.456   0.920
 3718SOL     OW12052   5.487   6.973   6.534
 3718SOL    HW112053   5.577   6.931   6.529
 3718SOL    HW212054   5.426   6.914   6.588
 3719SOL     OW12055   2.702   4.276   7.014
 3719SOL    HW112056   2.733   4.183   0.011
 3719SOL    HW212057   2.756   4.340   0.049
 3720SOL     OW12058   6.907   2.365   1.061
 3720SOL    HW112059   6.923   2.373   1.159
 3720SOL    HW212060   6.847   2.286   1.043
 3721SOL     OW12061   6.312   7.003   6.028
 3721SOL    HW112062   6.387   6.962   5.976
 3721SOL    HW212063   6.225   6.976   5.987
 3722SOL     OW12064   6.232   6.525   1.454
 3722SOL    HW112065   6.229   6.530   1.554
 3722SOL    HW212066   6.161   6.584   1.415
 3723SOL     OW12067   4.415   4.432   6.335
 3723SOL    HW112068   4.438   4.527   6.311
 3723SOL    HW212069   4.434   4.417   6.432
 3724SOL     OW12070   6.784   4.391   4.830
 3724SOL    HW112071   6.853   4.419   4.763
 3724SOL    HW212072   6.736   4.471   4.865
 3725SOL     OW12073   0.736   5.972   0.305
 3725SOL    HW112074   0.672   5.964   0.228
 3725SOL    HW212075   0.813   6.030   0.278
 3726SOL     OW12076   6.346   3.679   5.223
 3726SOL    HW112077   6.394   3.686   5.135
 3726SOL    HW212078   6.324   3.771   5.256
 3727SOL     OW12079   6.603   2.192   3.938
 3727SOL    HW112080   6.509   2.172   3.911
 3727SOL    HW212081   6.607   2.285   3.975
 3728SOL     OW12082   1.821   4.208   0.577
 3728SOL    HW112083   1.874   4.245   0.653
 3728SOL    HW212084   1.846   4.256   0.493
 3729SOL     OW12085   0.272   0.131   6.482
 3729SOL    HW112086   0.271   0.146   6.383
 3729SOL    HW212087   0.219   0.203   6.528
 3730SOL     OW12088   5.083   4.956   4.621
 3730SOL    HW112089   4.996   4.908   4.631
 3730SOL    HW212090   5.152   4.893   4.586
 3731SOL     OW12091   0.319   1.918   1.081
 3731SOL    HW112092   0.419   1.910   1.079
 3731SOL    HW212093   0.294   2.014   1.069
 3732SOL     OW12094   3.593   3.084   6.893
 3732SOL    HW112095   3.568   2.987   6.900
 3732SOL    HW212096   3.622   3.105   6.800
 3733SOL     OW12097   1.824   1.418   3.592
 3733SOL    HW112098   1.825   1.470   3.507
 3733SOL    HW212099   1.754   1.454   3.653
 3734SOL     OW12100   3.530   0.344   1.812
 3734SOL    HW112101   3.499   0.253   1.839
 3734SOL    HW212102   3.620   0.362   1.852
 3735SOL     OW12103   4.456   1.052   2.716
 3735SOL    HW112104   4.378   1.051   2.779
 3735SOL    HW212105   4.422   1.048   2.622
 3736SOL     OW12106   1.034   1.601   0.247
 3736SOL    HW112107   1.123   1.637   0.220
 3736SOL    HW212108   0.974   1.676   0.272
 3737SOL     OW12109   5.895   2.169   3.719
 3737SOL    HW112110   5.803   2.195   3.750
 3737SOL    HW212111   5.917   2.218   3.634
 3738SOL     OW12112   0.445   0.978   1.038
 3738SOL    HW112113   0.438   1.033   1.121
 3738SOL    HW212114   0.529   1.000   0.990
 3739SOL     OW12115   2.875   4.487   6.822
 3739SOL    HW112116   2.871   4.429   6.903
 3739SOL    HW212117   2.962   4.535   6.819
 3740SOL     OW12118   5.137   5.952   6.684
 3740SOL    HW112119   5.048   5.933   6.724
 3740SOL    HW212120   5.208   5.933   6.752
 3741SOL     OW12121   5.685   4.143   0.338
 3741SOL    HW112122   5.706   4.199   0.258
 3741SOL    HW212123   5.669   4.049   0.309
 3742SOL     OW12124   4.646   5.307   1.429
 3742SOL    HW112125   4.705   5.286   1.351
 3742SOL    HW212126   4.700   5.354   1.499
 3743SOL     OW12127   2.685   3.916   0.669
 3743SOL    HW112128   2.781   3.930   0.689
 3743SOL    HW212129   2.631   3.986   0.714
 3744SOL     OW12130   6.408   5.610   2.578
 3744SOL    HW112131   6.437   5.630   2.484
 3744SOL    HW212132   6.352   5.686   2.612
 3745SOL     OW12133   5.335   2.412   2.947
 3745SOL    HW112134   5.388   2.496   2.933
 3745SOL    HW212135   5.238   2.434   2.951
 3746SOL     OW12136   5.012   6.897   4.830
 3746SOL    HW112137   4.925   6.946   4.826
 3746SOL    HW212138   4.997   6.804   4.864
 3747SOL     OW12139   2.475   5.777   5.452
 3747SOL    HW112140   2.534   5.708   5.496
 3747SOL    HW212141   2.438   5.739   5.367
 3748SOL     OW12142   5.029   2.493   3.349
 3748SOL    HW112143   5.099   2.558   3.380
 3748SOL    HW212144   5.045   2.404   3.392
 3749SOL     OW12145   6.340   6.660   1.995
 3749SOL    HW112146   6.390   6.747   1.995
 3749SOL    HW212147   6.396   6.588   1.956
 3750SOL     OW12148   5.767   4.285   0.918
 3750SOL    HW112149   5.850   4.341   0.922
 3750SOL    HW212150   5.792   4.188   0.915
 3751SOL     OW12151   1.263   4.564   0.712
 3751SOL    HW112152   1.222   4.473   0.711
 3751SOL    HW212153   1.362   4.556   0.697
 3752SOL     OW12154   1.105   6.219   5.949
 3752SOL    HW112155   1.156   6.204   5.864
 3752SOL    HW212156   1.009   6.235   5.927
 3753SOL     OW12157   0.501   0.684   5.255
 3753SOL    HW112158   0.445   0.727   5.326
 3753SOL    HW212159   0.444   0.619   5.203
 3754SOL     OW12160   6.592   5.793   1.574
 3754SOL    HW112161   6.541   5.733   1.512
 3754SOL    HW212162   6.652   5.738   1.632
 3755SOL     OW12163   4.565   2.582   3.020
 3755SOL    HW112164   4.543   2.491   3.055
 3755SOL    HW212165   4.494   2.647   3.048
 3756SOL     OW12166   3.580   6.851   0.188
 3756SOL    HW112167   3.590   6.949   0.175
 3756SOL    HW212168   3.661   6.814   0.233
 3757SOL     OW12169   3.917   4.610   6.829
 3757SOL    HW112170   3.948   4.701   6.803
 3757SOL    HW212171   3.889   4.560   6.748
 3758SOL     OW12172   6.548   0.655   2.461
 3758SOL    HW112173   6.528   0.606   2.376
 3758SOL    HW212174   6.609   0.600   2.517
 3759SOL     OW12175   4.801   4.404   0.902
 3759SOL    HW112176   4.833   4.491   0.864
 3759SOL    HW212177   4.711   4.417   0.944
 3760SOL     OW12178   1.709   1.671   6.265
 3760SOL    HW112179   1.692   1.690   6.362
 3760SOL    HW212180   1.782   1.603   6.257
 3761SOL     OW12181   6.413   6.102   4.125
 3761SOL    HW112182   6.417   6.183   4.184
 3761SOL    HW212183   6.462   6.121   4.040
 3762SOL     OW12184   0.377   2.761   0.086
 3762SOL    HW112185   0.321   2.844   0.080
 3762SOL    HW212186   0.471   2.786   0.107
 3763SOL     OW12187   0.246   3.491   5.192
 3763SOL    HW112188   0.146   3.495   5.193
 3763SOL    HW212189   0.283   3.575   5.232
 3764SOL     OW12190   2.445   0.129   3.964
 3764SOL    HW112191   2.418   0.213   4.011
 3764SOL    HW212192   2.364   0.084   3.927
 3765SOL     OW12193   5.810   1.379   3.414
 3765SOL    HW112194   5.727   1.414   3.371
 3765SOL    HW212195   5.889   1.404   3.359
 3766SOL     OW12196   1.990   1.083   5.389
 3766SOL    HW112197   2.033   1.042   5.469
 3766SOL    HW212198   1.990   1.018   5.313
 3767SOL     OW12199   0.278   4.815   0.269
 3767SOL    HW112200   0.361   4.828   0.214
 3767SOL    HW212201   0.286   4.731   0.322
 3768SOL     OW12202   4.222   6.490   1.216
 3768SOL    HW112203   4.167   6.518   1.137
 3768SOL    HW212204   4.168   6.430   1.275
 3769SOL     OW12205   4.436   7.009   5.133
 3769SOL    HW112206   4.412   0.023   5.042
 3769SOL    HW212207   4.429   6.909   5.133
 3770SOL     OW12208   2.136   2.599   0.794
 3770SOL    HW112209   2.127   2.695   0.820
 3770SOL    HW212210   2.233   2.577   0.783
 3771SOL     OW12211   4.300   1.697   5.419
 3771SOL    HW112212   4.311   1.619   5.358
 3771SOL    HW212213   4.252   1.770   5.370
 3772SOL     OW12214   4.919   0.627   2.549
 3772SOL    HW112215   4.889   0.590   2.461
 3772SOL    HW212216   4.839   0.649   2.604
 3773SOL     OW12217   6.131   2.397   0.883
 3773SOL    HW112218   6.107   2.325   0.817
 3773SOL    HW212219   6.120   2.361   0.976
 3774SOL     OW12220   0.575   1.881   1.992
 3774SOL    HW112221   0.656   1.923   2.034
 3774SOL    HW212222   0.590   1.783   1.982
 3775SOL     OW12223   5.393   3.003   3.540
 3775SOL    HW112224   5.434   3.093   3.551
 3775SOL    HW212225   5.462   2.932   3.552
 3776SOL     OW12226   3.086   2.452   6.662
 3776SOL    HW112227   3.014   2.485   6.723
 3776SOL    HW212228   3.124   2.529   6.611
 3777SOL     OW12229   0.849   4.479   3.087
 3777SOL    HW112230   0.924   4.540   3.062
 3777SOL    HW212231   0.855   4.395   3.033
 3778SOL     OW12232   2.426   6.794   1.845
 3778SOL    HW112233   2.472   6.859   1.906
 3778SOL    HW212234   2.429   6.828   1.751
 3779SOL     OW12235   2.057   4.487   6.960
 3779SOL    HW112236   1.966   4.500   6.999
 3779SOL    HW212237   2.065   4.393   6.926
 3780SOL     OW12238   2.400   0.457   3.893
 3780SOL    HW112239   2.423   0.387   3.826
 3780SOL    HW212240   2.369   0.414   3.978
 3781SOL     OW12241   2.588   5.516   5.163
 3781SOL    HW112242   2.562   5.458   5.240
 3781SOL    HW212243   2.677   5.559   5.183
 3782SOL     OW12244   2.891   0.953   2.658
 3782SOL    HW112245   2.920   0.859   2.677
 3782SOL    HW212246   2.969   1.005   2.622
 3783SOL     OW12247   5.162   5.181   4.780
 3783SOL    HW112248   5.139   5.266   4.733
 3783SOL    HW212249   5.159   5.105   4.715
 3784SOL     OW12250   5.077   2.028   4.441
 3784SOL    HW112251   5.112   2.016   4.533
 3784SOL    HW212252   5.015   2.107   4.439
 3785SOL     OW12253   1.031   1.012   1.987
 3785SOL    HW112254   1.089   1.091   2.009
 3785SOL    HW212255   1.030   0.999   1.888
 3786SOL     OW12256   3.122   6.427   2.691
 3786SOL    HW112257   3.068   6.347   2.720
 3786SOL    HW212258   3.065   6.487   2.635
 3787SOL     OW12259   4.616   0.768   4.079
 3787SOL    HW112260   4.684   0.707   4.037
 3787SOL    HW212261   4.608   0.747   4.176
 3788SOL     OW12262   6.641   3.630   2.731
 3788SOL    HW112263   6.554   3.633   2.681
 3788SOL    HW212264   6.712   3.674   2.676
 3789SOL     OW12265   1.264   5.182   1.922
 3789SOL    HW112266   1.207   5.164   1.842
 3789SOL    HW212267   1.349   5.131   1.914
 3790SOL     OW12268   2.185   3.154   3.197
 3790SOL    HW112269   2.229   3.131   3.283
 3790SOL    HW212270   2.178   3.253   3.187
 3791SOL     OW12271   6.219   0.582   2.536
 3791SOL    HW112272   6.300   0.594   2.594
 3791SOL    HW212273   6.183   0.672   2.511
 3792SOL     OW12274   0.750   6.318   6.337
 3792SOL    HW112275   0.655   6.300   6.360
 3792SOL    HW212276   0.758   6.336   6.239
 3793SOL     OW12277   0.745   5.904   2.735
 3793SOL    HW112278   0.819   5.908   2.803
 3793SOL    HW212279   0.728   5.809   2.710
 3794SOL     OW12280   4.441   6.660   3.762
 3794SOL    HW112281   4.421   6.753   3.731
 3794SOL    HW212282   4.539   6.649   3.775
 3795SOL     OW12283   5.381   0.267   0.112
 3795SOL    HW112284   5.405   0.357   0.150
 3795SOL    HW212285   5.353   0.278   0.016
 3796SOL     OW12286   1.042   3.122   0.633
 3796SOL    HW112287   1.068   3.212   0.669
 3796SOL    HW212288   0.977   3.079   0.696
 3797SOL     OW12289   6.930   5.460   2.455
 3797SOL    HW112290   6.900   5.369   2.482
 3797SOL    HW212291   6.866   5.528   2.490
 3798SOL     OW12292   0.728   4.173   1.045
 3798SOL    HW112293   0.813   4.136   1.010
 3798SOL    HW212294   0.737   4.189   1.144
 3799SOL     OW12295   1.217   0.368   5.148
 3799SOL    HW112296   1.148   0.296   5.152
 3799SOL    HW212297   1.304   0.329   5.115
 3800SOL     OW12298   5.144   2.572   5.420
 3800SOL    HW112299   5.200   2.650   5.446
 3800SOL    HW212300   5.198   2.508   5.365
 3801SOL     OW12301   6.781   0.313   6.523
 3801SOL    HW112302   6.731   0.241   6.476
 3801SOL    HW212303   6.852   0.350   6.463
 3802SOL     OW12304   1.725   2.677   5.354
 3802SOL    HW112305   1.696   2.607   5.289
 3802SOL    HW212306   1.808   2.721   5.320
 3803SOL     OW12307   4.056   1.154   1.327
 3803SOL    HW112308   4.122   1.193   1.391
 3803SOL    HW212309   4.011   1.075   1.368
 3804SOL     OW12310   5.221   3.128   5.054
 3804SOL    HW112311   5.264   3.043   5.022
 3804SOL    HW212312   5.169   3.169   4.979
 3805SOL     OW12313   1.879   3.472   1.606
 3805SOL    HW112314   1.963   3.441   1.650
 3805SOL    HW212315   1.869   3.571   1.620
 3806SOL     OW12316   3.847   1.040   0.444
 3806SOL    HW112317   3.846   1.119   0.383
 3806SOL    HW212318   3.868   1.069   0.537
 3807SOL     OW12319   1.232   6.981   2.916
 3807SOL    HW112320   1.295   6.930   2.974
 3807SOL    HW212321   1.141   6.982   2.958
 3808SOL     OW12322   3.078   0.458   0.706
 3808SOL    HW112323   2.997   0.405   0.729
 3808SOL    HW212324   3.089   0.532   0.772
 3809SOL     OW12325   4.136   0.096   6.921
 3809SOL    HW112326   4.129   0.037   6.841
 3809SOL    HW212327   4.232   0.124   6.933
 3810SOL     OW12328   2.038   3.351   6.603
 3810SOL    HW112329   2.123   3.330   6.556
 3810SOL    HW212330   1.960   3.328   6.544
 3811SOL     OW12331   0.583   0.310   6.402
 3811SOL    HW112332   0.585   0.217   6.439
 3811SOL    HW212333   0.676   0.347   6.401
 3812SOL     OW12334   5.176   0.710   5.782
 3812SOL    HW112335   5.214   0.800   5.801
 3812SOL    HW212336   5.206   0.645   5.853
 3813SOL     OW12337   3.773   4.958   2.061
 3813SOL    HW112338   3.741   4.894   1.992
 3813SOL    HW212339   3.714   4.952   2.142
 3814SOL     OW12340   2.115   0.851   1.914
 3814SOL    HW112341   2.189   0.784   1.918
 3814SOL    HW212342   2.056   0.830   1.836
 3815SOL     OW12343   5.545   1.993   2.234
 3815SOL    HW112344   5.614   1.976   2.304
 3815SOL    HW212345   5.582   2.054   2.163
 3816SOL     OW12346   6.933   6.668   0.815
 3816SOL    HW112347   6.977   6.582   0.789
 3816SOL    HW212348   6.859   6.649   0.880
 3817SOL     OW12349   4.975   1.850   5.479
 3817SOL    HW112350   5.022   1.936   5.458
 3817SOL    HW212351   5.031   1.773   5.448
 3818SOL     OW12352   4.680   5.642   3.207
 3818SOL    HW112353   4.693   5.708   3.281
 3818SOL    HW212354   4.596   5.664   3.157
 3819SOL     OW12355   6.202   4.042   6.217
 3819SOL    HW112356   6.110   4.029   6.253
 3819SOL    HW212357   6.212   3.990   6.132
 3820SOL     OW12358   5.005   6.049   3.454
 3820SOL    HW112359   4.917   6.076   3.415
 3820SOL    HW212360   5.004   6.065   3.553
 3821SOL     OW12361   0.022   4.508   1.233
 3821SOL    HW112362   0.002   4.438   1.302
 3821SOL    HW212363   6.983   4.496   1.154
 3822SOL     OW12364   0.514   4.393   1.442
 3822SOL    HW112365   0.464   4.471   1.480
 3822SOL    HW212366   0.460   4.310   1.455
 3823SOL     OW12367   2.832   3.547   5.711
 3823SOL    HW112368   2.883   3.472   5.670
 3823SOL    HW212369   2.881   3.633   5.695
 3824SOL     OW12370   0.247   2.177   6.055
 3824SOL    HW112371   0.342   2.145   6.056
 3824SOL    HW212372   0.244   2.274   6.033
 3825SOL     OW12373   6.584   6.350   5.953
 3825SOL    HW112374   6.535   6.436   5.937
 3825SOL    HW212375   6.612   6.311   5.865
 3826SOL     OW12376   6.909   1.929   1.091
 3826SOL    HW112377   6.988   1.884   1.049
 3826SOL    HW212378   6.825   1.888   1.056
 3827SOL     OW12379   5.775   1.799   1.947
 3827SOL    HW112380   5.715   1.721   1.931
 3827SOL    HW212381   5.775   1.859   1.867
 3828SOL     OW12382   4.342   1.114   1.629
 3828SOL    HW112383   4.329   1.028   1.580
 3828SOL    HW212384   4.348   1.096   1.727
 3829SOL     OW12385   0.772   5.276   3.618
 3829SOL    HW112386   0.685   5.303   3.660
 3829SOL    HW212387   0.802   5.347   3.555
 3830SOL     OW12388   3.171   0.465   5.557
 3830SOL    HW112389   3.072   0.478   5.563
 3830SOL    HW212390   3.215   0.516   5.631
 3831SOL     OW12391   4.752   1.706   2.595
 3831SOL    HW112392   4.676   1.707   2.530
 3831SOL    HW212393   4.812   1.784   2.577
 3832SOL     OW12394   5.687   6.579   2.827
 3832SOL    HW112395   5.623   6.505   2.846
 3832SOL    HW212396   5.658   6.628   2.745
 3833SOL     OW12397   1.596   6.472   2.001
 3833SOL    HW112398   1.555   6.388   2.037
 3833SOL    HW212399   1.556   6.551   2.048
 3834SOL     OW12400   2.620   2.423   0.882
 3834SOL    HW112401   2.635   2.499   0.819
 3834SOL    HW212402   2.665   2.443   0.970
 3835SOL     OW12403   3.560   5.446   3.378
 3835SOL    HW112404   3.502   5.418   3.301
 3835SOL    HW212405   3.509   5.434   3.464
 3836SOL     OW12406   1.806   3.264   5.206
 3836SOL    HW112407   1.755   3.183   5.234
 3836SOL    HW212408   1.771   3.297   5.118
 3837SOL     OW12409   3.237   4.108   0.247
 3837SOL    HW112410   3.333   4.135   0.239
 3837SOL    HW212411   3.232   4.016   0.287
 3838SOL     OW12412   5.950   3.383   4.607
 3838SOL    HW112413   5.898   3.418   4.685
 3838SOL    HW212414   6.047   3.400   4.621
 3839SOL     OW12415   0.717   6.438   6.092
 3839SOL    HW112416   0.617   6.431   6.086
 3839SOL    HW212417   0.746   6.529   6.064
 3840SOL     OW12418   2.650   1.474   3.721
 3840SOL    HW112419   2.640   1.512   3.812
 3840SOL    HW212420   2.671   1.548   3.656
 3841SOL     OW12421   0.711   3.904   4.005
 3841SOL    HW112422   0.801   3.914   4.048
 3841SOL    HW212423   0.649   3.857   4.067
 3842SOL     OW12424   1.583   5.278   0.217
 3842SOL    HW112425   1.657   5.243   0.160
 3842SOL    HW212426   1.496   5.237   0.189
 3843SOL     OW12427   5.986   4.284   0.332
 3843SOL    HW112428   5.914   4.352   0.339
 3843SOL    HW212429   5.958   4.201   0.380
 3844SOL     OW12430   2.601   4.579   5.419
 3844SOL    HW112431   2.653   4.496   5.397
 3844SOL    HW212432   2.641   4.657   5.372
 3845SOL     OW12433   3.399   3.854   4.202
 3845SOL    HW112434   3.373   3.943   4.163
 3845SOL    HW212435   3.498   3.848   4.206
 3846SOL     OW12436   6.879   4.478   4.379
 3846SOL    HW112437   6.973   4.512   4.376
 3846SOL    HW212438   6.844   4.470   4.286
 3847SOL     OW12439   1.012   6.989   1.082
 3847SOL    HW112440   1.013   6.896   1.117
 3847SOL    HW212441   1.017   0.033   1.158
 3848SOL     OW12442   2.957   6.320   1.702
 3848SOL    HW112443   2.862   6.338   1.676
 3848SOL    HW212444   3.002   6.269   1.628
 3849SOL     OW12445   2.409   1.223   5.837
 3849SOL    HW112446   2.355   1.299   5.803
 3849SOL    HW212447   2.482   1.257   5.896
 3850SOL     OW12448   2.065   3.651   1.298
 3850SOL    HW112449   2.067   3.751   1.300
 3850SOL    HW212450   1.973   3.620   1.271
 3851SOL     OW12451   2.451   2.672   1.118
 3851SOL    HW112452   2.429   2.770   1.111
 3851SOL    HW212453   2.367   2.619   1.120
 3852SOL     OW12454   4.543   1.395   5.224
 3852SOL    HW112455   4.530   1.301   5.194
 3852SOL    HW212456   4.455   1.439   5.240
 3853SOL     OW12457   0.787   3.979   1.889
 3853SOL    HW112458   0.864   4.006   1.831
 3853SOL    HW212459   0.740   3.901   1.849
 3854SOL     OW12460   1.712   3.388   4.201
 3854SOL    HW112461   1.661   3.392   4.287
 3854SOL    HW212462   1.674   3.454   4.136
 3855SOL     OW12463   6.832   1.265   5.009
 3855SOL    HW112464   6.743   1.219   5.015
 3855SOL    HW212465   6.833   1.326   4.930
 3856SOL     OW12466   1.786   6.089   6.018
 3856SOL    HW112467   1.843   6.089   5.936
 3856SOL    HW212468   1.700   6.041   6.000
 3857SOL     OW12469   0.813   0.250   6.189
 3857SOL    HW112470   0.897   0.269   6.240
 3857SOL    HW212471   0.759   0.181   6.238
 3858SOL     OW12472   3.145   4.630   6.931
 3858SOL    HW112473   3.208   4.620   7.008
 3858SOL    HW212474   3.138   4.727   6.906
 3859SOL     OW12475   6.162   2.430   2.401
 3859SOL    HW112476   6.194   2.510   2.350
 3859SOL    HW212477   6.064   2.419   2.388
 3860SOL     OW12478   2.254   6.429   4.716
 3860SOL    HW112479   2.191   6.378   4.774
 3860SOL    HW212480   2.343   6.438   4.762
 3861SOL     OW12481   3.803   4.171   0.110
 3861SOL    HW112482   3.866   4.128   0.174
 3861SOL    HW212483   3.826   4.268   0.100
 3862SOL     OW12484   1.028   5.767   5.761
 3862SOL    HW112485   0.973   5.803   5.836
 3862SOL    HW212486   1.114   5.731   5.797
 3863SOL     OW12487   2.814   3.356   0.467
 3863SOL    HW112488   2.854   3.265   0.483
 3863SOL    HW212489   2.835   3.415   0.544
 3864SOL     OW12490   3.350   1.687   0.990
 3864SOL    HW112491   3.331   1.591   0.966
 3864SOL    HW212492   3.282   1.746   0.947
 3865SOL     OW12493   4.389   0.998   2.451
 3865SOL    HW112494   4.291   0.983   2.449
 3865SOL    HW212495   4.436   0.921   2.408
 3866SOL     OW12496   3.475   6.303   6.914
 3866SOL    HW112497   3.469   6.337   7.008
 3866SOL    HW212498   3.566   6.324   6.877
 3867SOL     OW12499   1.543   5.020   3.059
 3867SOL    HW112500   1.597   5.014   2.975
 3867SOL    HW212501   1.539   5.115   3.090
 3868SOL     OW12502   2.103   5.740   2.625
 3868SOL    HW112503   2.107   5.727   2.526
 3868SOL    HW212504   2.144   5.828   2.649
 3869SOL     OW12505   0.480   1.795   3.768
 3869SOL    HW112506   0.430   1.878   3.745
 3869SOL    HW212507   0.435   1.716   3.728
 3870SOL     OW12508   3.511   3.490   0.528
 3870SOL    HW112509   3.601   3.448   0.540
 3870SOL    HW212510   3.496   3.558   0.599
 3871SOL     OW12511   2.885   1.209   5.237
 3871SOL    HW112512   2.827   1.268   5.293
 3871SOL    HW212513   2.855   1.114   5.248
 3872SOL     OW12514   4.286   3.926   1.080
 3872SOL    HW112515   4.299   3.851   1.145
 3872SOL    HW212516   4.221   3.898   1.009
 3873SOL     OW12517   5.536   4.405   2.015
 3873SOL    HW112518   5.458   4.440   1.963
 3873SOL    HW212519   5.527   4.430   2.111
 3874SOL     OW12520   4.720   5.928   5.955
 3874SOL    HW112521   4.808   5.959   5.990
 3874SOL    HW212522   4.733   5.844   5.902
 3875SOL     OW12523   2.559   3.936   0.282
 3875SOL    HW112524   2.619   4.014   0.295
 3875SOL    HW212525   2.594   3.857   0.333
 3876SOL     OW12526   5.858   3.823   2.465
 3876SOL    HW112527   5.912   3.881   2.403
 3876SOL    HW212528   5.766   3.860   2.474
 3877SOL     OW12529   4.831   2.040   2.347
 3877SOL    HW112530   4.750   2.015   2.294
 3877SOL    HW212531   4.913   2.009   2.299
 3878SOL     OW12532   4.899   5.856   4.590
 3878SOL    HW112533   4.955   5.785   4.632
 3878SOL    HW212534   4.901   5.938   4.647
 3879SOL     OW12535   2.924   5.895   0.894
 3879SOL    HW112536   2.946   5.914   0.990
 3879SOL    HW212537   2.828   5.914   0.877
 3880SOL     OW12538   6.397   1.914   4.107
 3880SOL    HW112539   6.494   1.930   4.127
 3880SOL    HW212540   6.361   1.991   4.054
 3881SOL     OW12541   0.472   5.485   6.848
 3881SOL    HW112542   0.561   5.488   6.802
 3881SOL    HW212543   0.418   5.565   6.821
 3882SOL     OW12544   0.275   6.689   6.538
 3882SOL    HW112545   0.292   6.787   6.551
 3882SOL    HW212546   0.259   6.646   6.627
 3883SOL     OW12547   3.550   1.552   6.994
 3883SOL    HW112548   3.534   1.614   6.918
 3883SOL    HW212549   3.504   1.464   6.976
 3884SOL     OW12550   2.167   5.141   5.598
 3884SOL    HW112551   2.113   5.057   5.596
 3884SOL    HW212552   2.224   5.143   5.679
 3885SOL     OW12553   6.713   0.676   4.142
 3885SOL    HW112554   6.654   0.693   4.221
 3885SOL    HW212555   6.772   0.755   4.127
 3886SOL     OW12556   0.309   5.972   4.717
 3886SOL    HW112557   0.216   5.949   4.744
 3886SOL    HW212558   0.308   6.029   4.635
 3887SOL     OW12559   5.595   2.874   4.969
 3887SOL    HW112560   5.648   2.824   5.038
 3887SOL    HW212561   5.626   2.969   4.965
 3888SOL     OW12562   5.427   1.127   2.616
 3888SOL    HW112563   5.407   1.044   2.565
 3888SOL    HW212564   5.408   1.207   2.558
 3889SOL     OW12565   6.438   5.758   6.417
 3889SOL    HW112566   6.413   5.797   6.328
 3889SOL    HW212567   6.441   5.658   6.409
 3890SOL     OW12568   6.389   3.203   3.381
 3890SOL    HW112569   6.322   3.132   3.361
 3890SOL    HW212570   6.423   3.242   3.296
 3891SOL     OW12571   4.425   4.711   6.322
 3891SOL    HW112572   4.389   4.738   6.233
 3891SOL    HW212573   4.485   4.783   6.358
 3892SOL     OW12574   5.628   5.566   3.747
 3892SOL    HW112575   5.590   5.657   3.730
 3892SOL    HW212576   5.553   5.501   3.757
 3893SOL     OW12577   2.974   6.046   4.253
 3893SOL    HW112578   2.932   6.123   4.205
 3893SOL    HW212579   2.917   5.964   4.243
 3894SOL     OW12580   5.862   5.264   6.708
 3894SOL    HW112581   5.904   5.355   6.715
 3894SOL    HW212582   5.891   5.220   6.623
 3895SOL     OW12583   1.689   2.289   6.272
 3895SOL    HW112584   1.751   2.348   6.220
 3895SOL    HW212585   1.710   2.297   6.370
 3896SOL     OW12586   6.610   3.026   0.842
 3896SOL    HW112587   6.659   3.020   0.929
 3896SOL    HW212588   6.515   3.000   0.856
 3897SOL     OW12589   2.927   6.670   3.605
 3897SOL    HW112590   3.022   6.695   3.586
 3897SOL    HW212591   2.873   6.753   3.623
 3898SOL     OW12592   3.254   3.377   4.053
 3898SOL    HW112593   3.171   3.413   4.096
 3898SOL    HW212594   3.269   3.424   3.966
 3899SOL     OW12595   5.140   1.578   6.439
 3899SOL    HW112596   5.057   1.580   6.494
 3899SOL    HW212597   5.139   1.497   6.380
 3900SOL     OW12598   0.865   2.796   3.606
 3900SOL    HW112599   0.769   2.769   3.601
 3900SOL    HW212600   0.882   2.872   3.543
 3901SOL     OW12601   3.412   5.972   5.636
 3901SOL    HW112602   3.425   5.883   5.594
 3901SOL    HW212603   3.476   5.982   5.712
 3902SOL     OW12604   3.807   5.615   3.235
 3902SOL    HW112605   3.756   5.694   3.270
 3902SOL    HW212606   3.810   5.544   3.305
 3903SOL     OW12607   3.631   3.526   6.304
 3903SOL    HW112608   3.583   3.592   6.246
 3903SOL    HW212609   3.729   3.532   6.285
 3904SOL     OW12610   2.282   6.124   0.055
 3904SOL    HW112611   2.209   6.078   0.004
 3904SOL    HW212612   2.244   6.204   0.102
 3905SOL     OW12613   4.680   0.640   5.494
 3905SOL    HW112614   4.691   0.642   5.593
 3905SOL    HW212615   4.640   0.552   5.467
 3906SOL     OW12616   6.637   5.979   4.450
 3906SOL    HW112617   6.675   5.987   4.358
 3906SOL    HW212618   6.605   6.069   4.481
 3907SOL     OW12619   0.557   1.380   4.271
 3907SOL    HW112620   0.483   1.313   4.279
 3907SOL    HW212621   0.531   1.451   4.206
 3908SOL     OW12622   2.190   1.132   4.808
 3908SOL    HW112623   2.122   1.075   4.762
 3908SOL    HW212624   2.256   1.074   4.855
 3909SOL     OW12625   5.822   3.187   2.072
 3909SOL    HW112626   5.864   3.143   2.152
 3909SOL    HW212627   5.727   3.158   2.065
 3910SOL     OW12628   1.988   2.933   1.155
 3910SOL    HW112629   2.040   3.013   1.123
 3910SOL    HW212630   1.932   2.899   1.080
 3911SOL     OW12631   6.734   1.361   1.117
 3911SOL    HW112632   6.740   1.344   1.215
 3911SOL    HW212633   6.770   1.283   1.067
 3912SOL     OW12634   4.996   3.913   0.467
 3912SOL    HW112635   5.087   3.876   0.484
 3912SOL    HW212636   5.002   4.012   0.451
 3913SOL     OW12637   4.169   5.049   1.493
 3913SOL    HW112638   4.133   5.142   1.487
 3913SOL    HW212639   4.164   5.006   1.403
 3914SOL     OW12640   0.565   0.972   0.679
 3914SOL    HW112641   0.583   1.067   0.654
 3914SOL    HW212642   0.467   0.960   0.693
 3915SOL     OW12643   5.666   0.476   4.978
 3915SOL    HW112644   5.649   0.512   5.070
 3915SOL    HW212645   5.579   0.466   4.930
 3916SOL     OW12646   1.958   2.549   2.362
 3916SOL    HW112647   2.024   2.540   2.437
 3916SOL    HW212648   1.962   2.468   2.304
 3917SOL     OW12649   4.459   5.508   2.521
 3917SOL    HW112650   4.493   5.418   2.546
 3917SOL    HW212651   4.472   5.522   2.423
 3918SOL     OW12652   4.068   0.051   1.320
 3918SOL    HW112653   4.056   0.127   1.257
 3918SOL    HW212654   3.978   0.013   1.343
 3919SOL     OW12655   5.241   5.238   3.076
 3919SOL    HW112656   5.278   5.285   3.157
 3919SOL    HW212657   5.151   5.200   3.097
 3920SOL     OW12658   4.592   1.529   6.012
 3920SOL    HW112659   4.503   1.494   6.040
 3920SOL    HW212660   4.622   1.598   6.078
 3921SOL     OW12661   1.417   2.970   6.088
 3921SOL    HW112662   1.456   2.986   6.179
 3921SOL    HW212663   1.451   2.882   6.053
 3922SOL     OW12664   5.672   2.657   4.044
 3922SOL    HW112665   5.687   2.732   4.108
 3922SOL    HW212666   5.575   2.651   4.021
 3923SOL     OW12667   6.023   0.462   0.899
 3923SOL    HW112668   6.032   0.377   0.951
 3923SOL    HW212669   6.103   0.519   0.914
 3924SOL     OW12670   5.303   4.902   3.864
 3924SOL    HW112671   5.281   4.989   3.820
 3924SOL    HW212672   5.222   4.867   3.912
 3925SOL     OW12673   3.559   4.664   1.616
 3925SOL    HW112674   3.596   4.712   1.696
 3925SOL    HW212675   3.620   4.587   1.593
 3926SOL     OW12676   1.445   5.983   5.305
 3926SOL    HW112677   1.535   5.956   5.338
 3926SOL    HW212678   1.403   5.906   5.256
 3927SOL     OW12679   6.038   6.697   5.550
 3927SOL    HW112680   6.113   6.751   5.589
 3927SOL    HW212681   6.058   6.677   5.454
 3928SOL     OW12682   4.809   5.641   2.787
 3928SOL    HW112683   4.867   5.576   2.738
 3928SOL    HW212684   4.715   5.631   2.757
 3929SOL     OW12685   1.566   1.075   5.519
 3929SOL    HW112686   1.631   1.097   5.446
 3929SOL    HW212687   1.475   1.062   5.479
 3930SOL     OW12688   2.381   6.042   4.026
 3930SOL    HW112689   2.346   5.953   4.055
 3930SOL    HW212690   2.465   6.029   3.972
 3931SOL     OW12691   0.144   2.367   0.319
 3931SOL    HW112692   0.216   2.421   0.275
 3931SOL    HW212693   0.130   2.283   0.266
 3932SOL     OW12694   2.069   3.809   2.747
 3932SOL    HW112695   2.116   3.728   2.711
 3932SOL    HW212696   2.101   3.890   2.700
 3933SOL     OW12697   1.585   6.589   1.497
 3933SOL    HW112698   1.544   6.556   1.412
 3933SOL    HW212699   1.567   6.686   1.508
 3934SOL     OW12700   1.778   6.793   2.058
 3934SOL    HW112701   1.794   6.814   1.962
 3934SOL    HW212702   1.828   6.858   2.116
 3935SOL     OW12703   0.803   1.096   4.820
 3935SOL    HW112704   0.852   1.041   4.888
 3935SOL    HW212705   0.826   1.192   4.833
 3936SOL     OW12706   6.325   4.251   3.850
 3936SOL    HW112707   6.421   4.275   3.863
 3936SOL    HW212708   6.300   4.259   3.754
 3937SOL     OW12709   1.269   6.586   0.142
 3937SOL    HW112710   1.361   6.550   0.159
 3937SOL    HW212711   1.243   6.646   0.217
 3938SOL     OW12712   0.467   4.070   6.397
 3938SOL    HW112713   0.459   4.005   6.321
 3938SOL    HW212714   0.533   4.034   6.464
 3939SOL     OW12715   2.421   6.469   4.236
 3939SOL    HW112716   2.406   6.564   4.263
 3939SOL    HW212717   2.453   6.466   4.141
 3940SOL     OW12718   2.402   6.207   6.857
 3940SOL    HW112719   2.346   6.196   6.774
 3940SOL    HW212720   2.356   6.163   6.934
 3941SOL     OW12721   5.833   5.069   2.538
 3941SOL    HW112722   5.828   4.969   2.548
 3941SOL    HW212723   5.803   5.112   2.624
 3942SOL     OW12724   0.115   6.089   6.534
 3942SOL    HW112725   0.182   6.159   6.558
 3942SOL    HW212726   0.028   6.108   6.581
 3943SOL     OW12727   0.770   4.223   0.375
 3943SOL    HW112728   0.670   4.222   0.368
 3943SOL    HW212729   0.802   4.137   0.414
 3944SOL     OW12730   4.738   3.246   0.071
 3944SOL    HW112731   4.800   3.173   0.042
 3944SOL    HW212732   4.791   3.330   0.085
 3945SOL     OW12733   0.080   0.702   3.131
 3945SOL    HW112734   0.008   0.767   3.106
 3945SOL    HW212735   0.041   0.629   3.187
 3946SOL     OW12736   5.992   1.943   1.323
 3946SOL    HW112737   6.059   1.905   1.387
 3946SOL    HW212738   6.007   2.042   1.316
 3947SOL     OW12739   5.623   6.718   1.950
 3947SOL    HW112740   5.610   6.683   1.857
 3947SOL    HW212741   5.644   6.816   1.945
 3948SOL     OW12742   2.073   1.394   4.921
 3948SOL    HW112743   2.105   1.304   4.891
 3948SOL    HW212744   2.139   1.433   4.986
 3949SOL     OW12745   6.386   6.939   2.458
 3949SOL    HW112746   6.306   6.927   2.399
 3949SOL    HW212747   6.369   7.015   2.522
 3950SOL     OW12748   2.623   4.706   1.183
 3950SOL    HW112749   2.703   4.709   1.242
 3950SOL    HW212750   2.643   4.751   1.096
 3951SOL     OW12751   6.731   2.696   3.573
 3951SOL    HW112752   6.712   2.632   3.499
 3951SOL    HW212753   6.781   2.649   3.646
 3952SOL     OW12754   5.986   4.847   6.776
 3952SOL    HW112755   5.999   4.875   6.871
 3952SOL    HW212756   5.966   4.749   6.773
 3953SOL     OW12757   3.573   3.334   5.525
 3953SOL    HW112758   3.649   3.274   5.550
 3953SOL    HW212759   3.608   3.422   5.495
 3954SOL     OW12760   1.206   3.728   5.459
 3954SOL    HW112761   1.163   3.722   5.369
 3954SOL    HW212762   1.141   3.698   5.529
 3955SOL     OW12763   5.806   3.528   0.223
 3955SOL    HW112764   5.779   3.454   0.284
 3955SOL    HW212765   5.902   3.552   0.241
 3956SOL     OW12766   6.711   2.324   4.852
 3956SOL    HW112767   6.778   2.397   4.866
 3956SOL    HW212768   6.619   2.361   4.861
 3957SOL     OW12769   1.420   2.395   1.858
 3957SOL    HW112770   1.442   2.490   1.880
 3957SOL    HW212771   1.324   2.377   1.879
 3958SOL     OW12772   5.804   5.242   1.145
 3958SOL    HW112773   5.730   5.182   1.174
 3958SOL    HW212774   5.879   5.237   1.211
 3959SOL     OW12775   3.000   5.003   1.691
 3959SOL    HW112776   3.006   4.911   1.731
 3959SOL    HW212777   2.904   5.027   1.676
 3960SOL     OW12778   5.966   2.126   0.724
 3960SOL    HW112779   6.010   2.160   0.641
 3960SOL    HW212780   5.894   2.061   0.699
 3961SOL     OW12781   6.794   1.173   0.909
 3961SOL    HW112782   6.755   1.097   0.962
 3961SOL    HW212783   6.734   1.193   0.831
 3962SOL     OW12784   0.283   6.941   6.657
 3962SOL    HW112785   0.351   6.972   6.724
 3962SOL    HW212786   0.253   7.018   6.602
 3963SOL     OW12787   5.305   3.921   4.419
 3963SOL    HW112788   5.246   3.842   4.405
 3963SOL    HW212789   5.346   3.917   4.511
 3964SOL     OW12790   5.810   4.499   0.082
 3964SOL    HW112791   5.749   4.577   0.074
 3964SOL    HW212792   5.890   4.513   0.024
 3965SOL     OW12793   2.512   4.109   1.380
 3965SOL    HW112794   2.580   4.181   1.396
 3965SOL    HW212795   2.557   4.020   1.381
 3966SOL     OW12796   0.092   3.453   5.536
 3966SOL    HW112797   0.010   3.508   5.519
 3966SOL    HW212798   0.174   3.508   5.518
 3967SOL     OW12799   2.628   6.764   0.229
 3967SOL    HW112800   2.572   6.708   0.290
 3967SOL    HW212801   2.578   6.783   0.145
 3968SOL     OW12802   4.663   2.616   0.450
 3968SOL    HW112803   4.755   2.608   0.489
 3968SOL    HW212804   4.596   2.586   0.518
 3969SOL     OW12805   6.088   6.653   0.632
 3969SOL    HW112806   6.104   6.673   0.729
 3969SOL    HW212807   6.170   6.677   0.580
 3970SOL     OW12808   5.844   4.087   4.096
 3970SOL    HW112809   5.802   4.177   4.086
 3970SOL    HW212810   5.942   4.093   4.078
 3971SOL     OW12811   0.701   5.842   4.099
 3971SOL    HW112812   0.622   5.833   4.038
 3971SOL    HW212813   0.750   5.926   4.079
 3972SOL     OW12814   1.048   0.361   6.300
 3972SOL    HW112815   1.110   0.314   6.363
 3972SOL    HW212816   1.101   0.424   6.243
 3973SOL     OW12817   4.140   3.239   2.235
 3973SOL    HW112818   4.054   3.256   2.187
 3973SOL    HW212819   4.189   3.164   2.190
 3974SOL     OW12820   5.028   0.915   6.874
 3974SOL    HW112821   5.091   0.978   6.830
 3974SOL    HW212822   5.076   0.865   6.946
 3975SOL     OW12823   0.150   6.427   4.345
 3975SOL    HW112824   0.110   6.473   4.425
 3975SOL    HW212825   0.078   6.381   4.293
 3976SOL     OW12826   1.070   2.639   5.430
 3976SOL    HW112827   1.033   2.732   5.423
 3976SOL    HW212828   1.076   2.612   5.526
 3977SOL     OW12829   2.961   4.942   5.691
 3977SOL    HW112830   2.989   4.874   5.760
 3977SOL    HW212831   2.862   4.938   5.679
 3978SOL     OW12832   5.050   2.986   6.546
 3978SOL    HW112833   5.119   2.988   6.619
 3978SOL    HW212834   5.074   3.053   6.476
 3979SOL     OW12835   1.313   6.005   3.266
 3979SOL    HW112836   1.348   5.982   3.357
 3979SOL    HW212837   1.287   5.921   3.219
 3980SOL     OW12838   4.836   3.867   4.503
 3980SOL    HW112839   4.843   3.768   4.504
 3980SOL    HW212840   4.867   3.902   4.414
 3981SOL     OW12841   7.003   1.330   6.563
 3981SOL    HW112842   0.064   1.350   6.509
 3981SOL    HW212843   6.926   1.382   6.528
 3982SOL     OW12844   2.049   3.195   4.352
 3982SOL    HW112845   1.956   3.182   4.385
 3982SOL    HW212846   2.096   3.263   4.409
 3983SOL     OW12847   2.867   0.430   3.621
 3983SOL    HW112848   2.850   0.497   3.694
 3983SOL    HW212849   2.909   0.476   3.543
 3984SOL     OW12850   1.292   5.612   2.280
 3984SOL    HW112851   1.367   5.613   2.345
 3984SOL    HW212852   1.323   5.574   2.193
 3985SOL     OW12853   1.412   2.826   1.489
 3985SOL    HW112854   1.421   2.824   1.390
 3985SOL    HW212855   1.457   2.908   1.525
 3986SOL     OW12856   0.016   2.439   2.982
 3986SOL    HW112857   0.006   2.346   3.016
 3986SOL    HW212858   6.994   2.447   2.892
 3987SOL     OW12859   0.726   4.269   5.194
 3987SOL    HW112860   0.647   4.323   5.223
 3987SOL    HW212861   0.712   4.173   5.221
 3988SOL     OW12862   5.464   0.096   1.842
 3988SOL    HW112863   5.423   0.008   1.865
 3988SOL    HW212864   5.426   0.167   1.901
 3989SOL     OW12865   4.638   1.004   5.588
 3989SOL    HW112866   4.597   0.965   5.506
 3989SOL    HW212867   4.649   0.933   5.657
 3990SOL     OW12868   6.126   0.553   4.182
 3990SOL    HW112869   6.081   0.639   4.157
 3990SOL    HW212870   6.077   0.476   4.141
 3991SOL     OW12871   6.446   2.074   3.659
 3991SOL    HW112872   6.505   2.154   3.650
 3991SOL    HW212873   6.415   2.046   3.569
 3992SOL     OW12874   5.884   3.671   5.928
 3992SOL    HW112875   5.978   3.704   5.929
 3992SOL    HW212876   5.830   3.726   5.864
 3993SOL     OW12877   1.587   0.618   4.019
 3993SOL    HW112878   1.545   0.673   4.091
 3993SOL    HW212879   1.678   0.653   3.999
 3994SOL     OW12880   2.648   1.803   3.834
 3994SOL    HW112881   2.745   1.821   3.816
 3994SOL    HW212882   2.639   1.712   3.876
 3995SOL     OW12883   1.343   3.217   1.875
 3995SOL    HW112884   1.260   3.196   1.927
 3995SOL    HW212885   1.423   3.210   1.936
 3996SOL     OW12886   6.764   6.504   4.982
 3996SOL    HW112887   6.744   6.601   4.969
 3996SOL    HW212888   6.802   6.489   5.073
 3997SOL     OW12889   5.729   3.834   4.402
 3997SOL    HW112890   5.680   3.894   4.465
 3997SOL    HW212891   5.816   3.876   4.377
 3998SOL     OW12892   4.514   1.813   3.598
 3998SOL    HW112893   4.508   1.716   3.574
 3998SOL    HW212894   4.608   1.835   3.624
 3999SOL     OW12895   5.185   2.576   0.713
 3999SOL    HW112896   5.225   2.571   0.805
 3999SOL    HW212897   5.153   2.669   0.696
 4000SOL     OW12898   2.003   4.698   2.736
 4000SOL    HW112899   1.996   4.672   2.640
 4000SOL    HW212900   1.986   4.796   2.745
 4001SOL     OW12901   0.696   5.970   4.646
 4001SOL    HW112902   0.614   5.919   4.618
 4001SOL    HW212903   0.671   6.036   4.717
 4002SOL     OW12904   4.114   3.725   4.448
 4002SOL    HW112905   4.089   3.628   4.442
 4002SOL    HW212906   4.186   3.736   4.517
 4003SOL     OW12907   2.678   1.106   4.834
 4003SOL    HW112908   2.743   1.164   4.883
 4003SOL    HW212909   2.689   1.011   4.863
 4004SOL     OW12910   1.960   3.668   4.909
 4004SOL    HW112911   1.989   3.756   4.945
 4004SOL    HW212912   2.037   3.604   4.908
 4005SOL     OW12913   5.738   2.770   0.844
 4005SOL    HW112914   5.746   2.685   0.792
 4005SOL    HW212915   5.737   2.848   0.781
 4006SOL     OW12916   0.277   6.033   1.942
 4006SOL    HW112917   0.211   6.074   1.879
 4006SOL    HW212918   0.348   5.986   1.889
 4007SOL     OW12919   0.447   1.307   1.720
 4007SOL    HW112920   0.514   1.359   1.773
 4007SOL    HW212921   0.380   1.266   1.782
 4008SOL     OW12922   3.926   0.937   1.439
 4008SOL    HW112923   3.989   0.860   1.446
 4008SOL    HW212924   3.842   0.907   1.393
 4009SOL     OW12925   3.734   2.606   1.074
 4009SOL    HW112926   3.803   2.614   1.146
 4009SOL    HW212927   3.679   2.525   1.089
 4010SOL     OW12928   1.773   4.586   0.896
 4010SOL    HW112929   1.824   4.647   0.957
 4010SOL    HW212930   1.681   4.572   0.932
 4011SOL     OW12931   6.444   6.561   5.874
 4011SOL    HW112932   6.472   6.641   5.823
 4011SOL    HW212933   6.382   6.588   5.948
 4012SOL     OW12934   5.567   5.447   2.071
 4012SOL    HW112935   5.592   5.402   1.985
 4012SOL    HW212936   5.485   5.404   2.109
 4013SOL     OW12937   0.154   1.600   0.317
 4013SOL    HW112938   0.228   1.624   0.380
 4013SOL    HW212939   0.187   1.602   0.223
 4014SOL     OW12940   3.493   5.918   2.858
 4014SOL    HW112941   3.450   5.905   2.768
 4014SOL    HW212942   3.424   5.911   2.930
 4015SOL     OW12943   3.733   6.322   5.168
 4015SOL    HW112944   3.755   6.266   5.248
 4015SOL    HW212945   3.796   6.299   5.094
 4016SOL     OW12946   4.997   5.415   4.623
 4016SOL    HW112947   4.969   5.331   4.670
 4016SOL    HW212948   4.962   5.413   4.529
 4017SOL     OW12949   2.253   5.729   6.149
 4017SOL    HW112950   2.185   5.801   6.160
 4017SOL    HW212951   2.218   5.659   6.086
 4018SOL     OW12952   4.460   5.457   1.085
 4018SOL    HW112953   4.540   5.402   1.065
 4018SOL    HW212954   4.405   5.411   1.156
 4019SOL     OW12955   6.972   2.777   2.824
 4019SOL    HW112956   0.034   2.721   2.827
 4019SOL    HW212957   6.916   2.750   2.745
 4020SOL     OW12958   6.800   5.489   4.367
 4020SOL    HW112959   6.768   5.580   4.340
 4020SOL    HW212960   6.854   5.449   4.293
 4021SOL     OW12961   4.589   5.079   6.017
 4021SOL    HW112962   4.666   5.142   6.013
 4021SOL    HW212963   4.617   4.994   6.062
 4022SOL     OW12964   3.385   0.197   1.241
 4022SOL    HW112965   3.457   0.146   1.289
 4022SOL    HW212966   3.314   0.134   1.211
 4023SOL     OW12967   0.364   1.965   4.055
 4023SOL    HW112968   0.395   1.931   4.144
 4023SOL    HW212969   0.383   1.897   3.984
 4024SOL     OW12970   0.476   6.116   6.132
 4024SOL    HW112971   0.567   6.093   6.098
 4024SOL    HW212972   0.418   6.146   6.056
 4025SOL     OW12973   6.639   4.703   4.108
 4025SOL    HW112974   6.542   4.707   4.131
 4025SOL    HW212975   6.692   4.756   4.175
 4026SOL     OW12976   0.363   7.010   4.217
 4026SOL    HW112977   0.381   6.914   4.196
 4026SOL    HW212978   0.371   0.004   4.315
 4027SOL     OW12979   3.001   5.213   5.230
 4027SOL    HW112980   3.007   5.312   5.243
 4027SOL    HW212981   2.912   5.180   5.261
 4028SOL     OW12982   5.414   1.802   4.678
 4028SOL    HW112983   5.488   1.782   4.742
 4028SOL    HW212984   5.356   1.874   4.716
 4029SOL     OW12985   1.299   6.850   0.700
 4029SOL    HW112986   1.288   6.930   0.759
 4029SOL    HW212987   1.302   6.880   0.605
 4030SOL     OW12988   0.393   1.752   2.167
 4030SOL    HW112989   0.444   1.822   2.115
 4030SOL    HW212990   0.334   1.797   2.234
 4031SOL     OW12991   5.899   5.658   0.729
 4031SOL    HW112992   5.866   5.581   0.783
 4031SOL    HW212993   5.982   5.631   0.679
 4032SOL     OW12994   5.340   1.639   2.968
 4032SOL    HW112995   5.262   1.620   2.909
 4032SOL    HW212996   5.413   1.573   2.950
 4033SOL     OW12997   1.598   2.920   3.063
 4033SOL    HW112998   1.557   2.858   3.130
 4033SOL    HW212999   1.691   2.890   3.043
 4034SOL     OW13000   1.440   2.565   4.302
 4034SOL    HW113001   1.450   2.593   4.206
 4034SOL    HW213002   1.503   2.617   4.359
 4035SOL     OW13003   4.334   2.486   1.768
 4035SOL    HW113004   4.290   2.428   1.836
 4035SOL    HW213005   4.279   2.568   1.753
 4036SOL     OW13006   3.958   6.079   3.384
 4036SOL    HW113007   4.049   6.119   3.379
 4036SOL    HW213008   3.966   5.979   3.386
 4037SOL     OW13009   1.944   2.191   6.595
 4037SOL    HW113010   2.012   2.239   6.539
 4037SOL    HW213011   1.858   2.241   6.595
 4038SOL     OW13012   3.534   4.800   5.839
 4038SOL    HW113013   3.618   4.846   5.811
 4038SOL    HW213014   3.470   4.797   5.762
 4039SOL     OW13015   6.011   4.502   2.044
 4039SOL    HW113016   6.000   4.575   1.976
 4039SOL    HW213017   6.020   4.542   2.135
 4040SOL     OW13018   3.389   0.544   5.193
 4040SOL    HW113019   3.434   0.469   5.242
 4040SOL    HW213020   3.458   0.594   5.140
 4041SOL     OW13021   1.237   5.782   1.638
 4041SOL    HW113022   1.328   5.751   1.613
 4041SOL    HW213023   1.195   5.716   1.701
 4042SOL     OW13024   0.114   1.553   3.199
 4042SOL    HW113025   0.150   1.509   3.116
 4042SOL    HW213026   0.135   1.650   3.196
 4043SOL     OW13027   4.503   2.239   6.106
 4043SOL    HW113028   4.461   2.325   6.078
 4043SOL    HW213029   4.595   2.257   6.142
 4044SOL     OW13030   4.483   4.468   3.505
 4044SOL    HW113031   4.455   4.373   3.489
 4044SOL    HW213032   4.503   4.481   3.602
 4045SOL     OW13033   4.730   1.568   5.136
 4045SOL    HW113034   4.680   1.482   5.144
 4045SOL    HW213035   4.767   1.577   5.044
 4046SOL     OW13036   5.029   1.564   4.252
 4046SOL    HW113037   5.122   1.586   4.280
 4046SOL    HW213038   4.968   1.641   4.272
 4047SOL     OW13039   3.422   2.429   6.481
 4047SOL    HW113040   3.414   2.377   6.566
 4047SOL    HW213041   3.491   2.387   6.422
 4048SOL     OW13042   4.942   2.069   3.512
 4048SOL    HW113043   4.922   2.071   3.414
 4048SOL    HW213044   4.904   1.986   3.552
 4049SOL     OW13045   4.292   3.739   1.256
 4049SOL    HW113046   4.240   3.654   1.250
 4049SOL    HW213047   4.303   3.764   1.352
 4050SOL     OW13048   0.061   5.014   2.454
 4050SOL    HW113049   0.090   4.926   2.416
 4050SOL    HW213050   0.109   5.031   2.540
 4051SOL     OW13051   5.449   0.443   4.793
 4051SOL    HW113052   5.360   0.474   4.828
 4051SOL    HW213053   5.500   0.522   4.759
 4052SOL     OW13054   4.919   1.800   4.377
 4052SOL    HW113055   4.965   1.803   4.466
 4052SOL    HW213056   4.938   1.884   4.327
 4053SOL     OW13057   1.026   5.194   3.657
 4053SOL    HW113058   0.937   5.240   3.654
 4053SOL    HW213059   1.017   5.100   3.626
 4054SOL     OW13060   4.629   3.343   1.174
 4054SOL    HW113061   4.672   3.331   1.085
 4054SOL    HW213062   4.608   3.440   1.188
 4055SOL     OW13063   0.011   4.228   0.096
 4055SOL    HW113064   7.010   4.212   0.193
 4055SOL    HW213065   6.953   4.269   0.050
 4056SOL     OW13066   5.198   3.301   6.943
 4056SOL    HW113067   5.117   3.262   6.899
 4056SOL    HW213068   5.278   3.284   6.885
 4057SOL     OW13069   0.112   3.465   6.664
 4057SOL    HW113070   0.053   3.484   6.585
 4057SOL    HW213071   0.195   3.521   6.658
 4058SOL     OW13072   3.444   0.191   4.428
 4058SOL    HW113073   3.446   0.208   4.330
 4058SOL    HW213074   3.417   0.275   4.476
 4059SOL     OW13075   0.625   1.280   3.972
 4059SOL    HW113076   0.534   1.318   3.959
 4059SOL    HW213077   0.664   1.254   3.883
 4060SOL     OW13078   0.273   6.143   4.454
 4060SOL    HW113079   0.335   6.204   4.503
 4060SOL    HW213080   0.228   6.193   4.381
 4061SOL     OW13081   0.651   4.740   1.945
 4061SOL    HW113082   0.629   4.789   2.030
 4061SOL    HW213083   0.591   4.773   1.872
 4062SOL     OW13084   1.926   3.878   0.319
 4062SOL    HW113085   1.989   3.949   0.288
 4062SOL    HW213086   1.855   3.919   0.377
 4063SOL     OW13087   3.856   0.683   0.870
 4063SOL    HW113088   3.927   0.613   0.865
 4063SOL    HW213089   3.889   0.760   0.925
 4064SOL     OW13090   2.224   1.153   6.055
 4064SOL    HW113091   2.278   1.154   5.971
 4064SOL    HW213092   2.275   1.106   6.127
 4065SOL     OW13093   2.482   1.429   1.670
 4065SOL    HW113094   2.502   1.514   1.719
 4065SOL    HW213095   2.392   1.436   1.626
 4066SOL     OW13096   0.449   4.574   4.158
 4066SOL    HW113097   0.394   4.536   4.084
 4066SOL    HW213098   0.510   4.644   4.122
 4067SOL     OW13099   6.631   4.677   0.719
 4067SOL    HW113100   6.616   4.602   0.655
 4067SOL    HW213101   6.729   4.699   0.722
 4068SOL     OW13102   2.223   2.835   5.211
 4068SOL    HW113103   2.284   2.914   5.200
 4068SOL    HW213104   2.224   2.806   5.307
 4069SOL     OW13105   4.771   6.735   5.693
 4069SOL    HW113106   4.860   6.717   5.733
 4069SOL    HW213107   4.705   6.758   5.765
 4070SOL     OW13108   1.403   3.444   4.106
 4070SOL    HW113109   1.345   3.475   4.181
 4070SOL    HW213110   1.471   3.515   4.085
 4071SOL     OW13111   1.696   1.165   4.614
 4071SOL    HW113112   1.657   1.110   4.688
 4071SOL    HW213113   1.695   1.261   4.641
 4072SOL     OW13114   2.908   6.363   2.338
 4072SOL    HW113115   2.940   6.391   2.429
 4072SOL    HW213116   2.879   6.267   2.341
 4073SOL     OW13117   4.059   5.159   0.323
 4073SOL    HW113118   3.985   5.162   0.390
 4073SOL    HW213119   4.078   5.064   0.297
 4074SOL     OW13120   1.398   5.311   2.295
 4074SOL    HW113121   1.398   5.408   2.317
 4074SOL    HW213122   1.488   5.285   2.259
 4075SOL     OW13123   5.941   1.398   0.102
 4075SOL    HW113124   6.025   1.435   0.062
 4075SOL    HW213125   5.931   1.302   0.075
 4076SOL     OW13126   2.287   5.854   3.796
 4076SOL    HW113127   2.262   5.944   3.762
 4076SOL    HW213128   2.311   5.860   3.893
 4077SOL     OW13129   3.349   1.519   1.730
 4077SOL    HW113130   3.317   1.566   1.812
 4077SOL    HW213131   3.321   1.423   1.734
 4078SOL     OW13132   3.939   4.867   2.543
 4078SOL    HW113133   3.983   4.862   2.453
 4078SOL    HW213134   3.840   4.863   2.533
 4079SOL     OW13135   0.083   2.083   4.064
 4079SOL    HW113136   0.177   2.049   4.050
 4079SOL    HW213137   0.018   2.013   4.035
 4080SOL     OW13138   6.947   2.159   4.885
 4080SOL    HW113139   6.852   2.190   4.882
 4080SOL    HW213140   6.954   2.077   4.942
 4081SOL     OW13141   0.799   3.880   3.746
 4081SOL    HW113142   0.743   3.891   3.828
 4081SOL    HW213143   0.890   3.916   3.763
 4082SOL     OW13144   0.763   3.504   6.891
 4082SOL    HW113145   0.724   3.502   6.799
 4082SOL    HW213146   0.761   3.412   6.930
 4083SOL     OW13147   6.655   2.783   5.072
 4083SOL    HW113148   6.748   2.802   5.041
 4083SOL    HW213149   6.641   2.823   5.163
 4084SOL     OW13150   6.210   1.016   4.498
 4084SOL    HW113151   6.209   0.936   4.439
 4084SOL    HW213152   6.136   1.009   4.565
 4085SOL     OW13153   2.645   5.525   0.358
 4085SOL    HW113154   2.593   5.599   0.316
 4085SOL    HW213155   2.633   5.527   0.457
 4086SOL     OW13156   1.422   4.004   1.141
 4086SOL    HW113157   1.342   3.947   1.121
 4086SOL    HW213158   1.448   4.054   1.058
 4087SOL     OW13159   2.389   1.592   2.690
 4087SOL    HW113160   2.312   1.535   2.716
 4087SOL    HW213161   2.394   1.671   2.751
 4088SOL     OW13162   6.811   1.600   0.342
 4088SOL    HW113163   6.718   1.566   0.352
 4088SOL    HW213164   6.873   1.524   0.323
 4089SOL     OW13165   0.927   1.125   5.212
 4089SOL    HW113166   0.836   1.100   5.177
 4089SOL    HW213167   0.993   1.122   5.137
 4090SOL     OW13168   3.378   4.812   6.467
 4090SOL    HW113169   3.375   4.872   6.548
 4090SOL    HW213170   3.457   4.837   6.410
 4091SOL     OW13171   4.513   0.254   1.080
 4091SOL    HW113172   4.485   0.261   1.176
 4091SOL    HW213173   4.449   0.194   1.031
 4092SOL     OW13174   6.715   1.463   4.027
 4092SOL    HW113175   6.651   1.518   3.973
 4092SOL    HW213176   6.808   1.477   3.992
 4093SOL     OW13177   5.356   6.802   4.563
 4093SOL    HW113178   5.269   6.771   4.523
 4093SOL    HW213179   5.424   6.729   4.554
 4094SOL     OW13180   3.363   4.428   5.541
 4094SOL    HW113181   3.317   4.445   5.628
 4094SOL    HW213182   3.334   4.496   5.474
 4095SOL     OW13183   1.806   3.619   5.843
 4095SOL    HW113184   1.852   3.600   5.929
 4095SOL    HW213185   1.874   3.628   5.770
 4096SOL     OW13186   4.632   4.702   2.040
 4096SOL    HW113187   4.705   4.770   2.034
 4096SOL    HW213188   4.648   4.630   1.973
 4097SOL     OW13189   3.867   3.966   3.430
 4097SOL    HW113190   3.837   3.982   3.335
 4097SOL    HW213191   3.938   3.896   3.431
 4098SOL     OW13192   0.725   3.470   2.297
 4098SOL    HW113193   0.635   3.450   2.337
 4098SOL    HW213194   0.794   3.412   2.339
 4099SOL     OW13195   2.477   6.028   2.302
 4099SOL    HW113196   2.382   6.031   2.331
 4099SOL    HW213197   2.518   6.119   2.314
 4100SOL     OW13198   3.715   6.495   3.223
 4100SOL    HW113199   3.639   6.487   3.159
 4100SOL    HW213200   3.683   6.476   3.316
 4101SOL     OW13201   4.534   1.758   0.070
 4101SOL    HW113202   4.546   1.803   0.158
 4101SOL    HW213203   4.607   1.690   0.057
 4102SOL     OW13204   5.035   1.775   0.256
 4102SOL    HW113205   5.114   1.792   0.315
 4102SOL    HW213206   5.026   1.849   0.190
 4103SOL     OW13207   0.610   6.825   2.272
 4103SOL    HW113208   0.644   6.915   2.245
 4103SOL    HW213209   0.617   6.816   2.372
 4104SOL     OW13210   1.949   4.958   2.774
 4104SOL    HW113211   2.043   4.989   2.789
 4104SOL    HW213212   1.923   4.976   2.679
 4105SOL     OW13213   6.119   5.189   0.009
 4105SOL    HW113214   6.218   5.182   0.023
 4105SOL    HW213215   6.092   5.285   0.008
 4106SOL     OW13216   7.001   3.660   4.675
 4106SOL    HW113217   7.008   3.640   4.773
 4106SOL    HW213218   6.974   3.577   4.626
 4107SOL     OW13219   6.858   0.485   0.480
 4107SOL    HW113220   6.836   0.437   0.395
 4107SOL    HW213221   6.877   0.418   0.552
 4108SOL     OW13222   6.438   2.403   4.895
 4108SOL    HW113223   6.416   2.361   4.983
 4108SOL    HW213224   6.355   2.411   4.840
 4109SOL     OW13225   2.954   6.455   3.798
 4109SOL    HW113226   2.904   6.449   3.884
 4109SOL    HW213227   2.922   6.534   3.746
 4110SOL     OW13228   4.626   2.974   5.563
 4110SOL    HW113229   4.651   2.941   5.654
 4110SOL    HW213230   4.676   3.058   5.543
 4111SOL     OW13231   3.889   3.381   6.678
 4111SOL    HW113232   3.833   3.355   6.600
 4111SOL    HW213233   3.959   3.311   6.694
 4112SOL     OW13234   4.098   0.428   4.789
 4112SOL    HW113235   4.075   0.459   4.696
 4112SOL    HW213236   4.025   0.368   4.823
 4113SOL     OW13237   3.736   5.300   5.127
 4113SOL    HW113238   3.830   5.308   5.095
 4113SOL    HW213239   3.730   5.329   5.223
 4114SOL     OW13240   3.863   2.194   2.576
 4114SOL    HW113241   3.887   2.153   2.488
 4114SOL    HW213242   3.930   2.264   2.599
 4115SOL     OW13243   5.464   4.472   2.281
 4115SOL    HW113244   5.431   4.379   2.295
 4115SOL    HW213245   5.462   4.521   2.368
 4116SOL     OW13246   3.363   0.980   2.489
 4116SOL    HW113247   3.319   0.907   2.437
 4116SOL    HW213248   3.367   1.063   2.432
 4117SOL     OW13249   0.650   5.742   1.604
 4117SOL    HW113250   0.731   5.792   1.574
 4117SOL    HW213251   0.578   5.807   1.629
 4118SOL     OW13252   2.443   6.933   0.043
 4118SOL    HW113253   2.499   6.902   6.988
 4118SOL    HW213254   2.449   0.012   0.050
 4119SOL     OW13255   4.790   1.195   3.460
 4119SOL    HW113256   4.786   1.208   3.559
 4119SOL    HW213257   4.740   1.269   3.414
 4120SOL     OW13258   4.829   1.001   1.976
 4120SOL    HW113259   4.834   1.011   1.876
 4120SOL    HW213260   4.737   0.972   2.002
 4121SOL     OW13261   6.741   2.402   4.432
 4121SOL    HW113262   6.643   2.403   4.448
 4121SOL    HW213263   6.786   2.349   4.504
 4122SOL     OW13264   1.674   5.588   7.011
 4122SOL    HW113265   1.714   5.501   6.982
 4122SOL    HW213266   1.590   5.569   0.041
 4123SOL     OW13267   4.270   4.060   6.058
 4123SOL    HW113268   4.354   4.046   6.005
 4123SOL    HW213269   4.192   4.031   6.003
 4124SOL     OW13270   4.245   6.215   3.531
 4124SOL    HW113271   4.210   6.192   3.623
 4124SOL    HW213272   4.344   6.205   3.530
 4125SOL     OW13273   5.135   0.996   1.076
 4125SOL    HW113274   5.162   1.011   1.171
 4125SOL    HW213275   5.181   1.063   1.017
 4126SOL     OW13276   2.156   4.828   4.643
 4126SOL    HW113277   2.254   4.848   4.643
 4126SOL    HW213278   2.116   4.858   4.730
 4127SOL     OW13279   6.303   4.317   4.717
 4127SOL    HW113280   6.356   4.349   4.638
 4127SOL    HW213281   6.302   4.388   4.787
 4128SOL     OW13282   0.793   2.007   2.087
 4128SOL    HW113283   0.811   2.058   2.171
 4128SOL    HW213284   0.878   1.965   2.055
 4129SOL     OW13285   6.466   2.574   6.176
 4129SOL    HW113286   6.558   2.613   6.174
 4129SOL    HW213287   6.453   2.513   6.097
 4130SOL     OW13288   6.816   3.019   1.056
 4130SOL    HW113289   6.833   3.118   1.057
 4130SOL    HW213290   6.900   2.971   1.078
 4131SOL     OW13291   0.199   4.028   3.256
 4131SOL    HW113292   0.178   4.041   3.159
 4131SOL    HW213293   0.156   4.100   3.310
 4132SOL     OW13294   4.976   2.327   5.047
 4132SOL    HW113295   4.884   2.304   5.080
 4132SOL    HW213296   4.978   2.422   5.018
 4133SOL     OW13297   2.201   2.482   1.127
 4133SOL    HW113298   2.135   2.520   1.192
 4133SOL    HW213299   2.166   2.492   1.034
 4134SOL     OW13300   1.918   1.644   0.221
 4134SOL    HW113301   1.957   1.732   0.196
 4134SOL    HW213302   1.940   1.624   0.317
 4135SOL     OW13303   2.095   0.571   1.187
 4135SOL    HW113304   2.103   0.546   1.283
 4135SOL    HW213305   2.017   0.633   1.176
 4136SOL     OW13306   0.920   1.727   3.098
 4136SOL    HW113307   1.016   1.696   3.096
 4136SOL    HW213308   0.868   1.667   3.158
 4137SOL     OW13309   3.752   3.587   5.938
 4137SOL    HW113310   3.812   3.567   6.015
 4137SOL    HW213311   3.657   3.570   5.963
 4138SOL     OW13312   4.417   5.953   2.386
 4138SOL    HW113313   4.418   6.038   2.438
 4138SOL    HW213314   4.509   5.914   2.382
 4139SOL     OW13315   2.469   0.813   0.654
 4139SOL    HW113316   2.440   0.746   0.722
 4139SOL    HW213317   2.548   0.864   0.688
 4140SOL     OW13318   4.383   1.626   5.655
 4140SOL    HW113319   4.425   1.717   5.658
 4140SOL    HW213320   4.313   1.624   5.584
 4141SOL     OW13321   5.171   5.323   0.142
 4141SOL    HW113322   5.200   5.365   0.056
 4141SOL    HW213323   5.089   5.269   0.126
 4142SOL     OW13324   6.015   2.561   1.391
 4142SOL    HW113325   6.038   2.556   1.294
 4142SOL    HW213326   5.964   2.645   1.409
 4143SOL     OW13327   0.560   2.633   1.938
 4143SOL    HW113328   0.650   2.596   1.914
 4143SOL    HW213329   0.500   2.624   1.859
 4144SOL     OW13330   4.385   0.779   1.894
 4144SOL    HW113331   4.353   0.873   1.906
 4144SOL    HW213332   4.463   0.763   1.953
 4145SOL     OW13333   3.055   0.320   2.787
 4145SOL    HW113334   2.977   0.383   2.782
 4145SOL    HW213335   3.135   0.369   2.820
 4146SOL     OW13336   4.996   5.179   0.692
 4146SOL    HW113337   4.982   5.104   0.627
 4146SOL    HW213338   4.996   5.266   0.642
 4147SOL     OW13339   2.667   2.043   6.287
 4147SOL    HW113340   2.748   2.047   6.228
 4147SOL    HW213341   2.586   2.026   6.232
 4148SOL     OW13342   6.958   0.165   2.931
 4148SOL    HW113343   6.939   0.069   2.954
 4148SOL    HW213344   0.006   0.201   2.995
 4149SOL     OW13345   4.774   4.104   1.953
 4149SOL    HW113346   4.780   4.056   1.866
 4149SOL    HW213347   4.702   4.173   1.948
 4150SOL     OW13348   4.792   0.583   5.772
 4150SOL    HW113349   4.834   0.673   5.762
 4150SOL    HW213350   4.863   0.516   5.793
 4151SOL     OW13351   0.261   5.404   0.550
 4151SOL    HW113352   0.330   5.334   0.533
 4151SOL    HW213353   0.278   5.447   0.638
 4152SOL     OW13354   3.247   3.933   1.612
 4152SOL    HW113355   3.163   3.973   1.648
 4152SOL    HW213356   3.264   3.969   1.520
 4153SOL     OW13357   6.144   5.607   5.811
 4153SOL    HW113358   6.226   5.663   5.821
 4153SOL    HW213359   6.063   5.662   5.827
 4154SOL     OW13360   4.240   2.604   5.836
 4154SOL    HW113361   4.301   2.639   5.765
 4154SOL    HW213362   4.237   2.669   5.912
 4155SOL     OW13363   1.437   3.582   0.508
 4155SOL    HW113364   1.498   3.545   0.578
 4155SOL    HW213365   1.455   3.537   0.421
 4156SOL     OW13366   5.766   0.352   5.310
 4156SOL    HW113367   5.800   0.302   5.231
 4156SOL    HW213368   5.728   0.288   5.376
 4157SOL     OW13369   3.579   1.015   3.514
 4157SOL    HW113370   3.618   1.045   3.427
 4157SOL    HW213371   3.526   1.090   3.554
 4158SOL     OW13372   1.019   0.743   3.433
 4158SOL    HW113373   0.927   0.755   3.396
 4158SOL    HW213374   1.057   0.657   3.398
 4159SOL     OW13375   0.675   3.702   5.204
 4159SOL    HW113376   0.649   3.660   5.117
 4159SOL    HW213377   0.711   3.631   5.265
 4160SOL     OW13378   0.944   0.389   1.392
 4160SOL    HW113379   0.869   0.367   1.454
 4160SOL    HW213380   0.912   0.456   1.325
 4161SOL     OW13381   6.238   1.713   0.761
 4161SOL    HW113382   6.282   1.784   0.816
 4161SOL    HW213383   6.271   1.623   0.790
 4162SOL     OW13384   0.414   6.570   5.229
 4162SOL    HW113385   0.499   6.618   5.205
 4162SOL    HW213386   0.379   6.522   5.149
 4163SOL     OW13387   6.371   1.309   5.477
 4163SOL    HW113388   6.423   1.247   5.418
 4163SOL    HW213389   6.273   1.287   5.469
 4164SOL     OW13390   2.820   6.798   6.187
 4164SOL    HW113391   2.834   6.888   6.229
 4164SOL    HW213392   2.739   6.801   6.128
 4165SOL     OW13393   2.651   6.071   2.566
 4165SOL    HW113394   2.633   5.981   2.527
 4165SOL    HW213395   2.573   6.100   2.620
 4166SOL     OW13396   6.368   2.044   1.422
 4166SOL    HW113397   6.287   2.062   1.366
 4166SOL    HW213398   6.361   2.093   1.508
 4167SOL     OW13399   1.694   2.934   1.241
 4167SOL    HW113400   1.596   2.920   1.253
 4167SOL    HW213401   1.745   2.863   1.290
 4168SOL     OW13402   1.740   5.355   1.407
 4168SOL    HW113403   1.799   5.277   1.431
 4168SOL    HW213404   1.644   5.328   1.415
 4169SOL     OW13405   6.125   3.661   5.586
 4169SOL    HW113406   6.128   3.613   5.498
 4169SOL    HW213407   6.175   3.608   5.654
 4170SOL     OW13408   3.872   1.228   4.907
 4170SOL    HW113409   3.831   1.159   4.967
 4170SOL    HW213410   3.944   1.186   4.853
 4171SOL     OW13411   5.864   3.379   1.510
 4171SOL    HW113412   5.846   3.295   1.459
 4171SOL    HW213413   5.912   3.357   1.595
 4172SOL     OW13414   2.646   0.632   0.235
 4172SOL    HW113415   2.555   0.656   0.201
 4172SOL    HW213416   2.704   0.714   0.235
 4173SOL     OW13417   4.993   3.326   6.022
 4173SOL    HW113418   5.092   3.325   6.009
 4173SOL    HW213419   4.951   3.392   5.959
 4174SOL     OW13420   5.589   0.857   4.149
 4174SOL    HW113421   5.590   0.950   4.113
 4174SOL    HW213422   5.499   0.836   4.185
 4175SOL     OW13423   2.726   1.504   2.911
 4175SOL    HW113424   2.690   1.551   2.992
 4175SOL    HW213425   2.695   1.409   2.911
 4176SOL     OW13426   5.698   4.401   2.582
 4176SOL    HW113427   5.647   4.315   2.587
 4176SOL    HW213428   5.674   4.459   2.660
 4177SOL     OW13429   6.121   5.105   3.560
 4177SOL    HW113430   6.111   5.057   3.473
 4177SOL    HW213431   6.034   5.147   3.586
 4178SOL     OW13432   3.919   2.682   5.613
 4178SOL    HW113433   3.842   2.746   5.608
 4178SOL    HW213434   3.983   2.701   5.539
 4179SOL     OW13435   6.614   2.430   6.962
 4179SOL    HW113436   6.632   2.524   6.934
 4179SOL    HW213437   6.549   2.388   6.898
 4180SOL     OW13438   4.639   3.379   1.637
 4180SOL    HW113439   4.547   3.344   1.654
 4180SOL    HW213440   4.707   3.313   1.670
 4181SOL     OW13441   6.631   0.628   0.408
 4181SOL    HW113442   6.723   0.601   0.437
 4181SOL    HW213443   6.624   0.620   0.308
 4182SOL     OW13444   5.411   0.890   3.811
 4182SOL    HW113445   5.422   0.877   3.909
 4182SOL    HW213446   5.315   0.912   3.790
 4183SOL     OW13447   2.284   1.117   1.648
 4183SOL    HW113448   2.367   1.164   1.617
 4183SOL    HW213449   2.223   1.102   1.570
 4184SOL     OW13450   4.513   4.873   6.763
 4184SOL    HW113451   4.519   4.826   6.852
 4184SOL    HW213452   4.498   4.970   6.778
 4185SOL     OW13453   0.073   0.336   3.599
 4185SOL    HW113454   0.126   0.255   3.626
 4185SOL    HW213455   0.052   0.391   3.679
 4186SOL     OW13456   3.776   4.242   1.799
 4186SOL    HW113457   3.678   4.262   1.793
 4186SOL    HW213458   3.789   4.145   1.821
 4187SOL     OW13459   3.947   5.226   6.838
 4187SOL    HW113460   3.890   5.308   6.832
 4187SOL    HW213461   4.019   5.241   6.907
 4188SOL     OW13462   5.381   6.306   3.963
 4188SOL    HW113463   5.318   6.368   3.917
 4188SOL    HW213464   5.458   6.357   4.000
 4189SOL     OW13465   1.518   3.751   3.386
 4189SOL    HW113466   1.571   3.670   3.360
 4189SOL    HW213467   1.541   3.777   3.480
 4190SOL     OW13468   2.601   0.355   1.305
 4190SOL    HW113469   2.509   0.361   1.345
 4190SOL    HW213470   2.656   0.432   1.337
 4191SOL     OW13471   0.653   2.361   2.381
 4191SOL    HW113472   0.682   2.439   2.437
 4191SOL    HW213473   0.725   2.339   2.315
 4192SOL     OW13474   5.458   0.523   3.045
 4192SOL    HW113475   5.446   0.429   3.076
 4192SOL    HW213476   5.412   0.535   2.957
 4193SOL     OW13477   1.911   6.523   3.095
 4193SOL    HW113478   1.988   6.467   3.064
 4193SOL    HW213479   1.825   6.477   3.075
 4194SOL     OW13480   5.656   0.479   3.430
 4194SOL    HW113481   5.665   0.476   3.530
 4194SOL    HW213482   5.711   0.554   3.394
 4195SOL     OW13483   5.080   0.957   3.644
 4195SOL    HW113484   5.106   1.053   3.650
 4195SOL    HW213485   4.996   0.942   3.698
 4196SOL     OW13486   4.838   2.696   3.431
 4196SOL    HW113487   4.757   2.648   3.467
 4196SOL    HW213488   4.889   2.634   3.372
 4197SOL     OW13489   5.303   3.983   4.907
 4197SOL    HW113490   5.264   3.996   4.998
 4197SOL    HW213491   5.234   4.005   4.838
 4198SOL     OW13492   6.531   3.919   6.148
 4198SOL    HW113493   6.470   3.843   6.125
 4198SOL    HW213494   6.622   3.884   6.171
 4199SOL     OW13495   3.123   4.045   5.924
 4199SOL    HW113496   3.091   3.975   5.988
 4199SOL    HW213497   3.115   4.135   5.968
 4200SOL     OW13498   2.833   0.437   6.867
 4200SOL    HW113499   2.854   0.342   6.844
 4200SOL    HW213500   2.858   0.496   6.790
 4201SOL     OW13501   5.936   6.598   4.779
 4201SOL    HW113502   5.977   6.507   4.775
 4201SOL    HW213503   5.921   6.631   4.686
 4202SOL     OW13504   5.402   3.549   5.585
 4202SOL    HW113505   5.404   3.643   5.553
 4202SOL    HW213506   5.316   3.531   5.633
 4203SOL     OW13507   4.374   5.534   4.289
 4203SOL    HW113508   4.370   5.632   4.308
 4203SOL    HW213509   4.467   5.501   4.305
 4204SOL     OW13510   1.726   3.973   0.481
 4204SOL    HW113511   1.645   3.946   0.534
 4204SOL    HW213512   1.758   4.062   0.513
 4205SOL     OW13513   2.485   6.112   3.107
 4205SOL    HW113514   2.488   6.182   3.035
 4205SOL    HW213515   2.459   6.155   3.194
 4206SOL     OW13516   5.216   6.216   4.536
 4206SOL    HW113517   5.301   6.268   4.530
 4206SOL    HW213518   5.153   6.246   4.464
 4207SOL     OW13519   0.908   0.025   0.198
 4207SOL    HW113520   0.896   6.999   0.110
 4207SOL    HW213521   0.819   0.034   0.243
 4208SOL     OW13522   0.477   2.911   1.017
 4208SOL    HW113523   0.500   2.884   1.111
 4208SOL    HW213524   0.536   2.985   0.988
 4209SOL     OW13525   3.233   0.226   5.375
 4209SOL    HW113526   3.315   0.249   5.323
 4209SOL    HW213527   3.217   0.296   5.444
 4210SOL     OW13528   3.912   2.734   0.203
 4210SOL    HW113529   3.950   2.643   0.223
 4210SOL    HW213530   3.871   2.772   0.285
 4211SOL     OW13531   5.310   3.577   4.700
 4211SOL    HW113532   5.397   3.622   4.682
 4211SOL    HW213533   5.315   3.481   4.674
 4212SOL     OW13534   6.215   6.621   2.239
 4212SOL    HW113535   6.285   6.619   2.311
 4212SOL    HW213536   6.258   6.633   2.150
 4213SOL     OW13537   0.713   6.940   1.219
 4213SOL    HW113538   0.674   6.850   1.198
 4213SOL    HW213539   0.787   6.929   1.285
 4214SOL     OW13540   2.917   5.551   4.851
 4214SOL    HW113541   2.914   5.455   4.877
 4214SOL    HW213542   2.826   5.581   4.822
 4215SOL     OW13543   1.212   5.963   5.976
 4215SOL    HW113544   1.225   5.943   5.879
 4215SOL    HW213545   1.207   6.062   5.989
 4216SOL     OW13546   2.734   2.986   5.442
 4216SOL    HW113547   2.678   2.997   5.359
 4216SOL    HW213548   2.789   2.903   5.433
 4217SOL     OW13549   6.906   1.102   3.877
 4217SOL    HW113550   6.885   1.078   3.782
 4217SOL    HW213551   6.953   1.190   3.880
 4218SOL     OW13552   3.393   5.837   2.616
 4218SOL    HW113553   3.348   5.749   2.602
 4218SOL    HW213554   3.452   5.857   2.538
 4219SOL     OW13555   5.462   0.004   2.852
 4219SOL    HW113556   5.490   6.942   2.899
 4219SOL    HW213557   5.373   0.034   2.887
 4220SOL     OW13558   0.361   4.290   3.572
 4220SOL    HW113559   0.444   4.278   3.517
 4220SOL    HW213560   0.340   4.205   3.619
 4221SOL     OW13561   5.425   6.404   5.850
 4221SOL    HW113562   5.335   6.440   5.875
 4221SOL    HW213563   5.419   6.304   5.841
 4222SOL     OW13564   2.887   3.108   0.484
 4222SOL    HW113565   2.924   3.041   0.548
 4222SOL    HW213566   2.870   3.065   0.396
 4223SOL     OW13567   2.885   3.703   2.351
 4223SOL    HW113568   2.914   3.636   2.418
 4223SOL    HW213569   2.786   3.717   2.357
 4224SOL     OW13570   4.075   1.768   5.693
 4224SOL    HW113571   4.000   1.808   5.745
 4224SOL    HW213572   4.158   1.823   5.706
 4225SOL     OW13573   4.584   0.361   4.115
 4225SOL    HW113574   4.557   0.291   4.048
 4225SOL    HW213575   4.684   0.361   4.123
 4226SOL     OW13576   1.741   1.761   2.482
 4226SOL    HW113577   1.841   1.762   2.480
 4226SOL    HW213578   1.709   1.838   2.536
 4227SOL     OW13579   5.345   4.246   6.709
 4227SOL    HW113580   5.255   4.287   6.727
 4227SOL    HW213581   5.381   4.281   6.623
 4228SOL     OW13582   4.971   4.678   3.048
 4228SOL    HW113583   4.884   4.687   3.096
 4228SOL    HW213584   5.017   4.594   3.079
 4229SOL     OW13585   4.431   4.909   5.240
 4229SOL    HW113586   4.375   4.885   5.161
 4229SOL    HW213587   4.425   4.837   5.309
 4230SOL     OW13588   2.948   0.909   6.131
 4230SOL    HW113589   2.911   0.975   6.196
 4230SOL    HW213590   2.973   0.824   6.178
 4231SOL     OW13591   3.814   6.228   6.293
 4231SOL    HW113592   3.837   6.320   6.263
 4231SOL    HW213593   3.890   6.166   6.275
 4232SOL     OW13594   2.220   4.170   1.469
 4232SOL    HW113595   2.188   4.249   1.523
 4232SOL    HW213596   2.316   4.183   1.444
 4233SOL     OW13597   5.713   5.808   1.089
 4233SOL    HW113598   5.756   5.723   1.121
 4233SOL    HW213599   5.766   5.847   1.014
 4234SOL     OW13600   3.832   3.191   5.666
 4234SOL    HW113601   3.843   3.278   5.713
 4234SOL    HW213602   3.922   3.149   5.652
 4235SOL     OW13603   0.337   4.129   4.937
 4235SOL    HW113604   0.421   4.185   4.936
 4235SOL    HW213605   0.257   4.189   4.929
 4236SOL     OW13606   0.581   3.606   4.964
 4236SOL    HW113607   0.624   3.639   4.880
 4236SOL    HW213608   0.506   3.543   4.941
 4237SOL     OW13609   6.556   4.006   5.142
 4237SOL    HW113610   6.465   4.032   5.176
 4237SOL    HW213611   6.599   4.086   5.100
 4238SOL     OW13612   4.955   4.721   4.524
 4238SOL    HW113613   4.969   4.703   4.426
 4238SOL    HW213614   5.017   4.665   4.578
 4239SOL     OW13615   5.050   5.791   5.136
 4239SOL    HW113616   5.127   5.739   5.175
 4239SOL    HW213617   5.076   5.827   5.047
 4240SOL     OW13618   2.442   4.852   6.688
 4240SOL    HW113619   2.401   4.919   6.627
 4240SOL    HW213620   2.417   4.874   6.783
 4241SOL     OW13621   3.985   2.178   1.026
 4241SOL    HW113622   3.963   2.211   1.119
 4241SOL    HW213623   3.903   2.140   0.984
 4242SOL     OW13624   2.247   0.497   2.196
 4242SOL    HW113625   2.232   0.499   2.097
 4242SOL    HW213626   2.189   0.566   2.239
 4243SOL     OW13627   1.347   3.143   2.839
 4243SOL    HW113628   1.319   3.071   2.776
 4243SOL    HW213629   1.412   3.106   2.906
 4244SOL     OW13630   3.103   0.706   0.832
 4244SOL    HW113631   3.090   0.803   0.811
 4244SOL    HW213632   3.191   0.694   0.878
 4245SOL     OW13633   0.101   1.847   0.929
 4245SOL    HW113634   0.179   1.873   0.985
 4245SOL    HW213635   0.122   1.763   0.879
 4246SOL     OW13636   4.741   2.853   4.030
 4246SOL    HW113637   4.713   2.876   4.123
 4246SOL    HW213638   4.805   2.922   3.996
 4247SOL     OW13639   2.094   5.261   0.263
 4247SOL    HW113640   2.165   5.195   0.287
 4247SOL    HW213641   2.091   5.271   0.163
 4248SOL     OW13642   2.321   0.438   3.271
 4248SOL    HW113643   2.417   0.447   3.244
 4248SOL    HW213644   2.280   0.529   3.277
 4249SOL     OW13645   5.691   0.773   5.666
 4249SOL    HW113646   5.660   0.854   5.616
 4249SOL    HW213647   5.709   0.798   5.762
 4250SOL     OW13648   0.589   5.235   4.952
 4250SOL    HW113649   0.545   5.316   4.912
 4250SOL    HW213650   0.554   5.153   4.908
 4251SOL     OW13651   4.499   2.309   5.705
 4251SOL    HW113652   4.481   2.306   5.804
 4251SOL    HW213653   4.564   2.383   5.685
 4252SOL     OW13654   0.079   0.283   6.576
 4252SOL    HW113655   0.073   0.380   6.552
 4252SOL    HW213656   0.031   0.267   6.662
 4253SOL     OW13657   4.045   6.578   2.790
 4253SOL    HW113658   3.945   6.573   2.797
 4253SOL    HW213659   4.086   6.516   2.857
 4254SOL     OW13660   1.205   2.316   5.439
 4254SOL    HW113661   1.136   2.333   5.369
 4254SOL    HW213662   1.211   2.218   5.457
 4255SOL     OW13663   0.764   2.752   3.118
 4255SOL    HW113664   0.734   2.669   3.166
 4255SOL    HW213665   0.843   2.791   3.165
 4256SOL     OW13666   6.002   6.125   0.781
 4256SOL    HW113667   6.040   6.217   0.790
 4256SOL    HW213668   6.052   6.075   0.710
 4257SOL     OW13669   6.768   0.723   2.878
 4257SOL    HW113670   6.848   0.782   2.874
 4257SOL    HW213671   6.795   0.632   2.909
 4258SOL     OW13672   3.173   6.005   0.843
 4258SOL    HW113673   3.192   6.093   0.887
 4258SOL    HW213674   3.079   5.977   0.862
 4259SOL     OW13675   0.655   6.507   0.207
 4259SOL    HW113676   0.741   6.491   0.257
 4259SOL    HW213677   0.660   6.595   0.160
 4260SOL     OW13678   6.332   0.014   5.078
 4260SOL    HW113679   6.405   0.078   5.104
 4260SOL    HW213680   6.276   0.055   5.006
 4261SOL     OW13681   2.722   6.585   3.127
 4261SOL    HW113682   2.629   6.571   3.093
 4261SOL    HW213683   2.726   6.558   3.224
 4262SOL     OW13684   1.646   4.379   4.898
 4262SOL    HW113685   1.743   4.393   4.878
 4262SOL    HW213686   1.624   4.419   4.987
 4263SOL     OW13687   3.185   1.602   2.534
 4263SOL    HW113688   3.222   1.685   2.577
 4263SOL    HW213689   3.101   1.626   2.484
 4264SOL     OW13690   4.861   1.822   6.628
 4264SOL    HW113691   4.779   1.830   6.572
 4264SOL    HW213692   4.865   1.899   6.693
 4265SOL     OW13693   3.308   6.307   6.690
 4265SOL    HW113694   3.324   6.386   6.630
 4265SOL    HW213695   3.359   6.319   6.775
 4266SOL     OW13696   1.178   4.843   1.760
 4266SOL    HW113697   1.115   4.847   1.837
 4266SOL    HW213698   1.171   4.754   1.715
 4267SOL     OW13699   1.265   4.029   4.043
 4267SOL    HW113700   1.228   3.978   4.121
 4267SOL    HW213701   1.195   4.090   4.007
 4268SOL     OW13702   1.464   4.138   6.042
 4268SOL    HW113703   1.477   4.039   6.036
 4268SOL    HW213704   1.540   4.184   5.996
 4269SOL     OW13705   2.815   1.482   4.123
 4269SOL    HW113706   2.783   1.425   4.198
 4269SOL    HW213707   2.841   1.424   4.046
 4270SOL     OW13708   4.150   4.061   0.724
 4270SOL    HW113709   4.071   4.123   0.731
 4270SOL    HW213710   4.141   3.989   0.792
 4271SOL     OW13711   6.530   0.504   0.627
 4271SOL    HW113712   6.437   0.473   0.610
 4271SOL    HW213713   6.562   0.557   0.548
 4272SOL     OW13714   6.944   1.951   5.041
 4272SOL    HW113715   6.971   1.864   5.082
 4272SOL    HW213716   6.844   1.959   5.041
 4273SOL     OW13717   3.493   5.801   3.584
 4273SOL    HW113718   3.556   5.732   3.548
 4273SOL    HW213719   3.403   5.760   3.598
 4274SOL     OW13720   0.366   1.168   1.245
 4274SOL    HW113721   0.318   1.086   1.277
 4274SOL    HW213722   0.371   1.235   1.318
 4275SOL     OW13723   6.818   2.085   3.820
 4275SOL    HW113724   6.877   2.161   3.793
 4275SOL    HW213725   6.729   2.119   3.848
 4276SOL     OW13726   1.118   6.561   2.613
 4276SOL    HW113727   1.212   6.555   2.647
 4276SOL    HW213728   1.075   6.644   2.648
 4277SOL     OW13729   6.178   5.459   2.724
 4277SOL    HW113730   6.224   5.427   2.641
 4277SOL    HW213731   6.185   5.558   2.730
 4278SOL     OW13732   0.413   6.998   1.041
 4278SOL    HW113733   0.502   0.022   1.034
 4278SOL    HW213734   0.354   0.007   0.966
 4279SOL     OW13735   0.810   3.068   3.014
 4279SOL    HW113736   0.793   2.988   3.072
 4279SOL    HW213737   0.888   3.051   2.954
 4280SOL     OW13738   2.817   6.311   6.974
 4280SOL    HW113739   2.903   6.329   6.926
 4280SOL    HW213740   2.744   6.298   6.907
 4281SOL     OW13741   6.788   6.167   2.646
 4281SOL    HW113742   6.842   6.251   2.653
 4281SOL    HW213743   6.848   6.090   2.628
 4282SOL     OW13744   5.495   4.975   1.730
 4282SOL    HW113745   5.520   5.018   1.816
 4282SOL    HW213746   5.411   4.923   1.741
 4283SOL     OW13747   5.902   1.429   4.442
 4283SOL    HW113748   5.997   1.407   4.420
 4283SOL    HW213749   5.848   1.344   4.445
 4284SOL     OW13750   4.610   6.075   6.614
 4284SOL    HW113751   4.569   6.086   6.523
 4284SOL    HW213752   4.594   5.982   6.646
 4285SOL     OW13753   3.129   1.480   6.468
 4285SOL    HW113754   3.061   1.441   6.530
 4285SOL    HW213755   3.165   1.407   6.410
 4286SOL     OW13756   4.940   6.766   0.037
 4286SOL    HW113757   4.899   6.722   6.978
 4286SOL    HW213758   4.867   6.801   0.097
 4287SOL     OW13759   3.488   1.155   1.291
 4287SOL    HW113760   3.485   1.124   1.386
 4287SOL    HW213761   3.509   1.252   1.288
 4288SOL     OW13762   0.086   6.240   2.572
 4288SOL    HW113763   0.086   6.154   2.522
 4288SOL    HW213764   0.160   6.299   2.539
 4289SOL     OW13765   0.059   4.284   5.568
 4289SOL    HW113766   0.049   4.215   5.639
 4289SOL    HW213767   7.012   4.356   5.581
 4290SOL     OW13768   6.720   1.546   3.383
 4290SOL    HW113769   6.769   1.508   3.304
 4290SOL    HW213770   6.628   1.509   3.386
 4291SOL     OW13771   4.164   4.999   6.927
 4291SOL    HW113772   4.238   4.939   6.957
 4291SOL    HW213773   4.181   5.092   6.959
 4292SOL     OW13774   6.920   0.555   1.136
 4292SOL    HW113775   6.904   0.490   1.210
 4292SOL    HW213776   6.865   0.529   1.056
 4293SOL     OW13777   4.014   3.145   6.752
 4293SOL    HW113778   4.104   3.131   6.710
 4293SOL    HW213779   3.949   3.079   6.714
 4294SOL     OW13780   2.612   1.822   0.235
 4294SOL    HW113781   2.676   1.894   0.264
 4294SOL    HW213782   2.663   1.744   0.200
 4295SOL     OW13783   4.704   6.872   2.582
 4295SOL    HW113784   4.802   6.860   2.567
 4295SOL    HW213785   4.659   6.893   2.495
 4296SOL     OW13786   1.833   5.772   2.651
 4296SOL    HW113787   1.775   5.699   2.687
 4296SOL    HW213788   1.927   5.738   2.643
 4297SOL     OW13789   4.923   5.009   0.485
 4297SOL    HW113790   4.890   5.101   0.462
 4297SOL    HW213791   5.002   4.987   0.427
 4298SOL     OW13792   1.759   0.012   0.495
 4298SOL    HW113793   1.777   7.015   0.592
 4298SOL    HW213794   1.749   6.945   0.447
 4299SOL     OW13795   6.965   3.148   5.904
 4299SOL    HW113796   0.007   3.102   5.967
 4299SOL    HW213797   6.875   3.156   5.947
 4300SOL     OW13798   3.135   0.702   1.971
 4300SOL    HW113799   3.168   0.796   1.965
 4300SOL    HW213800   3.067   0.694   2.043
 4301SOL     OW13801   1.829   6.067   5.211
 4301SOL    HW113802   1.766   6.012   5.156
 4301SOL    HW213803   1.828   6.161   5.178
 4302SOL     OW13804   3.710   5.038   0.364
 4302SOL    HW113805   3.752   4.948   0.374
 4302SOL    HW213806   3.689   5.054   0.267
 4303SOL     OW13807   4.210   5.523   3.774
 4303SOL    HW113808   4.290   5.576   3.744
 4303SOL    HW213809   4.238   5.455   3.842
 4304SOL     OW13810   3.037   4.136   1.797
 4304SOL    HW113811   3.012   4.232   1.812
 4304SOL    HW213812   3.028   4.115   1.699
 4305SOL     OW13813   0.250   6.633   5.741
 4305SOL    HW113814   0.277   6.564   5.808
 4305SOL    HW213815   0.297   6.617   5.654
 4306SOL     OW13816   5.613   3.274   5.233
 4306SOL    HW113817   5.637   3.216   5.312
 4306SOL    HW213818   5.513   3.280   5.227
 4307SOL     OW13819   6.850   1.441   5.233
 4307SOL    HW113820   6.855   1.373   5.159
 4307SOL    HW213821   6.760   1.437   5.276
 4308SOL     OW13822   4.242   5.586   5.781
 4308SOL    HW113823   4.239   5.665   5.842
 4308SOL    HW213824   4.317   5.526   5.808
 4309SOL     OW13825   3.025   1.819   1.145
 4309SOL    HW113826   3.073   1.754   1.205
 4309SOL    HW213827   3.059   1.809   1.052
 4310SOL     OW13828   6.553   2.338   3.617
 4310SOL    HW113829   6.507   2.357   3.704
 4310SOL    HW213830   6.648   2.370   3.622
 4311SOL     OW13831   0.597   6.428   0.906
 4311SOL    HW113832   0.503   6.439   0.874
 4311SOL    HW213833   0.660   6.457   0.834
 4312SOL     OW13834   0.205   3.918   2.360
 4312SOL    HW113835   0.171   3.868   2.440
 4312SOL    HW213836   0.302   3.898   2.348
 4313SOL     OW13837   0.685   3.591   0.585
 4313SOL    HW113838   0.747   3.539   0.525
 4313SOL    HW213839   0.650   3.671   0.536
 4314SOL     OW13840   1.628   1.910   5.840
 4314SOL    HW113841   1.682   1.983   5.798
 4314SOL    HW213842   1.625   1.924   5.939
 4315SOL     OW13843   2.621   2.365   4.959
 4315SOL    HW113844   2.671   2.417   4.890
 4315SOL    HW213845   2.563   2.428   5.012
 4316SOL     OW13846   4.280   5.112   1.991
 4316SOL    HW113847   4.363   5.167   1.990
 4316SOL    HW213848   4.304   5.015   1.979
 4317SOL     OW13849   4.842   0.282   4.147
 4317SOL    HW113850   4.916   0.323   4.094
 4317SOL    HW213851   4.853   0.183   4.149
 4318SOL     OW13852   1.814   6.144   3.816
 4318SOL    HW113853   1.826   6.126   3.913
 4318SOL    HW213854   1.824   6.059   3.764
 4319SOL     OW13855   1.805   4.890   1.686
 4319SOL    HW113856   1.798   4.808   1.743
 4319SOL    HW213857   1.764   4.872   1.597
 4320SOL     OW13858   3.134   0.764   1.559
 4320SOL    HW113859   3.091   0.852   1.575
 4320SOL    HW213860   3.174   0.730   1.645
 4321SOL     OW13861   6.419   5.604   2.860
 4321SOL    HW113862   6.330   5.641   2.888
 4321SOL    HW213863   6.426   5.606   2.761
 4322SOL     OW13864   2.832   2.304   3.819
 4322SOL    HW113865   2.919   2.271   3.857
 4322SOL    HW213866   2.835   2.296   3.720
 4323SOL     OW13867   5.550   4.208   1.628
 4323SOL    HW113868   5.462   4.199   1.675
 4323SOL    HW213869   5.544   4.162   1.540
 4324SOL     OW13870   6.971   4.111   5.790
 4324SOL    HW113871   6.903   4.184   5.802
 4324SOL    HW213872   6.938   4.047   5.721
 4325SOL     OW13873   1.313   0.785   1.237
 4325SOL    HW113874   1.290   0.689   1.218
 4325SOL    HW213875   1.229   0.838   1.248
 4326SOL     OW13876   4.575   2.583   3.463
 4326SOL    HW113877   4.643   2.515   3.436
 4326SOL    HW213878   4.502   2.587   3.395
 4327SOL     OW13879   3.273   6.489   3.923
 4327SOL    HW113880   3.228   6.572   3.889
 4327SOL    HW213881   3.210   6.412   3.916
 4328SOL     OW13882   6.521   0.048   3.022
 4328SOL    HW113883   6.430   0.016   3.046
 4328SOL    HW213884   6.553   0.001   2.940
 4329SOL     OW13885   5.960   4.077   0.518
 4329SOL    HW113886   5.973   4.039   0.610
 4329SOL    HW213887   5.965   4.003   0.451
 4330SOL     OW13888   2.298   5.346   4.915
 4330SOL    HW113889   2.296   5.248   4.936
 4330SOL    HW213890   2.392   5.375   4.899
 4331SOL     OW13891   5.919   1.608   2.342
 4331SOL    HW113892   5.994   1.653   2.294
 4331SOL    HW213893   5.935   1.509   2.344
 4332SOL     OW13894   6.461   5.599   1.398
 4332SOL    HW113895   6.524   5.532   1.439
 4332SOL    HW213896   6.468   5.594   1.298
 4333SOL     OW13897   3.682   2.638   6.469
 4333SOL    HW113898   3.609   2.612   6.533
 4333SOL    HW213899   3.673   2.584   6.385
 4334SOL     OW13900   0.384   2.547   3.964
 4334SOL    HW113901   0.467   2.539   4.019
 4334SOL    HW213902   0.382   2.474   3.896
 4335SOL     OW13903   2.248   3.734   1.815
 4335SOL    HW113904   2.240   3.653   1.873
 4335SOL    HW213905   2.344   3.749   1.791
 4336SOL     OW13906   2.827   5.436   5.764
 4336SOL    HW113907   2.839   5.441   5.863
 4336SOL    HW213908   2.876   5.357   5.728
 4337SOL     OW13909   6.685   4.712   3.820
 4337SOL    HW113910   6.666   4.695   3.917
 4337SOL    HW213911   6.783   4.723   3.807
 4338SOL     OW13912   3.445   2.346   5.876
 4338SOL    HW113913   3.471   2.322   5.783
 4338SOL    HW213914   3.433   2.445   5.883
 4339SOL     OW13915   4.554   4.382   5.469
 4339SOL    HW113916   4.570   4.419   5.377
 4339SOL    HW213917   4.484   4.437   5.515
 4340SOL     OW13918   0.200   3.953   0.651
 4340SOL    HW113919   0.141   3.895   0.594
 4340SOL    HW213920   0.296   3.926   0.638
 4341SOL     OW13921   6.075   5.516   0.901
 4341SOL    HW113922   6.153   5.474   0.854
 4341SOL    HW213923   5.991   5.470   0.873
 4342SOL     OW13924   5.479   3.294   2.404
 4342SOL    HW113925   5.391   3.309   2.358
 4342SOL    HW213926   5.477   3.340   2.493
 4343SOL     OW13927   4.301   0.427   6.705
 4343SOL    HW113928   4.314   0.490   6.629
 4343SOL    HW213929   4.261   0.475   6.782
 4344SOL     OW13930   1.455   4.041   2.139
 4344SOL    HW113931   1.484   3.990   2.220
 4344SOL    HW213932   1.386   3.989   2.089
 4345SOL     OW13933   3.803   3.481   2.645
 4345SOL    HW113934   3.755   3.559   2.604
 4345SOL    HW213935   3.901   3.489   2.629
 4346SOL     OW13936   0.677   3.778   2.503
 4346SOL    HW113937   0.736   3.699   2.516
 4346SOL    HW213938   0.733   3.858   2.481
 4347SOL     OW13939   6.419   5.526   0.320
 4347SOL    HW113940   6.468   5.543   0.406
 4347SOL    HW213941   6.476   5.557   0.243
 4348SOL     OW13942   6.428   4.091   5.968
 4348SOL    HW113943   6.461   4.037   6.045
 4348SOL    HW213944   6.476   4.064   5.885
 4349SOL     OW13945   1.051   4.157   3.962
 4349SOL    HW113946   0.965   4.160   3.911
 4349SOL    HW213947   1.081   4.250   3.983
 4350SOL     OW13948   4.885   0.243   3.792
 4350SOL    HW113949   4.869   0.324   3.735
 4350SOL    HW213950   4.935   0.270   3.874
 4351SOL     OW13951   0.019   5.587   0.983
 4351SOL    HW113952   0.056   5.615   1.071
 4351SOL    HW213953   0.050   5.495   0.961
 4352SOL     OW13954   3.470   4.301   1.728
 4352SOL    HW113955   3.420   4.379   1.767
 4352SOL    HW213956   3.440   4.217   1.772
 4353SOL     OW13957   2.373   3.898   0.533
 4353SOL    HW113958   2.381   3.798   0.535
 4353SOL    HW213959   2.432   3.934   0.461
 4354SOL     OW13960   5.350   5.339   2.174
 4354SOL    HW113961   5.311   5.353   2.265
 4354SOL    HW213962   5.279   5.350   2.105
 4355SOL     OW13963   2.170   5.257   3.037
 4355SOL    HW113964   2.140   5.351   3.051
 4355SOL    HW213965   2.264   5.257   3.003
 4356SOL     OW13966   5.957   2.235   5.595
 4356SOL    HW113967   5.987   2.141   5.581
 4356SOL    HW213968   6.037   2.296   5.589
 4357SOL     OW13969   5.452   5.663   2.534
 4357SOL    HW113970   5.476   5.733   2.466
 4357SOL    HW213971   5.534   5.636   2.585
 4358SOL     OW13972   2.418   0.601   0.803
 4358SOL    HW113973   2.511   0.569   0.789
 4358SOL    HW213974   2.368   0.534   0.859
 4359SOL     OW13975   2.499   2.253   1.322
 4359SOL    HW113976   2.490   2.283   1.227
 4359SOL    HW213977   2.560   2.316   1.371
 4360SOL     OW13978   2.843   6.089   3.754
 4360SOL    HW113979   2.902   6.017   3.791
 4360SOL    HW213980   2.899   6.164   3.719
 4361SOL     OW13981   1.221   1.361   6.837
 4361SOL    HW113982   1.279   1.388   6.760
 4361SOL    HW213983   1.138   1.318   6.803
 4362SOL     OW13984   0.306   5.623   2.384
 4362SOL    HW113985   0.356   5.649   2.466
 4362SOL    HW213986   0.314   5.524   2.369
 4363SOL     OW13987   3.664   0.780   2.045
 4363SOL    HW113988   3.574   0.740   2.026
 4363SOL    HW213989   3.653   0.872   2.081
 4364SOL     OW13990   3.190   4.056   3.139
 4364SOL    HW113991   3.093   4.036   3.150
 4364SOL    HW213992   3.235   4.056   3.228
 4365SOL     OW13993   2.306   1.205   0.477
 4365SOL    HW113994   2.399   1.170   0.487
 4365SOL    HW213995   2.258   1.199   0.565
 4366SOL     OW13996   5.397   5.745   4.977
 4366SOL    HW113997   5.360   5.700   5.059
 4366SOL    HW213998   5.323   5.789   4.926
 4367SOL     OW13999   2.782   6.735   1.952
 4367SOL    HW114000   2.736   6.660   1.904
 4367SOL    HW214001   2.799   6.708   2.046
 4368SOL     OW14002   4.826   3.993   4.241
 4368SOL    HW114003   4.772   4.056   4.297
 4368SOL    HW214004   4.858   4.042   4.159
 4369SOL     OW14005   5.770   4.327   4.003
 4369SOL    HW114006   5.857   4.354   3.963
 4369SOL    HW214007   5.696   4.377   3.959
 4370SOL     OW14008   4.101   5.105   0.878
 4370SOL    HW114009   4.077   5.010   0.856
 4370SOL    HW214010   4.113   5.156   0.792
 4371SOL     OW14011   3.417   1.717   2.933
 4371SOL    HW114012   3.376   1.631   2.963
 4371SOL    HW214013   3.427   1.778   3.012
 4372SOL     OW14014   1.916   4.342   4.865
 4372SOL    HW114015   1.928   4.246   4.889
 4372SOL    HW214016   1.989   4.371   4.802
 4373SOL     OW14017   4.368   0.225   0.232
 4373SOL    HW114018   4.273   0.243   0.205
 4373SOL    HW214019   4.374   0.220   0.332
 4374SOL     OW14020   2.569   6.089   0.441
 4374SOL    HW114021   2.486   6.089   0.498
 4374SOL    HW214022   2.545   6.118   0.348
 4375SOL     OW14023   4.110   1.371   5.457
 4375SOL    HW114024   4.167   1.354   5.537
 4375SOL    HW214025   4.027   1.315   5.462
 4376SOL     OW14026   2.659   5.282   0.215
 4376SOL    HW114027   2.658   5.366   0.269
 4376SOL    HW214028   2.754   5.253   0.201
 4377SOL     OW14029   5.199   5.538   6.653
 4377SOL    HW114030   5.265   5.588   6.598
 4377SOL    HW214031   5.117   5.594   6.666
 4378SOL     OW14032   2.996   5.352   2.079
 4378SOL    HW114033   2.978   5.425   2.145
 4378SOL    HW214034   2.910   5.323   2.038
 4379SOL     OW14035   6.869   6.582   0.523
 4379SOL    HW114036   6.867   6.678   0.497
 4379SOL    HW214037   6.802   6.564   0.595
 4380SOL     OW14038   2.220   5.400   4.160
 4380SOL    HW114039   2.319   5.387   4.155
 4380SOL    HW214040   2.178   5.323   4.207
 4381SOL     OW14041   3.820   5.874   4.664
 4381SOL    HW114042   3.804   5.777   4.685
 4381SOL    HW214043   3.764   5.900   4.585
 4382SOL     OW14044   5.406   4.608   2.571
 4382SOL    HW114045   5.312   4.635   2.592
 4382SOL    HW214046   5.428   4.523   2.619
 4383SOL     OW14047   1.286   1.099   0.805
 4383SOL    HW114048   1.276   1.103   0.705
 4383SOL    HW214049   1.377   1.066   0.828
 4384SOL     OW14050   3.820   0.398   2.141
 4384SOL    HW114051   3.762   0.331   2.188
 4384SOL    HW214052   3.802   0.393   2.043
 4385SOL     OW14053   6.497   2.773   3.284
 4385SOL    HW114054   6.556   2.850   3.307
 4385SOL    HW214055   6.552   2.690   3.277
 4386SOL     OW14056   1.473   4.448   6.926
 4386SOL    HW114057   1.396   4.385   6.937
 4386SOL    HW214058   1.441   4.542   6.937
 4387SOL     OW14059   6.175   1.758   1.507
 4387SOL    HW114060   6.200   1.794   1.597
 4387SOL    HW214061   6.140   1.665   1.517
 4388SOL     OW14062   4.027   1.651   5.437
 4388SOL    HW114063   4.082   1.568   5.428
 4388SOL    HW214064   4.057   1.702   5.518
 4389SOL     OW14065   6.433   2.663   2.494
 4389SOL    HW114066   6.490   2.589   2.530
 4389SOL    HW214067   6.432   2.658   2.394
 4390SOL     OW14068   4.308   3.176   1.046
 4390SOL    HW114069   4.339   3.201   1.137
 4390SOL    HW214070   4.236   3.239   1.016
 4391SOL     OW14071   0.744   6.256   0.079
 4391SOL    HW114072   0.774   6.279   7.008
 4391SOL    HW214073   0.705   6.337   0.123
 4392SOL     OW14074   5.430   4.679   5.059
 4392SOL    HW114075   5.449   4.707   4.965
 4392SOL    HW214076   5.348   4.621   5.060
 4393SOL     OW14077   5.390   6.684   2.791
 4393SOL    HW114078   5.292   6.671   2.796
 4393SOL    HW214079   5.416   6.716   2.699
 4394SOL     OW14080   4.681   0.279   2.057
 4394SOL    HW114081   4.632   0.306   1.974
 4394SOL    HW214082   4.615   0.266   2.131
 4395SOL     OW14083   4.799   2.192   1.396
 4395SOL    HW114084   4.737   2.123   1.434
 4395SOL    HW214085   4.807   2.269   1.460
 4396SOL     OW14086   1.490   1.395   2.925
 4396SOL    HW114087   1.392   1.380   2.911
 4396SOL    HW214088   1.539   1.374   2.841
 4397SOL     OW14089   4.926   0.421   6.521
 4397SOL    HW114090   4.959   0.375   6.438
 4397SOL    HW214091   4.904   0.516   6.499
 4398SOL     OW14092   0.210   5.157   4.699
 4398SOL    HW114093   0.155   5.185   4.621
 4398SOL    HW214094   0.199   5.224   4.773
 4399SOL     OW14095   3.267   0.833   2.757
 4399SOL    HW114096   3.174   0.804   2.781
 4399SOL    HW214097   3.268   0.866   2.663
 4400SOL     OW14098   3.842   5.288   3.008
 4400SOL    HW114099   3.921   5.345   2.986
 4400SOL    HW214100   3.769   5.306   2.942
 4401SOL     OW14101   5.832   5.921   4.716
 4401SOL    HW114102   5.808   5.866   4.796
 4401SOL    HW214103   5.921   5.963   4.730
 4402SOL     OW14104   6.781   6.580   1.955
 4402SOL    HW114105   6.822   6.514   1.893
 4402SOL    HW214106   6.796   6.673   1.921
 4403SOL     OW14107   6.533   1.376   2.314
 4403SOL    HW114108   6.471   1.300   2.332
 4403SOL    HW214109   6.480   1.461   2.307
 4404SOL     OW14110   2.027   4.595   2.492
 4404SOL    HW114111   2.082   4.677   2.476
 4404SOL    HW214112   2.079   4.514   2.464
 4405SOL     OW14113   2.950   3.772   5.989
 4405SOL    HW114114   2.869   3.810   5.944
 4405SOL    HW214115   3.004   3.722   5.921
 4406SOL     OW14116   6.395   2.858   2.274
 4406SOL    HW114117   6.455   2.800   2.219
 4406SOL    HW214118   6.438   2.948   2.287
 4407SOL     OW14119   1.097   0.805   0.134
 4407SOL    HW114120   1.039   0.803   0.216
 4407SOL    HW214121   1.049   0.763   0.058
 4408SOL     OW14122   4.053   6.334   1.367
 4408SOL    HW114123   4.108   6.338   1.450
 4408SOL    HW214124   3.964   6.293   1.387
 4409SOL     OW14125   2.828   1.932   2.629
 4409SOL    HW114126   2.801   1.838   2.650
 4409SOL    HW214127   2.917   1.951   2.672
 4410SOL     OW14128   1.727   5.771   1.443
 4410SOL    HW114129   1.761   5.699   1.503
 4410SOL    HW214130   1.766   5.859   1.470
 4411SOL     OW14131   4.014   3.110   2.475
 4411SOL    HW114132   4.036   3.110   2.572
 4411SOL    HW214133   4.078   3.170   2.426
 4412SOL     OW14134   3.998   1.505   5.773
 4412SOL    HW114135   4.034   1.574   5.711
 4412SOL    HW214136   4.068   1.483   5.842
 4413SOL     OW14137   4.301   5.424   4.044
 4413SOL    HW114138   4.324   5.328   4.033
 4413SOL    HW214139   4.335   5.456   4.133
 4414SOL     OW14140   3.487   4.873   2.273
 4414SOL    HW114141   3.519   4.830   2.189
 4414SOL    HW214142   3.390   4.893   2.266
 4415SOL     OW14143   4.616   1.661   1.443
 4415SOL    HW114144   4.639   1.676   1.347
 4415SOL    HW214145   4.551   1.731   1.473
 4416SOL     OW14146   2.711   2.022   4.516
 4416SOL    HW114147   2.744   2.012   4.422
 4416SOL    HW214148   2.701   2.119   4.538
 4417SOL     OW14149   6.497   6.587   1.442
 4417SOL    HW114150   6.404   6.552   1.452
 4417SOL    HW214151   6.532   6.563   1.351
 4418SOL     OW14152   4.996   1.100   3.217
 4418SOL    HW114153   5.011   1.095   3.315
 4418SOL    HW214154   5.083   1.099   3.169
 4419SOL     OW14155   6.177   5.374   6.007
 4419SOL    HW114156   6.103   5.307   6.002
 4419SOL    HW214157   6.160   5.448   5.941
 4420SOL     OW14158   4.748   1.007   0.450
 4420SOL    HW114159   4.812   0.989   0.525
 4420SOL    HW214160   4.794   0.992   0.363
 4421SOL     OW14161   0.245   1.355   3.042
 4421SOL    HW114162   0.205   1.315   3.125
 4421SOL    HW214163   0.261   1.282   2.975
 4422SOL     OW14164   1.704   4.230   5.919
 4422SOL    HW114165   1.794   4.274   5.915
 4422SOL    HW214166   1.659   4.238   5.830
 4423SOL     OW14167   6.729   1.450   6.031
 4423SOL    HW114168   6.788   1.406   5.963
 4423SOL    HW214169   6.786   1.488   6.105
 4424SOL     OW14170   1.711   5.354   3.951
 4424SOL    HW114171   1.759   5.392   3.872
 4424SOL    HW214172   1.619   5.325   3.923
 4425SOL     OW14173   5.389   4.321   1.161
 4425SOL    HW114174   5.308   4.360   1.117
 4425SOL    HW214175   5.364   4.284   1.251
 4426SOL     OW14176   0.692   0.190   6.880
 4426SOL    HW114177   0.632   0.252   6.830
 4426SOL    HW214178   0.651   0.167   6.968
 4427SOL     OW14179   1.134   5.817   3.760
 4427SOL    HW114180   1.112   5.731   3.713
 4427SOL    HW214181   1.229   5.815   3.790
 4428SOL     OW14182   1.488   6.874   2.987
 4428SOL    HW114183   1.488   6.940   3.063
 4428SOL    HW214184   1.581   6.845   2.968
 4429SOL     OW14185   3.301   0.728   3.485
 4429SOL    HW114186   3.264   0.698   3.397
 4429SOL    HW214187   3.260   0.676   3.559
 4430SOL     OW14188   1.475   1.034   2.090
 4430SOL    HW114189   1.448   0.938   2.083
 4430SOL    HW214190   1.443   1.083   2.009
 4431SOL     OW14191   2.314   2.194   3.465
 4431SOL    HW114192   2.336   2.256   3.389
 4431SOL    HW214193   2.244   2.129   3.435
 4432SOL     OW14194   2.914   3.744   3.956
 4432SOL    HW114195   3.007   3.734   3.991
 4432SOL    HW214196   2.876   3.653   3.935
 4433SOL     OW14197   6.431   0.602   2.753
 4433SOL    HW114198   6.415   0.581   2.849
 4433SOL    HW214199   6.511   0.661   2.745
 4434SOL     OW14200   5.292   2.447   5.201
 4434SOL    HW114201   5.366   2.504   5.237
 4434SOL    HW214202   5.265   2.481   5.111
 4435SOL     OW14203   3.849   3.245   2.115
 4435SOL    HW114204   3.870   3.165   2.171
 4435SOL    HW214205   3.803   3.314   2.170
 4436SOL     OW14206   5.505   0.067   0.242
 4436SOL    HW114207   5.447   0.138   0.202
 4436SOL    HW214208   5.598   0.102   0.253
 4437SOL     OW14209   3.332   0.090   5.591
 4437SOL    HW114210   3.348   0.164   5.655
 4437SOL    HW214211   3.296   0.126   5.505
 4438SOL     OW14212   3.743   3.072   6.647
 4438SOL    HW114213   3.762   2.995   6.587
 4438SOL    HW214214   3.680   3.135   6.602
 4439SOL     OW14215   2.001   4.300   2.910
 4439SOL    HW114216   2.090   4.344   2.923
 4439SOL    HW214217   1.973   4.257   2.996
 4440SOL     OW14218   6.196   1.589   0.334
 4440SOL    HW114219   6.153   1.505   0.368
 4440SOL    HW214220   6.189   1.661   0.403
 4441SOL     OW14221   6.431   0.508   3.761
 4441SOL    HW114222   6.466   0.577   3.825
 4441SOL    HW214223   6.402   0.554   3.676
 4442SOL     OW14224   1.916   5.938   2.207
 4442SOL    HW114225   2.007   5.974   2.187
 4442SOL    HW214226   1.858   6.012   2.241
 4443SOL     OW14227   2.430   1.574   0.689
 4443SOL    HW114228   2.470   1.594   0.778
 4443SOL    HW214229   2.441   1.477   0.669
 4444SOL     OW14230   5.054   1.356   3.092
 4444SOL    HW114231   5.133   1.393   3.139
 4444SOL    HW214232   5.018   1.277   3.142
 4445SOL     OW14233   0.740   1.037   6.337
 4445SOL    HW114234   0.803   0.995   6.271
 4445SOL    HW214235   0.740   1.136   6.324
 4446SOL     OW14236   5.249   4.542   3.834
 4446SOL    HW114237   5.213   4.450   3.848
 4446SOL    HW214238   5.216   4.602   3.907
 4447SOL     OW14239   4.901   3.572   5.304
 4447SOL    HW114240   4.819   3.549   5.253
 4447SOL    HW214241   4.960   3.631   5.249
 4448SOL     OW14242   2.611   3.238   6.512
 4448SOL    HW114243   2.512   3.231   6.525
 4448SOL    HW214244   2.630   3.262   6.417
 4449SOL     OW14245   0.412   1.537   5.715
 4449SOL    HW114246   0.408   1.609   5.784
 4449SOL    HW214247   0.323   1.492   5.708
 4450SOL     OW14248   3.463   3.595   2.509
 4450SOL    HW114249   3.379   3.540   2.506
 4450SOL    HW214250   3.440   3.691   2.496
 4451SOL     OW14251   0.165   4.326   1.044
 4451SOL    HW114252   0.142   4.404   1.102
 4451SOL    HW214253   0.247   4.347   0.991
 4452SOL     OW14254   6.682   3.166   6.047
 4452SOL    HW114255   6.599   3.156   6.102
 4452SOL    HW214256   6.659   3.153   5.950
 4453SOL     OW14257   5.345   0.779   0.840
 4453SOL    HW114258   5.370   0.875   0.834
 4453SOL    HW214259   5.245   0.771   0.843
 4454SOL     OW14260   5.266   2.782   1.502
 4454SOL    HW114261   5.299   2.688   1.513
 4454SOL    HW214262   5.168   2.781   1.486
 4455SOL     OW14263   4.505   2.264   2.840
 4455SOL    HW114264   4.508   2.364   2.852
 4455SOL    HW214265   4.559   2.239   2.760
 4456SOL     OW14266   0.745   5.771   2.298
 4456SOL    HW114267   0.666   5.710   2.300
 4456SOL    HW214268   0.717   5.861   2.265
 4457SOL     OW14269   4.463   2.122   0.135
 4457SOL    HW114270   4.554   2.162   0.144
 4457SOL    HW214271   4.457   2.038   0.189
 4458SOL     OW14272   4.174   1.543   1.028
 4458SOL    HW114273   4.108   1.501   1.091
 4458SOL    HW214274   4.162   1.503   0.937
 4459SOL     OW14275   5.733   6.331   5.427
 4459SOL    HW114276   5.639   6.310   5.456
 4459SOL    HW214277   5.778   6.385   5.499
 4460SOL     OW14278   0.998   1.210   6.695
 4460SOL    HW114279   0.906   1.180   6.671
 4460SOL    HW214280   1.011   1.305   6.664
 4461SOL     OW14281   1.850   0.181   2.557
 4461SOL    HW114282   1.763   0.214   2.594
 4461SOL    HW214283   1.854   0.201   2.459
 4462SOL     OW14284   6.752   4.053   0.529
 4462SOL    HW114285   6.659   4.078   0.504
 4462SOL    HW214286   6.762   4.056   0.628
 4463SOL     OW14287   1.148   4.545   6.670
 4463SOL    HW114288   1.235   4.589   6.649
 4463SOL    HW214289   1.111   4.502   6.588
 4464SOL     OW14290   6.468   2.802   0.184
 4464SOL    HW114291   6.458   2.856   0.268
 4464SOL    HW214292   6.476   2.705   0.208
 4465SOL     OW14293   6.880   5.461   0.644
 4465SOL    HW114294   6.936   5.389   0.603
 4465SOL    HW214295   6.818   5.421   0.711
 4466SOL     OW14296   0.085   3.096   3.203
 4466SOL    HW114297   7.011   3.096   3.170
 4466SOL    HW214298   0.143   3.050   3.137
 4467SOL     OW14299   1.207   0.490   3.354
 4467SOL    HW114300   1.276   0.488   3.282
 4467SOL    HW214301   1.235   0.430   3.429
 4468SOL     OW14302   1.694   2.103   0.664
 4468SOL    HW114303   1.740   2.183   0.627
 4468SOL    HW214304   1.725   2.086   0.757
 4469SOL     OW14305   4.417   0.027   0.589
 4469SOL    HW114306   4.435   0.125   0.596
 4469SOL    HW214307   4.444   7.003   0.675
 4470SOL     OW14308   4.651   4.756   1.397
 4470SOL    HW114309   4.597   4.788   1.475
 4470SOL    HW214310   4.660   4.657   1.401
 4471SOL     OW14311   6.076   2.848   1.613
 4471SOL    HW114312   6.006   2.817   1.678
 4471SOL    HW214313   6.166   2.843   1.657
 4472SOL     OW14314   2.330   5.035   1.373
 4472SOL    HW114315   2.273   4.954   1.390
 4472SOL    HW214316   2.333   5.054   1.275
 4473SOL     OW14317   6.585   0.695   6.811
 4473SOL    HW114318   6.635   0.779   6.834
 4473SOL    HW214319   6.650   0.619   6.803
 4474SOL     OW14320   6.219   0.789   4.362
 4474SOL    HW114321   6.141   0.777   4.300
 4474SOL    HW214322   6.301   0.752   4.320
 4475SOL     OW14323   1.291   3.774   0.390
 4475SOL    HW114324   1.373   3.794   0.337
 4475SOL    HW214325   1.314   3.710   0.464
 4476SOL     OW14326   4.770   6.527   2.957
 4476SOL    HW114327   4.724   6.443   2.932
 4476SOL    HW214328   4.713   6.605   2.932
 4477SOL     OW14329   1.413   2.134   0.658
 4477SOL    HW114330   1.510   2.115   0.647
 4477SOL    HW214331   1.400   2.197   0.734
 4478SOL     OW14332   1.157   5.102   1.417
 4478SOL    HW114333   1.174   5.007   1.390
 4478SOL    HW214334   1.061   5.124   1.401
 4479SOL     OW14335   1.419   0.380   6.191
 4479SOL    HW114336   1.346   0.361   6.125
 4479SOL    HW214337   1.507   0.358   6.151
 4480SOL     OW14338   6.827   4.173   3.514
 4480SOL    HW114339   6.764   4.113   3.563
 4480SOL    HW214340   6.780   4.214   3.436
 4481SOL     OW14341   0.573   0.691   4.034
 4481SOL    HW114342   0.602   0.748   3.957
 4481SOL    HW214343   0.627   0.715   4.115
 4482SOL     OW14344   1.291   4.267   2.908
 4482SOL    HW114345   1.327   4.272   2.815
 4482SOL    HW214346   1.262   4.174   2.928
 4483SOL     OW14347   6.018   3.365   0.805
 4483SOL    HW114348   6.070   3.450   0.796
 4483SOL    HW214349   5.966   3.349   0.722
 4484SOL     OW14350   3.340   3.406   6.359
 4484SOL    HW114351   3.377   3.368   6.443
 4484SOL    HW214352   3.399   3.480   6.326
 4485SOL     OW14353   4.729   0.091   6.305
 4485SOL    HW114354   4.812   0.034   6.303
 4485SOL    HW214355   4.654   0.040   6.347
 4486SOL     OW14356   6.032   3.344   3.932
 4486SOL    HW114357   6.043   3.440   3.960
 4486SOL    HW214358   6.108   3.318   3.872
 4487SOL     OW14359   2.807   2.918   5.796
 4487SOL    HW114360   2.723   2.950   5.752
 4487SOL    HW214361   2.863   2.870   5.729
 4488SOL     OW14362   6.804   1.783   6.475
 4488SOL    HW114363   6.789   1.859   6.412
 4488SOL    HW214364   6.721   1.727   6.480
 4489SOL     OW14365   1.081   1.201   2.322
 4489SOL    HW114366   1.075   1.206   2.421
 4489SOL    HW214367   1.132   1.280   2.288
 4490SOL     OW14368   6.590   2.455   4.022
 4490SOL    HW114369   6.630   2.537   3.981
 4490SOL    HW214370   6.580   2.469   4.121
 4491SOL     OW14371   1.915   4.025   2.444
 4491SOL    HW114372   1.905   3.926   2.449
 4491SOL    HW214373   1.886   4.058   2.354
 4492SOL     OW14374   4.716   4.491   6.285
 4492SOL    HW114375   4.742   4.523   6.194
 4492SOL    HW214376   4.745   4.557   6.354
 4493SOL     OW14377   5.907   4.542   3.621
 4493SOL    HW114378   5.944   4.560   3.713
 4493SOL    HW214379   5.853   4.458   3.623
 4494SOL     OW14380   5.975   2.419   2.703
 4494SOL    HW114381   5.913   2.495   2.721
 4494SOL    HW214382   5.922   2.338   2.678
 4495SOL     OW14383   4.792   6.186   1.962
 4495SOL    HW114384   4.816   6.117   2.030
 4495SOL    HW214385   4.816   6.153   1.871
 4496SOL     OW14386   6.121   3.944   5.454
 4496SOL    HW114387   6.176   4.020   5.488
 4496SOL    HW214388   6.100   3.882   5.530
 4497SOL     OW14389   6.336   5.838   0.465
 4497SOL    HW114390   6.322   5.922   0.413
 4497SOL    HW214391   6.423   5.797   0.439
 4498SOL     OW14392   1.137   4.005   6.791
 4498SOL    HW114393   1.189   3.988   6.875
 4498SOL    HW214394   1.154   4.098   6.759
 4499SOL     OW14395   5.116   3.411   0.141
 4499SOL    HW114396   5.027   3.454   0.125
 4499SOL    HW214397   5.149   3.368   0.057
 4500SOL     OW14398   3.795   3.954   2.812
 4500SOL    HW114399   3.731   3.893   2.859
 4500SOL    HW214400   3.889   3.926   2.832
 4501SOL     OW14401   1.467   4.672   4.609
 4501SOL    HW114402   1.463   4.627   4.698
 4501SOL    HW214403   1.417   4.619   4.541
 4502SOL     OW14404   5.678   2.504   0.219
 4502SOL    HW114405   5.604   2.524   0.283
 4502SOL    HW214406   5.662   2.550   0.132
 4503SOL     OW14407   1.382   3.422   2.847
 4503SOL    HW114408   1.366   3.324   2.846
 4503SOL    HW214409   1.314   3.467   2.788
 4504SOL     OW14410   4.622   2.667   4.392
 4504SOL    HW114411   4.600   2.664   4.294
 4504SOL    HW214412   4.584   2.586   4.437
 4505SOL     OW14413   2.040   5.151   0.546
 4505SOL    HW114414   2.129   5.106   0.542
 4505SOL    HW214415   2.016   5.187   0.455
 4506SOL     OW14416   3.773   0.053   5.704
 4506SOL    HW114417   3.681   0.057   5.744
 4506SOL    HW214418   3.790   0.134   5.649
 4507SOL     OW14419   6.564   3.465   2.466
 4507SOL    HW114420   6.524   3.553   2.492
 4507SOL    HW214421   6.564   3.457   2.366
 4508SOL     OW14422   2.084   3.636   0.424
 4508SOL    HW114423   2.123   3.559   0.373
 4508SOL    HW214424   2.026   3.690   0.362
 4509SOL     OW14425   0.206   1.817   3.216
 4509SOL    HW114426   0.190   1.910   3.181
 4509SOL    HW214427   0.277   1.819   3.286
 4510SOL     OW14428   3.161   6.152   6.109
 4510SOL    HW114429   3.236   6.102   6.152
 4510SOL    HW214430   3.196   6.237   6.070
 4511SOL     OW14431   6.959   1.947   0.099
 4511SOL    HW114432   6.876   1.892   0.089
 4511SOL    HW214433   7.010   1.916   0.179
 4512SOL     OW14434   2.324   3.952   6.682
 4512SOL    HW114435   2.337   4.038   6.633
 4512SOL    HW214436   2.353   3.875   6.625
 4513SOL     OW14437   5.965   1.326   2.368
 4513SOL    HW114438   5.945   1.320   2.270
 4513SOL    HW214439   5.921   1.249   2.415
 4514SOL     OW14440   3.244   0.828   5.863
 4514SOL    HW114441   3.321   0.877   5.904
 4514SOL    HW214442   3.209   0.880   5.785
 4515SOL     OW14443   6.474   4.767   0.192
 4515SOL    HW114444   6.516   4.768   0.101
 4515SOL    HW214445   6.446   4.674   0.214
 4516SOL     OW14446   0.725   0.355   3.733
 4516SOL    HW114447   0.752   0.437   3.784
 4516SOL    HW214448   0.794   0.284   3.745
 4517SOL     OW14449   3.319   0.505   7.012
 4517SOL    HW114450   3.223   0.501   0.017
 4517SOL    HW214451   3.349   0.416   6.979
 4518SOL     OW14452   1.615   7.013   3.960
 4518SOL    HW114453   1.522   0.002   3.998
 4518SOL    HW214454   1.610   6.970   3.870
 4519SOL     OW14455   6.336   2.183   5.282
 4519SOL    HW114456   6.295   2.092   5.294
 4519SOL    HW214457   6.268   2.245   5.243
 4520SOL     OW14458   0.180   4.128   2.971
 4520SOL    HW114459   0.277   4.123   2.995
 4520SOL    HW214460   0.157   4.221   2.943
 4521SOL     OW14461   5.149   1.412   6.225
 4521SOL    HW114462   5.134   1.353   6.145
 4521SOL    HW214463   5.180   1.502   6.194
 4522SOL     OW14464   5.807   6.994   3.637
 4522SOL    HW114465   5.744   7.010   3.561
 4522SOL    HW214466   5.813   6.896   3.656
 4523SOL     OW14467   4.902   2.503   5.916
 4523SOL    HW114468   4.878   2.469   6.007
 4523SOL    HW214469   4.833   2.475   5.850
 4524SOL     OW14470   6.178   0.622   5.028
 4524SOL    HW114471   6.233   0.550   5.071
 4524SOL    HW214472   6.238   0.696   4.997
 4525SOL     OW14473   6.388   1.485   4.322
 4525SOL    HW114474   6.437   1.421   4.262
 4525SOL    HW214475   6.327   1.434   4.382
 4526SOL     OW14476   3.314   1.237   1.757
 4526SOL    HW114477   3.317   1.141   1.731
 4526SOL    HW214478   3.219   1.270   1.754
 4527SOL     OW14479   4.412   6.336   4.129
 4527SOL    HW114480   4.373   6.354   4.219
 4527SOL    HW214481   4.456   6.419   4.094
 4528SOL     OW14482   5.271   0.241   5.717
 4528SOL    HW114483   5.236   0.328   5.681
 4528SOL    HW214484   5.196   0.190   5.759
 4529SOL     OW14485   3.724   0.165   3.970
 4529SOL    HW114486   3.733   0.154   3.871
 4529SOL    HW214487   3.789   0.233   4.002
 4530SOL     OW14488   0.398   2.821   4.963
 4530SOL    HW114489   0.348   2.861   4.886
 4530SOL    HW214490   0.450   2.742   4.932
 4531SOL     OW14491   0.533   4.135   3.892
 4531SOL    HW114492   0.571   4.066   3.953
 4531SOL    HW214493   0.496   4.091   3.810
 4532SOL     OW14494   0.526   2.251   0.493
 4532SOL    HW114495   0.545   2.329   0.433
 4532SOL    HW214496   0.518   2.283   0.587
 4533SOL     OW14497   3.169   6.034   2.121
 4533SOL    HW114498   3.113   5.978   2.182
 4533SOL    HW214499   3.180   5.987   2.034
 4534SOL     OW14500   0.126   4.579   5.753
 4534SOL    HW114501   0.050   4.554   5.693
 4534SOL    HW214502   0.091   4.598   5.845
 4535SOL     OW14503   5.233   2.678   3.402
 4535SOL    HW114504   5.285   2.593   3.401
 4535SOL    HW214505   5.296   2.756   3.398
 4536SOL     OW14506   7.009   0.435   3.844
 4536SOL    HW114507   6.912   0.444   3.824
 4536SOL    HW214508   0.001   0.415   3.942
 4537SOL     OW14509   4.681   3.672   6.749
 4537SOL    HW114510   4.592   3.676   6.704
 4537SOL    HW214511   4.699   3.578   6.778
 4538SOL     OW14512   3.576   2.375   1.216
 4538SOL    HW114513   3.491   2.322   1.220
 4538SOL    HW214514   3.650   2.323   1.259
 4539SOL     OW14515   2.443   2.366   2.200
 4539SOL    HW114516   2.442   2.466   2.191
 4539SOL    HW214517   2.536   2.336   2.220
 4540SOL     OW14518   3.384   3.172   5.416
 4540SOL    HW114519   3.378   3.192   5.318
 4540SOL    HW214520   3.443   3.239   5.460
 4541SOL     OW14521   5.903   0.715   1.718
 4541SOL    HW114522   5.961   0.794   1.700
 4541SOL    HW214523   5.900   0.696   1.816
 4542SOL     OW14524   5.226   6.666   3.427
 4542SOL    HW114525   5.286   6.639   3.352
 4542SOL    HW214526   5.227   6.766   3.436
 4543SOL     OW14527   5.813   2.583   2.197
 4543SOL    HW114528   5.721   2.551   2.174
 4543SOL    HW214529   5.863   2.607   2.114
 4544SOL     OW14530   4.741   5.504   6.367
 4544SOL    HW114531   4.798   5.579   6.402
 4544SOL    HW214532   4.793   5.452   6.300
 4545SOL     OW14533   3.752   4.034   6.230
 4545SOL    HW114534   3.670   4.087   6.208
 4545SOL    HW214535   3.825   4.097   6.259
 4546SOL     OW14536   0.540   6.055   0.099
 4546SOL    HW114537   0.481   6.123   0.057
 4546SOL    HW214538   0.631   6.058   0.056
 4547SOL     OW14539   4.845   1.627   2.226
 4547SOL    HW114540   4.874   1.566   2.301
 4547SOL    HW214541   4.827   1.572   2.144
 4548SOL     OW14542   1.161   3.728   3.990
 4548SOL    HW114543   1.090   3.701   3.925
 4548SOL    HW214544   1.197   3.818   3.964
 4549SOL     OW14545   5.529   1.809   2.609
 4549SOL    HW114546   5.450   1.758   2.574
 4549SOL    HW214547   5.553   1.775   2.700
 4550SOL     OW14548   1.990   5.836   4.725
 4550SOL    HW114549   1.938   5.886   4.656
 4550SOL    HW214550   2.082   5.874   4.731
 4551SOL     OW14551   6.542   3.119   0.583
 4551SOL    HW114552   6.582   3.103   0.673
 4551SOL    HW214553   6.609   3.098   0.512
 4552SOL     OW14554   6.831   3.215   4.675
 4552SOL    HW114555   6.906   3.241   4.737
 4552SOL    HW214556   6.857   3.133   4.625
 4553SOL     OW14557   4.904   4.461   6.978
 4553SOL    HW114558   4.948   4.477   0.046
 4553SOL    HW214559   4.949   4.516   6.908
 4554SOL     OW14560   6.310   6.930   3.962
 4554SOL    HW114561   6.217   6.908   3.933
 4554SOL    HW214562   6.368   6.942   3.882
 4555SOL     OW14563   3.838   3.207   6.942
 4555SOL    HW114564   3.746   3.173   6.924
 4555SOL    HW214565   3.894   3.199   6.859
 4556SOL     OW14566   4.563   0.365   4.830
 4556SOL    HW114567   4.551   0.414   4.916
 4556SOL    HW214568   4.660   0.350   4.813
 4557SOL     OW14569   5.101   0.374   4.545
 4557SOL    HW114570   5.130   0.307   4.613
 4557SOL    HW214571   5.015   0.344   4.503
 4558SOL     OW14572   6.406   2.946   5.888
 4558SOL    HW114573   6.466   2.868   5.907
 4558SOL    HW214574   6.353   2.928   5.805
 4559SOL     OW14575   1.009   6.170   1.189
 4559SOL    HW114576   0.958   6.114   1.124
 4559SOL    HW214577   0.949   6.240   1.227
 4560SOL     OW14578   5.770   2.787   2.850
 4560SOL    HW114579   5.739   2.871   2.806
 4560SOL    HW214580   5.862   2.766   2.819
 4561SOL     OW14581   3.631   6.975   6.309
 4561SOL    HW114582   3.564   6.955   6.380
 4561SOL    HW214583   3.709   0.001   6.349
 4562SOL     OW14584   2.580   4.496   5.704
 4562SOL    HW114585   2.568   4.526   5.609
 4562SOL    HW214586   2.508   4.430   5.727
 4563SOL     OW14587   5.878   2.295   6.781
 4563SOL    HW114588   5.954   2.278   6.720
 4563SOL    HW214589   5.792   2.285   6.731
 4564SOL     OW14590   0.806   5.025   0.040
 4564SOL    HW114591   0.864   4.945   0.025
 4564SOL    HW214592   0.859   5.096   0.086
 4565SOL     OW14593   2.874   1.328   3.885
 4565SOL    HW114594   2.784   1.289   3.870
 4565SOL    HW214595   2.916   1.351   3.797
 4566SOL     OW14596   1.558   1.060   0.872
 4566SOL    HW114597   1.625   1.055   0.798
 4566SOL    HW214598   1.605   1.048   0.960
 4567SOL     OW14599   5.572   1.516   1.017
 4567SOL    HW114600   5.485   1.561   1.035
 4567SOL    HW214601   5.562   1.417   1.028
 4568SOL     OW14602   4.039   4.778   4.006
 4568SOL    HW114603   4.029   4.763   3.908
 4568SOL    HW214604   3.972   4.847   4.035
 4569SOL     OW14605   0.465   2.061   2.951
 4569SOL    HW114606   0.382   2.079   2.897
 4569SOL    HW214607   0.507   2.147   2.979
 4570SOL     OW14608   5.349   5.596   4.709
 4570SOL    HW114609   5.365   5.532   4.635
 4570SOL    HW214610   5.374   5.689   4.679
 4571SOL     OW14611   3.527   2.857   3.999
 4571SOL    HW114612   3.500   2.839   4.094
 4571SOL    HW214613   3.615   2.905   3.999
 4572SOL     OW14614   2.093   5.325   1.711
 4572SOL    HW114615   2.121   5.386   1.637
 4572SOL    HW214616   2.162   5.254   1.725
 4573SOL     OW14617   5.045   0.642   0.920
 4573SOL    HW114618   4.994   0.637   1.006
 4573SOL    HW214619   5.132   0.593   0.931
 4574SOL     OW14620   6.967   4.328   1.460
 4574SOL    HW114621   6.889   4.274   1.491
 4574SOL    HW214622   0.029   4.297   1.507
 4575SOL     OW14623   6.609   6.026   1.938
 4575SOL    HW114624   6.577   6.097   2.000
 4575SOL    HW214625   6.538   6.003   1.872
 4576SOL     OW14626   3.352   6.339   4.139
 4576SOL    HW114627   3.437   6.353   4.190
 4576SOL    HW214628   3.352   6.397   4.058
 4577SOL     OW14629   1.635   2.766   4.139
 4577SOL    HW114630   1.620   2.675   4.101
 4577SOL    HW214631   1.597   2.771   4.231
 4578SOL     OW14632   0.060   5.545   4.193
 4578SOL    HW114633   0.114   5.520   4.113
 4578SOL    HW214634   0.116   5.539   4.275
 4579SOL     OW14635   5.477   2.164   4.356
 4579SOL    HW114636   5.418   2.104   4.303
 4579SOL    HW214637   5.482   2.254   4.311
 4580SOL     OW14638   0.254   5.306   0.232
 4580SOL    HW114639   0.280   5.219   0.273
 4580SOL    HW214640   0.156   5.322   0.247
 4581SOL     OW14641   3.204   6.160   4.430
 4581SOL    HW114642   3.198   6.078   4.487
 4581SOL    HW214643   3.126   6.163   4.368
 4582SOL     OW14644   5.090   6.730   3.000
 4582SOL    HW114645   5.127   6.802   3.059
 4582SOL    HW214646   5.018   6.768   2.942
 4583SOL     OW14647   3.909   0.956   5.095
 4583SOL    HW114648   3.949   1.035   5.143
 4583SOL    HW214649   3.814   0.975   5.073
 4584SOL     OW14650   0.969   4.690   5.998
 4584SOL    HW114651   0.893   4.633   5.969
 4584SOL    HW214652   1.047   4.632   6.024
 4585SOL     OW14653   3.233   6.287   2.053
 4585SOL    HW114654   3.149   6.323   2.012
 4585SOL    HW214655   3.212   6.202   2.102
 4586SOL     OW14656   2.716   6.384   1.590
 4586SOL    HW114657   2.751   6.400   1.498
 4586SOL    HW214658   2.626   6.342   1.585
 4587SOL     OW14659   3.320   4.541   0.681
 4587SOL    HW114660   3.393   4.478   0.657
 4587SOL    HW214661   3.358   4.617   0.735
 4588SOL     OW14662   3.485   4.100   5.028
 4588SOL    HW114663   3.412   4.152   5.071
 4588SOL    HW214664   3.455   4.005   5.014
 4589SOL     OW14665   0.984   2.136   2.994
 4589SOL    HW114666   0.914   2.091   3.050
 4589SOL    HW214667   1.060   2.073   2.978
 4590SOL     OW14668   4.170   6.421   2.991
 4590SOL    HW114669   4.250   6.384   3.038
 4590SOL    HW214670   4.089   6.406   3.047
 4591SOL     OW14671   6.083   6.434   5.119
 4591SOL    HW114672   6.090   6.522   5.167
 4591SOL    HW214673   6.167   6.382   5.134
 4592SOL     OW14674   3.546   1.701   6.106
 4592SOL    HW114675   3.460   1.751   6.114
 4592SOL    HW214676   3.564   1.681   6.009
 4593SOL     OW14677   5.053   6.560   1.644
 4593SOL    HW114678   5.092   6.568   1.735
 4593SOL    HW214679   4.968   6.506   1.649
 4594SOL     OW14680   3.984   1.952   2.310
 4594SOL    HW114681   3.890   1.984   2.320
 4594SOL    HW214682   3.996   1.866   2.361
 4595SOL     OW14683   4.834   3.437   5.826
 4595SOL    HW114684   4.835   3.486   5.739
 4595SOL    HW214685   4.808   3.342   5.810
 4596SOL     OW14686   4.984   0.226   2.356
 4596SOL    HW114687   5.059   0.292   2.359
 4596SOL    HW214688   4.967   0.199   2.261
 4597SOL     OW14689   6.410   4.368   5.411
 4597SOL    HW114690   6.393   4.417   5.497
 4597SOL    HW214691   6.407   4.433   5.335
 4598SOL     OW14692   2.944   3.967   0.388
 4598SOL    HW114693   2.987   3.896   0.333
 4598SOL    HW214694   2.846   3.952   0.392
 4599SOL     OW14695   2.929   5.460   0.643
 4599SOL    HW114696   3.026   5.468   0.619
 4599SOL    HW214697   2.900   5.365   0.635
 4600SOL     OW14698   3.336   4.054   1.353
 4600SOL    HW114699   3.280   4.023   1.277
 4600SOL    HW214700   3.427   4.078   1.320
 4601SOL     OW14701   1.732   5.823   4.170
 4601SOL    HW114702   1.730   5.892   4.098
 4601SOL    HW214703   1.704   5.735   4.133
 4602SOL     OW14704   1.827   0.606   1.062
 4602SOL    HW114705   1.751   0.670   1.078
 4602SOL    HW214706   1.858   0.614   0.968
 4603SOL     OW14707   2.873   1.418   2.006
 4603SOL    HW114708   2.925   1.494   1.967
 4603SOL    HW214709   2.776   1.441   2.007
 4604SOL     OW14710   1.598   0.863   2.476
 4604SOL    HW114711   1.684   0.914   2.481
 4604SOL    HW214712   1.524   0.926   2.454
 4605SOL     OW14713   5.147   5.881   5.513
 4605SOL    HW114714   5.086   5.916   5.442
 4605SOL    HW214715   5.117   5.914   5.603
 4606SOL     OW14716   6.856   5.631   4.826
 4606SOL    HW114717   6.867   5.714   4.771
 4606SOL    HW214718   6.770   5.586   4.801
 4607SOL     OW14719   2.329   2.907   1.052
 4607SOL    HW114720   2.277   2.985   1.087
 4607SOL    HW214721   2.375   2.934   0.968
 4608SOL     OW14722   1.552   3.383   5.288
 4608SOL    HW114723   1.627   3.370   5.223
 4608SOL    HW214724   1.540   3.300   5.342
 4609SOL     OW14725   3.273   0.193   0.596
 4609SOL    HW114726   3.274   0.191   0.496
 4609SOL    HW214727   3.227   0.276   0.627
 4610SOL     OW14728   6.815   3.325   6.433
 4610SOL    HW114729   6.772   3.414   6.421
 4610SOL    HW214730   6.912   3.332   6.414
 4611SOL     OW14731   1.451   4.280   6.490
 4611SOL    HW114732   1.466   4.184   6.466
 4611SOL    HW214733   1.405   4.326   6.414
 4612SOL     OW14734   2.409   0.301   6.114
 4612SOL    HW114735   2.461   0.359   6.177
 4612SOL    HW214736   2.431   0.205   6.131
 4613SOL     OW14737   3.304   4.976   1.569
 4613SOL    HW114738   3.366   5.007   1.641
 4613SOL    HW214739   3.287   4.878   1.580
 4614SOL     OW14740   2.383   4.934   6.953
 4614SOL    HW114741   2.392   5.034   6.960
 4614SOL    HW214742   2.418   4.892   0.016
 4615SOL     OW14743   6.234   3.280   6.585
 4615SOL    HW114744   6.262   3.184   6.583
 4615SOL    HW214745   6.141   3.288   6.550
 4616SOL     OW14746   5.590   0.420   6.973
 4616SOL    HW114747   5.657   0.378   6.911
 4616SOL    HW214748   5.626   0.420   0.045
 4617SOL     OW14749   6.884   3.927   1.986
 4617SOL    HW114750   6.818   3.853   1.973
 4617SOL    HW214751   6.959   3.917   1.920
 4618SOL     OW14752   0.586   2.702   6.476
 4618SOL    HW114753   0.588   2.602   6.474
 4618SOL    HW214754   0.561   2.734   6.567
 4619SOL     OW14755   4.017   0.305   3.583
 4619SOL    HW114756   4.018   0.235   3.512
 4619SOL    HW214757   4.072   0.275   3.661
 4620SOL     OW14758   2.272   5.658   6.806
 4620SOL    HW114759   2.334   5.594   6.851
 4620SOL    HW214760   2.320   5.707   6.734
 4621SOL     OW14761   0.122   0.516   6.449
 4621SOL    HW114762   0.159   0.609   6.459
 4621SOL    HW214763   0.195   0.455   6.418
 4622SOL     OW14764   2.070   3.722   0.680
 4622SOL    HW114765   2.089   3.644   0.739
 4622SOL    HW214766   2.070   3.693   0.584
 4623SOL     OW14767   5.339   4.034   2.538
 4623SOL    HW114768   5.258   4.011   2.591
 4623SOL    HW214769   5.406   3.961   2.545
 4624SOL     OW14770   4.618   6.982   5.594
 4624SOL    HW114771   4.618   6.883   5.582
 4624SOL    HW214772   4.704   7.020   5.560
 4625SOL     OW14773   1.144   3.782   5.758
 4625SOL    HW114774   1.196   3.697   5.769
 4625SOL    HW214775   1.146   3.833   5.844
 4626SOL     OW14776   5.651   5.308   1.847
 4626SOL    HW114777   5.557   5.273   1.843
 4626SOL    HW214778   5.694   5.299   1.757
 4627SOL     OW14779   1.472   0.047   5.613
 4627SOL    HW114780   1.554   0.033   5.558
 4627SOL    HW214781   1.497   0.051   5.710
 4628SOL     OW14782   6.312   2.755   2.012
 4628SOL    HW114783   6.337   2.787   2.104
 4628SOL    HW214784   6.369   2.802   1.945
 4629SOL     OW14785   4.443   5.055   4.205
 4629SOL    HW114786   4.417   5.015   4.293
 4629SOL    HW214787   4.537   5.030   4.184
 4630SOL     OW14788   1.767   6.463   2.572
 4630SOL    HW114789   1.778   6.365   2.553
 4630SOL    HW214790   1.852   6.511   2.549
 4631SOL     OW14791   1.819   0.428   2.855
 4631SOL    HW114792   1.778   0.444   2.945
 4631SOL    HW214793   1.831   0.516   2.809
 4632SOL     OW14794   5.746   5.648   4.076
 4632SOL    HW114795   5.678   5.574   4.077
 4632SOL    HW214796   5.837   5.610   4.096
 4633SOL     OW14797   5.657   2.396   5.971
 4633SOL    HW114798   5.709   2.462   6.024
 4633SOL    HW214799   5.718   2.347   5.909
 4634SOL     OW14800   2.865   4.283   0.486
 4634SOL    HW114801   2.807   4.317   0.560
 4634SOL    HW214802   2.959   4.271   0.520
 4635SOL     OW14803   5.558   3.202   1.668
 4635SOL    HW114804   5.463   3.231   1.680
 4635SOL    HW214805   5.568   3.106   1.694
 4636SOL     OW14806   0.826   5.947   1.512
 4636SOL    HW114807   0.820   5.986   1.420
 4636SOL    HW214808   0.922   5.942   1.540
 4637SOL     OW14809   1.318   0.627   4.569
 4637SOL    HW114810   1.276   0.539   4.591
 4637SOL    HW214811   1.318   0.686   4.650
 4638SOL     OW14812   4.392   4.737   5.743
 4638SOL    HW114813   4.298   4.759   5.769
 4638SOL    HW214814   4.449   4.731   5.825
 4639SOL     OW14815   0.105   2.011   4.733
 4639SOL    HW114816   0.036   2.060   4.786
 4639SOL    HW214817   0.074   2.002   4.638
 4640SOL     OW14818   6.121   4.903   2.486
 4640SOL    HW114819   6.079   4.984   2.444
 4640SOL    HW214820   6.050   4.847   2.529
 4641SOL     OW14821   2.834   3.235   5.443
 4641SOL    HW114822   2.760   3.299   5.422
 4641SOL    HW214823   2.796   3.144   5.458
 4642SOL     OW14824   6.209   5.758   4.001
 4642SOL    HW114825   6.142   5.738   3.930
 4642SOL    HW214826   6.298   5.777   3.959
 4643SOL     OW14827   4.169   2.970   0.918
 4643SOL    HW114828   4.232   2.921   0.859
 4643SOL    HW214829   4.209   3.059   0.943
 4644SOL     OW14830   3.776   4.440   5.395
 4644SOL    HW114831   3.777   4.515   5.330
 4644SOL    HW214832   3.737   4.359   5.352
 4645SOL     OW14833   1.890   6.295   4.974
 4645SOL    HW114834   1.836   6.372   5.007
 4645SOL    HW214835   1.984   6.326   4.957
 4646SOL     OW14836   3.579   0.454   1.089
 4646SOL    HW114837   3.591   0.517   1.012
 4646SOL    HW214838   3.541   0.504   1.167
 4647SOL     OW14839   6.800   0.721   4.762
 4647SOL    HW114840   6.747   0.728   4.846
 4647SOL    HW214841   6.898   0.714   4.784
 4648SOL     OW14842   1.740   5.903   3.338
 4648SOL    HW114843   1.734   5.981   3.276
 4648SOL    HW214844   1.800   5.833   3.299
 4649SOL     OW14845   5.569   6.772   6.077
 4649SOL    HW114846   5.650   6.722   6.047
 4649SOL    HW214847   5.598   6.853   6.129
 4650SOL     OW14848   6.823   4.569   1.495
 4650SOL    HW114849   6.863   4.481   1.471
 4650SOL    HW214850   6.752   4.556   1.564
 4651SOL     OW14851   6.467   2.596   1.773
 4651SOL    HW114852   6.382   2.646   1.788
 4651SOL    HW214853   6.510   2.629   1.689
 4652SOL     OW14854   0.280   5.975   5.215
 4652SOL    HW114855   0.352   6.044   5.208
 4652SOL    HW214856   0.312   5.890   5.173
 4653SOL     OW14857   0.425   5.292   6.429
 4653SOL    HW114858   0.516   5.280   6.468
 4653SOL    HW214859   0.356   5.270   6.498
 4654SOL     OW14860   1.241   1.670   6.707
 4654SOL    HW114861   1.277   1.578   6.723
 4654SOL    HW214862   1.316   1.737   6.713
 4655SOL     OW14863   0.022   5.558   3.359
 4655SOL    HW114864   0.080   5.622   3.409
 4655SOL    HW214865   6.947   5.587   3.365
 4656SOL     OW14866   2.032   6.463   2.735
 4656SOL    HW114867   1.974   6.545   2.734
 4656SOL    HW214868   1.974   6.382   2.725
 4657SOL     OW14869   6.134   0.814   5.994
 4657SOL    HW114870   6.068   0.881   6.027
 4657SOL    HW214871   6.115   0.725   6.034
 4658SOL     OW14872   5.024   0.866   4.045
 4658SOL    HW114873   5.047   0.792   3.981
 4658SOL    HW214874   4.947   0.838   4.102
 4659SOL     OW14875   1.568   2.775   4.422
 4659SOL    HW114876   1.499   2.843   4.447
 4659SOL    HW214877   1.656   2.799   4.464
 4660SOL     OW14878   6.036   1.802   5.120
 4660SOL    HW114879   5.996   1.890   5.144
 4660SOL    HW214880   5.976   1.728   5.151
 4661SOL     OW14881   3.833   3.217   3.006
 4661SOL    HW114882   3.832   3.123   2.971
 4661SOL    HW214883   3.755   3.267   2.969
 4662SOL     OW14884   5.903   0.211   3.901
 4662SOL    HW114885   5.970   0.182   3.833
 4662SOL    HW214886   5.811   0.197   3.865
 4663SOL     OW14887   0.783   2.517   1.820
 4663SOL    HW114888   0.827   2.428   1.831
 4663SOL    HW214889   0.792   2.548   1.725
 4664SOL     OW14890   3.125   3.785   0.617
 4664SOL    HW114891   3.046   3.739   0.577
 4664SOL    HW214892   3.197   3.792   0.548
 4665SOL     OW14893   5.545   0.208   6.483
 4665SOL    HW114894   5.614   0.233   6.551
 4665SOL    HW214895   5.514   0.115   6.499
 4666SOL     OW14896   1.864   2.157   0.413
 4666SOL    HW114897   1.876   2.142   0.315
 4666SOL    HW214898   1.904   2.080   0.464
 4667SOL     OW14899   0.858   5.263   4.586
 4667SOL    HW114900   0.932   5.244   4.650
 4667SOL    HW214901   0.866   5.356   4.552
 4668SOL     OW14902   5.036   0.727   5.338
 4668SOL    HW114903   5.101   0.781   5.286
 4668SOL    HW214904   4.951   0.777   5.349
 4669SOL     OW14905   2.196   1.468   2.028
 4669SOL    HW114906   2.195   1.381   2.079
 4669SOL    HW214907   2.120   1.525   2.058
 4670SOL     OW14908   2.744   1.317   4.305
 4670SOL    HW114909   2.715   1.332   4.399
 4670SOL    HW214910   2.713   1.227   4.274
 4671SOL     OW14911   5.905   2.145   2.056
 4671SOL    HW114912   5.811   2.174   2.043
 4671SOL    HW214913   5.907   2.048   2.081
 4672SOL     OW14914   2.583   2.776   5.279
 4672SOL    HW114915   2.558   2.863   5.237
 4672SOL    HW214916   2.683   2.769   5.286
 4673SOL     OW14917   4.575   0.793   2.360
 4673SOL    HW114918   4.598   0.709   2.410
 4673SOL    HW214919   4.643   0.864   2.381
 4674SOL     OW14920   4.873   6.418   5.166
 4674SOL    HW114921   4.963   6.421   5.210
 4674SOL    HW214922   4.885   6.390   5.071
 4675SOL     OW14923   0.962   4.481   6.851
 4675SOL    HW114924   0.995   4.534   6.929
 4675SOL    HW214925   1.030   4.483   6.778
 4676SOL     OW14926   0.670   4.827   3.763
 4676SOL    HW114927   0.602   4.754   3.756
 4676SOL    HW214928   0.746   4.795   3.820
 4677SOL     OW14929   1.427   3.305   0.359
 4677SOL    HW114930   1.374   3.230   0.399
 4677SOL    HW214931   1.491   3.268   0.292
 4678SOL     OW14932   1.290   4.449   1.624
 4678SOL    HW114933   1.225   4.413   1.690
 4678SOL    HW214934   1.259   4.538   1.591
 4679SOL     OW14935   4.191   0.187   2.074
 4679SOL    HW114936   4.118   0.235   2.025
 4679SOL    HW214937   4.211   0.100   2.029
 4680SOL     OW14938   2.030   0.419   6.583
 4680SOL    HW114939   2.091   0.342   6.566
 4680SOL    HW214940   2.079   0.505   6.569
 4681SOL     OW14941   4.914   5.769   2.031
 4681SOL    HW114942   5.009   5.747   2.054
 4681SOL    HW214943   4.888   5.855   2.075
 4682SOL     OW14944   3.518   3.786   5.893
 4682SOL    HW114945   3.470   3.699   5.886
 4682SOL    HW214946   3.526   3.828   5.802
 4683SOL     OW14947   6.134   4.662   3.546
 4683SOL    HW114948   6.135   4.708   3.635
 4683SOL    HW214949   6.057   4.598   3.543
 4684SOL     OW14950   5.663   6.538   6.469
 4684SOL    HW114951   5.729   6.486   6.414
 4684SOL    HW214952   5.709   6.574   6.550
 4685SOL     OW14953   3.020   3.845   4.383
 4685SOL    HW114954   3.117   3.854   4.361
 4685SOL    HW214955   2.983   3.764   4.336
 4686SOL     OW14956   1.699   0.187   6.839
 4686SOL    HW114957   1.672   0.252   6.910
 4686SOL    HW214958   1.638   0.108   6.841
 4687SOL     OW14959   2.199   0.839   3.019
 4687SOL    HW114960   2.262   0.887   2.958
 4687SOL    HW214961   2.107   0.840   2.980
 4688SOL     OW14962   5.042   2.947   6.164
 4688SOL    HW114963   4.973   3.013   6.135
 4688SOL    HW214964   5.044   2.870   6.100
 4689SOL     OW14965   6.711   1.316   0.558
 4689SOL    HW114966   6.665   1.402   0.581
 4689SOL    HW214967   6.810   1.329   0.558
 4690SOL     OW14968   2.847   2.670   0.943
 4690SOL    HW114969   2.770   2.681   0.881
 4690SOL    HW214970   2.820   2.611   1.019
 4691SOL     OW14971   6.484   3.546   1.957
 4691SOL    HW114972   6.391   3.536   1.994
 4691SOL    HW214973   6.478   3.565   1.858
 4692SOL     OW14974   5.191   2.752   2.787
 4692SOL    HW114975   5.134   2.700   2.849
 4692SOL    HW214976   5.216   2.695   2.708
 4693SOL     OW14977   0.907   0.219   2.375
 4693SOL    HW114978   0.854   0.290   2.330
 4693SOL    HW214979   0.943   0.253   2.462
 4694SOL     OW14980   2.277   0.267   6.509
 4694SOL    HW114981   2.320   0.204   6.445
 4694SOL    HW214982   2.342   0.291   6.581
 4695SOL     OW14983   2.206   4.808   2.523
 4695SOL    HW114984   2.300   4.812   2.490
 4695SOL    HW214985   2.185   4.892   2.574
 4696SOL     OW14986   1.202   6.355   6.159
 4696SOL    HW114987   1.167   6.320   6.072
 4696SOL    HW214988   1.144   6.322   6.233
 4697SOL     OW14989   4.527   5.851   1.538
 4697SOL    HW114990   4.531   5.895   1.448
 4697SOL    HW214991   4.619   5.845   1.576
 4698SOL     OW14992   5.773   1.193   4.450
 4698SOL    HW114993   5.799   1.118   4.389
 4698SOL    HW214994   5.673   1.196   4.458
 4699SOL     OW14995   1.176   0.945   2.610
 4699SOL    HW114996   1.213   0.969   2.520
 4699SOL    HW214997   1.190   1.021   2.673
 4700SOL     OW14998   6.270   1.613   2.873
 4700SOL    HW114999   6.208   1.587   2.798
 4700SOL    HW215000   6.347   1.550   2.876
 4701SOL     OW15001   3.080   2.579   1.722
 4701SOL    HW115002   3.027   2.503   1.759
 4701SOL    HW215003   3.141   2.614   1.792
 4702SOL     OW15004   6.150   5.501   0.343
 4702SOL    HW115005   6.249   5.495   0.330
 4702SOL    HW215006   6.111   5.410   0.351
 4703SOL     OW15007   1.078   5.480   4.075
 4703SOL    HW115008   0.982   5.477   4.048
 4703SOL    HW215009   1.102   5.396   4.123
 4704SOL     OW15010   1.730   4.698   4.302
 4704SOL    HW115011   1.752   4.758   4.225
 4704SOL    HW215012   1.729   4.752   4.387
 4705SOL     OW15013   3.556   2.046   1.801
 4705SOL    HW115014   3.591   2.106   1.873
 4705SOL    HW215015   3.501   2.099   1.736
 4706SOL     OW15016   2.479   0.692   1.062
 4706SOL    HW115017   2.484   0.791   1.055
 4706SOL    HW215018   2.387   0.664   1.090
 4707SOL     OW15019   1.600   5.286   2.090
 4707SOL    HW115020   1.646   5.220   2.030
 4707SOL    HW215021   1.541   5.345   2.035
 4708SOL     OW15022   1.714   3.068   5.608
 4708SOL    HW115023   1.746   2.981   5.646
 4708SOL    HW215024   1.751   3.143   5.662
 4709SOL     OW15025   6.169   4.070   5.869
 4709SOL    HW115026   6.260   4.088   5.905
 4709SOL    HW215027   6.104   4.134   5.910
 4710SOL     OW15028   6.249   5.923   5.052
 4710SOL    HW115029   6.226   5.849   4.990
 4710SOL    HW215030   6.178   5.994   5.049
 4711SOL     OW15031   4.924   4.433   2.307
 4711SOL    HW115032   4.900   4.338   2.284
 4711SOL    HW215033   4.981   4.471   2.234
 4712SOL     OW15034   4.067   4.243   5.978
 4712SOL    HW115035   3.996   4.286   6.033
 4712SOL    HW215036   4.156   4.260   6.019
 4713SOL     OW15037   5.303   4.036   0.709
 4713SOL    HW115038   5.233   4.075   0.768
 4713SOL    HW215039   5.383   4.010   0.763
 4714SOL     OW15040   4.527   2.146   6.720
 4714SOL    HW115041   4.548   2.054   6.755
 4714SOL    HW215042   4.465   2.192   6.784
 4715SOL     OW15043   6.376   1.107   1.773
 4715SOL    HW115044   6.322   1.065   1.845
 4715SOL    HW215045   6.351   1.203   1.763
 4716SOL     OW15046   3.632   4.547   5.611
 4716SOL    HW115047   3.533   4.535   5.599
 4716SOL    HW215048   3.679   4.516   5.528
 4717SOL     OW15049   1.940   4.949   5.635
 4717SOL    HW115050   1.906   4.865   5.592
 4717SOL    HW215051   1.897   4.960   5.725
 4718SOL     OW15052   4.865   4.270   1.602
 4718SOL    HW115053   4.824   4.361   1.607
 4718SOL    HW215054   4.794   4.203   1.581
 4719SOL     OW15055   6.265   4.465   4.035
 4719SOL    HW115056   6.313   4.539   3.988
 4719SOL    HW215057   6.291   4.377   3.996
 4720SOL     OW15058   2.480   2.833   6.792
 4720SOL    HW115059   2.491   2.747   6.842
 4720SOL    HW215060   2.551   2.839   6.721
 4721SOL     OW15061   0.937   3.025   3.479
 4721SOL    HW115062   1.021   2.977   3.453
 4721SOL    HW215063   0.905   3.079   3.401
 4722SOL     OW15064   1.181   5.147   6.539
 4722SOL    HW115065   1.119   5.152   6.461
 4722SOL    HW215066   1.128   5.141   6.623
 4723SOL     OW15067   2.978   4.851   6.846
 4723SOL    HW115068   2.974   4.862   6.747
 4723SOL    HW215069   2.939   4.762   6.871
 4724SOL     OW15070   0.608   0.110   4.159
 4724SOL    HW115071   0.622   0.079   4.064
 4724SOL    HW215072   0.525   0.067   4.195
 4725SOL     OW15073   5.966   4.800   1.230
 4725SOL    HW115074   6.062   4.782   1.207
 4725SOL    HW215075   5.913   4.716   1.218
 4726SOL     OW15076   1.990   2.879   5.614
 4726SOL    HW115077   1.941   2.874   5.528
 4726SOL    HW215078   2.036   2.968   5.621
 4727SOL     OW15079   6.225   4.670   1.162
 4727SOL    HW115080   6.218   4.644   1.065
 4727SOL    HW215081   6.205   4.590   1.219
 4728SOL     OW15082   5.728   1.808   3.908
 4728SOL    HW115083   5.730   1.848   3.999
 4728SOL    HW215084   5.714   1.709   3.915
 4729SOL     OW15085   5.714   1.234   1.809
 4729SOL    HW115086   5.710   1.314   1.869
 4729SOL    HW215087   5.667   1.158   1.854
 4730SOL     OW15088   4.224   0.754   3.335
 4730SOL    HW115089   4.261   0.663   3.316
 4730SOL    HW215090   4.125   0.747   3.349
 4731SOL     OW15091   3.055   6.817   1.133
 4731SOL    HW115092   3.073   6.890   1.199
 4731SOL    HW215093   3.030   6.857   1.045
 4732SOL     OW15094   0.047   4.909   5.059
 4732SOL    HW115095   0.007   4.958   4.982
 4732SOL    HW215096   0.056   4.812   5.035
 4733SOL     OW15097   1.631   4.110   2.529
 4733SOL    HW115098   1.692   4.113   2.609
 4733SOL    HW215099   1.608   4.015   2.508
 4734SOL     OW15100   4.649   4.103   0.169
 4734SOL    HW115101   4.651   4.047   0.087
 4734SOL    HW215102   4.634   4.044   0.249
 4735SOL     OW15103   0.095   0.606   4.638
 4735SOL    HW115104   0.036   0.597   4.557
 4735SOL    HW215105   0.077   0.531   4.701
 4736SOL     OW15106   6.136   1.391   4.083
 4736SOL    HW115107   6.075   1.456   4.039
 4736SOL    HW215108   6.204   1.359   4.016
 4737SOL     OW15109   2.295   5.035   0.489
 4737SOL    HW115110   2.307   5.054   0.392
 4737SOL    HW215111   2.316   4.940   0.508
 4738SOL     OW15112   0.667   5.599   4.233
 4738SOL    HW115113   0.652   5.696   4.216
 4738SOL    HW215114   0.581   5.555   4.258
 4739SOL     OW15115   5.947   3.517   3.171
 4739SOL    HW115116   5.874   3.448   3.172
 4739SOL    HW215117   6.031   3.477   3.206
 4740SOL     OW15118   1.622   6.620   0.452
 4740SOL    HW115119   1.545   6.620   0.515
 4740SOL    HW215120   1.707   6.628   0.503
 4741SOL     OW15121   5.616   4.514   0.967
 4741SOL    HW115122   5.651   4.421   0.978
 4741SOL    HW215123   5.547   4.532   1.038
 4742SOL     OW15124   2.735   5.537   2.436
 4742SOL    HW115125   2.779   5.462   2.485
 4742SOL    HW215126   2.789   5.561   2.356
 4743SOL     OW15127   2.494   3.687   0.913
 4743SOL    HW115128   2.570   3.693   0.977
 4743SOL    HW215129   2.498   3.599   0.864
 4744SOL     OW15130   2.750   1.618   5.556
 4744SOL    HW115131   2.759   1.699   5.614
 4744SOL    HW215132   2.688   1.638   5.480
 4745SOL     OW15133   4.158   5.556   4.787
 4745SOL    HW115134   4.195   5.632   4.734
 4745SOL    HW215135   4.125   5.485   4.725
 4746SOL     OW15136   5.550   1.041   1.364
 4746SOL    HW115137   5.544   1.054   1.265
 4746SOL    HW215138   5.622   0.974   1.385
 4747SOL     OW15139   0.349   2.862   2.324
 4747SOL    HW115140   0.324   2.952   2.287
 4747SOL    HW215141   0.343   2.794   2.251
 4748SOL     OW15142   2.052   0.332   0.729
 4748SOL    HW115143   2.055   0.233   0.719
 4748SOL    HW215144   2.110   0.375   0.660
 4749SOL     OW15145   3.267   0.203   0.288
 4749SOL    HW115146   3.219   0.288   0.308
 4749SOL    HW215147   3.201   0.133   0.260
 4750SOL     OW15148   0.921   1.644   4.460
 4750SOL    HW115149   0.858   1.700   4.513
 4750SOL    HW215150   0.903   1.656   4.362
 4751SOL     OW15151   1.088   3.376   6.087
 4751SOL    HW115152   1.180   3.377   6.048
 4751SOL    HW215153   1.061   3.281   6.105
 4752SOL     OW15154   2.491   5.785   1.376
 4752SOL    HW115155   2.508   5.759   1.471
 4752SOL    HW215156   2.576   5.821   1.336
 4753SOL     OW15157   0.244   0.234   6.196
 4753SOL    HW115158   0.330   0.208   6.151
 4753SOL    HW215159   0.169   0.229   6.129
 4754SOL     OW15160   0.566   0.877   5.923
 4754SOL    HW115161   0.583   0.957   5.866
 4754SOL    HW215162   0.523   0.905   6.009
 4755SOL     OW15163   2.848   0.334   1.806
 4755SOL    HW115164   2.850   0.242   1.767
 4755SOL    HW215165   2.841   0.328   1.905
 4756SOL     OW15166   5.436   2.243   1.556
 4756SOL    HW115167   5.457   2.146   1.570
 4756SOL    HW215168   5.426   2.261   1.458
 4757SOL     OW15169   2.744   1.747   1.098
 4757SOL    HW115170   2.682   1.805   1.150
 4757SOL    HW215171   2.839   1.768   1.122
 4758SOL     OW15172   5.839   3.411   5.832
 4758SOL    HW115173   5.869   3.499   5.868
 4758SOL    HW215174   5.780   3.426   5.753
 4759SOL     OW15175   6.070   4.235   6.573
 4759SOL    HW115176   6.161   4.225   6.533
 4759SOL    HW215177   6.004   4.258   6.501
 4760SOL     OW15178   2.489   2.728   0.492
 4760SOL    HW115179   2.505   2.815   0.444
 4760SOL    HW215180   2.574   2.676   0.496
 4761SOL     OW15181   1.892   5.706   6.052
 4761SOL    HW115182   1.914   5.755   6.135
 4761SOL    HW215183   1.882   5.770   5.976
 4762SOL     OW15184   3.631   6.833   2.386
 4762SOL    HW115185   3.550   6.866   2.434
 4762SOL    HW215186   3.610   6.821   2.289
 4763SOL     OW15187   5.865   5.766   5.407
 4763SOL    HW115188   5.773   5.805   5.416
 4763SOL    HW215189   5.906   5.799   5.322
 4764SOL     OW15190   3.766   2.971   4.119
 4764SOL    HW115191   3.749   2.987   4.216
 4764SOL    HW215192   3.836   2.901   4.108
 4765SOL     OW15193   6.372   5.432   6.169
 4765SOL    HW115194   6.308   5.391   6.104
 4765SOL    HW215195   6.434   5.494   6.122
 4766SOL     OW15196   3.643   0.759   3.416
 4766SOL    HW115197   3.573   0.689   3.408
 4766SOL    HW215198   3.606   0.839   3.463
 4767SOL     OW15199   3.918   6.606   6.712
 4767SOL    HW115200   3.831   6.621   6.758
 4767SOL    HW215201   3.935   6.681   6.648
 4768SOL     OW15202   1.608   0.558   4.942
 4768SOL    HW115203   1.657   0.507   4.871
 4768SOL    HW215204   1.510   0.555   4.923
 4769SOL     OW15205   4.565   1.066   2.071
 4769SOL    HW115206   4.487   1.116   2.034
 4769SOL    HW215207   4.576   1.090   2.168
 4770SOL     OW15208   2.049   0.795   4.211
 4770SOL    HW115209   2.079   0.805   4.116
 4770SOL    HW215210   1.949   0.793   4.214
 4771SOL     OW15211   4.208   4.357   5.383
 4771SOL    HW115212   4.245   4.393   5.298
 4771SOL    HW215213   4.276   4.365   5.456
 4772SOL     OW15214   2.353   2.985   0.046
 4772SOL    HW115215   2.322   3.012   0.137
 4772SOL    HW215216   2.279   2.937   7.020
 4773SOL     OW15217   0.446   5.033   4.764
 4773SOL    HW115218   0.498   5.086   4.697
 4773SOL    HW215219   0.349   5.040   4.744
 4774SOL     OW15220   1.675   3.978   6.768
 4774SOL    HW115221   1.709   3.895   6.811
 4774SOL    HW215222   1.596   3.956   6.710
 4775SOL     OW15223   1.986   1.924   2.186
 4775SOL    HW115224   1.981   2.024   2.194
 4775SOL    HW215225   2.062   1.890   2.243
 4776SOL     OW15226   4.158   4.791   2.333
 4776SOL    HW115227   4.086   4.744   2.281
 4776SOL    HW215228   4.215   4.723   2.379
 4777SOL     OW15229   2.490   3.805   1.711
 4777SOL    HW115230   2.559   3.737   1.686
 4777SOL    HW215231   2.489   3.877   1.642
 4778SOL     OW15232   5.134   3.389   2.757
 4778SOL    HW115233   5.141   3.485   2.732
 4778SOL    HW215234   5.212   3.339   2.720
 4779SOL     OW15235   4.717   1.135   2.677
 4779SOL    HW115236   4.725   1.229   2.644
 4779SOL    HW215237   4.621   1.109   2.682
 4780SOL     OW15238   1.943   0.741   5.508
 4780SOL    HW115239   1.949   0.795   5.591
 4780SOL    HW215240   1.987   0.790   5.432
 4781SOL     OW15241   2.108   5.625   2.896
 4781SOL    HW115242   2.057   5.708   2.921
 4781SOL    HW215243   2.105   5.613   2.797
 4782SOL     OW15244   5.963   5.632   0.174
 4782SOL    HW115245   6.039   5.594   0.225
 4782SOL    HW215246   5.988   5.721   0.136
 4783SOL     OW15247   5.866   4.053   3.110
 4783SOL    HW115248   5.936   4.072   3.179
 4783SOL    HW215249   5.850   3.954   3.105
 4784SOL     OW15250   5.180   4.521   5.331
 4784SOL    HW115251   5.260   4.570   5.366
 4784SOL    HW215252   5.150   4.453   5.398
 4785SOL     OW15253   6.140   6.692   0.296
 4785SOL    HW115254   6.046   6.692   0.263
 4785SOL    HW215255   6.201   6.728   0.225
 4786SOL     OW15256   1.190   3.343   2.343
 4786SOL    HW115257   1.217   3.391   2.259
 4786SOL    HW215258   1.268   3.293   2.379
 4787SOL     OW15259   4.355   2.062   3.257
 4787SOL    HW115260   4.306   1.985   3.215
 4787SOL    HW215261   4.314   2.148   3.225
 4788SOL     OW15262   2.491   6.830   4.990
 4788SOL    HW115263   2.497   6.792   4.897
 4788SOL    HW215264   2.536   6.919   4.992
 4789SOL     OW15265   5.103   6.434   0.446
 4789SOL    HW115266   5.016   6.393   0.476
 4789SOL    HW215267   5.178   6.393   0.497
 4790SOL     OW15268   5.405   6.758   6.697
 4790SOL    HW115269   5.378   6.687   6.632
 4790SOL    HW215270   5.388   6.726   6.790
 4791SOL     OW15271   4.823   1.980   3.826
 4791SOL    HW115272   4.856   1.900   3.876
 4791SOL    HW215273   4.810   1.957   3.730
 4792SOL     OW15274   3.101   2.407   1.154
 4792SOL    HW115275   3.186   2.421   1.203
 4792SOL    HW215276   3.025   2.445   1.207
 4793SOL     OW15277   0.720   6.892   6.686
 4793SOL    HW115278   0.785   6.944   6.631
 4793SOL    HW215279   0.638   6.873   6.632
 4794SOL     OW15280   5.152   1.420   1.967
 4794SOL    HW115281   5.075   1.423   1.904
 4794SOL    HW215282   5.152   1.332   2.015
 4795SOL     OW15283   6.271   3.212   4.226
 4795SOL    HW115284   6.326   3.138   4.265
 4795SOL    HW215285   6.177   3.180   4.214
 4796SOL     OW15286   5.664   3.582   0.797
 4796SOL    HW115287   5.750   3.632   0.806
 4796SOL    HW215288   5.590   3.635   0.837
 4797SOL     OW15289   0.825   4.929   4.555
 4797SOL    HW115290   0.770   4.846   4.541
 4797SOL    HW215291   0.893   4.912   4.626
 4798SOL     OW15292   6.702   5.240   5.803
 4798SOL    HW115293   6.610   5.278   5.801
 4798SOL    HW215294   6.767   5.311   5.828
 4799SOL     OW15295   4.564   1.159   4.679
 4799SOL    HW115296   4.550   1.063   4.700
 4799SOL    HW215297   4.660   1.183   4.691
 4800SOL     OW15298   1.852   2.928   4.073
 4800SOL    HW115299   1.775   2.880   4.114
 4800SOL    HW215300   1.841   3.026   4.086
 4801SOL     OW15301   0.561   2.850   0.565
 4801SOL    HW115302   0.482   2.906   0.589
 4801SOL    HW215303   0.625   2.904   0.510
 4802SOL     OW15304   2.116   0.465   1.948
 4802SOL    HW115305   2.073   0.379   1.973
 4802SOL    HW215306   2.060   0.541   1.981
 4803SOL     OW15307   1.529   0.626   0.861
 4803SOL    HW115308   1.535   0.673   0.949
 4803SOL    HW215309   1.443   0.649   0.817
 4804SOL     OW15310   4.369   5.682   6.921
 4804SOL    HW115311   4.436   5.620   6.963
 4804SOL    HW215312   4.290   5.692   6.981
 4805SOL     OW15313   0.409   0.503   1.327
 4805SOL    HW115314   0.347   0.429   1.352
 4805SOL    HW215315   0.405   0.519   1.229
 4806SOL     OW15316   7.009   2.488   3.850
 4806SOL    HW115317   7.018   2.582   3.820
 4806SOL    HW215318   0.074   2.439   3.835
 4807SOL     OW15319   1.020   6.789   2.327
 4807SOL    HW115320   0.976   6.800   2.416
 4807SOL    HW215321   0.950   6.774   2.257
 4808SOL     OW15322   5.612   3.088   0.764
 4808SOL    HW115323   5.599   3.182   0.795
 4808SOL    HW215324   5.587   3.025   0.838
 4809SOL     OW15325   4.479   6.590   0.290
 4809SOL    HW115326   4.481   6.685   0.322
 4809SOL    HW215327   4.549   6.577   0.220
 4810SOL     OW15328   1.817   6.813   1.110
 4810SOL    HW115329   1.825   6.794   1.208
 4810SOL    HW215330   1.898   6.861   1.079
 4811SOL     OW15331   5.282   4.258   3.528
 4811SOL    HW115332   5.212   4.227   3.463
 4811SOL    HW215333   5.299   4.185   3.595
 4812SOL     OW15334   6.003   4.900   4.236
 4812SOL    HW115335   6.027   4.812   4.276
 4812SOL    HW215336   5.996   4.969   4.308
 4813SOL     OW15337   5.878   3.104   3.007
 4813SOL    HW115338   5.842   3.104   2.913
 4813SOL    HW215339   5.962   3.049   3.010
 4814SOL     OW15340   6.608   3.318   1.341
 4814SOL    HW115341   6.674   3.244   1.329
 4814SOL    HW215342   6.515   3.284   1.322
 4815SOL     OW15343   4.787   0.983   3.091
 4815SOL    HW115344   4.863   1.031   3.136
 4815SOL    HW215345   4.705   1.039   3.096
 4816SOL     OW15346   5.121   4.740   3.339
 4816SOL    HW115347   5.168   4.808   3.282
 4816SOL    HW215348   5.166   4.734   3.428
 4817SOL     OW15349   6.415   1.696   0.179
 4817SOL    HW115350   6.333   1.641   0.196
 4817SOL    HW215351   6.389   1.793   0.176
 4818SOL     OW15352   0.390   5.899   3.574
 4818SOL    HW115353   0.477   5.874   3.615
 4818SOL    HW215354   0.401   5.981   3.519
 4819SOL     OW15355   2.433   2.952   0.815
 4819SOL    HW115356   2.521   2.978   0.774
 4819SOL    HW215357   2.359   2.976   0.753
 4820SOL     OW15358   0.228   3.382   2.715
 4820SOL    HW115359   0.163   3.319   2.757
 4820SOL    HW215360   0.321   3.346   2.724
 4821SOL     OW15361   0.659   5.875   3.701
 4821SOL    HW115362   0.655   5.824   3.787
 4821SOL    HW215363   0.722   5.952   3.710
 4822SOL     OW15364   2.508   4.820   4.479
 4822SOL    HW115365   2.569   4.854   4.408
 4822SOL    HW215366   2.481   4.895   4.539
 4823SOL     OW15367   2.124   2.880   0.827
 4823SOL    HW115368   2.026   2.897   0.814
 4823SOL    HW215369   2.159   2.942   0.897
 4824SOL     OW15370   6.169   1.789   0.521
 4824SOL    HW115371   6.071   1.799   0.502
 4824SOL    HW215372   6.182   1.772   0.619
 4825SOL     OW15373   1.290   6.767   4.023
 4825SOL    HW115374   1.222   6.728   3.961
 4825SOL    HW215375   1.285   6.867   4.021
 4826SOL     OW15376   4.068   6.488   0.968
 4826SOL    HW115377   4.130   6.411   0.950
 4826SOL    HW215378   3.979   6.469   0.927
 4827SOL     OW15379   6.173   1.305   1.107
 4827SOL    HW115380   6.184   1.404   1.099
 4827SOL    HW215381   6.224   1.259   1.034
 4828SOL     OW15382   5.222   0.978   5.871
 4828SOL    HW115383   5.318   0.986   5.845
 4828SOL    HW215384   5.214   0.926   5.956
 4829SOL     OW15385   4.241   6.451   5.385
 4829SOL    HW115386   4.318   6.396   5.356
 4829SOL    HW215387   4.186   6.400   5.451
 4830SOL     OW15388   1.847   6.766   3.551
 4830SOL    HW115389   1.899   6.727   3.627
 4830SOL    HW215390   1.774   6.823   3.587
 4831SOL     OW15391   3.883   4.708   5.559
 4831SOL    HW115392   3.942   4.696   5.639
 4831SOL    HW215393   3.795   4.662   5.576
 4832SOL     OW15394   4.207   3.728   5.100
 4832SOL    HW115395   4.157   3.696   5.019
 4832SOL    HW215396   4.303   3.741   5.077
 4833SOL     OW15397   6.143   2.435   5.564
 4833SOL    HW115398   6.222   2.489   5.592
 4833SOL    HW215399   6.077   2.495   5.517
 4834SOL     OW15400   0.256   5.895   1.566
 4834SOL    HW115401   0.301   5.865   1.482
 4834SOL    HW215402   0.325   5.916   1.635
 4835SOL     OW15403   0.311   3.562   6.141
 4835SOL    HW115404   0.256   3.482   6.115
 4835SOL    HW215405   0.386   3.532   6.201
 4836SOL     OW15406   4.297   2.192   5.570
 4836SOL    HW115407   4.284   2.116   5.634
 4836SOL    HW215408   4.355   2.262   5.612
 4837SOL     OW15409   0.954   3.591   4.380
 4837SOL    HW115410   0.884   3.663   4.373
 4837SOL    HW215411   0.978   3.577   4.476
 4838SOL     OW15412   1.756   3.907   5.986
 4838SOL    HW115413   1.833   3.894   5.924
 4838SOL    HW215414   1.671   3.881   5.941
 4839SOL     OW15415   2.600   1.468   2.018
 4839SOL    HW115416   2.525   1.416   1.976
 4839SOL    HW215417   2.584   1.474   2.116
 4840SOL     OW15418   5.325   2.896   5.044
 4840SOL    HW115419   5.423   2.910   5.029
 4840SOL    HW215420   5.308   2.882   5.141
 4841SOL     OW15421   2.852   6.292   3.095
 4841SOL    HW115422   2.809   6.216   3.143
 4841SOL    HW215423   2.784   6.338   3.037
 4842SOL     OW15424   4.196   6.137   3.798
 4842SOL    HW115425   4.170   6.120   3.893
 4842SOL    HW215426   4.191   6.052   3.746
 4843SOL     OW15427   6.189   1.598   1.137
 4843SOL    HW115428   6.125   1.664   1.097
 4843SOL    HW215429   6.269   1.646   1.173
 4844SOL     OW15430   1.616   4.765   6.803
 4844SOL    HW115431   1.548   4.839   6.794
 4844SOL    HW215432   1.696   4.799   6.852
 4845SOL     OW15433   4.958   3.828   5.025
 4845SOL    HW115434   5.000   3.871   4.945
 4845SOL    HW215435   4.905   3.748   4.995
 4846SOL     OW15436   6.654   3.845   4.865
 4846SOL    HW115437   6.672   3.941   4.888
 4846SOL    HW215438   6.738   3.792   4.874
 4847SOL     OW15439   3.374   6.663   0.197
 4847SOL    HW115440   3.296   6.653   0.259
 4847SOL    HW215441   3.442   6.725   0.237
 4848SOL     OW15442   4.868   1.772   4.015
 4848SOL    HW115443   4.886   1.674   4.028
 4848SOL    HW215444   4.901   1.823   4.095
 4849SOL     OW15445   1.968   6.187   1.997
 4849SOL    HW115446   2.022   6.268   2.023
 4849SOL    HW215447   1.887   6.181   2.055
 4850SOL     OW15448   3.214   6.501   1.734
 4850SOL    HW115449   3.156   6.429   1.770
 4850SOL    HW215450   3.159   6.566   1.681
 4851SOL     OW15451   4.243   4.732   0.063
 4851SOL    HW115452   4.341   4.733   0.084
 4851SOL    HW215453   4.226   4.672   7.006
 4852SOL     OW15454   4.920   4.391   5.944
 4852SOL    HW115455   4.835   4.358   5.903
 4852SOL    HW215456   4.949   4.475   5.898
 4853SOL     OW15457   4.369   0.294   2.835
 4853SOL    HW115458   4.415   0.341   2.760
 4853SOL    HW215459   4.298   0.234   2.798
 4854SOL     OW15460   4.424   6.768   2.194
 4854SOL    HW115461   4.439   6.676   2.157
 4854SOL    HW215462   4.341   6.768   2.249
 4855SOL     OW15463   4.842   5.068   5.775
 4855SOL    HW115464   4.930   5.038   5.739
 4855SOL    HW215465   4.813   5.151   5.728
 4856SOL     OW15466   0.513   2.551   2.849
 4856SOL    HW115467   0.551   2.596   2.768
 4856SOL    HW215468   0.492   2.619   2.919
 4857SOL     OW15469   1.646   2.069   5.517
 4857SOL    HW115470   1.663   2.167   5.525
 4857SOL    HW215471   1.548   2.054   5.502
 4858SOL     OW15472   1.801   5.730   4.897
 4858SOL    HW115473   1.859   5.680   4.962
 4858SOL    HW215474   1.859   5.772   4.827
 4859SOL     OW15475   6.412   5.316   3.185
 4859SOL    HW115476   6.438   5.219   3.180
 4859SOL    HW215477   6.329   5.331   3.130
 4860SOL     OW15478   4.051   5.529   1.766
 4860SOL    HW115479   4.027   5.563   1.857
 4860SOL    HW215480   4.010   5.439   1.752
 4861SOL     OW15481   6.637   4.684   5.499
 4861SOL    HW115482   6.611   4.624   5.575
 4861SOL    HW215483   6.722   4.732   5.522
 4862SOL     OW15484   2.066   5.947   4.403
 4862SOL    HW115485   1.976   5.971   4.437
 4862SOL    HW215486   2.064   5.855   4.364
 4863SOL     OW15487   5.690   1.428   2.024
 4863SOL    HW115488   5.685   1.497   1.951
 4863SOL    HW215489   5.644   1.463   2.106
 4864SOL     OW15490   1.847   2.930   1.600
 4864SOL    HW115491   1.800   3.017   1.584
 4864SOL    HW215492   1.798   2.857   1.553
 4865SOL     OW15493   3.748   6.601   5.253
 4865SOL    HW115494   3.740   6.512   5.208
 4865SOL    HW215495   3.804   6.592   5.336
 4866SOL     OW15496   0.312   5.477   1.551
 4866SOL    HW115497   0.240   5.445   1.613
 4866SOL    HW215498   0.282   5.466   1.456
 4867SOL     OW15499   5.835   5.089   5.209
 4867SOL    HW115500   5.892   5.171   5.220
 4867SOL    HW215501   5.854   5.025   5.283
 4868SOL     OW15502   1.777   6.021   1.673
 4868SOL    HW115503   1.871   6.027   1.708
 4868SOL    HW215504   1.724   5.960   1.730
 4869SOL     OW15505   6.677   1.239   1.851
 4869SOL    HW115506   6.689   1.163   1.787
 4869SOL    HW215507   6.583   1.239   1.885
 4870SOL     OW15508   6.378   0.848   1.050
 4870SOL    HW115509   6.380   0.939   1.091
 4870SOL    HW215510   6.470   0.809   1.048
 4871SOL     OW15511   1.626   3.487   4.462
 4871SOL    HW115512   1.658   3.492   4.556
 4871SOL    HW215513   1.652   3.571   4.413
 4872SOL     OW15514   1.452   2.132   3.559
 4872SOL    HW115515   1.490   2.048   3.519
 4872SOL    HW215516   1.354   2.136   3.538
 4873SOL     OW15517   1.052   6.531   5.248
 4873SOL    HW115518   1.145   6.541   5.212
 4873SOL    HW215519   0.992   6.499   5.175
 4874SOL     OW15520   6.233   2.517   3.668
 4874SOL    HW115521   6.290   2.475   3.739
 4874SOL    HW215522   6.226   2.455   3.590
 4875SOL     OW15523   0.302   2.893   6.499
 4875SOL    HW115524   0.402   2.883   6.497
 4875SOL    HW215525   0.273   2.920   6.590
 4876SOL     OW15526   6.231   1.416   0.046
 4876SOL    HW115527   6.286   1.403   6.985
 4876SOL    HW215528   6.240   1.336   0.106
 4877SOL     OW15529   4.834   1.970   1.753
 4877SOL    HW115530   4.793   2.060   1.765
 4877SOL    HW215531   4.924   1.980   1.710
 4878SOL     OW15532   0.814   2.942   1.496
 4878SOL    HW115533   0.753   3.008   1.454
 4878SOL    HW215534   0.895   2.989   1.532
 4879SOL     OW15535   4.003   5.786   3.976
 4879SOL    HW115536   4.032   5.881   3.975
 4879SOL    HW215537   3.967   5.761   3.886
 4880SOL     OW15538   5.887   1.752   5.510
 4880SOL    HW115539   5.918   1.657   5.512
 4880SOL    HW215540   5.788   1.754   5.498
 4881SOL     OW15541   2.544   5.721   5.952
 4881SOL    HW115542   2.489   5.644   5.919
 4881SOL    HW215543   2.499   5.807   5.927
 4882SOL     OW15544   5.397   5.647   6.525
 4882SOL    HW115545   5.490   5.611   6.533
 4882SOL    HW215546   5.400   5.747   6.516
 4883SOL     OW15547   6.262   5.281   6.650
 4883SOL    HW115548   6.278   5.185   6.628
 4883SOL    HW215549   6.188   5.316   6.593
 4884SOL     OW15550   3.819   6.588   2.088
 4884SOL    HW115551   3.788   6.500   2.051
 4884SOL    HW215552   3.847   6.648   2.013
 4885SOL     OW15553   1.544   0.662   1.952
 4885SOL    HW115554   1.533   0.633   2.047
 4885SOL    HW215555   1.456   0.695   1.917
 4886SOL     OW15556   6.076   0.812   5.503
 4886SOL    HW115557   6.049   0.716   5.516
 4886SOL    HW215558   6.155   0.832   5.561
 4887SOL     OW15559   0.762   1.656   5.138
 4887SOL    HW115560   0.808   1.675   5.051
 4887SOL    HW215561   0.831   1.631   5.207
 4888SOL     OW15562   3.749   6.373   1.675
 4888SOL    HW115563   3.727   6.357   1.771
 4888SOL    HW215564   3.834   6.325   1.652
 4889SOL     OW15565   1.433   3.204   6.972
 4889SOL    HW115566   1.447   3.233   6.877
 4889SOL    HW215567   1.348   3.245   7.006
 4890SOL     OW15568   0.292   0.388   4.237
 4890SOL    HW115569   0.210   0.432   4.274
 4890SOL    HW215570   0.358   0.374   4.310
 4891SOL     OW15571   0.949   4.390   0.483
 4891SOL    HW115572   0.882   4.323   0.449
 4891SOL    HW215573   0.946   4.392   0.583
 4892SOL     OW15574   2.070   5.710   2.359
 4892SOL    HW115575   2.053   5.620   2.319
 4892SOL    HW215576   2.030   5.781   2.301
 4893SOL     OW15577   0.360   3.781   5.958
 4893SOL    HW115578   0.330   3.696   6.001
 4893SOL    HW215579   0.288   3.814   5.897
 4894SOL     OW15580   0.596   6.784   3.482
 4894SOL    HW115581   0.641   6.856   3.535
 4894SOL    HW215582   0.580   6.817   3.389
 4895SOL     OW15583   6.362   3.993   6.717
 4895SOL    HW115584   6.435   3.925   6.710
 4895SOL    HW215585   6.400   4.084   6.699
 4896SOL     OW15586   4.125   6.869   4.332
 4896SOL    HW115587   4.188   6.876   4.255
 4896SOL    HW215588   4.058   6.942   4.327
 4897SOL     OW15589   2.541   6.494   6.597
 4897SOL    HW115590   2.624   6.449   6.628
 4897SOL    HW215591   2.564   6.561   6.525
 4898SOL     OW15592   5.840   2.359   4.796
 4898SOL    HW115593   5.786   2.320   4.721
 4898SOL    HW215594   5.906   2.425   4.759
 4899SOL     OW15595   5.705   4.128   4.370
 4899SOL    HW115596   5.743   4.074   4.295
 4899SOL    HW215597   5.774   4.190   4.406
 4900SOL     OW15598   1.121   6.614   4.699
 4900SOL    HW115599   1.070   6.696   4.728
 4900SOL    HW215600   1.162   6.571   4.780
 4901SOL     OW15601   6.670   6.235   3.053
 4901SOL    HW115602   6.764   6.203   3.066
 4901SOL    HW215603   6.622   6.172   2.993
 4902SOL     OW15604   3.666   5.055   0.891
 4902SOL    HW115605   3.762   5.059   0.865
 4902SOL    HW215606   3.654   4.990   0.966
 4903SOL     OW15607   6.326   5.115   5.916
 4903SOL    HW115608   6.401   5.059   5.953
 4903SOL    HW215609   6.257   5.128   5.986
 4904SOL     OW15610   2.470   0.761   3.422
 4904SOL    HW115611   2.452   0.748   3.325
 4904SOL    HW215612   2.488   0.673   3.465
 4905SOL     OW15613   6.699   3.513   3.256
 4905SOL    HW115614   6.699   3.501   3.156
 4905SOL    HW215615   6.712   3.609   3.278
 4906SOL     OW15616   5.075   0.525   1.361
 4906SOL    HW115617   5.174   0.518   1.375
 4906SOL    HW215618   5.036   0.434   1.351
 4907SOL     OW15619   2.723   2.098   1.617
 4907SOL    HW115620   2.731   2.148   1.704
 4907SOL    HW215621   2.796   2.127   1.555
 4908SOL     OW15622   4.496   6.060   0.318
 4908SOL    HW115623   4.560   6.109   0.377
 4908SOL    HW215624   4.526   6.069   0.223
 4909SOL     OW15625   6.232   6.838   5.656
 4909SOL    HW115626   6.317   6.819   5.705
 4909SOL    HW215627   6.252   6.887   5.571
 4910SOL     OW15628   5.160   6.431   5.933
 4910SOL    HW115629   5.107   6.346   5.935
 4910SOL    HW215630   5.174   6.463   6.027
 4911SOL     OW15631   0.633   3.922   6.553
 4911SOL    HW115632   0.561   3.880   6.609
 4911SOL    HW215633   0.663   3.857   6.483
 4912SOL     OW15634   2.466   2.736   1.453
 4912SOL    HW115635   2.425   2.748   1.362
 4912SOL    HW215636   2.541   2.801   1.464
 4913SOL     OW15637   2.677   2.921   1.689
 4913SOL    HW115638   2.685   2.827   1.723
 4913SOL    HW215639   2.691   2.922   1.590
 4914SOL     OW15640   1.536   6.643   2.451
 4914SOL    HW115641   1.598   6.722   2.446
 4914SOL    HW215642   1.582   6.568   2.499
 4915SOL     OW15643   3.679   6.645   3.619
 4915SOL    HW115644   3.643   6.599   3.538
 4915SOL    HW215645   3.738   6.582   3.670
 4916SOL     OW15646   1.118   1.599   1.882
 4916SOL    HW115647   1.145   1.571   1.790
 4916SOL    HW215648   1.056   1.531   1.921
 4917SOL     OW15649   1.923   3.433   6.358
 4917SOL    HW115650   1.977   3.432   6.274
 4917SOL    HW215651   1.938   3.519   6.407
 4918SOL     OW15652   2.474   0.274   3.719
 4918SOL    HW115653   2.411   0.261   3.642
 4918SOL    HW215654   2.500   0.185   3.755
 4919SOL     OW15655   2.495   3.123   1.675
 4919SOL    HW115656   2.522   3.214   1.707
 4919SOL    HW215657   2.576   3.064   1.671
 4920SOL     OW15658   3.457   0.754   0.101
 4920SOL    HW115659   3.384   0.807   0.058
 4920SOL    HW215660   3.419   0.670   0.140
 4921SOL     OW15661   6.657   4.724   2.020
 4921SOL    HW115662   6.628   4.774   1.939
 4921SOL    HW215663   6.704   4.786   2.083
 4922SOL     OW15664   0.742   2.884   5.744
 4922SOL    HW115665   0.699   2.843   5.824
 4922SOL    HW215666   0.672   2.917   5.681
 4923SOL     OW15667   2.731   2.157   6.699
 4923SOL    HW115668   2.825   2.151   6.664
 4923SOL    HW215669   2.668   2.116   6.634
 4924SOL     OW15670   0.428   3.109   4.219
 4924SOL    HW115671   0.458   3.131   4.312
 4924SOL    HW215672   0.469   3.174   4.155
 4925SOL     OW15673   4.780   5.360   5.592
 4925SOL    HW115674   4.808   5.315   5.507
 4925SOL    HW215675   4.861   5.393   5.640
 4926SOL     OW15676   4.230   3.244   0.366
 4926SOL    HW115677   4.232   3.341   0.346
 4926SOL    HW215678   4.138   3.208   0.352
 4927SOL     OW15679   3.167   4.110   2.201
 4927SOL    HW115680   3.099   4.177   2.231
 4927SOL    HW215681   3.156   4.026   2.254
 4928SOL     OW15682   0.711   0.527   0.222
 4928SOL    HW115683   0.712   0.625   0.201
 4928SOL    HW215684   0.797   0.485   0.192
 4929SOL     OW15685   1.283   4.755   4.260
 4929SOL    HW115686   1.343   4.688   4.304
 4929SOL    HW215687   1.262   4.829   4.324
 4930SOL     OW15688   0.325   3.293   0.557
 4930SOL    HW115689   0.298   3.369   0.498
 4930SOL    HW215690   0.288   3.208   0.521
 4931SOL     OW15691   5.652   6.793   1.351
 4931SOL    HW115692   5.639   6.880   1.398
 4931SOL    HW215693   5.645   6.808   1.252
 4932SOL     OW15694   3.557   1.714   1.143
 4932SOL    HW115695   3.553   1.710   1.243
 4932SOL    HW215696   3.465   1.724   1.106
 4933SOL     OW15697   3.062   0.062   4.594
 4933SOL    HW115698   3.137   0.078   4.659
 4933SOL    HW215699   3.029   6.989   4.603
 4934SOL     OW15700   2.122   5.929   5.098
 4934SOL    HW115701   2.060   5.994   5.142
 4934SOL    HW215702   2.196   5.905   5.161
 4935SOL     OW15703   1.976   2.238   0.742
 4935SOL    HW115704   1.996   2.336   0.739
 4935SOL    HW215705   1.901   2.222   0.806
 4936SOL     OW15706   5.968   4.155   1.528
 4936SOL    HW115707   5.966   4.224   1.455
 4936SOL    HW215708   5.910   4.185   1.604
 4937SOL     OW15709   0.623   3.533   4.482
 4937SOL    HW115710   0.559   3.579   4.544
 4937SOL    HW215711   0.598   3.553   4.388
 4938SOL     OW15712   3.524   4.394   1.459
 4938SOL    HW115713   3.491   4.478   1.416
 4938SOL    HW215714   3.483   4.385   1.550
 4939SOL     OW15715   1.433   1.139   1.140
 4939SOL    HW115716   1.527   1.108   1.149
 4939SOL    HW215717   1.382   1.118   1.223
 4940SOL     OW15718   1.057   1.752   5.412
 4940SOL    HW115719   1.054   1.845   5.376
 4940SOL    HW215720   0.995   1.744   5.490
 4941SOL     OW15721   4.017   2.186   5.436
 4941SOL    HW115722   3.992   2.093   5.411
 4941SOL    HW215723   4.111   2.188   5.470
 4942SOL     OW15724   6.610   0.798   3.085
 4942SOL    HW115725   6.655   0.772   3.000
 4942SOL    HW215726   6.578   0.716   3.132
 4943SOL     OW15727   4.419   2.276   6.495
 4943SOL    HW115728   4.438   2.226   6.579
 4943SOL    HW215729   4.459   2.227   6.418
 4944SOL     OW15730   1.100   5.048   0.708
 4944SOL    HW115731   1.194   5.047   0.742
 4944SOL    HW215732   1.065   5.141   0.711
 4945SOL     OW15733   2.946   0.736   5.385
 4945SOL    HW115734   2.898   0.660   5.428
 4945SOL    HW215735   3.024   0.701   5.333
 4946SOL     OW15736   2.818   6.176   0.404
 4946SOL    HW115737   2.727   6.137   0.419
 4946SOL    HW215738   2.853   6.212   0.491
 4947SOL     OW15739   1.046   0.160   1.273
 4947SOL    HW115740   1.003   0.221   1.341
 4947SOL    HW215741   1.141   0.143   1.299
 4948SOL     OW15742   1.582   2.438   2.250
 4948SOL    HW115743   1.493   2.393   2.259
 4948SOL    HW215744   1.642   2.382   2.192
 4949SOL     OW15745   6.338   4.475   5.647
 4949SOL    HW115746   6.409   4.421   5.693
 4949SOL    HW215747   6.324   4.560   5.697
 4950SOL     OW15748   3.939   4.213   5.165
 4950SOL    HW115749   3.997   4.289   5.191
 4950SOL    HW215750   3.845   4.246   5.150
 4951SOL     OW15751   4.782   5.031   3.253
 4951SOL    HW115752   4.718   5.066   3.322
 4951SOL    HW215753   4.832   4.953   3.290
 4952SOL     OW15754   0.830   0.979   6.840
 4952SOL    HW115755   0.814   1.072   6.875
 4952SOL    HW215756   0.808   0.976   6.743
 4953SOL     OW15757   1.412   1.896   5.537
 4953SOL    HW115758   1.339   1.963   5.531
 4953SOL    HW215759   1.375   1.805   5.521
 4954SOL     OW15760   3.110   3.726   5.368
 4954SOL    HW115761   3.164   3.667   5.307
 4954SOL    HW215762   3.043   3.777   5.313
 4955SOL     OW15763   4.247   5.725   0.273
 4955SOL    HW115764   4.290   5.705   0.361
 4955SOL    HW215765   4.256   5.823   0.254
 4956SOL     OW15766   2.498   0.528   4.927
 4956SOL    HW115767   2.460   0.604   4.980
 4956SOL    HW215768   2.597   0.541   4.918
 4957SOL     OW15769   5.729   5.181   0.181
 4957SOL    HW115770   5.778   5.195   0.095
 4957SOL    HW215771   5.642   5.134   0.162
 4958SOL     OW15772   3.645   5.347   0.087
 4958SOL    HW115773   3.549   5.355   0.116
 4958SOL    HW215774   3.683   5.437   0.068
 4959SOL     OW15775   6.888   2.433   2.723
 4959SOL    HW115776   6.893   2.471   2.631
 4959SOL    HW215777   6.800   2.387   2.736
 4960SOL     OW15778   5.190   4.499   4.118
 4960SOL    HW115779   5.184   4.400   4.129
 4960SOL    HW215780   5.282   4.529   4.145
 4961SOL     OW15781   3.692   2.878   2.423
 4961SOL    HW115782   3.665   2.840   2.511
 4961SOL    HW215783   3.617   2.867   2.358
 4962SOL     OW15784   1.663   2.670   6.974
 4962SOL    HW115785   1.660   2.769   6.956
 4962SOL    HW215786   1.622   2.652   0.042
 4963SOL     OW15787   0.480   4.333   6.268
 4963SOL    HW115788   0.460   4.243   6.308
 4963SOL    HW215789   0.579   4.341   6.254
 4964SOL     OW15790   1.751   4.828   4.056
 4964SOL    HW115791   1.811   4.907   4.038
 4964SOL    HW215792   1.790   4.746   4.014
 4965SOL     OW15793   2.294   6.809   2.888
 4965SOL    HW115794   2.326   6.735   2.948
 4965SOL    HW215795   2.228   6.866   2.938
 4966SOL     OW15796   4.424   0.128   4.892
 4966SOL    HW115797   4.325   0.129   4.882
 4966SOL    HW215798   4.459   0.222   4.893
 4967SOL     OW15799   4.591   4.399   4.083
 4967SOL    HW115800   4.632   4.375   4.171
 4967SOL    HW215801   4.633   4.345   4.011
 4968SOL     OW15802   6.703   3.061   4.330
 4968SOL    HW115803   6.759   3.085   4.251
 4968SOL    HW215804   6.762   3.026   4.403
 4969SOL     OW15805   0.477   5.841   4.573
 4969SOL    HW115806   0.418   5.817   4.496
 4969SOL    HW215807   0.422   5.884   4.645
 4970SOL     OW15808   2.215   1.408   1.527
 4970SOL    HW115809   2.169   1.394   1.614
 4970SOL    HW215810   2.149   1.405   1.453
 4971SOL     OW15811   0.083   5.718   1.228
 4971SOL    HW115812   0.024   5.751   1.301
 4971SOL    HW215813   0.103   5.620   1.242
 4972SOL     OW15814   0.221   4.315   6.937
 4972SOL    HW115815   0.157   4.375   6.888
 4972SOL    HW215816   0.198   4.313   0.013
 4973SOL     OW15817   5.522   2.029   6.765
 4973SOL    HW115818   5.475   2.023   6.677
 4973SOL    HW215819   5.612   1.986   6.757
 4974SOL     OW15820   3.530   6.935   5.585
 4974SOL    HW115821   3.443   6.976   5.610
 4974SOL    HW215822   3.604   6.979   5.635
 4975SOL     OW15823   5.767   3.931   1.443
 4975SOL    HW115824   5.719   3.855   1.488
 4975SOL    HW215825   5.803   3.993   1.512
 4976SOL     OW15826   0.379   0.207   3.899
 4976SOL    HW115827   0.460   0.148   3.898
 4976SOL    HW215828   0.405   0.300   3.924
 4977SOL     OW15829   1.445   3.842   5.443
 4977SOL    HW115830   1.356   3.795   5.443
 4977SOL    HW215831   1.436   3.929   5.491
 4978SOL     OW15832   6.246   4.799   4.554
 4978SOL    HW115833   6.336   4.794   4.511
 4978SOL    HW215834   6.247   4.872   4.623
 4979SOL     OW15835   2.749   6.990   6.584
 4979SOL    HW115836   2.662   6.953   6.553
 4979SOL    HW215837   2.818   6.918   6.585
 4980SOL     OW15838   5.955   3.204   4.147
 4980SOL    HW115839   5.859   3.232   4.159
 4980SOL    HW215840   5.994   3.252   4.068
 4981SOL     OW15841   3.567   6.119   3.479
 4981SOL    HW115842   3.504   6.114   3.557
 4981SOL    HW215843   3.572   6.029   3.436
 4982SOL     OW15844   4.187   1.997   4.964
 4982SOL    HW115845   4.138   1.945   4.895
 4982SOL    HW215846   4.275   1.953   4.982
 4983SOL     OW15847   6.295   3.485   2.979
 4983SOL    HW115848   6.296   3.391   2.944
 4983SOL    HW215849   6.204   3.524   2.968
 4984SOL     OW15850   4.901   3.555   4.747
 4984SOL    HW115851   4.905   3.462   4.712
 4984SOL    HW215852   4.860   3.555   4.838
 4985SOL     OW15853   5.542   0.547   2.308
 4985SOL    HW115854   5.501   0.511   2.391
 4985SOL    HW215855   5.629   0.591   2.329
 4986SOL     OW15856   1.575   5.052   1.517
 4986SOL    HW115857   1.619   5.008   1.438
 4986SOL    HW215858   1.532   4.982   1.574
 4987SOL     OW15859   1.981   2.991   2.565
 4987SOL    HW115860   2.032   2.911   2.595
 4987SOL    HW215861   2.019   3.073   2.609
 4988SOL     OW15862   6.399   5.479   4.365
 4988SOL    HW115863   6.364   5.500   4.274
 4988SOL    HW215864   6.419   5.564   4.413
 4989SOL     OW15865   6.782   0.085   3.471
 4989SOL    HW115866   6.800   7.008   3.472
 4989SOL    HW215867   6.789   0.121   3.564
 4990SOL     OW15868   4.592   1.643   6.730
 4990SOL    HW115869   4.677   1.599   6.758
 4990SOL    HW215870   4.593   1.657   6.631
 4991SOL     OW15871   1.749   6.013   6.314
 4991SOL    HW115872   1.776   6.048   6.224
 4991SOL    HW215873   1.733   6.090   6.376
 4992SOL     OW15874   1.529   4.000   4.095
 4992SOL    HW115875   1.547   3.932   4.166
 4992SOL    HW215876   1.431   4.002   4.075
 4993SOL     OW15877   2.186   6.591   3.754
 4993SOL    HW115878   2.157   6.495   3.753
 4993SOL    HW215879   2.236   6.610   3.838
 4994SOL     OW15880   3.322   5.417   5.378
 4994SOL    HW115881   3.288   5.336   5.329
 4994SOL    HW215882   3.398   5.390   5.437
 4995SOL     OW15883   0.455   1.002   6.141
 4995SOL    HW115884   0.487   0.922   6.191
 4995SOL    HW215885   0.470   1.084   6.196
 4996SOL     OW15886   6.866   1.069   3.609
 4996SOL    HW115887   6.828   1.134   3.544
 4996SOL    HW215888   6.796   1.003   3.636
 4997SOL     OW15889   4.226   1.788   0.564
 4997SOL    HW115890   4.286   1.708   0.566
 4997SOL    HW215891   4.235   1.839   0.649
 4998SOL     OW15892   1.071   4.202   3.617
 4998SOL    HW115893   0.976   4.225   3.595
 4998SOL    HW215894   1.074   4.115   3.665
 4999SOL     OW15895   0.555   3.225   3.972
 4999SOL    HW115896   0.642   3.179   3.992
 4999SOL    HW215897   0.573   3.319   3.944
 5000SOL     OW15898   2.645   6.835   3.027
 5000SOL    HW115899   2.693   6.755   3.061
 5000SOL    HW215900   2.667   6.849   2.930
 5001SOL     OW15901   0.426   5.506   3.265
 5001SOL    HW115902   0.389   5.544   3.350
 5001SOL    HW215903   0.509   5.453   3.285
 5002SOL     OW15904   1.775   5.001   3.623
 5002SOL    HW115905   1.770   4.918   3.678
 5002SOL    HW215906   1.794   4.978   3.528
 5003SOL     OW15907   3.399   0.613   2.029
 5003SOL    HW115908   3.406   0.537   2.093
 5003SOL    HW215909   3.306   0.618   1.994
 5004SOL     OW15910   3.924   6.171   0.561
 5004SOL    HW115911   3.905   6.074   0.578
 5004SOL    HW215912   4.017   6.192   0.592
 5005SOL     OW15913   3.206   2.868   1.055
 5005SOL    HW115914   3.173   2.808   0.982
 5005SOL    HW215915   3.172   2.834   1.143
 5006SOL     OW15916   5.144   0.555   2.065
 5006SOL    HW115917   5.114   0.478   2.122
 5006SOL    HW215918   5.086   0.634   2.084
 5007SOL     OW15919   6.229   5.566   2.251
 5007SOL    HW115920   6.307   5.554   2.313
 5007SOL    HW215921   6.206   5.477   2.209
 5008SOL     OW15922   5.056   6.875   3.482
 5008SOL    HW115923   4.984   6.806   3.490
 5008SOL    HW215924   5.106   6.881   3.569
 5009SOL     OW15925   0.616   1.760   0.449
 5009SOL    HW115926   0.592   1.855   0.427
 5009SOL    HW215927   0.667   1.758   0.536
 5010SOL     OW15928   4.961   3.617   1.412
 5010SOL    HW115929   4.930   3.639   1.319
 5010SOL    HW215930   5.043   3.561   1.407
 5011SOL     OW15931   1.821   2.517   6.142
 5011SOL    HW115932   1.911   2.486   6.171
 5011SOL    HW215933   1.826   2.613   6.112
 5012SOL     OW15934   6.064   1.684   5.912
 5012SOL    HW115935   5.987   1.748   5.906
 5012SOL    HW215936   6.064   1.624   5.832
 5013SOL     OW15937   5.405   0.036   5.582
 5013SOL    HW115938   5.339   0.101   5.620
 5013SOL    HW215939   5.362   6.968   5.571
 5014SOL     OW15940   6.224   3.406   1.356
 5014SOL    HW115941   6.240   3.497   1.393
 5014SOL    HW215942   6.135   3.403   1.311
 5015SOL     OW15943   5.947   5.491   4.228
 5015SOL    HW115944   5.927   5.393   4.226
 5015SOL    HW215945   5.969   5.519   4.322
 5016SOL     OW15946   1.721   2.871   6.498
 5016SOL    HW115947   1.706   2.773   6.512
 5016SOL    HW215948   1.638   2.913   6.462
 5017SOL     OW15949   0.202   2.473   1.930
 5017SOL    HW115950   0.105   2.469   1.957
 5017SOL    HW215951   0.258   2.488   2.012
 5018SOL     OW15952   1.227   0.853   6.813
 5018SOL    HW115953   1.227   0.772   6.755
 5018SOL    HW215954   1.303   0.848   6.878
 5019SOL     OW15955   1.688   4.377   4.005
 5019SOL    HW115956   1.593   4.377   3.972
 5019SOL    HW215957   1.749   4.407   3.932
 5020SOL     OW15958   1.653   0.335   4.281
 5020SOL    HW115959   1.554   0.338   4.265
 5020SOL    HW215960   1.700   0.315   4.195
 5021SOL     OW15961   2.788   0.535   1.438
 5021SOL    HW115962   2.747   0.494   1.519
 5021SOL    HW215963   2.886   0.548   1.452
 5022SOL     OW15964   6.414   2.677   0.958
 5022SOL    HW115965   6.379   2.771   0.948
 5022SOL    HW215966   6.503   2.680   1.004
 5023SOL     OW15967   0.166   3.721   2.875
 5023SOL    HW115968   0.152   3.754   2.968
 5023SOL    HW215969   0.109   3.641   2.859
 5024SOL     OW15970   5.003   4.196   0.428
 5024SOL    HW115971   4.988   4.292   0.450
 5024SOL    HW215972   4.988   4.181   0.330
 5025SOL     OW15973   5.018   2.152   4.813
 5025SOL    HW115974   5.009   2.193   4.904
 5025SOL    HW215975   4.971   2.209   4.746
 5026SOL     OW15976   5.448   6.035   4.985
 5026SOL    HW115977   5.364   6.040   4.931
 5026SOL    HW215978   5.454   5.945   5.027
 5027SOL     OW15979   5.405   6.564   0.548
 5027SOL    HW115980   5.378   6.468   0.539
 5027SOL    HW215981   5.473   6.586   0.477
 5028SOL     OW15982   6.284   2.098   2.127
 5028SOL    HW115983   6.233   2.142   2.053
 5028SOL    HW215984   6.301   2.164   2.200
 5029SOL     OW15985   5.004   2.101   2.862
 5029SOL    HW115986   5.073   2.161   2.902
 5029SOL    HW215987   4.981   2.029   2.927
 5030SOL     OW15988   0.031   3.773   0.476
 5030SOL    HW115989   6.961   3.752   0.513
 5030SOL    HW215990   0.026   3.773   0.376
 5031SOL     OW15991   6.563   0.059   5.818
 5031SOL    HW115992   6.616   0.104   5.890
 5031SOL    HW215993   6.506   0.126   5.772
 5032SOL     OW15994   2.498   4.279   6.034
 5032SOL    HW115995   2.477   4.200   6.091
 5032SOL    HW215996   2.562   4.339   6.081
 5033SOL     OW15997   2.321   6.870   5.889
 5033SOL    HW115998   2.237   6.821   5.913
 5033SOL    HW215999   2.399   6.809   5.897
 5034SOL     OW16000   4.356   6.019   4.572
 5034SOL    HW116001   4.359   6.025   4.672
 5034SOL    HW216002   4.387   6.106   4.533
 5035SOL     OW16003   2.106   3.636   3.413
 5035SOL    HW116004   2.046   3.708   3.378
 5035SOL    HW216005   2.126   3.653   3.509
 5036SOL     OW16006   1.366   2.905   4.862
 5036SOL    HW116007   1.401   2.995   4.887
 5036SOL    HW216008   1.266   2.909   4.856
 5037SOL     OW16009   4.791   4.406   1.227
 5037SOL    HW116010   4.832   4.495   1.204
 5037SOL    HW216011   4.858   4.334   1.211
 5038SOL     OW16012   3.261   3.777   3.604
 5038SOL    HW116013   3.205   3.695   3.613
 5038SOL    HW216014   3.342   3.768   3.663
 5039SOL     OW16015   0.838   3.804   0.203
 5039SOL    HW116016   0.741   3.825   0.189
 5039SOL    HW216017   0.888   3.816   0.117
 5040SOL     OW16018   0.345   1.204   5.035
 5040SOL    HW116019   0.399   1.242   5.110
 5040SOL    HW216020   0.248   1.202   5.061
 5041SOL     OW16021   6.955   2.064   1.331
 5041SOL    HW116022   7.012   1.995   1.375
 5041SOL    HW216023   6.929   2.032   1.240
 5042SOL     OW16024   1.211   2.061   5.549
 5042SOL    HW116025   1.247   2.115   5.625
 5042SOL    HW216026   1.112   2.070   5.545
 5043SOL     OW16027   3.301   6.546   2.049
 5043SOL    HW116028   3.366   6.567   1.976
 5043SOL    HW216029   3.292   6.447   2.058
 5044SOL     OW16030   0.054   5.525   0.173
 5044SOL    HW116031   0.068   5.599   0.107
 5044SOL    HW216032   0.079   5.556   0.265
 5045SOL     OW16033   5.584   2.267   0.787
 5045SOL    HW116034   5.619   2.179   0.818
 5045SOL    HW216035   5.518   2.303   0.853
 5046SOL     OW16036   3.740   3.185   2.558
 5046SOL    HW116037   3.805   3.259   2.571
 5046SOL    HW216038   3.780   3.116   2.497
 5047SOL     OW16039   1.781   3.572   3.309
 5047SOL    HW116040   1.708   3.508   3.336
 5047SOL    HW216041   1.864   3.521   3.289
 5048SOL     OW16042   2.874   0.457   6.460
 5048SOL    HW116043   2.826   0.385   6.510
 5048SOL    HW216044   2.972   0.444   6.469
 5049SOL     OW16045   3.974   1.628   6.927
 5049SOL    HW116046   4.012   1.557   6.986
 5049SOL    HW216047   4.013   1.716   6.953
 5050SOL     OW16048   1.787   0.705   0.605
 5050SOL    HW116049   1.839   0.769   0.550
 5050SOL    HW216050   1.694   0.696   0.568
 5051SOL     OW16051   4.967   4.924   1.075
 5051SOL    HW116052   4.955   4.947   1.172
 5051SOL    HW216053   4.892   4.962   1.022
 5052SOL     OW16054   1.716   2.755   4.728
 5052SOL    HW116055   1.754   2.804   4.649
 5052SOL    HW216056   1.790   2.733   4.792
 5053SOL     OW16057   6.726   0.972   1.071
 5053SOL    HW116058   6.705   1.006   1.163
 5053SOL    HW216059   6.695   0.878   1.063
 5054SOL     OW16060   3.956   5.407   3.697
 5054SOL    HW116061   3.876   5.466   3.701
 5054SOL    HW216062   4.038   5.460   3.720
 5055SOL     OW16063   0.327   3.644   5.532
 5055SOL    HW116064   0.336   3.744   5.529
 5055SOL    HW216065   0.410   3.603   5.494
 5056SOL     OW16066   6.156   3.788   3.914
 5056SOL    HW116067   6.173   3.783   3.816
 5056SOL    HW216068   6.098   3.867   3.934
 5057SOL     OW16069   0.081   5.791   2.074
 5057SOL    HW116070   0.063   5.744   2.161
 5057SOL    HW216071   0.125   5.879   2.092
 5058SOL     OW16072   2.635   5.617   6.180
 5058SOL    HW116073   2.713   5.677   6.196
 5058SOL    HW216074   2.595   5.637   6.090
 5059SOL     OW16075   6.925   0.348   2.529
 5059SOL    HW116076   6.921   0.369   2.431
 5059SOL    HW216077   7.003   0.288   2.547
 5060SOL     OW16078   0.086   2.462   6.262
 5060SOL    HW116079   0.086   2.555   6.299
 5060SOL    HW216080   0.060   2.398   6.333
 5061SOL     OW16081   5.433   3.727   0.969
 5061SOL    HW116082   5.435   3.734   1.068
 5061SOL    HW216083   5.361   3.662   0.942
 5062SOL     OW16084   6.335   0.189   0.835
 5062SOL    HW116085   6.252   0.152   0.877
 5062SOL    HW216086   6.320   0.199   0.736
 5063SOL     OW16087   1.407   6.184   2.529
 5063SOL    HW116088   1.434   6.224   2.617
 5063SOL    HW216089   1.319   6.137   2.540
 5064SOL     OW16090   4.910   3.856   0.117
 5064SOL    HW116091   4.857   3.807   0.186
 5064SOL    HW216092   4.861   3.855   0.030
 5065SOL     OW16093   2.935   6.523   6.150
 5065SOL    HW116094   2.846   6.481   6.134
 5065SOL    HW216095   2.924   6.622   6.162
 5066SOL     OW16096   4.320   4.848   1.356
 5066SOL    HW116097   4.367   4.923   1.402
 5066SOL    HW216098   4.385   4.796   1.301
 5067SOL     OW16099   5.269   1.324   6.896
 5067SOL    HW116100   5.266   1.405   6.837
 5067SOL    HW216101   5.216   1.341   6.979
 5068SOL     OW16102   3.764   4.778   1.302
 5068SOL    HW116103   3.852   4.825   1.311
 5068SOL    HW216104   3.774   4.682   1.328
 5069SOL     OW16105   6.713   5.530   2.808
 5069SOL    HW116106   6.697   5.488   2.719
 5069SOL    HW216107   6.627   5.564   2.845
 5070SOL     OW16108   4.901   3.284   3.983
 5070SOL    HW116109   4.935   3.191   3.971
 5070SOL    HW216110   4.822   3.299   3.923
 5071SOL     OW16111   4.407   0.585   0.034
 5071SOL    HW116112   4.430   0.488   0.035
 5071SOL    HW216113   4.485   0.637   7.018
 5072SOL     OW16114   0.551   3.963   1.095
 5072SOL    HW116115   0.630   4.015   1.064
 5072SOL    HW216116   0.488   3.949   1.019
 5073SOL     OW16117   4.367   2.376   4.291
 5073SOL    HW116118   4.350   2.403   4.386
 5073SOL    HW216119   4.457   2.408   4.263
 5074SOL     OW16120   4.251   4.788   5.044
 5074SOL    HW116121   4.157   4.776   5.012
 5074SOL    HW216122   4.304   4.706   5.023
 5075SOL     OW16123   6.801   6.829   3.874
 5075SOL    HW116124   6.842   6.908   3.920
 5075SOL    HW216125   6.722   6.859   3.821
 5076SOL     OW16126   4.289   0.510   1.088
 5076SOL    HW116127   4.338   0.422   1.086
 5076SOL    HW216128   4.326   0.567   1.162
 5077SOL     OW16129   6.609   2.724   2.202
 5077SOL    HW116130   6.676   2.760   2.268
 5077SOL    HW216131   6.657   2.675   2.130
 5078SOL     OW16132   0.119   0.976   4.006
 5078SOL    HW116133   0.158   0.892   4.043
 5078SOL    HW216134   0.095   0.962   3.910
 5079SOL     OW16135   4.563   4.924   4.811
 5079SOL    HW116136   4.533   5.019   4.808
 5079SOL    HW216137   4.490   4.865   4.776
 5080SOL     OW16138   5.870   0.587   5.549
 5080SOL    HW116139   5.817   0.505   5.571
 5080SOL    HW216140   5.828   0.667   5.593
 5081SOL     OW16141   3.392   3.416   2.747
 5081SOL    HW116142   3.359   3.510   2.744
 5081SOL    HW216143   3.327   3.357   2.699
 5082SOL     OW16144   0.433   0.627   5.850
 5082SOL    HW116145   0.484   0.711   5.835
 5082SOL    HW216146   0.436   0.603   5.947
 5083SOL     OW16147   1.021   5.522   2.066
 5083SOL    HW116148   1.057   5.432   2.090
 5083SOL    HW216149   1.050   5.589   2.135
 5084SOL     OW16150   1.080   5.620   2.477
 5084SOL    HW116151   1.139   5.590   2.402
 5084SOL    HW216152   1.043   5.710   2.456
 5085SOL     OW16153   6.655   3.333   6.668
 5085SOL    HW116154   6.753   3.346   6.650
 5085SOL    HW216155   6.628   3.240   6.644
 5086SOL     OW16156   6.617   5.547   4.728
 5086SOL    HW116157   6.530   5.595   4.738
 5086SOL    HW216158   6.623   5.507   4.636
 5087SOL     OW16159   6.406   5.369   4.975
 5087SOL    HW116160   6.362   5.415   5.052
 5087SOL    HW216161   6.390   5.421   4.892
 5088SOL     OW16162   5.882   0.821   0.420
 5088SOL    HW116163   5.889   0.721   0.418
 5088SOL    HW216164   5.971   0.862   0.401
 5089SOL     OW16165   5.947   2.603   4.434
 5089SOL    HW116166   5.956   2.675   4.365
 5089SOL    HW216167   5.882   2.534   4.400
 5090SOL     OW16168   0.966   5.431   0.528
 5090SOL    HW116169   0.866   5.429   0.534
 5090SOL    HW216170   0.995   5.417   0.434
 5091SOL     OW16171   0.868   6.443   3.631
 5091SOL    HW116172   0.895   6.425   3.536
 5091SOL    HW216173   0.943   6.421   3.692
 5092SOL     OW16174   3.448   2.976   1.149
 5092SOL    HW116175   3.367   2.949   1.097
 5092SOL    HW216176   3.433   2.960   1.246
 5093SOL     OW16177   1.071   1.890   1.289
 5093SOL    HW116178   1.120   1.972   1.259
 5093SOL    HW216179   1.114   1.809   1.249
 5094SOL     OW16180   6.967   0.207   6.873
 5094SOL    HW116181   0.037   0.195   6.915
 5094SOL    HW216182   6.905   0.138   6.909
 5095SOL     OW16183   2.919   0.231   5.465
 5095SOL    HW116184   3.001   0.223   5.522
 5095SOL    HW216185   2.862   0.150   5.477
 5096SOL     OW16186   3.928   6.189   2.965
 5096SOL    HW116187   3.946   6.239   3.049
 5096SOL    HW216188   3.909   6.255   2.891
 5097SOL     OW16189   1.000   1.456   6.332
 5097SOL    HW116190   0.943   1.375   6.346
 5097SOL    HW216191   1.095   1.428   6.315
 5098SOL     OW16192   6.771   2.626   3.010
 5098SOL    HW116193   6.813   2.544   2.971
 5098SOL    HW216194   6.829   2.706   2.991
 5099SOL     OW16195   0.948   0.682   4.116
 5099SOL    HW116196   0.983   0.748   4.049
 5099SOL    HW216197   1.025   0.642   4.165
 5100SOL     OW16198   4.755   5.303   5.998
 5100SOL    HW116199   4.730   5.393   6.034
 5100SOL    HW216200   4.854   5.300   5.982
 5101SOL     OW16201   4.836   6.053   0.607
 5101SOL    HW116202   4.800   6.035   0.699
 5101SOL    HW216203   4.762   6.087   0.549
 5102SOL     OW16204   3.612   5.291   4.179
 5102SOL    HW116205   3.557   5.360   4.224
 5102SOL    HW216206   3.571   5.269   4.090
 5103SOL     OW16207   1.319   1.746   3.963
 5103SOL    HW116208   1.416   1.731   3.945
 5103SOL    HW216209   1.295   1.839   3.937
 5104SOL     OW16210   0.740   0.712   1.019
 5104SOL    HW116211   0.736   0.725   0.920
 5104SOL    HW216212   0.654   0.673   1.052
 5105SOL     OW16213   1.925   2.910   6.314
 5105SOL    HW116214   1.997   2.964   6.358
 5105SOL    HW216215   1.842   2.915   6.369
 5106SOL     OW16216   2.424   7.019   2.084
 5106SOL    HW116217   2.455   6.992   2.176
 5106SOL    HW216218   2.503   0.024   2.029
 5107SOL     OW16219   2.223   0.019   6.650
 5107SOL    HW116220   2.170   0.103   6.640
 5107SOL    HW216221   2.172   6.974   6.706
 5108SOL     OW16222   3.412   4.153   4.215
 5108SOL    HW116223   3.430   4.166   4.313
 5108SOL    HW216224   3.480   4.204   4.163
 5109SOL     OW16225   6.623   1.876   2.467
 5109SOL    HW116226   6.681   1.938   2.414
 5109SOL    HW216227   6.546   1.927   2.507
 5110SOL     OW16228   2.165   6.211   5.485
 5110SOL    HW116229   2.252   6.175   5.519
 5110SOL    HW216230   2.172   6.227   5.387
 5111SOL     OW16231   1.539   0.618   0.130
 5111SOL    HW116232   1.449   0.632   0.171
 5111SOL    HW216233   1.567   0.522   0.142
 5112SOL     OW16234   0.195   6.675   3.228
 5112SOL    HW116235   0.245   6.590   3.210
 5112SOL    HW216236   0.248   6.733   3.290
 5113SOL     OW16237   0.379   0.651   6.126
 5113SOL    HW116238   0.318   0.606   6.191
 5113SOL    HW216239   0.466   0.671   6.171
 5114SOL     OW16240   3.924   5.598   6.478
 5114SOL    HW116241   3.901   5.691   6.448
 5114SOL    HW216242   4.010   5.601   6.529
 5115SOL     OW16243   2.326   3.725   5.297
 5115SOL    HW116244   2.315   3.634   5.259
 5115SOL    HW216245   2.371   3.785   5.230
 5116SOL     OW16246   6.617   3.544   1.007
 5116SOL    HW116247   6.525   3.555   1.044
 5116SOL    HW216248   6.616   3.568   0.910
 5117SOL     OW16249   2.691   5.209   2.574
 5117SOL    HW116250   2.656   5.134   2.630
 5117SOL    HW216251   2.623   5.281   2.568
 5118SOL     OW16252   3.778   6.758   1.772
 5118SOL    HW116253   3.770   6.855   1.798
 5118SOL    HW216254   3.729   6.743   1.687
 5119SOL     OW16255   6.288   0.119   2.616
 5119SOL    HW116256   6.320   0.185   2.683
 5119SOL    HW216257   6.190   0.129   2.602
 5120SOL     OW16258   3.334   1.332   2.063
 5120SOL    HW116259   3.336   1.271   1.984
 5120SOL    HW216260   3.313   1.425   2.032
 5121SOL     OW16261   0.498   3.873   4.179
 5121SOL    HW116262   0.502   3.791   4.235
 5121SOL    HW216263   0.493   3.954   4.238
 5122SOL     OW16264   2.377   5.457   3.446
 5122SOL    HW116265   2.305   5.391   3.425
 5122SOL    HW216266   2.375   5.531   3.379
 5123SOL     OW16267   6.575   3.402   2.193
 5123SOL    HW116268   6.537   3.312   2.213
 5123SOL    HW216269   6.524   3.445   2.119
 5124SOL     OW16270   2.486   6.127   0.925
 5124SOL    HW116271   2.447   6.150   1.015
 5124SOL    HW216272   2.421   6.152   0.854
 5125SOL     OW16273   0.320   2.198   5.784
 5125SOL    HW116274   0.226   2.229   5.770
 5125SOL    HW216275   0.333   2.172   5.880
 5126SOL     OW16276   4.151   2.107   0.185
 5126SOL    HW116277   4.227   2.172   0.189
 5126SOL    HW216278   4.176   2.023   0.233
 5127SOL     OW16279   5.066   3.301   6.627
 5127SOL    HW116280   4.972   3.295   6.660
 5127SOL    HW216281   5.070   3.271   6.532
 5128SOL     OW16282   6.934   0.067   6.347
 5128SOL    HW116283   6.923   0.146   6.286
 5128SOL    HW216284   7.003   0.088   6.416
 5129SOL     OW16285   4.822   2.649   3.863
 5129SOL    HW116286   4.791   2.702   3.942
 5129SOL    HW216287   4.745   2.596   3.826
 5130SOL     OW16288   1.787   6.475   5.193
 5130SOL    HW116289   1.695   6.448   5.222
 5130SOL    HW216290   1.846   6.486   5.273
 5131SOL     OW16291   3.767   4.914   3.219
 5131SOL    HW116292   3.846   4.853   3.212
 5131SOL    HW216293   3.687   4.862   3.251
 5132SOL     OW16294   3.959   2.097   6.542
 5132SOL    HW116295   4.033   2.044   6.584
 5132SOL    HW216296   3.986   2.193   6.534
 5133SOL     OW16297   4.790   4.439   6.622
 5133SOL    HW116298   4.699   4.407   6.597
 5133SOL    HW216299   4.854   4.362   6.619
 5134SOL     OW16300   5.587   5.771   6.972
 5134SOL    HW116301   5.524   5.700   6.940
 5134SOL    HW216302   5.640   5.736   0.029
 5135SOL     OW16303   6.693   3.092   2.474
 5135SOL    HW116304   6.673   3.120   2.380
 5135SOL    HW216305   6.736   3.168   2.524
 5136SOL     OW16306   0.327   0.700   4.593
 5136SOL    HW116307   0.384   0.655   4.662
 5136SOL    HW216308   0.236   0.658   4.592
 5137SOL     OW16309   5.435   0.351   3.354
 5137SOL    HW116310   5.519   0.405   3.361
 5137SOL    HW216311   5.361   0.408   3.319
 5138SOL     OW16312   3.044   3.307   2.339
 5138SOL    HW116313   3.070   3.213   2.359
 5138SOL    HW216314   3.038   3.320   2.240
 5139SOL     OW16315   4.487   0.246   4.501
 5139SOL    HW116316   4.424   0.256   4.424
 5139SOL    HW216317   4.440   0.271   4.585
 5140SOL     OW16318   3.465   3.774   6.433
 5140SOL    HW116319   3.467   3.819   6.344
 5140SOL    HW216320   3.557   3.744   6.458
 5141SOL     OW16321   0.990   3.205   1.500
 5141SOL    HW116322   1.064   3.273   1.506
 5141SOL    HW216323   1.011   3.138   1.429
 5142SOL     OW16324   0.374   6.860   2.710
 5142SOL    HW116325   0.446   6.919   2.748
 5142SOL    HW216326   0.356   6.785   2.774
 5143SOL     OW16327   6.965   6.229   2.126
 5143SOL    HW116328   6.896   6.280   2.178
 5143SOL    HW216329   6.921   6.185   2.048
 5144SOL     OW16330   1.940   3.220   4.904
 5144SOL    HW116331   1.890   3.141   4.868
 5144SOL    HW216332   1.980   3.197   4.992
 5145SOL     OW16333   2.209   5.858   5.462
 5145SOL    HW116334   2.190   5.951   5.431
 5145SOL    HW216335   2.308   5.845   5.468
 5146SOL     OW16336   6.188   5.653   6.228
 5146SOL    HW116337   6.229   5.566   6.202
 5146SOL    HW216338   6.110   5.637   6.288
 5147SOL     OW16339   5.613   2.048   4.122
 5147SOL    HW116340   5.520   2.013   4.110
 5147SOL    HW216341   5.675   1.971   4.139
 5148SOL     OW16342   6.024   1.372   0.371
 5148SOL    HW116343   5.985   1.350   0.282
 5148SOL    HW216344   5.951   1.373   0.440
 5149SOL     OW16345   3.918   5.831   4.289
 5149SOL    HW116346   3.973   5.912   4.310
 5149SOL    HW216347   3.937   5.800   4.196
 5150SOL     OW16348   6.569   0.589   3.240
 5150SOL    HW116349   6.600   0.616   3.332
 5150SOL    HW216350   6.584   0.491   3.228
 5151SOL     OW16351   5.228   4.809   1.384
 5151SOL    HW116352   5.316   4.772   1.354
 5151SOL    HW216353   5.164   4.733   1.399
 5152SOL     OW16354   2.189   2.015   0.660
 5152SOL    HW116355   2.159   2.110   0.650
 5152SOL    HW216356   2.266   1.997   0.599
 5153SOL     OW16357   2.410   2.627   0.714
 5153SOL    HW116358   2.420   2.650   0.617
 5153SOL    HW216359   2.482   2.672   0.767
 5154SOL     OW16360   0.521   2.556   0.499
 5154SOL    HW116361   0.463   2.637   0.503
 5154SOL    HW216362   0.617   2.584   0.496
 5155SOL     OW16363   1.700   1.085   0.163
 5155SOL    HW116364   1.620   1.089   0.103
 5155SOL    HW216365   1.773   1.034   0.118
 5156SOL     OW16366   5.398   5.104   6.166
 5156SOL    HW116367   5.303   5.117   6.194
 5156SOL    HW216368   5.402   5.037   6.092
 5157SOL     OW16369   3.648   1.194   1.906
 5157SOL    HW116370   3.732   1.141   1.904
 5157SOL    HW216371   3.663   1.284   1.864
 5158SOL     OW16372   1.584   2.135   2.200
 5158SOL    HW116373   1.571   2.046   2.157
 5158SOL    HW216374   1.618   2.200   2.132
 5159SOL     OW16375   6.708   3.116   5.259
 5159SOL    HW116376   6.696   3.182   5.333
 5159SOL    HW216377   6.680   3.025   5.291
 5160SOL     OW16378   6.963   6.941   3.088
 5160SOL    HW116379   0.028   6.949   3.139
 5160SOL    HW216380   6.962   6.856   3.035
 5161SOL     OW16381   1.209   1.901   6.147
 5161SOL    HW116382   1.167   1.820   6.188
 5161SOL    HW216383   1.295   1.876   6.104
 5162SOL     OW16384   0.442   6.912   5.401
 5162SOL    HW116385   0.506   6.910   5.324
 5162SOL    HW216386   0.348   6.904   5.366
 5163SOL     OW16387   2.740   0.767   1.760
 5163SOL    HW116388   2.681   0.842   1.730
 5163SOL    HW216389   2.731   0.690   1.697
 5164SOL     OW16390   2.726   3.829   6.901
 5164SOL    HW116391   2.747   3.784   6.814
 5164SOL    HW216392   2.639   3.878   6.893
 5165SOL     OW16393   1.809   4.983   5.875
 5165SOL    HW116394   1.844   4.906   5.928
 5165SOL    HW216395   1.815   5.067   5.930
 5166SOL     OW16396   6.832   5.745   5.467
 5166SOL    HW116397   6.797   5.751   5.561
 5166SOL    HW216398   6.903   5.814   5.454
 5167SOL     OW16399   6.126   3.776   5.868
 5167SOL    HW116400   6.127   3.748   5.771
 5167SOL    HW216401   6.140   3.875   5.874
 5168SOL     OW16402   4.786   1.841   3.581
 5168SOL    HW116403   4.738   1.834   3.493
 5168SOL    HW216404   4.846   1.762   3.593
 5169SOL     OW16405   5.345   5.679   4.323
 5169SOL    HW116406   5.309   5.667   4.230
 5169SOL    HW216407   5.311   5.764   4.362
 5170SOL     OW16408   1.948   4.331   5.932
 5170SOL    HW116409   2.014   4.401   5.905
 5170SOL    HW216410   1.994   4.243   5.940
 5171SOL     OW16411   2.383   6.727   6.292
 5171SOL    HW116412   2.283   6.732   6.299
 5171SOL    HW216413   2.409   6.633   6.269
 5172SOL     OW16414   5.668   5.487   6.197
 5172SOL    HW116415   5.680   5.537   6.111
 5172SOL    HW216416   5.722   5.531   6.269
 5173SOL     OW16417   4.032   5.380   4.628
 5173SOL    HW116418   4.002   5.447   4.560
 5173SOL    HW216419   4.067   5.299   4.582
 5174SOL     OW16420   0.977   6.208   3.063
 5174SOL    HW116421   0.972   6.187   2.966
 5174SOL    HW216422   1.071   6.198   3.095
 5175SOL     OW16423   2.345   1.788   6.517
 5175SOL    HW116424   2.436   1.746   6.510
 5175SOL    HW216425   2.304   1.764   6.605
 5176SOL     OW16426   6.295   6.177   6.594
 5176SOL    HW116427   6.357   6.127   6.533
 5176SOL    HW216428   6.240   6.241   6.540
 5177SOL     OW16429   5.266   5.851   0.738
 5177SOL    HW116430   5.186   5.826   0.684
 5177SOL    HW216431   5.307   5.769   0.778
 5178SOL     OW16432   0.198   3.839   1.312
 5178SOL    HW116433   0.212   3.834   1.213
 5178SOL    HW216434   0.258   3.772   1.357
 5179SOL     OW16435   4.998   5.110   3.076
 5179SOL    HW116436   4.950   5.076   3.157
 5179SOL    HW216437   4.999   5.040   3.006
 5180SOL     OW16438   1.864   4.754   1.938
 5180SOL    HW116439   1.853   4.793   2.030
 5180SOL    HW216440   1.827   4.662   1.936
 5181SOL     OW16441   0.070   1.166   5.101
 5181SOL    HW116442   7.011   1.226   5.094
 5181SOL    HW216443   0.050   1.078   5.057
 5182SOL     OW16444   2.202   6.686   2.030
 5182SOL    HW116445   2.110   6.647   2.035
 5182SOL    HW216446   2.203   6.758   1.960
 5183SOL     OW16447   4.773   2.405   3.397
 5183SOL    HW116448   4.858   2.416   3.346
 5183SOL    HW216449   4.790   2.349   3.478
 5184SOL     OW16450   2.161   1.968   2.937
 5184SOL    HW116451   2.149   2.000   3.031
 5184SOL    HW216452   2.212   2.036   2.885
 5185SOL     OW16453   6.455   6.905   1.985
 5185SOL    HW116454   6.553   6.913   2.000
 5185SOL    HW216455   6.413   6.996   1.991
 5186SOL     OW16456   6.081   2.163   6.621
 5186SOL    HW116457   6.132   2.246   6.642
 5186SOL    HW216458   6.071   2.108   6.704
 5187SOL     OW16459   1.504   4.802   5.150
 5187SOL    HW116460   1.568   4.879   5.148
 5187SOL    HW216461   1.548   4.723   5.192
 5188SOL     OW16462   0.246   0.283   1.363
 5188SOL    HW116463   0.240   0.188   1.393
 5188SOL    HW216464   0.196   0.293   1.277
 5189SOL     OW16465   4.858   5.987   6.749
 5189SOL    HW116466   4.892   6.050   6.818
 5189SOL    HW216467   4.788   6.032   6.694
 5190SOL     OW16468   1.670   4.742   0.610
 5190SOL    HW116469   1.688   4.815   0.544
 5190SOL    HW216470   1.727   4.756   0.691
 5191SOL     OW16471   2.737   4.261   1.690
 5191SOL    HW116472   2.749   4.262   1.590
 5191SOL    HW216473   2.813   4.309   1.733
 5192SOL     OW16474   0.692   4.677   3.209
 5192SOL    HW116475   0.737   4.592   3.182
 5192SOL    HW216476   0.598   4.658   3.239
 5193SOL     OW16477   4.526   0.936   5.329
 5193SOL    HW116478   4.527   0.856   5.270
 5193SOL    HW216479   4.439   0.941   5.378
 5194SOL     OW16480   4.427   1.894   5.037
 5194SOL    HW116481   4.474   1.968   5.085
 5194SOL    HW216482   4.477   1.808   5.052
 5195SOL     OW16483   1.319   0.849   5.735
 5195SOL    HW116484   1.243   0.910   5.715
 5195SOL    HW216485   1.376   0.837   5.654
 5196SOL     OW16486   5.809   6.564   3.342
 5196SOL    HW116487   5.761   6.478   3.359
 5196SOL    HW216488   5.795   6.592   3.247
 5197SOL     OW16489   1.445   3.462   4.853
 5197SOL    HW116490   1.380   3.404   4.804
 5197SOL    HW216491   1.435   3.556   4.823
 5198SOL     OW16492   5.924   5.306   3.173
 5198SOL    HW116493   5.893   5.264   3.258
 5198SOL    HW216494   5.920   5.240   3.099
 5199SOL     OW16495   0.349   4.645   1.313
 5199SOL    HW116496   0.445   4.672   1.322
 5199SOL    HW216497   0.293   4.726   1.295
 5200SOL     OW16498   6.412   3.731   4.963
 5200SOL    HW116499   6.488   3.787   4.931
 5200SOL    HW216500   6.326   3.777   4.942
 5201SOL     OW16501   1.177   6.201   4.759
 5201SOL    HW116502   1.158   6.243   4.670
 5201SOL    HW216503   1.243   6.127   4.748
 5202SOL     OW16504   0.021   4.489   1.723
 5202SOL    HW116505   6.947   4.516   1.739
 5202SOL    HW216506   0.061   4.454   1.807
 5203SOL     OW16507   6.296   3.406   6.831
 5203SOL    HW116508   6.272   3.367   6.742
 5203SOL    HW216509   6.256   3.497   6.840
 5204SOL     OW16510   5.443   5.270   5.945
 5204SOL    HW116511   5.419   5.362   5.976
 5204SOL    HW216512   5.431   5.206   6.021
 5205SOL     OW16513   2.832   6.381   0.228
 5205SOL    HW116514   2.821   6.364   0.130
 5205SOL    HW216515   2.841   6.294   0.276
 5206SOL     OW16516   6.997   4.460   4.681
 5206SOL    HW116517   0.064   4.412   4.687
 5206SOL    HW216518   7.005   4.536   4.616
 5207SOL     OW16519   1.698   4.925   2.851
 5207SOL    HW116520   1.798   4.924   2.848
 5207SOL    HW216521   1.662   4.897   2.762
 5208SOL     OW16522   5.173   1.436   0.108
 5208SOL    HW116523   5.269   1.452   0.130
 5208SOL    HW216524   5.136   1.368   0.171
 5209SOL     OW16525   5.625   5.190   3.150
 5209SOL    HW116526   5.578   5.277   3.136
 5209SOL    HW216527   5.690   5.198   3.225
 5210SOL     OW16528   4.846   4.015   3.007
 5210SOL    HW116529   4.828   3.919   2.987
 5210SOL    HW216530   4.760   4.063   3.022
 5211SOL     OW16531   3.001   3.573   2.131
 5211SOL    HW116532   2.963   3.643   2.190
 5211SOL    HW216533   3.090   3.544   2.166
 5212SOL     OW16534   0.771   0.002   6.337
 5212SOL    HW116535   0.682   6.992   6.371
 5212SOL    HW216536   0.843   6.994   6.401
 5213SOL     OW16537   4.319   2.076   6.203
 5213SOL    HW116538   4.251   2.142   6.234
 5213SOL    HW216539   4.394   2.125   6.158
 5214SOL     OW16540   4.534   1.900   0.302
 5214SOL    HW116541   4.629   1.928   0.289
 5214SOL    HW216542   4.514   1.896   0.400
 5215SOL     OW16543   5.850   5.008   3.587
 5215SOL    HW116544   5.774   4.946   3.606
 5215SOL    HW216545   5.885   5.045   3.673
 5216SOL     OW16546   4.471   6.130   1.623
 5216SOL    HW116547   4.428   6.116   1.712
 5216SOL    HW216548   4.504   6.043   1.588
 5217SOL     OW16549   3.135   4.973   3.499
 5217SOL    HW116550   3.105   5.048   3.557
 5217SOL    HW216551   3.067   4.900   3.502
 5218SOL     OW16552   1.704   0.225   4.017
 5218SOL    HW116553   1.795   0.264   4.002
 5218SOL    HW216554   1.706   0.127   3.997
 5219SOL     OW16555   2.619   0.133   0.893
 5219SOL    HW116556   2.574   0.059   0.942
 5219SOL    HW216557   2.644   0.102   0.801
 5220SOL     OW16558   1.296   6.894   2.010
 5220SOL    HW116559   1.251   6.957   2.074
 5220SOL    HW216560   1.374   6.851   2.054
 5221SOL     OW16561   4.099   1.168   6.925
 5221SOL    HW116562   4.174   1.101   6.930
 5221SOL    HW216563   4.013   1.123   6.951
 5222SOL     OW16564   0.632   6.566   2.747
 5222SOL    HW116565   0.652   6.471   2.769
 5222SOL    HW216566   0.536   6.587   2.766
 5223SOL     OW16567   4.381   6.456   0.849
 5223SOL    HW116568   4.304   6.506   0.808
 5223SOL    HW216569   4.459   6.517   0.857
 5224SOL     OW16570   5.465   1.023   3.441
 5224SOL    HW116571   5.458   0.924   3.455
 5224SOL    HW216572   5.557   1.045   3.408
 5225SOL     OW16573   0.055   6.805   5.588
 5225SOL    HW116574   0.128   6.757   5.636
 5225SOL    HW216575   6.990   6.754   5.598
 5226SOL     OW16576   2.525   6.895   4.043
 5226SOL    HW116577   2.483   6.983   4.018
 5226SOL    HW216578   2.566   6.901   4.133
 5227SOL     OW16579   5.189   3.615   3.736
 5227SOL    HW116580   5.212   3.710   3.716
 5227SOL    HW216581   5.124   3.611   3.812
 5228SOL     OW16582   5.273   0.737   1.144
 5228SOL    HW116583   5.197   0.800   1.132
 5228SOL    HW216584   5.339   0.749   1.069
 5229SOL     OW16585   1.407   4.446   3.392
 5229SOL    HW116586   1.497   4.427   3.352
 5229SOL    HW216587   1.358   4.509   3.332
 5230SOL     OW16588   1.500   0.614   6.016
 5230SOL    HW116589   1.555   0.533   6.036
 5230SOL    HW216590   1.507   0.636   5.919
 5231SOL     OW16591   2.971   3.349   3.290
 5231SOL    HW116592   3.069   3.370   3.297
 5231SOL    HW216593   2.925   3.420   3.237
 5232SOL     OW16594   5.354   2.777   5.347
 5232SOL    HW116595   5.424   2.705   5.344
 5232SOL    HW216596   5.388   2.855   5.399
 5233SOL     OW16597   1.234   0.288   3.053
 5233SOL    HW116598   1.190   0.232   2.982
 5233SOL    HW216599   1.204   0.383   3.043
 5234SOL     OW16600   3.914   5.301   1.674
 5234SOL    HW116601   3.833   5.279   1.619
 5234SOL    HW216602   3.907   5.255   1.763
 5235SOL     OW16603   0.645   3.122   1.373
 5235SOL    HW116604   0.721   3.155   1.316
 5235SOL    HW216605   0.579   3.074   1.315
 5236SOL     OW16606   6.369   3.538   0.232
 5236SOL    HW116607   6.431   3.536   0.310
 5236SOL    HW216608   6.407   3.599   0.162
 5237SOL     OW16609   1.929   1.584   3.272
 5237SOL    HW116610   2.004   1.540   3.223
 5237SOL    HW216611   1.857   1.608   3.207
 5238SOL     OW16612   2.011   3.473   0.918
 5238SOL    HW116613   1.959   3.557   0.905
 5238SOL    HW216614   1.952   3.394   0.898
 5239SOL     OW16615   3.039   3.525   4.699
 5239SOL    HW116616   2.998   3.615   4.681
 5239SOL    HW216617   3.039   3.508   4.798
 5240SOL     OW16618   3.265   1.887   4.928
 5240SOL    HW116619   3.176   1.843   4.945
 5240SOL    HW216620   3.331   1.855   4.996
 5241SOL     OW16621   2.673   5.568   5.570
 5241SOL    HW116622   2.710   5.516   5.647
 5241SOL    HW216623   2.748   5.607   5.516
 5242SOL     OW16624   4.711   0.415   5.164
 5242SOL    HW116625   4.797   0.435   5.211
 5242SOL    HW216626   4.701   0.316   5.154
 5243SOL     OW16627   0.454   4.289   0.400
 5243SOL    HW116628   0.430   4.327   0.311
 5243SOL    HW216629   0.406   4.339   0.472
 5244SOL     OW16630   5.458   3.356   6.835
 5244SOL    HW116631   5.482   3.403   6.920
 5244SOL    HW216632   5.533   3.296   6.808
 5245SOL     OW16633   4.623   4.880   6.401
 5245SOL    HW116634   4.586   4.973   6.401
 5245SOL    HW216635   4.674   4.864   6.485
 5246SOL     OW16636   1.192   4.034   3.009
 5246SOL    HW116637   1.127   3.992   2.946
 5246SOL    HW216638   1.151   4.038   3.101
 5247SOL     OW16639   0.164   4.654   0.495
 5247SOL    HW116640   0.204   4.712   0.566
 5247SOL    HW216641   0.092   4.705   0.448
 5248SOL     OW16642   5.043   1.283   0.295
 5248SOL    HW116643   5.055   1.184   0.304
 5248SOL    HW216644   4.946   1.303   0.278
 5249SOL     OW16645   1.582   5.789   6.424
 5249SOL    HW116646   1.662   5.788   6.485
 5249SOL    HW216647   1.599   5.854   6.349
 5250SOL     OW16648   1.035   1.430   5.768
 5250SOL    HW116649   1.027   1.525   5.798
 5250SOL    HW216650   1.132   1.407   5.754
 5251SOL     OW16651   0.579   3.130   0.876
 5251SOL    HW116652   0.504   3.196   0.866
 5251SOL    HW216653   0.621   3.114   0.786
 5252SOL     OW16654   5.070   6.922   1.100
 5252SOL    HW116655   5.114   6.922   1.011
 5252SOL    HW216656   5.065   6.828   1.135
 5253SOL     OW16657   5.983   2.775   3.884
 5253SOL    HW116658   5.888   2.778   3.852
 5253SOL    HW216659   5.987   2.807   3.979
 5254SOL     OW16660   5.153   0.259   4.255
 5254SOL    HW116661   5.168   0.341   4.311
 5254SOL    HW216662   5.118   0.185   4.313
 5255SOL     OW16663   2.819   5.817   4.236
 5255SOL    HW116664   2.850   5.722   4.226
 5255SOL    HW216665   2.735   5.819   4.289
 5256SOL     OW16666   5.130   6.661   1.903
 5256SOL    HW116667   5.036   6.665   1.869
 5256SOL    HW216668   5.155   6.750   1.941
 5257SOL     OW16669   3.299   1.187   3.131
 5257SOL    HW116670   3.361   1.262   3.155
 5257SOL    HW216671   3.245   1.212   3.051
 5258SOL     OW16672   6.084   2.033   1.819
 5258SOL    HW116673   6.007   2.007   1.761
 5258SOL    HW216674   6.054   2.103   1.884
 5259SOL     OW16675   5.518   4.211   0.870
 5259SOL    HW116676   5.515   4.189   0.773
 5259SOL    HW216677   5.607   4.250   0.893
 5260SOL     OW16678   5.042   2.520   1.762
 5260SOL    HW116679   5.026   2.473   1.849
 5260SOL    HW216680   5.041   2.619   1.777
 5261SOL     OW16681   2.537   2.467   4.660
 5261SOL    HW116682   2.483   2.388   4.631
 5261SOL    HW216683   2.511   2.547   4.605
 5262SOL     OW16684   1.561   0.315   1.428
 5262SOL    HW116685   1.573   0.390   1.493
 5262SOL    HW216686   1.602   0.339   1.340
 5263SOL     OW16687   1.008   6.700   6.814
 5263SOL    HW116688   0.963   6.681   6.727
 5263SOL    HW216689   1.011   6.616   6.868
 5264SOL     OW16690   0.936   1.513   1.235
 5264SOL    HW116691   1.021   1.549   1.274
 5264SOL    HW216692   0.872   1.490   1.309
 5265SOL     OW16693   5.445   4.880   3.463
 5265SOL    HW116694   5.525   4.827   3.434
 5265SOL    HW216695   5.425   4.860   3.558
 5266SOL     OW16696   1.430   6.945   1.203
 5266SOL    HW116697   1.380   6.968   1.286
 5266SOL    HW216698   1.516   6.996   1.201
 5267SOL     OW16699   4.140   3.694   5.351
 5267SOL    HW116700   4.228   3.673   5.394
 5267SOL    HW216701   4.152   3.704   5.253
 5268SOL     OW16702   5.299   5.236   5.698
 5268SOL    HW116703   5.370   5.215   5.630
 5268SOL    HW216704   5.340   5.235   5.790
 5269SOL     OW16705   1.905   4.770   6.053
 5269SOL    HW116706   1.961   4.688   6.051
 5269SOL    HW216707   1.896   4.801   6.148
 5270SOL     OW16708   6.719   2.581   3.300
 5270SOL    HW116709   6.751   2.594   3.207
 5270SOL    HW216710   6.727   2.484   3.324
 5271SOL     OW16711   5.698   3.785   5.725
 5271SOL    HW116712   5.758   3.727   5.670
 5271SOL    HW216713   5.656   3.854   5.667
 5272SOL     OW16714   1.990   1.065   3.997
 5272SOL    HW116715   1.974   1.136   3.928
 5272SOL    HW216716   1.933   1.083   4.077
 5273SOL     OW16717   6.905   0.423   5.249
 5273SOL    HW116718   6.837   0.366   5.203
 5273SOL    HW216719   6.958   0.368   5.313
 5274SOL     OW16720   0.772   5.643   4.889
 5274SOL    HW116721   0.751   5.593   4.805
 5274SOL    HW216722   0.857   5.608   4.928
 5275SOL     OW16723   1.769   6.679   6.620
 5275SOL    HW116724   1.685   6.709   6.665
 5275SOL    HW216725   1.830   6.756   6.606
 5276SOL     OW16726   0.513   6.965   0.555
 5276SOL    HW116727   0.525   6.924   0.646
 5276SOL    HW216728   0.415   6.971   0.534
 5277SOL     OW16729   0.290   0.955   2.387
 5277SOL    HW116730   0.209   0.964   2.328
 5277SOL    HW216731   0.267   0.901   2.468
 5278SOL     OW16732   1.043   3.623   6.164
 5278SOL    HW116733   0.959   3.650   6.118
 5278SOL    HW216734   1.064   3.528   6.143
 5279SOL     OW16735   3.106   6.582   6.967
 5279SOL    HW116736   3.142   6.508   0.003
 5279SOL    HW216737   3.039   6.544   6.902
 5280SOL     OW16738   4.619   6.473   5.075
 5280SOL    HW116739   4.615   6.451   4.978
 5280SOL    HW216740   4.713   6.490   5.102
 5281SOL     OW16741   2.917   6.888   4.800
 5281SOL    HW116742   2.934   6.979   4.838
 5281SOL    HW216743   2.919   6.820   4.873
 5282SOL     OW16744   0.408   6.370   0.257
 5282SOL    HW116745   0.480   6.432   0.227
 5282SOL    HW216746   0.366   6.405   0.340
 5283SOL     OW16747   1.028   0.860   3.932
 5283SOL    HW116748   1.104   0.923   3.919
 5283SOL    HW216749   0.989   0.836   3.843
 5284SOL     OW16750   4.914   3.137   2.094
 5284SOL    HW116751   4.928   3.213   2.030
 5284SOL    HW216752   4.833   3.085   2.066
 5285SOL     OW16753   1.394   2.233   3.979
 5285SOL    HW116754   1.371   2.160   4.043
 5285SOL    HW216755   1.361   2.210   3.888
 5286SOL     OW16756   6.473   2.862   1.256
 5286SOL    HW116757   6.560   2.844   1.212
 5286SOL    HW216758   6.434   2.947   1.220
 5287SOL     OW16759   1.155   5.594   1.801
 5287SOL    HW116760   1.113   5.538   1.730
 5287SOL    HW216761   1.089   5.609   1.875
 5288SOL     OW16762   4.008   0.579   1.695
 5288SOL    HW116763   3.997   0.597   1.597
 5288SOL    HW216764   3.972   0.657   1.747
 5289SOL     OW16765   2.771   4.683   5.666
 5289SOL    HW116766   2.857   4.640   5.637
 5289SOL    HW216767   2.702   4.613   5.680
 5290SOL     OW16768   1.725   3.218   4.677
 5290SOL    HW116769   1.807   3.162   4.688
 5290SOL    HW216770   1.748   3.314   4.687
 5291SOL     OW16771   3.002   4.959   4.442
 5291SOL    HW116772   3.021   4.956   4.540
 5291SOL    HW216773   2.974   5.051   4.416
 5292SOL     OW16774   0.326   3.944   4.750
 5292SOL    HW116775   0.340   4.021   4.813
 5292SOL    HW216776   0.299   3.979   4.660
 5293SOL     OW16777   2.474   0.533   4.395
 5293SOL    HW116778   2.391   0.589   4.392
 5293SOL    HW216779   2.534   0.567   4.467
 5294SOL     OW16780   4.898   6.680   4.971
 5294SOL    HW116781   4.893   6.655   5.067
 5294SOL    HW216782   4.809   6.716   4.942
 5295SOL     OW16783   2.152   0.945   2.194
 5295SOL    HW116784   2.173   1.039   2.165
 5295SOL    HW216785   2.140   0.887   2.114
 5296SOL     OW16786   4.792   4.915   2.002
 5296SOL    HW116787   4.807   4.890   1.906
 5296SOL    HW216788   4.874   4.896   2.055
 5297SOL     OW16789   2.564   5.512   6.432
 5297SOL    HW116790   2.592   5.577   6.361
 5297SOL    HW216791   2.644   5.484   6.485
 5298SOL     OW16792   2.372   1.975   0.425
 5298SOL    HW116793   2.401   2.068   0.406
 5298SOL    HW216794   2.350   1.928   0.340
 5299SOL     OW16795   2.425   0.911   1.817
 5299SOL    HW116796   2.487   0.907   1.738
 5299SOL    HW216797   2.362   0.987   1.806
 5300SOL     OW16798   3.177   4.983   6.986
 5300SOL    HW116799   3.146   5.077   7.005
 5300SOL    HW216800   3.118   4.942   6.917
 5301SOL     OW16801   6.099   6.778   6.102
 5301SOL    HW116802   6.193   6.757   6.073
 5301SOL    HW216803   6.096   6.785   6.202
 5302SOL     OW16804   5.089   5.984   2.912
 5302SOL    HW116805   5.062   5.891   2.938
 5302SOL    HW216806   5.169   5.979   2.852
 5303SOL     OW16807   1.091   5.576   5.380
 5303SOL    HW116808   1.136   5.489   5.361
 5303SOL    HW216809   1.003   5.559   5.424
 5304SOL     OW16810   0.467   0.761   3.334
 5304SOL    HW116811   0.398   0.724   3.396
 5304SOL    HW216812   0.464   0.711   3.247
 5305SOL     OW16813   6.908   5.315   4.151
 5305SOL    HW116814   6.967   5.395   4.150
 5305SOL    HW216815   6.955   5.239   4.195
 5306SOL     OW16816   0.900   1.989   5.953
 5306SOL    HW116817   0.808   1.955   5.974
 5306SOL    HW216818   0.956   1.913   5.918
 5307SOL     OW16819   6.832   1.738   1.331
 5307SOL    HW116820   6.838   1.684   1.247
 5307SOL    HW216821   6.744   1.785   1.335
 5308SOL     OW16822   1.781   3.902   2.804
 5308SOL    HW116823   1.856   3.881   2.741
 5308SOL    HW216824   1.773   4.001   2.815
 5309SOL     OW16825   5.867   5.550   3.076
 5309SOL    HW116826   5.862   5.555   2.976
 5309SOL    HW216827   5.895   5.458   3.104
 5310SOL     OW16828   6.265   2.628   3.236
 5310SOL    HW116829   6.345   2.683   3.261
 5310SOL    HW216830   6.197   2.634   3.309
 5311SOL     OW16831   5.942   0.056   0.060
 5311SOL    HW116832   5.967   6.981   0.045
 5311SOL    HW216833   5.875   0.062   0.134
 5312SOL     OW16834   5.887   6.003   0.292
 5312SOL    HW116835   5.937   6.077   0.337
 5312SOL    HW216836   5.861   5.934   0.359
 5313SOL     OW16837   0.909   6.833   5.815
 5313SOL    HW116838   0.823   6.807   5.770
 5313SOL    HW216839   0.932   6.927   5.790
 5314SOL     OW16840   5.937   1.161   1.660
 5314SOL    HW116841   5.959   1.230   1.591
 5314SOL    HW216842   5.884   1.202   1.733
 5315SOL     OW16843   4.451   2.215   3.630
 5315SOL    HW116844   4.408   2.126   3.617
 5315SOL    HW216845   4.550   2.204   3.642
 5316SOL     OW16846   0.585   2.613   4.835
 5316SOL    HW116847   0.646   2.674   4.885
 5316SOL    HW216848   0.610   2.614   4.738
 5317SOL     OW16849   5.944   2.554   6.772
 5317SOL    HW116850   6.020   2.593   6.824
 5317SOL    HW216851   5.942   2.455   6.786
 5318SOL     OW16852   0.164   4.035   6.574
 5318SOL    HW116853   0.232   4.102   6.603
 5318SOL    HW216854   0.084   4.041   6.633
 5319SOL     OW16855   3.890   6.241   2.313
 5319SOL    HW116856   3.887   6.341   2.323
 5319SOL    HW216857   3.797   6.204   2.323
 5320SOL     OW16858   4.013   5.973   1.029
 5320SOL    HW116859   3.996   5.880   1.061
 5320SOL    HW216860   3.998   5.978   0.930
 5321SOL     OW16861   1.633   4.468   5.426
 5321SOL    HW116862   1.710   4.422   5.471
 5321SOL    HW216863   1.628   4.563   5.456
 5322SOL     OW16864   4.204   6.947   1.869
 5322SOL    HW116865   4.163   6.859   1.895
 5322SOL    HW216866   4.174   6.972   1.777
 5323SOL     OW16867   4.174   0.857   6.013
 5323SOL    HW116868   4.146   0.829   6.104
 5323SOL    HW216869   4.274   0.865   6.009
 5324SOL     OW16870   1.958   2.198   1.265
 5324SOL    HW116871   2.047   2.156   1.281
 5324SOL    HW216872   1.896   2.174   1.340
 5325SOL     OW16873   2.170   2.643   5.034
 5325SOL    HW116874   2.190   2.729   5.080
 5325SOL    HW216875   2.238   2.627   4.963
 5326SOL     OW16876   6.583   0.090   1.472
 5326SOL    HW116877   6.604   0.187   1.473
 5326SOL    HW216878   6.485   0.077   1.456
 5327SOL     OW16879   6.989   2.658   5.678
 5327SOL    HW116880   6.902   2.613   5.663
 5327SOL    HW216881   6.977   2.734   5.743
 5328SOL     OW16882   4.913   5.271   0.398
 5328SOL    HW116883   4.991   5.330   0.417
 5328SOL    HW216884   4.922   5.233   0.306
 5329SOL     OW16885   2.008   6.963   6.281
 5329SOL    HW116886   1.952   6.995   6.358
 5329SOL    HW216887   1.961   6.986   6.195
 5330SOL     OW16888   2.330   4.701   1.181
 5330SOL    HW116889   2.430   4.697   1.173
 5330SOL    HW216890   2.306   4.735   1.272
 5331SOL     OW16891   6.185   1.018   6.364
 5331SOL    HW116892   6.283   1.002   6.354
 5331SOL    HW216893   6.168   1.062   6.453
 5332SOL     OW16894   0.161   4.897   1.849
 5332SOL    HW116895   0.068   4.864   1.833
 5332SOL    HW216896   0.192   4.949   1.770
 5333SOL     OW16897   0.969   6.128   4.920
 5333SOL    HW116898   0.965   6.037   4.878
 5333SOL    HW216899   1.044   6.180   4.880
 5334SOL     OW16900   3.687   0.196   4.583
 5334SOL    HW116901   3.706   0.287   4.619
 5334SOL    HW216902   3.612   0.202   4.517
 5335SOL     OW16903   0.065   5.743   0.007
 5335SOL    HW116904   0.141   5.808   0.016
 5335SOL    HW216905   0.006   5.771   6.952
 5336SOL     OW16906   1.135   4.092   1.360
 5336SOL    HW116907   1.206   4.041   1.410
 5336SOL    HW216908   1.069   4.028   1.322
 5337SOL     OW16909   5.488   3.631   1.482
 5337SOL    HW116910   5.533   3.580   1.555
 5337SOL    HW216911   5.435   3.707   1.521
 5338SOL     OW16912   5.848   1.712   0.085
 5338SOL    HW116913   5.773   1.758   0.131
 5338SOL    HW216914   5.863   1.622   0.128
 5339SOL     OW16915   6.772   0.339   1.956
 5339SOL    HW116916   6.855   0.393   1.970
 5339SOL    HW216917   6.793   0.242   1.967
 5340SOL     OW16918   5.480   2.331   6.152
 5340SOL    HW116919   5.479   2.390   6.233
 5340SOL    HW216920   5.551   2.363   6.088
 5341SOL     OW16921   4.091   0.543   0.898
 5341SOL    HW116922   4.084   0.479   0.822
 5341SOL    HW216923   4.140   0.500   0.974
 5342SOL     OW16924   2.401   1.043   6.230
 5342SOL    HW116925   2.438   1.136   6.229
 5342SOL    HW216926   2.477   0.978   6.232
 5343SOL     OW16927   3.781   3.896   2.130
 5343SOL    HW116928   3.802   3.904   2.228
 5343SOL    HW216929   3.744   3.983   2.097
 5344SOL     OW16930   1.809   2.325   2.674
 5344SOL    HW116931   1.764   2.270   2.604
 5344SOL    HW216932   1.905   2.298   2.680
 5345SOL     OW16933   4.904   0.126   2.663
 5345SOL    HW116934   4.942   0.188   2.595
 5345SOL    HW216935   4.812   0.156   2.688
 5346SOL     OW16936   2.708   6.821   3.316
 5346SOL    HW116937   2.724   6.798   3.220
 5346SOL    HW216938   2.764   6.900   3.341
 5347SOL     OW16939   6.836   1.723   1.920
 5347SOL    HW116940   6.812   1.736   1.824
 5347SOL    HW216941   6.912   1.784   1.943
 5348SOL     OW16942   6.716   0.853   0.614
 5348SOL    HW116943   6.681   0.792   0.542
 5348SOL    HW216944   6.741   0.798   0.694
 5349SOL     OW16945   6.360   0.430   1.401
 5349SOL    HW116946   6.274   0.481   1.390
 5349SOL    HW216947   6.436   0.487   1.372
 5350SOL     OW16948   2.898   0.507   0.277
 5350SOL    HW116949   2.808   0.488   0.237
 5350SOL    HW216950   2.928   0.428   0.330
 5351SOL     OW16951   4.204   0.554   1.893
 5351SOL    HW116952   4.130   0.607   1.850
 5351SOL    HW216953   4.285   0.612   1.902
 5352SOL     OW16954   3.584   6.396   3.452
 5352SOL    HW116955   3.591   6.296   3.454
 5352SOL    HW216956   3.488   6.423   3.460
 5353SOL     OW16957   5.650   0.497   5.685
 5353SOL    HW116958   5.573   0.472   5.627
 5353SOL    HW216959   5.647   0.595   5.705
 5354SOL     OW16960   1.207   3.355   1.492
 5354SOL    HW116961   1.289   3.348   1.435
 5354SOL    HW216962   1.234   3.378   1.586
 5355SOL     OW16963   4.072   1.410   5.058
 5355SOL    HW116964   4.072   1.508   5.042
 5355SOL    HW216965   4.039   1.363   4.976
 5356SOL     OW16966   5.903   3.330   0.536
 5356SOL    HW116967   5.957   3.264   0.483
 5356SOL    HW216968   5.811   3.292   0.552
 5357SOL     OW16969   3.827   6.688   0.657
 5357SOL    HW116970   3.892   6.640   0.599
 5357SOL    HW216971   3.735   6.675   0.621
 5358SOL     OW16972   4.922   3.251   1.168
 5358SOL    HW116973   4.909   3.175   1.104
 5358SOL    HW216974   4.833   3.280   1.202
 5359SOL     OW16975   3.076   6.891   6.812
 5359SOL    HW116976   3.010   6.842   6.869
 5359SOL    HW216977   3.165   6.846   6.816
 5360SOL     OW16978   4.094   0.290   6.588
 5360SOL    HW116979   4.032   0.294   6.667
 5360SOL    HW216980   4.189   0.288   6.620
 5361SOL     OW16981   1.887   0.503   6.252
 5361SOL    HW116982   1.981   0.468   6.255
 5361SOL    HW216983   1.875   0.557   6.169
 5362SOL     OW16984   3.849   5.675   3.738
 5362SOL    HW116985   3.779   5.741   3.764
 5362SOL    HW216986   3.893   5.705   3.653
 5363SOL     OW16987   0.853   5.176   4.969
 5363SOL    HW116988   0.754   5.178   4.982
 5363SOL    HW216989   0.897   5.232   5.039
 5364SOL     OW16990   0.886   6.367   6.606
 5364SOL    HW116991   0.864   6.463   6.624
 5364SOL    HW216992   0.849   6.340   6.517
 5365SOL     OW16993   3.741   1.588   6.244
 5365SOL    HW116994   3.705   1.520   6.308
 5365SOL    HW216995   3.664   1.636   6.201
 5366SOL     OW16996   3.501   4.572   6.510
 5366SOL    HW116997   3.454   4.651   6.470
 5366SOL    HW216998   3.440   4.528   6.577
 5367SOL     OW16999   0.234   4.758   0.917
 5367SOL    HW117000   0.140   4.725   0.907
 5367SOL    HW217001   0.261   4.807   0.834
 5368SOL     OW17002   6.623   0.922   3.696
 5368SOL    HW117003   6.584   0.882   3.778
 5368SOL    HW217004   6.550   0.951   3.635
 5369SOL     OW17005   1.813   3.567   2.606
 5369SOL    HW117006   1.897   3.562   2.661
 5369SOL    HW217007   1.788   3.475   2.575
 5370SOL     OW17008   3.956   2.859   1.441
 5370SOL    HW117009   3.911   2.894   1.523
 5370SOL    HW217010   3.898   2.877   1.361
 5371SOL     OW17011   1.637   4.030   4.916
 5371SOL    HW117012   1.604   4.091   4.844
 5371SOL    HW217013   1.737   4.027   4.915
 5372SOL     OW17014   2.768   6.005   3.125
 5372SOL    HW117015   2.671   6.023   3.111
 5372SOL    HW217016   2.796   5.927   3.070
 5373SOL     OW17017   1.967   5.267   4.079
 5373SOL    HW117018   1.869   5.270   4.056
 5373SOL    HW217019   2.006   5.358   4.070
 5374SOL     OW17020   3.265   2.727   0.763
 5374SOL    HW117021   3.296   2.636   0.792
 5374SOL    HW217022   3.331   2.766   0.699
 5375SOL     OW17023   1.427   3.880   5.014
 5375SOL    HW117024   1.504   3.943   5.003
 5375SOL    HW217025   1.442   3.822   5.094
 5376SOL     OW17026   2.916   4.152   6.585
 5376SOL    HW117027   2.908   4.062   6.542
 5376SOL    HW217028   2.998   4.153   6.643
 5377SOL     OW17029   0.741   1.596   1.664
 5377SOL    HW117030   0.684   1.568   1.740
 5377SOL    HW217031   0.687   1.652   1.600
 5378SOL     OW17032   4.981   6.743   0.429
 5378SOL    HW117033   4.965   6.673   0.499
 5378SOL    HW217034   5.041   6.707   0.358
 5379SOL     OW17035   0.039   6.638   1.194
 5379SOL    HW117036   0.031   6.617   1.291
 5379SOL    HW217037   0.033   6.736   1.179
 5380SOL     OW17038   2.550   0.798   4.185
 5380SOL    HW117039   2.545   0.702   4.160
 5380SOL    HW217040   2.458   0.832   4.207
 5381SOL     OW17041   5.630   3.543   1.704
 5381SOL    HW117042   5.702   3.478   1.679
 5381SOL    HW217043   5.671   3.628   1.735
 5382SOL     OW17044   1.899   0.327   1.616
 5382SOL    HW117045   1.834   0.252   1.606
 5382SOL    HW217046   1.879   0.377   1.700
 5383SOL     OW17047   1.909   2.658   4.927
 5383SOL    HW117048   1.843   2.595   4.967
 5383SOL    HW217049   1.997   2.646   4.971
 5384SOL     OW17050   5.566   6.631   4.556
 5384SOL    HW117051   5.601   6.645   4.649
 5384SOL    HW217052   5.624   6.567   4.507
 5385SOL     OW17053   3.287   4.113   2.893
 5385SOL    HW117054   3.374   4.158   2.877
 5385SOL    HW217055   3.264   4.118   2.991
 5386SOL     OW17056   5.750   0.259   5.749
 5386SOL    HW117057   5.691   0.335   5.721
 5386SOL    HW217058   5.699   0.199   5.811
 5387SOL     OW17059   3.287   5.235   1.486
 5387SOL    HW117060   3.211   5.252   1.424
 5387SOL    HW217061   3.286   5.139   1.514
 5388SOL     OW17062   6.145   6.478   3.028
 5388SOL    HW117063   6.104   6.391   3.053
 5388SOL    HW217064   6.233   6.462   2.983
 5389SOL     OW17065   5.063   2.067   1.422
 5389SOL    HW117066   4.969   2.102   1.416
 5389SOL    HW217067   5.074   1.992   1.357
 5390SOL     OW17068   6.325   4.835   6.063
 5390SOL    HW117069   6.297   4.740   6.076
 5390SOL    HW217070   6.245   4.893   6.057
 5391SOL     OW17071   2.849   3.585   0.011
 5391SOL    HW117072   2.808   3.592   0.102
 5391SOL    HW217073   2.811   3.656   6.972
 5392SOL     OW17074   6.359   2.984   2.799
 5392SOL    HW117075   6.363   2.922   2.878
 5392SOL    HW217076   6.390   2.935   2.717
 5393SOL     OW17077   6.354   6.658   6.134
 5393SOL    HW117078   6.283   6.596   6.168
 5393SOL    HW217079   6.425   6.669   6.204
 5394SOL     OW17080   1.972   4.071   5.434
 5394SOL    HW117081   1.893   4.093   5.376
 5394SOL    HW217082   2.052   4.053   5.376
 5395SOL     OW17083   4.644   0.844   0.955
 5395SOL    HW117084   4.646   0.853   0.856
 5395SOL    HW217085   4.732   0.812   0.988
 5396SOL     OW17086   4.770   2.525   2.178
 5396SOL    HW117087   4.783   2.597   2.110
 5396SOL    HW217088   4.739   2.566   2.264
 5397SOL     OW17089   0.915   2.519   1.532
 5397SOL    HW117090   0.973   2.600   1.525
 5397SOL    HW217091   0.947   2.450   1.467
 5398SOL     OW17092   3.330   3.287   1.852
 5398SOL    HW117093   3.321   3.201   1.901
 5398SOL    HW217094   3.239   3.327   1.839
 5399SOL     OW17095   0.344   5.837   0.158
 5399SOL    HW117096   0.423   5.898   0.150
 5399SOL    HW217097   0.374   5.750   0.198
 5400SOL     OW17098   2.098   3.759   6.833
 5400SOL    HW117099   2.097   3.682   6.897
 5400SOL    HW217100   2.095   3.724   6.739
 5401SOL     OW17101   6.380   1.730   1.314
 5401SOL    HW117102   6.472   1.763   1.336
 5401SOL    HW217103   6.317   1.757   1.387
 5402SOL     OW17104   1.368   6.054   2.895
 5402SOL    HW117105   1.356   6.119   2.970
 5402SOL    HW217106   1.459   6.066   2.855
 5403SOL     OW17107   6.130   3.617   6.795
 5403SOL    HW117108   6.138   3.650   6.701
 5403SOL    HW217109   6.046   3.564   6.805
 5404SOL     OW17110   1.277   3.328   3.374
 5404SOL    HW117111   1.278   3.231   3.348
 5404SOL    HW217112   1.352   3.376   3.329
 5405SOL     OW17113   0.347   3.904   5.516
 5405SOL    HW117114   0.425   3.920   5.577
 5405SOL    HW217115   0.357   3.961   5.434
 5406SOL     OW17116   1.365   0.383   4.288
 5406SOL    HW117117   1.357   0.367   4.386
 5406SOL    HW217118   1.327   0.305   4.238
 5407SOL     OW17119   4.370   3.164   6.941
 5407SOL    HW117120   4.345   3.257   6.969
 5407SOL    HW217121   4.316   3.099   6.994
 5408SOL     OW17122   3.454   1.181   0.373
 5408SOL    HW117123   3.535   1.140   0.331
 5408SOL    HW217124   3.465   1.281   0.376
 5409SOL     OW17125   4.107   0.608   2.391
 5409SOL    HW117126   4.038   0.660   2.443
 5409SOL    HW217127   4.061   0.557   2.318
 5410SOL     OW17128   1.521   2.637   2.977
 5410SOL    HW117129   1.595   2.695   2.941
 5410SOL    HW217130   1.499   2.566   2.911
 5411SOL     OW17131   1.792   4.904   4.521
 5411SOL    HW117132   1.808   4.851   4.605
 5411SOL    HW217133   1.693   4.913   4.505
 5412SOL     OW17134   6.325   2.288   1.620
 5412SOL    HW117135   6.333   2.252   1.713
 5412SOL    HW217136   6.283   2.379   1.623
 5413SOL     OW17137   2.590   0.358   2.192
 5413SOL    HW117138   2.572   0.450   2.228
 5413SOL    HW217139   2.531   0.292   2.238
 5414SOL     OW17140   4.560   0.704   5.206
 5414SOL    HW117141   4.624   0.665   5.273
 5414SOL    HW217142   4.518   0.630   5.153
 5415SOL     OW17143   6.128   3.807   2.590
 5415SOL    HW117144   6.052   3.783   2.529
 5415SOL    HW217145   6.092   3.834   2.679
 5416SOL     OW17146   4.244   5.253   4.329
 5416SOL    HW117147   4.317   5.185   4.342
 5416SOL    HW217148   4.285   5.341   4.306
 5417SOL     OW17149   3.196   6.739   5.988
 5417SOL    HW117150   3.295   6.732   5.984
 5417SOL    HW217151   3.170   6.832   6.016
 5418SOL     OW17152   4.150   0.975   3.505
 5418SOL    HW117153   4.109   0.929   3.584
 5418SOL    HW217154   4.166   0.907   3.433
 5419SOL     OW17155   3.412   4.363   6.896
 5419SOL    HW117156   3.417   4.413   6.809
 5419SOL    HW217157   3.467   4.280   6.890
 5420SOL     OW17158   0.713   2.730   2.681
 5420SOL    HW117159   0.667   2.817   2.695
 5420SOL    HW217160   0.773   2.711   2.758
 5421SOL     OW17161   1.565   2.867   0.952
 5421SOL    HW117162   1.664   2.856   0.963
 5421SOL    HW217163   1.529   2.792   0.896
 5422SOL     OW17164   1.306   4.011   7.006
 5422SOL    HW117165   1.244   3.980   0.058
 5422SOL    HW217166   1.365   3.935   6.979
 5423SOL     OW17167   5.498   3.349   6.083
 5423SOL    HW117168   5.497   3.250   6.065
 5423SOL    HW217169   5.571   3.391   6.030
 5424SOL     OW17170   5.310   3.763   5.451
 5424SOL    HW117171   5.253   3.731   5.375
 5424SOL    HW217172   5.294   3.860   5.466
 5425SOL     OW17173   5.120   0.079   4.471
 5425SOL    HW117174   5.157   0.088   4.564
 5425SOL    HW217175   5.071   7.013   4.463
 5426SOL     OW17176   0.224   6.933   4.845
 5426SOL    HW117177   0.146   6.872   4.857
 5426SOL    HW217178   0.283   6.929   4.925
 5427SOL     OW17179   4.268   6.418   6.950
 5427SOL    HW117180   4.277   6.437   6.852
 5427SOL    HW217181   4.221   6.495   6.994
 5428SOL     OW17182   2.252   0.751   6.961
 5428SOL    HW117183   2.189   0.680   6.932
 5428SOL    HW217184   2.201   0.831   6.993
 5429SOL     OW17185   1.427   2.107   5.819
 5429SOL    HW117186   1.495   2.176   5.795
 5429SOL    HW217187   1.473   2.020   5.836
 5430SOL     OW17188   2.357   1.923   5.300
 5430SOL    HW117189   2.302   1.879   5.371
 5430SOL    HW217190   2.328   2.018   5.291
 5431SOL     OW17191   3.650   5.923   4.454
 5431SOL    HW117192   3.719   5.927   4.382
 5431SOL    HW217193   3.566   5.881   4.418
 5432SOL     OW17194   5.567   5.950   1.358
 5432SOL    HW117195   5.651   5.899   1.336
 5432SOL    HW217196   5.503   5.888   1.403
 5433SOL     OW17197   0.071   2.268   4.263
 5433SOL    HW117198   0.032   2.355   4.233
 5433SOL    HW217199   0.089   2.210   4.184
 5434SOL     OW17200   2.572   0.194   5.233
 5434SOL    HW117201   2.542   0.202   5.138
 5434SOL    HW217202   2.494   0.172   5.291
 5435SOL     OW17203   4.795   1.469   2.012
 5435SOL    HW117204   4.847   1.460   1.927
 5435SOL    HW217205   4.705   1.427   2.000
 5436SOL     OW17206   4.818   4.074   2.442
 5436SOL    HW117207   4.778   4.143   2.503
 5436SOL    HW217208   4.843   4.117   2.356
 5437SOL     OW17209   3.309   4.525   6.703
 5437SOL    HW117210   3.229   4.551   6.648
 5437SOL    HW217211   3.302   4.568   6.793
 5438SOL     OW17212   6.687   1.088   1.325
 5438SOL    HW117213   6.757   1.150   1.360
 5438SOL    HW217214   6.621   1.068   1.396
 5439SOL     OW17215   1.414   2.883   1.196
 5439SOL    HW117216   1.468   2.856   1.117
 5439SOL    HW217217   1.335   2.822   1.205
 5440SOL     OW17218   1.421   1.366   0.981
 5440SOL    HW117219   1.471   1.438   1.029
 5440SOL    HW217220   1.441   1.278   1.024
 5441SOL     OW17221   3.760   2.054   4.418
 5441SOL    HW117222   3.680   1.994   4.416
 5441SOL    HW217223   3.792   2.065   4.512
 5442SOL     OW17224   3.244   0.629   2.461
 5442SOL    HW117225   3.235   0.699   2.389
 5442SOL    HW217226   3.335   0.636   2.502
 5443SOL     OW17227   2.849   6.921   5.881
 5443SOL    HW117228   2.890   6.910   5.972
 5443SOL    HW217229   2.884   6.849   5.820
 5444SOL     OW17230   0.269   0.661   3.484
 5444SOL    HW117231   0.207   0.655   3.562
 5444SOL    HW217232   0.329   0.581   3.483
 5445SOL     OW17233   6.011   3.382   2.001
 5445SOL    HW117234   5.981   3.293   2.036
 5445SOL    HW217235   5.965   3.455   2.052
 5446SOL     OW17236   0.064   5.724   5.945
 5446SOL    HW117237   0.038   5.805   5.998
 5446SOL    HW217238   0.115   5.661   6.003
 5447SOL     OW17239   2.867   2.091   0.856
 5447SOL    HW117240   2.828   2.014   0.805
 5447SOL    HW217241   2.826   2.095   0.947
 5448SOL     OW17242   5.689   1.864   6.178
 5448SOL    HW117243   5.644   1.850   6.266
 5448SOL    HW217244   5.654   1.947   6.135
 5449SOL     OW17245   0.177   3.152   6.661
 5449SOL    HW117246   0.167   3.251   6.670
 5449SOL    HW217247   0.241   3.119   6.731
 5450SOL     OW17248   2.091   6.141   0.982
 5450SOL    HW117249   2.174   6.140   1.039
 5450SOL    HW217250   2.018   6.092   1.028
 5451SOL     OW17251   1.625   0.246   2.692
 5451SOL    HW117252   1.659   0.315   2.756
 5451SOL    HW217253   1.541   0.206   2.729
 5452SOL     OW17254   2.630   3.681   5.529
 5452SOL    HW117255   2.700   3.676   5.601
 5452SOL    HW217256   2.540   3.685   5.571
 5453SOL     OW17257   0.144   5.244   6.215
 5453SOL    HW117258   0.226   5.243   6.157
 5453SOL    HW217259   0.141   5.160   6.269
 5454SOL     OW17260   0.634   4.025   5.275
 5454SOL    HW117261   0.652   3.940   5.325
 5454SOL    HW217262   0.544   4.018   5.231
 5455SOL     OW17263   0.152   3.080   0.529
 5455SOL    HW117264   0.127   2.996   0.481
 5455SOL    HW217265   0.123   3.075   0.624
 5456SOL     OW17266   3.192   6.779   1.635
 5456SOL    HW117267   3.261   6.850   1.644
 5456SOL    HW217268   3.215   6.719   1.559
 5457SOL     OW17269   6.456   3.847   0.228
 5457SOL    HW117270   6.358   3.837   0.211
 5457SOL    HW217271   6.470   3.911   0.304
 5458SOL     OW17272   2.103   4.573   6.081
 5458SOL    HW117273   2.132   4.525   6.163
 5458SOL    HW217274   2.156   4.540   6.002
 5459SOL     OW17275   2.467   4.619   5.956
 5459SOL    HW117276   2.470   4.553   6.031
 5459SOL    HW217277   2.522   4.586   5.880
 5460SOL     OW17278   3.744   7.012   3.120
 5460SOL    HW117279   3.764   6.918   3.148
 5460SOL    HW217280   3.707   7.012   3.028
 5461SOL     OW17281   4.390   6.600   4.804
 5461SOL    HW117282   4.379   6.500   4.802
 5461SOL    HW217283   4.408   6.632   4.711
 5462SOL     OW17284   1.088   0.527   1.598
 5462SOL    HW117285   1.094   0.479   1.510
 5462SOL    HW217286   1.049   0.617   1.584
 5463SOL     OW17287   6.888   3.258   0.733
 5463SOL    HW117288   6.855   3.295   0.819
 5463SOL    HW217289   6.876   3.158   0.733
 5464SOL     OW17290   1.984   6.605   4.185
 5464SOL    HW117291   2.046   6.537   4.224
 5464SOL    HW217292   2.033   6.691   4.170
 5465SOL     OW17293   2.283   6.247   6.615
 5465SOL    HW117294   2.296   6.333   6.566
 5465SOL    HW217295   2.199   6.203   6.584
 5466SOL     OW17296   5.279   4.875   4.855
 5466SOL    HW117297   5.375   4.891   4.835
 5466SOL    HW217298   5.237   4.822   4.781
 5467SOL     OW17299   5.668   1.526   2.275
 5467SOL    HW117300   5.605   1.603   2.286
 5467SOL    HW217301   5.759   1.553   2.307
 5468SOL     OW17302   4.274   1.992   5.753
 5468SOL    HW117303   4.362   1.945   5.758
 5468SOL    HW217304   4.221   1.973   5.835
 5469SOL     OW17305   4.576   4.219   1.140
 5469SOL    HW117306   4.504   4.266   1.191
 5469SOL    HW217307   4.665   4.257   1.165
 5470SOL     OW17308   0.329   5.198   3.304
 5470SOL    HW117309   0.313   5.252   3.387
 5470SOL    HW217310   0.250   5.207   3.243
 5471SOL     OW17311   6.659   4.969   2.206
 5471SOL    HW117312   6.668   5.055   2.256
 5471SOL    HW217313   6.565   4.936   2.212
 5472SOL     OW17314   3.789   5.287   5.743
 5472SOL    HW117315   3.790   5.206   5.684
 5472SOL    HW217316   3.705   5.339   5.727
 5473SOL     OW17317   1.648   4.391   3.248
 5473SOL    HW117318   1.616   4.303   3.284
 5473SOL    HW217319   1.747   4.388   3.236
 5474SOL     OW17320   1.457   6.220   3.550
 5474SOL    HW117321   1.518   6.285   3.595
 5474SOL    HW217322   1.384   6.270   3.502
 5475SOL     OW17323   3.114   2.811   1.587
 5475SOL    HW117324   3.113   2.884   1.656
 5475SOL    HW217325   3.104   2.723   1.632
 5476SOL     OW17326   1.996   3.207   0.026
 5476SOL    HW117327   2.087   3.249   0.019
 5476SOL    HW217328   1.954   3.205   6.956
 5477SOL     OW17329   1.871   2.780   2.245
 5477SOL    HW117330   1.952   2.803   2.191
 5477SOL    HW217331   1.891   2.701   2.304
 5478SOL     OW17332   0.317   5.478   5.829
 5478SOL    HW117333   0.260   5.500   5.908
 5478SOL    HW217334   0.316   5.380   5.813
 5479SOL     OW17335   4.729   6.947   4.649
 5479SOL    HW117336   4.632   6.955   4.625
 5479SOL    HW217337   4.785   6.957   4.567
 5480SOL     OW17338   0.840   2.453   5.325
 5480SOL    HW117339   0.915   2.518   5.335
 5480SOL    HW217340   0.796   2.438   5.413
 5481SOL     OW17341   4.704   6.448   3.521
 5481SOL    HW117342   4.776   6.386   3.488
 5481SOL    HW217343   4.735   6.542   3.511
 5482SOL     OW17344   2.021   5.209   2.368
 5482SOL    HW117345   1.969   5.184   2.450
 5482SOL    HW217346   2.115   5.175   2.377
 5483SOL     OW17347   0.590   2.743   5.943
 5483SOL    HW117348   0.512   2.700   5.898
 5483SOL    HW217349   0.558   2.813   6.006
 5484SOL     OW17350   4.928   0.004   4.151
 5484SOL    HW117351   5.023   6.998   4.172
 5484SOL    HW217352   4.912   7.017   4.053
 5485SOL     OW17353   3.873   0.332   4.902
 5485SOL    HW117354   3.873   0.249   4.847
 5485SOL    HW217355   3.782   0.348   4.939
 5486SOL     OW17356   2.951   4.896   3.841
 5486SOL    HW117357   2.854   4.876   3.846
 5486SOL    HW217358   3.002   4.830   3.897
 5487SOL     OW17359   3.063   5.222   5.578
 5487SOL    HW117360   3.031   5.272   5.497
 5487SOL    HW217361   3.148   5.264   5.611
 5488SOL     OW17362   4.783   1.472   6.827
 5488SOL    HW117363   4.821   1.533   6.896
 5488SOL    HW217364   4.699   1.430   6.863
 5489SOL     OW17365   0.340   3.407   4.195
 5489SOL    HW117366   0.308   3.403   4.289
 5489SOL    HW217367   0.274   3.361   4.135
 5490SOL     OW17368   0.963   5.561   2.775
 5490SOL    HW117369   1.039   5.623   2.753
 5490SOL    HW217370   0.879   5.595   2.732
 5491SOL     OW17371   6.171   3.763   0.453
 5491SOL    HW117372   6.105   3.780   0.380
 5491SOL    HW217373   6.155   3.672   0.492
 5492SOL     OW17374   6.948   1.381   6.225
 5492SOL    HW117375   6.942   1.479   6.240
 5492SOL    HW217376   6.885   1.333   6.286
 5493SOL     OW17377   4.394   4.083   0.394
 5493SOL    HW117378   4.421   3.991   0.425
 5493SOL    HW217379   4.474   4.143   0.396
 5494SOL     OW17380   6.322   3.275   5.578
 5494SOL    HW117381   6.263   3.219   5.636
 5494SOL    HW217382   6.324   3.237   5.486
 5495SOL     OW17383   5.689   6.970   6.942
 5495SOL    HW117384   5.623   0.007   6.895
 5495SOL    HW217385   5.715   7.013   0.008
 5496SOL     OW17386   4.362   0.058   5.568
 5496SOL    HW117387   4.329   0.100   5.653
 5496SOL    HW217388   4.457   0.030   5.579
 5497SOL     OW17389   0.642   0.438   5.390
 5497SOL    HW117390   0.649   0.451   5.489
 5497SOL    HW217391   0.580   0.506   5.351
 5498SOL     OW17392   0.303   5.048   1.630
 5498SOL    HW117393   0.215   5.091   1.608
 5498SOL    HW217394   0.378   5.105   1.596
 5499SOL     OW17395   1.959   0.427   4.136
 5499SOL    HW117396   1.940   0.500   4.203
 5499SOL    HW217397   1.967   0.467   4.045
 5500SOL     OW17398   2.163   6.832   1.437
 5500SOL    HW117399   2.104   6.909   1.411
 5500SOL    HW217400   2.123   6.787   1.518
 5501SOL     OW17401   4.561   3.347   6.551
 5501SOL    HW117402   4.549   3.253   6.518
 5501SOL    HW217403   4.489   3.370   6.615
 5502SOL     OW17404   4.937   3.456   6.352
 5502SOL    HW117405   4.861   3.504   6.309
 5502SOL    HW217406   5.017   3.516   6.355
 5503SOL     OW17407   5.918   3.113   0.937
 5503SOL    HW117408   5.949   3.200   0.901
 5503SOL    HW217409   5.985   3.042   0.915
 5504SOL     OW17410   3.859   1.984   7.001
 5504SOL    HW117411   3.932   1.919   0.001
 5504SOL    HW217412   3.775   1.935   6.977
 5505SOL     OW17413   2.943   4.776   2.385
 5505SOL    HW117414   2.854   4.761   2.428
 5505SOL    HW217415   2.930   4.796   2.288
 5506SOL     OW17416   6.686   2.309   6.148
 5506SOL    HW117417   6.598   2.298   6.102
 5506SOL    HW217418   6.760   2.298   6.081
 5507SOL     OW17419   3.791   6.750   0.344
 5507SOL    HW117420   3.821   6.828   0.399
 5507SOL    HW217421   3.869   6.688   0.329
 5508SOL     OW17422   0.519   1.417   6.350
 5508SOL    HW117423   0.546   1.481   6.422
 5508SOL    HW217424   0.498   1.328   6.390
 5509SOL     OW17425   6.157   4.164   6.966
 5509SOL    HW117426   6.195   4.074   6.945
 5509SOL    HW217427   6.061   4.166   6.941
 5510SOL     OW17428   5.151   5.177   6.280
 5510SOL    HW117429   5.052   5.162   6.283
 5510SOL    HW217430   5.184   5.204   6.371
 5511SOL     OW17431   0.671   2.388   5.967
 5511SOL    HW117432   0.706   2.451   6.037
 5511SOL    HW217433   0.595   2.431   5.918
 5512SOL     OW17434   1.941   0.656   2.038
 5512SOL    HW117435   1.961   0.724   1.967
 5512SOL    HW217436   1.922   0.703   2.124
 5513SOL     OW17437   3.890   4.440   0.022
 5513SOL    HW117438   3.976   4.425   0.071
 5513SOL    HW217439   3.907   4.491   6.959
 5514SOL     OW17440   3.216   1.076   0.337
 5514SOL    HW117441   3.300   1.118   0.371
 5514SOL    HW217442   3.202   1.100   0.241
 5515SOL     OW17443   3.576   5.525   2.574
 5515SOL    HW117444   3.482   5.536   2.607
 5515SOL    HW217445   3.585   5.569   2.485
 5516SOL     OW17446   1.671   2.341   5.452
 5516SOL    HW117447   1.685   2.390   5.538
 5516SOL    HW217448   1.741   2.367   5.387
 5517SOL     OW17449   0.829   2.170   3.460
 5517SOL    HW117450   0.800   2.107   3.531
 5517SOL    HW217451   0.800   2.136   3.370
 5518SOL     OW17452   4.533   5.164   6.378
 5518SOL    HW117453   4.438   5.140   6.360
 5518SOL    HW217454   4.537   5.236   6.448
 5519SOL     OW17455   5.453   2.372   5.757
 5519SOL    HW117456   5.513   2.363   5.837
 5519SOL    HW217457   5.405   2.286   5.742
 5520SOL     OW17458   4.792   6.663   1.031
 5520SOL    HW117459   4.705   6.614   1.022
 5520SOL    HW217460   4.775   6.762   1.035
 5521SOL     OW17461   4.468   6.939   2.002
 5521SOL    HW117462   4.403   6.983   1.939
 5521SOL    HW217463   4.420   6.872   2.058
 5522SOL     OW17464   5.390   6.304   0.174
 5522SOL    HW117465   5.448   6.226   0.196
 5522SOL    HW217466   5.409   6.334   0.080
 5523SOL     OW17467   5.121   2.189   1.043
 5523SOL    HW117468   5.074   2.238   1.117
 5523SOL    HW217469   5.053   2.142   0.987
 5524SOL     OW17470   2.598   1.283   3.259
 5524SOL    HW117471   2.534   1.219   3.300
 5524SOL    HW217472   2.692   1.253   3.278
 5525SOL     OW17473   0.062   1.568   0.908
 5525SOL    HW117474   0.060   1.470   0.928
 5525SOL    HW217475   6.993   1.608   0.927
 5526SOL     OW17476   5.503   4.435   4.124
 5526SOL    HW117477   5.555   4.355   4.152
 5526SOL    HW217478   5.483   4.430   4.026
 5527SOL     OW17479   6.419   0.312   2.749
 5527SOL    HW117480   6.389   0.407   2.738
 5527SOL    HW217481   6.502   0.297   2.696
 5528SOL     OW17482   1.450   1.592   6.905
 5528SOL    HW117483   1.473   1.679   6.861
 5528SOL    HW217484   1.534   1.541   6.923
 5529SOL     OW17485   2.942   0.687   2.170
 5529SOL    HW117486   2.981   0.599   2.197
 5529SOL    HW217487   2.939   0.748   2.250
 5530SOL     OW17488   0.674   1.859   0.970
 5530SOL    HW117489   0.736   1.786   1.001
 5530SOL    HW217490   0.649   1.916   1.048
 5531SOL     OW17491   1.707   4.392   1.386
 5531SOL    HW117492   1.719   4.426   1.293
 5531SOL    HW217493   1.790   4.411   1.439
 5532SOL     OW17494   0.655   3.750   6.345
 5532SOL    HW117495   0.655   3.664   6.294
 5532SOL    HW217496   0.603   3.818   6.293
 5533SOL     OW17497   3.946   1.221   2.836
 5533SOL    HW117498   3.901   1.294   2.785
 5533SOL    HW217499   4.045   1.236   2.836
 5534SOL     OW17500   1.264   0.259   4.537
 5534SOL    HW117501   1.286   0.163   4.519
 5534SOL    HW217502   1.300   0.286   4.626
 5535SOL     OW17503   6.998   1.809   2.903
 5535SOL    HW117504   6.953   1.772   2.822
 5535SOL    HW217505   0.068   1.768   2.913
 5536SOL     OW17506   4.452   6.703   4.558
 5536SOL    HW117507   4.470   6.654   4.473
 5536SOL    HW217508   4.451   6.802   4.540
 5537SOL     OW17509   2.560   2.415   3.012
 5537SOL    HW117510   2.540   2.513   3.021
 5537SOL    HW217511   2.595   2.396   2.921
 5538SOL     OW17512   4.526   5.341   4.463
 5538SOL    HW117513   4.599   5.366   4.398
 5538SOL    HW217514   4.546   5.250   4.501
 5539SOL     OW17515   2.031   4.245   6.866
 5539SOL    HW117516   1.934   4.225   6.849
 5539SOL    HW217517   2.081   4.244   6.779
 5540SOL     OW17518   3.973   5.724   1.596
 5540SOL    HW117519   4.018   5.661   1.660
 5540SOL    HW217520   3.883   5.687   1.572
 5541SOL     OW17521   4.675   0.957   5.881
 5541SOL    HW117522   4.770   0.938   5.909
 5541SOL    HW217523   4.666   1.053   5.857
 5542SOL     OW17524   5.184   4.632   6.519
 5542SOL    HW117525   5.248   4.612   6.444
 5542SOL    HW217526   5.093   4.651   6.481
 5543SOL     OW17527   0.717   1.866   4.910
 5543SOL    HW117528   0.811   1.831   4.911
 5543SOL    HW217529   0.716   1.958   4.949
 5544SOL     OW17530   5.507   0.904   0.049
 5544SOL    HW117531   5.491   0.916   6.972
 5544SOL    HW217532   5.594   0.946   0.074
 5545SOL     OW17533   2.445   2.357   1.745
 5545SOL    HW117534   2.403   2.299   1.815
 5545SOL    HW217535   2.460   2.448   1.783
 5546SOL     OW17536   4.008   5.294   5.882
 5546SOL    HW117537   3.920   5.300   5.835
 5546SOL    HW217538   4.073   5.245   5.826
 5547SOL     OW17539   3.420   5.425   4.356
 5547SOL    HW117540   3.414   5.523   4.375
 5547SOL    HW217541   3.328   5.388   4.341
 5548SOL     OW17542   0.327   1.719   4.625
 5548SOL    HW117543   0.331   1.709   4.724
 5548SOL    HW217544   0.378   1.800   4.598
 5549SOL     OW17545   3.260   5.301   6.984
 5549SOL    HW117546   3.236   5.311   6.888
 5549SOL    HW217547   3.177   5.298   0.019
 5550SOL     OW17548   2.642   6.642   2.435
 5550SOL    HW117549   2.724   6.633   2.379
 5550SOL    HW217550   2.653   6.718   2.499
 5551SOL     OW17551   0.141   1.072   2.668
 5551SOL    HW117552   0.199   0.998   2.635
 5551SOL    HW217553   0.059   1.077   2.612
 5552SOL     OW17554   1.601   2.772   2.622
 5552SOL    HW117555   1.546   2.740   2.699
 5552SOL    HW217556   1.652   2.696   2.582
 5553SOL     OW17557   4.729   6.399   6.098
 5553SOL    HW117558   4.745   6.426   6.003
 5553SOL    HW217559   4.786   6.320   6.121
 5554SOL     OW17560   3.161   1.083   4.663
 5554SOL    HW117561   3.174   1.122   4.754
 5554SOL    HW217562   3.063   1.068   4.647
 5555SOL     OW17563   0.810   6.343   1.277
 5555SOL    HW117564   0.775   6.411   1.213
 5555SOL    HW217565   0.751   6.262   1.274
 5556SOL     OW17566   6.943   0.975   4.986
 5556SOL    HW117567   6.874   1.038   4.951
 5556SOL    HW217568   6.968   0.910   4.914
 5557SOL     OW17569   3.273   0.169   2.642
 5557SOL    HW117570   3.192   0.209   2.686
 5557SOL    HW217571   3.312   0.099   2.702
 5558SOL     OW17572   5.149   2.025   5.683
 5558SOL    HW117573   5.117   2.065   5.597
 5558SOL    HW217574   5.073   2.018   5.747
 5559SOL     OW17575   2.234   0.925   0.886
 5559SOL    HW117576   2.324   0.942   0.927
 5559SOL    HW217577   2.212   0.828   0.896
 5560SOL     OW17578   0.241   1.296   4.578
 5560SOL    HW117579   0.172   1.350   4.627
 5560SOL    HW217580   0.327   1.298   4.629
 5561SOL     OW17581   1.440   4.148   1.743
 5561SOL    HW117582   1.417   4.072   1.681
 5561SOL    HW217583   1.385   4.228   1.719
 5562SOL     OW17584   3.561   2.153   6.751
 5562SOL    HW117585   3.589   2.112   6.664
 5562SOL    HW217586   3.503   2.232   6.733
 5563SOL     OW17587   3.949   4.400   1.097
 5563SOL    HW117588   4.031   4.389   1.041
 5563SOL    HW217589   3.905   4.311   1.110
 5564SOL     OW17590   6.103   1.733   2.184
 5564SOL    HW117591   6.037   1.795   2.142
 5564SOL    HW217592   6.172   1.785   2.234
 5565SOL     OW17593   1.918   2.896   5.335
 5565SOL    HW117594   1.848   2.959   5.302
 5565SOL    HW217595   2.007   2.923   5.298
 5566SOL     OW17596   2.658   3.740   0.459
 5566SOL    HW117597   2.577   3.694   0.495
 5566SOL    HW217598   2.696   3.800   0.529
 5567SOL     OW17599   1.893   5.446   3.763
 5567SOL    HW117600   1.976   5.460   3.818
 5567SOL    HW217601   1.913   5.382   3.688
 5568SOL     OW17602   3.622   2.523   6.794
 5568SOL    HW117603   3.694   2.553   6.855
 5568SOL    HW217604   3.533   2.533   6.839
 5569SOL     OW17605   4.255   1.912   0.340
 5569SOL    HW117606   4.236   1.876   0.431
 5569SOL    HW217607   4.354   1.909   0.323
 5570SOL     OW17608   1.238   2.973   5.631
 5570SOL    HW117609   1.320   2.919   5.651
 5570SOL    HW217610   1.237   2.995   5.533
 5571SOL     OW17611   7.010   4.463   6.589
 5571SOL    HW117612   6.960   4.385   6.625
 5571SOL    HW217613   0.076   4.474   6.637
 5572SOL     OW17614   0.618   3.527   5.975
 5572SOL    HW117615   0.681   3.451   5.957
 5572SOL    HW217616   0.532   3.510   5.929
 5573SOL     OW17617   6.569   3.842   6.687
 5573SOL    HW117618   6.549   3.744   6.686
 5573SOL    HW217619   6.596   3.872   6.595
 5574SOL     OW17620   1.585   6.678   4.098
 5574SOL    HW117621   1.569   6.650   4.192
 5574SOL    HW217622   1.506   6.729   4.064
 5575SOL     OW17623   0.959   1.197   2.580
 5575SOL    HW117624   0.926   1.292   2.586
 5575SOL    HW217625   1.008   1.174   2.664
 5576SOL     OW17626   5.839   6.492   5.630
 5576SOL    HW117627   5.892   6.576   5.615
 5576SOL    HW217628   5.778   6.505   5.708
 5577SOL     OW17629   2.093   4.402   4.687
 5577SOL    HW117630   2.155   4.456   4.630
 5577SOL    HW217631   2.143   4.325   4.727
 5578SOL     OW17632   3.845   1.846   5.821
 5578SOL    HW117633   3.867   1.805   5.909
 5578SOL    HW217634   3.789   1.927   5.835
 5579SOL     OW17635   5.062   4.584   1.948
 5579SOL    HW117636   5.160   4.565   1.946
 5579SOL    HW217637   5.011   4.498   1.940
 5580SOL     OW17638   5.664   1.594   1.816
 5580SOL    HW117639   5.736   1.583   1.747
 5580SOL    HW217640   5.576   1.607   1.770
 5581SOL     OW17641   3.336   2.808   0.430
 5581SOL    HW117642   3.285   2.735   0.385
 5581SOL    HW217643   3.359   2.879   0.364
 5582SOL     OW17644   3.047   3.107   3.197
 5582SOL    HW117645   3.000   3.190   3.225
 5582SOL    HW217646   3.144   3.115   3.217
 5583SOL     OW17647   4.114   0.564   6.905
 5583SOL    HW117648   4.141   0.554   7.001
 5583SOL    HW217649   4.120   0.660   6.879
 5584SOL     OW17650   5.005   3.589   3.924
 5584SOL    HW117651   4.954   3.645   3.989
 5584SOL    HW217652   5.027   3.500   3.966
 5585SOL     OW17653   0.566   0.153   3.324
 5585SOL    HW117654   0.660   0.121   3.313
 5585SOL    HW217655   0.509   0.113   3.252
 5586SOL     OW17656   2.391   0.688   0.173
 5586SOL    HW117657   2.360   0.732   0.088
 5586SOL    HW217658   2.330   0.612   0.194
 5587SOL     OW17659   3.810   6.156   3.627
 5587SOL    HW117660   3.878   6.124   3.561
 5587SOL    HW217661   3.718   6.148   3.587
 5588SOL     OW17662   5.323   6.603   6.481
 5588SOL    HW117663   5.372   6.609   6.394
 5588SOL    HW217664   5.225   6.617   6.465
 5589SOL     OW17665   1.822   3.740   0.074
 5589SOL    HW117666   1.832   3.797   0.155
 5589SOL    HW217667   1.901   3.679   0.066
 5590SOL     OW17668   6.642   0.672   3.481
 5590SOL    HW117669   6.689   0.599   3.531
 5590SOL    HW217670   6.583   0.723   3.544
 5591SOL     OW17671   5.328   0.304   6.782
 5591SOL    HW117672   5.317   0.269   6.689
 5591SOL    HW217673   5.311   0.402   6.783
 5592SOL     OW17674   1.310   2.900   2.686
 5592SOL    HW117675   1.360   2.939   2.609
 5592SOL    HW217676   1.338   2.804   2.698
 5593SOL     OW17677   2.245   4.159   4.803
 5593SOL    HW117678   2.195   4.117   4.728
 5593SOL    HW217679   2.269   4.089   4.870
 5594SOL     OW17680   2.567   1.309   6.043
 5594SOL    HW117681   2.647   1.369   6.038
 5594SOL    HW217682   2.534   1.307   6.137
 5595SOL     OW17683   0.540   3.239   6.651
 5595SOL    HW117684   0.476   3.290   6.595
 5595SOL    HW217685   0.495   3.159   6.689
 5596SOL     OW17686   4.953   3.329   4.290
 5596SOL    HW117687   5.036   3.274   4.295
 5596SOL    HW217688   4.944   3.367   4.198
 5597SOL     OW17689   6.960   1.863   6.696
 5597SOL    HW117690   6.983   1.960   6.688
 5597SOL    HW217691   6.882   1.842   6.638
 5598SOL     OW17692   6.149   0.978   3.884
 5598SOL    HW117693   6.146   1.071   3.847
 5598SOL    HW217694   6.064   0.930   3.860
 5599SOL     OW17695   5.524   3.371   2.986
 5599SOL    HW117696   5.431   3.383   3.022
 5599SOL    HW217697   5.529   3.285   2.937
 5600SOL     OW17698   1.701   2.889   2.066
 5600SOL    HW117699   1.760   2.843   2.132
 5600SOL    HW217700   1.753   2.959   2.018
 5601SOL     OW17701   6.246   2.671   6.612
 5601SOL    HW117702   6.269   2.768   6.602
 5601SOL    HW217703   6.183   2.644   6.539
 5602SOL     OW17704   6.447   1.830   2.864
 5602SOL    HW117705   6.522   1.786   2.815
 5602SOL    HW217706   6.361   1.784   2.842
 5603SOL     OW17707   3.609   1.784   6.416
 5603SOL    HW117708   3.693   1.730   6.425
 5603SOL    HW217709   3.533   1.734   6.458
 5604SOL     OW17710   1.132   5.023   3.298
 5604SOL    HW117711   1.189   5.033   3.216
 5604SOL    HW217712   1.115   5.113   3.338
 5605SOL     OW17713   3.272   6.764   4.798
 5605SOL    HW117714   3.359   6.716   4.788
 5605SOL    HW217715   3.201   6.714   4.748
 5606SOL     OW17716   4.471   3.597   1.117
 5606SOL    HW117717   4.547   3.661   1.104
 5606SOL    HW217718   4.399   3.642   1.170
 5607SOL     OW17719   0.826   2.291   2.758
 5607SOL    HW117720   0.849   2.338   2.843
 5607SOL    HW217721   0.905   2.290   2.697
 5608SOL     OW17722   6.517   0.280   3.590
 5608SOL    HW117723   6.506   0.357   3.653
 5608SOL    HW217724   6.614   0.273   3.564
 5609SOL     OW17725   6.594   0.613   0.124
 5609SOL    HW117726   6.599   0.524   0.079
 5609SOL    HW217727   6.585   0.685   0.056
 5610SOL     OW17728   5.897   6.511   6.146
 5610SOL    HW117729   5.865   6.606   6.150
 5610SOL    HW217730   5.864   6.469   6.062
 5611SOL     OW17731   6.383   4.015   1.481
 5611SOL    HW117732   6.473   3.991   1.445
 5611SOL    HW217733   6.371   3.971   1.570
 5612SOL     OW17734   4.646   2.417   1.522
 5612SOL    HW117735   4.563   2.366   1.503
 5612SOL    HW217736   4.630   2.481   1.598
 5613SOL     OW17737   6.295   5.335   5.571
 5613SOL    HW117738   6.388   5.354   5.540
 5613SOL    HW217739   6.281   5.236   5.577
 5614SOL     OW17740   5.428   2.392   4.686
 5614SOL    HW117741   5.431   2.303   4.731
 5614SOL    HW217742   5.429   2.464   4.756
 5615SOL     OW17743   0.496   3.333   2.762
 5615SOL    HW117744   0.564   3.321   2.689
 5615SOL    HW217745   0.536   3.304   2.849
 5616SOL     OW17746   1.143   3.448   1.902
 5616SOL    HW117747   1.063   3.470   1.847
 5616SOL    HW217748   1.123   3.370   1.961
 5617SOL     OW17749   0.431   5.388   5.449
 5617SOL    HW117750   0.447   5.383   5.350
 5617SOL    HW217751   0.334   5.404   5.466
 5618SOL     OW17752   4.657   0.709   2.713
 5618SOL    HW117753   4.718   0.783   2.742
 5618SOL    HW217754   4.570   0.717   2.760
 5619SOL     OW17755   2.960   3.848   3.499
 5619SOL    HW117756   2.940   3.878   3.592
 5619SOL    HW217757   3.053   3.811   3.494
 5620SOL     OW17758   4.930   4.963   5.398
 5620SOL    HW117759   5.009   4.906   5.378
 5620SOL    HW217760   4.872   4.917   5.466
 5621SOL     OW17761   1.165   3.079   6.285
 5621SOL    HW117762   1.200   3.098   6.193
 5621SOL    HW217763   1.155   2.981   6.297
 5622SOL     OW17764   5.872   5.815   3.165
 5622SOL    HW117765   5.891   5.724   3.130
 5622SOL    HW217766   5.955   5.853   3.207
 5623SOL     OW17767   4.644   4.920   3.763
 5623SOL    HW117768   4.600   4.922   3.674
 5623SOL    HW217769   4.634   4.830   3.804
 5624SOL     OW17770   4.975   4.023   4.006
 5624SOL    HW117771   4.926   3.961   3.945
 5624SOL    HW217772   5.065   3.984   4.027
 5625SOL     OW17773   3.122   6.794   6.361
 5625SOL    HW117774   3.077   6.815   6.275
 5625SOL    HW217775   3.147   6.879   6.408
 5626SOL     OW17776   1.914   4.729   6.354
 5626SOL    HW117777   2.009   4.728   6.387
 5626SOL    HW217778   1.853   4.699   6.428
 5627SOL     OW17779   1.257   5.159   1.127
 5627SOL    HW117780   1.280   5.223   1.200
 5627SOL    HW217781   1.169   5.115   1.147
 5628SOL     OW17782   1.619   2.850   0.260
 5628SOL    HW117783   1.679   2.900   0.198
 5628SOL    HW217784   1.608   2.756   0.228
 5629SOL     OW17785   6.608   3.255   4.519
 5629SOL    HW117786   6.673   3.220   4.586
 5629SOL    HW217787   6.617   3.204   4.433
 5630SOL     OW17788   1.447   4.142   0.255
 5630SOL    HW117789   1.492   4.231   0.265
 5630SOL    HW217790   1.373   4.150   0.189
 5631SOL     OW17791   3.994   0.934   2.654
 5631SOL    HW117792   3.961   0.856   2.601
 5631SOL    HW217793   3.937   0.946   2.735
 5632SOL     OW17794   3.672   6.805   6.695
 5632SOL    HW117795   3.716   6.895   6.698
 5632SOL    HW217796   3.649   6.776   6.788
 5633SOL     OW17797   1.501   5.086   5.572
 5633SOL    HW117798   1.494   5.014   5.640
 5633SOL    HW217799   1.544   5.167   5.613
 5634SOL     OW17800   2.632   6.989   1.922
 5634SOL    HW117801   2.656   7.013   1.828
 5634SOL    HW217802   2.675   6.902   1.946
 5635SOL     OW17803   3.580   0.323   2.286
 5635SOL    HW117804   3.499   0.339   2.343
 5635SOL    HW217805   3.623   0.237   2.312
 5636SOL     OW17806   5.247   0.191   4.719
 5636SOL    HW117807   5.279   0.098   4.736
 5636SOL    HW217808   5.309   0.236   4.655
 5637SOL     OW17809   5.069   6.958   5.195
 5637SOL    HW117810   5.008   7.019   5.144
 5637SOL    HW217811   5.156   6.949   5.147
 5638SOL     OW17812   0.392   5.538   0.230
 5638SOL    HW117813   0.329   5.461   0.224
 5638SOL    HW217814   0.480   5.513   0.190
 5639SOL     OW17815   2.883   0.043   2.068
 5639SOL    HW117816   2.809   6.996   2.074
 5639SOL    HW217817   2.847   0.133   2.094
 5640SOL     OW17818   3.632   6.910   3.989
 5640SOL    HW117819   3.665   7.004   4.001
 5640SOL    HW217820   3.699   6.846   4.026
 5641SOL     OW17821   6.360   4.559   3.454
 5641SOL    HW117822   6.433   4.608   3.502
 5641SOL    HW217823   6.272   4.590   3.488
 5642SOL     OW17824   2.708   2.325   6.324
 5642SOL    HW117825   2.673   2.235   6.351
 5642SOL    HW217826   2.805   2.331   6.348
 5643SOL     OW17827   5.599   3.242   3.512
 5643SOL    HW117828   5.619   3.216   3.607
 5643SOL    HW217829   5.682   3.277   3.469
 5644SOL     OW17830   3.479   0.885   5.955
 5644SOL    HW117831   3.543   0.961   5.962
 5644SOL    HW217832   3.530   0.799   5.951
 5645SOL     OW17833   5.750   6.930   3.193
 5645SOL    HW117834   5.673   6.869   3.173
 5645SOL    HW217835   5.719   0.004   3.194
 5646SOL     OW17836   6.656   0.285   3.091
 5646SOL    HW117837   6.715   0.245   3.162
 5646SOL    HW217838   6.602   0.212   3.048
 5647SOL     OW17839   6.341   3.717   6.038
 5647SOL    HW117840   6.364   3.622   6.016
 5647SOL    HW217841   6.289   3.756   5.961
 5648SOL     OW17842   2.111   1.778   4.318
 5648SOL    HW117843   2.096   1.712   4.391
 5648SOL    HW217844   2.036   1.773   4.252
 5649SOL     OW17845   0.290   0.296   4.868
 5649SOL    HW117846   0.313   0.240   4.947
 5649SOL    HW217847   0.199   0.336   4.881
 5650SOL     OW17848   6.560   4.935   5.152
 5650SOL    HW117849   6.657   4.922   5.173
 5650SOL    HW217850   6.505   4.920   5.234
 5651SOL     OW17851   6.119   0.364   2.422
 5651SOL    HW117852   6.154   0.454   2.446
 5651SOL    HW217853   6.019   0.365   2.424
 5652SOL     OW17854   5.414   4.551   0.122
 5652SOL    HW117855   5.396   4.563   0.025
 5652SOL    HW217856   5.370   4.468   0.155
 5653SOL     OW17857   1.797   6.027   6.668
 5653SOL    HW117858   1.809   5.952   6.733
 5653SOL    HW217859   1.706   6.067   6.680
 5654SOL     OW17860   2.159   0.034   7.014
 5654SOL    HW117861   2.160   0.124   6.971
 5654SOL    HW217862   2.177   6.984   6.946
 5655SOL     OW17863   6.192   5.374   3.016
 5655SOL    HW117864   6.159   5.397   2.925
 5655SOL    HW217865   6.116   5.376   3.081
 5656SOL     OW17866   4.007   5.015   5.990
 5656SOL    HW117867   4.021   5.113   5.973
 5656SOL    HW217868   4.083   4.963   5.950
 5657SOL     OW17869   4.763   5.370   2.335
 5657SOL    HW117870   4.665   5.371   2.315
 5657SOL    HW217871   4.814   5.345   2.252
 5658SOL     OW17872   4.594   6.810   5.887
 5658SOL    HW117873   4.498   6.781   5.877
 5658SOL    HW217874   4.607   6.898   5.841
 5659SOL     OW17875   3.590   4.105   3.072
 5659SOL    HW117876   3.572   4.010   3.049
 5659SOL    HW217877   3.689   4.120   3.075
 5660SOL     OW17878   7.005   6.017   1.919
 5660SOL    HW117879   0.017   6.051   1.830
 5660SOL    HW217880   0.055   5.958   1.959
 5661SOL     OW17881   6.326   5.940   4.773
 5661SOL    HW117882   6.283   6.017   4.726
 5661SOL    HW217883   6.417   5.966   4.804
 5662SOL     OW17884   1.711   4.400   4.277
 5662SOL    HW117885   1.697   4.388   4.179
 5662SOL    HW217886   1.741   4.494   4.295
 5663SOL     OW17887   2.360   3.866   1.172
 5663SOL    HW117888   2.310   3.779   1.174
 5663SOL    HW217889   2.379   3.890   1.077
 5664SOL     OW17890   6.535   6.244   2.074
 5664SOL    HW117891   6.436   6.251   2.087
 5664SOL    HW217892   6.581   6.245   2.162
 5665SOL     OW17893   1.659   1.163   5.749
 5665SOL    HW117894   1.641   1.262   5.747
 5665SOL    HW217895   1.619   1.120   5.668
 5666SOL     OW17896   5.556   5.293   6.850
 5666SOL    HW117897   5.473   5.236   6.857
 5666SOL    HW217898   5.633   5.237   6.821
 5667SOL     OW17899   5.756   4.501   2.224
 5667SOL    HW117900   5.771   4.593   2.260
 5667SOL    HW217901   5.659   4.490   2.199
 5668SOL     OW17902   6.906   2.139   6.630
 5668SOL    HW117903   6.819   2.113   6.588
 5668SOL    HW217904   6.889   2.186   6.716
 5669SOL     OW17905   0.265   2.580   4.497
 5669SOL    HW117906   0.243   2.608   4.403
 5669SOL    HW217907   0.207   2.632   4.561
 5670SOL     OW17908   1.511   3.189   2.098
 5670SOL    HW117909   1.527   3.260   2.168
 5670SOL    HW217910   1.422   3.146   2.114
 5671SOL     OW17911   0.986   0.901   5.437
 5671SOL    HW117912   0.886   0.904   5.447
 5671SOL    HW217913   1.028   0.904   5.528
 5672SOL     OW17914   4.631   4.136   5.498
 5672SOL    HW117915   4.552   4.076   5.486
 5672SOL    HW217916   4.602   4.231   5.495
 5673SOL     OW17917   1.620   6.660   0.976
 5673SOL    HW117918   1.691   6.692   1.038
 5673SOL    HW217919   1.538   6.636   1.029
 5674SOL     OW17920   0.368   3.003   1.766
 5674SOL    HW117921   0.401   3.048   1.848
 5674SOL    HW217922   0.323   2.917   1.790
 5675SOL     OW17923   3.915   1.173   5.466
 5675SOL    HW117924   3.827   1.153   5.509
 5675SOL    HW217925   3.967   1.088   5.456
 5676SOL     OW17926   2.345   6.443   2.049
 5676SOL    HW117927   2.438   6.437   2.086
 5676SOL    HW217928   2.310   6.536   2.063
 5677SOL     OW17929   6.252   0.221   2.953
 5677SOL    HW117930   6.320   0.243   2.882
 5677SOL    HW217931   6.235   0.122   2.952
 5678SOL     OW17932   0.752   5.293   2.836
 5678SOL    HW117933   0.667   5.288   2.888
 5678SOL    HW217934   0.732   5.313   2.740
 5679SOL     OW17935   3.974   5.684   5.700
 5679SOL    HW117936   3.949   5.716   5.792
 5679SOL    HW217937   4.069   5.655   5.700
 5680SOL     OW17938   1.908   6.944   6.572
 5680SOL    HW117939   1.866   7.001   6.642
 5680SOL    HW217940   1.995   6.910   6.605
 5681SOL     OW17941   2.895   3.915   6.444
 5681SOL    HW117942   2.978   3.861   6.434
 5681SOL    HW217943   2.887   3.979   6.368
 5682SOL     OW17944   2.009   3.252   3.861
 5682SOL    HW117945   1.966   3.233   3.949
 5682SOL    HW217946   2.016   3.168   3.808
 5683SOL     OW17947   3.999   3.168   5.317
 5683SOL    HW117948   4.092   3.146   5.345
 5683SOL    HW217949   3.984   3.266   5.326
 5684SOL     OW17950   2.968   3.877   3.201
 5684SOL    HW117951   2.924   3.912   3.284
 5684SOL    HW217952   3.042   3.815   3.227
 5685SOL     OW17953   0.357   6.343   1.524
 5685SOL    HW117954   0.317   6.396   1.450
 5685SOL    HW217955   0.386   6.254   1.489
 5686SOL     OW17956   3.347   4.652   0.122
 5686SOL    HW117957   3.405   4.576   0.153
 5686SOL    HW217958   3.390   4.696   0.043
 5687SOL     OW17959   4.292   5.784   6.665
 5687SOL    HW117960   4.322   5.762   6.758
 5687SOL    HW217961   4.237   5.867   6.667
 5688SOL     OW17962   5.347   1.644   2.488
 5688SOL    HW117963   5.264   1.603   2.450
 5688SOL    HW217964   5.396   1.576   2.542
 5689SOL     OW17965   4.299   3.550   6.037
 5689SOL    HW117966   4.277   3.465   5.988
 5689SOL    HW217967   4.365   3.603   5.984
 5690SOL     OW17968   3.804   0.195   3.308
 5690SOL    HW117969   3.736   0.264   3.335
 5690SOL    HW217970   3.768   0.143   3.231
 5691SOL     OW17971   3.495   0.214   4.154
 5691SOL    HW117972   3.531   0.307   4.160
 5691SOL    HW217973   3.563   0.155   4.109
 5692SOL     OW17974   5.918   2.225   0.057
 5692SOL    HW117975   5.915   2.225   6.978
 5692SOL    HW217976   5.827   2.242   0.094
 5693SOL     OW17977   5.007   2.503   2.299
 5693SOL    HW117978   5.008   2.451   2.385
 5693SOL    HW217979   4.914   2.503   2.262
 5694SOL     OW17980   1.520   2.240   4.512
 5694SOL    HW117981   1.441   2.283   4.467
 5694SOL    HW217982   1.489   2.187   4.590
 5695SOL     OW17983   1.967   4.185   3.585
 5695SOL    HW117984   1.937   4.278   3.562
 5695SOL    HW217985   2.061   4.172   3.552
 5696SOL     OW17986   2.576   0.895   6.514
 5696SOL    HW117987   2.493   0.866   6.561
 5696SOL    HW217988   2.644   0.822   6.518
 5697SOL     OW17989   6.703   3.721   0.210
 5697SOL    HW117990   6.603   3.733   0.204
 5697SOL    HW217991   6.748   3.800   0.168
 5698SOL     OW17992   1.724   4.422   3.716
 5698SOL    HW117993   1.672   4.504   3.692
 5698SOL    HW217994   1.690   4.344   3.664
 5699SOL     OW17995   0.409   2.268   5.329
 5699SOL    HW117996   0.328   2.232   5.283
 5699SOL    HW217997   0.480   2.285   5.261
 5700SOL     OW17998   1.475   5.318   3.821
 5700SOL    HW117999   1.470   5.218   3.813
 5700SOL    HW218000   1.383   5.356   3.826
 5701SOL     OW18001   4.854   3.719   2.741
 5701SOL    HW118002   4.774   3.662   2.723
 5701SOL    HW218003   4.898   3.688   2.825
 5702SOL     OW18004   3.478   0.302   6.889
 5702SOL    HW118005   3.566   0.339   6.861
 5702SOL    HW218006   3.412   0.312   6.815
 5703SOL     OW18007   4.489   4.307   1.632
 5703SOL    HW118008   4.550   4.372   1.678
 5703SOL    HW218009   4.435   4.258   1.701
 5704SOL     OW18010   4.967   4.368   3.352
 5704SOL    HW118011   4.954   4.428   3.431
 5704SOL    HW218012   4.911   4.286   3.362
 5705SOL     OW18013   6.398   1.441   3.913
 5705SOL    HW118014   6.386   1.535   3.945
 5705SOL    HW218015   6.488   1.407   3.940
 5706SOL     OW18016   2.182   1.296   6.909
 5706SOL    HW118017   2.128   1.308   6.826
 5706SOL    HW218018   2.266   1.350   6.901
 5707SOL     OW18019   3.648   1.453   0.220
 5707SOL    HW118020   3.622   1.477   0.127
 5707SOL    HW218021   3.566   1.430   0.273
 5708SOL     OW18022   6.977   6.924   0.737
 5708SOL    HW118023   6.955   6.828   0.756
 5708SOL    HW218024   0.048   6.929   0.697
 5709SOL     OW18025   1.445   2.687   0.825
 5709SOL    HW118026   1.364   2.726   0.783
 5709SOL    HW218027   1.466   2.599   0.783
 5710SOL     OW18028   3.658   4.522   0.349
 5710SOL    HW118029   3.686   4.616   0.370
 5710SOL    HW218030   3.633   4.515   0.253
 5711SOL     OW18031   5.452   1.635   5.356
 5711SOL    HW118032   5.375   1.695   5.377
 5711SOL    HW218033   5.524   1.648   5.424
 5712SOL     OW18034   6.574   6.794   0.028
 5712SOL    HW118035   6.613   6.703   0.017
 5712SOL    HW218036   6.481   6.787   0.066
 5713SOL     OW18037   0.533   2.938   2.794
 5713SOL    HW118038   0.573   2.901   2.878
 5713SOL    HW218039   0.434   2.949   2.806
 5714SOL     OW18040   2.013   0.626   6.892
 5714SOL    HW118041   1.954   0.667   6.822
 5714SOL    HW218042   1.956   0.580   6.960
 5715SOL     OW18043   1.648   0.280   3.275
 5715SOL    HW118044   1.683   0.353   3.335
 5715SOL    HW218045   1.724   0.226   3.240
 5716SOL     OW18046   2.116   2.313   5.259
 5716SOL    HW118047   2.181   2.354   5.195
 5716SOL    HW218048   2.166   2.261   5.328
 5717SOL     OW18049   0.595   3.160   5.775
 5717SOL    HW118050   0.693   3.159   5.754
 5717SOL    HW218051   0.544   3.192   5.695
 5718SOL     OW18052   2.902   5.427   6.279
 5718SOL    HW118053   2.855   5.442   6.366
 5718SOL    HW218054   2.960   5.505   6.258
 5719SOL     OW18055   2.005   0.834   0.481
 5719SOL    HW118056   2.105   0.831   0.481
 5719SOL    HW218057   1.975   0.927   0.460
 5720SOL     OW18058   1.865   6.056   4.070
 5720SOL    HW118059   1.924   5.981   4.038
 5720SOL    HW218060   1.918   6.116   4.130
 5721SOL     OW18061   6.580   3.937   7.018
 5721SOL    HW118062   6.671   3.896   7.019
 5721SOL    HW218063   6.522   3.891   0.065
 5722SOL     OW18064   5.561   1.320   4.209
 5722SOL    HW118065   5.528   1.257   4.280
 5722SOL    HW218066   5.626   1.272   4.150
 5723SOL     OW18067   0.455   4.443   1.148
 5723SOL    HW118068   0.425   4.512   1.214
 5723SOL    HW218069   0.511   4.375   1.195
 5724SOL     OW18070   5.368   2.821   5.810
 5724SOL    HW118071   5.312   2.896   5.846
 5724SOL    HW218072   5.309   2.755   5.764
 5725SOL     OW18073   5.585   6.717   5.672
 5725SOL    HW118074   5.652   6.772   5.622
 5725SOL    HW218075   5.541   6.652   5.609
 5726SOL     OW18076   4.326   4.840   5.502
 5726SOL    HW118077   4.341   4.814   5.598
 5726SOL    HW218078   4.234   4.812   5.474
 5727SOL     OW18079   5.733   2.848   4.218
 5727SOL    HW118080   5.822   2.891   4.203
 5727SOL    HW218081   5.671   2.914   4.260
 5728SOL     OW18082   4.363   0.737   4.984
 5728SOL    HW118083   4.418   0.655   4.971
 5728SOL    HW218084   4.343   0.748   5.082
 5729SOL     OW18085   1.501   2.888   3.879
 5729SOL    HW118086   1.467   2.841   3.960
 5729SOL    HW218087   1.518   2.984   3.900
 5730SOL     OW18088   4.133   4.351   0.122
 5730SOL    HW118089   4.138   4.394   0.212
 5730SOL    HW218090   4.187   4.267   0.122
 5731SOL     OW18091   4.158   1.076   4.871
 5731SOL    HW118092   4.193   1.125   4.951
 5731SOL    HW218093   4.217   1.093   4.793
 5732SOL     OW18094   5.479   4.510   4.667
 5732SOL    HW118095   5.482   4.416   4.701
 5732SOL    HW218096   5.391   4.551   4.689
 5733SOL     OW18097   2.749   0.091   1.693
 5733SOL    HW118098   2.754   0.099   1.594
 5733SOL    HW218099   2.807   0.016   1.723
 5734SOL     OW18100   1.544   6.850   5.924
 5734SOL    HW118101   1.564   6.838   6.021
 5734SOL    HW218102   1.483   6.928   5.911
 5735SOL     OW18103   5.411   1.051   0.862
 5735SOL    HW118104   5.454   1.101   0.787
 5735SOL    HW218105   5.349   1.112   0.912
 5736SOL     OW18106   4.887   3.807   6.611
 5736SOL    HW118107   4.965   3.763   6.656
 5736SOL    HW218108   4.803   3.782   6.659
 5737SOL     OW18109   5.366   5.640   2.228
 5737SOL    HW118110   5.345   5.603   2.318
 5737SOL    HW218111   5.421   5.574   2.177
 5738SOL     OW18112   2.631   0.796   1.370
 5738SOL    HW118113   2.664   0.706   1.344
 5738SOL    HW218114   2.704   0.863   1.357
 5739SOL     OW18115   2.147   0.685   4.934
 5739SOL    HW118116   2.148   0.597   4.982
 5739SOL    HW218117   2.098   0.675   4.848
 5740SOL     OW18118   4.961   3.272   2.384
 5740SOL    HW118119   4.906   3.259   2.301
 5740SOL    HW218120   4.937   3.359   2.426
 5741SOL     OW18121   1.523   3.109   4.262
 5741SOL    HW118122   1.529   3.132   4.165
 5741SOL    HW218123   1.438   3.060   4.280
 5742SOL     OW18124   5.731   5.630   2.219
 5742SOL    HW118125   5.743   5.627   2.318
 5742SOL    HW218126   5.650   5.576   2.193
 5743SOL     OW18127   3.947   5.805   0.173
 5743SOL    HW118128   3.928   5.741   0.247
 5743SOL    HW218129   4.028   5.859   0.194
 5744SOL     OW18130   5.275   6.093   3.380
 5744SOL    HW118131   5.185   6.062   3.411
 5744SOL    HW218132   5.283   6.081   3.281
 5745SOL     OW18133   0.765   3.510   2.955
 5745SOL    HW118134   0.774   3.450   2.876
 5745SOL    HW218135   0.717   3.462   3.028
 5746SOL     OW18136   5.201   0.460   3.271
 5746SOL    HW118137   5.138   0.537   3.260
 5746SOL    HW218138   5.210   0.412   3.183
 5747SOL     OW18139   1.898   7.010   1.548
 5747SOL    HW118140   1.978   0.019   1.602
 5747SOL    HW218141   1.923   7.008   1.451
 5748SOL     OW18142   6.083   6.428   6.947
 5748SOL    HW118143   6.015   6.402   6.878
 5748SOL    HW218144   6.036   6.457   0.010
 5749SOL     OW18145   2.436   6.187   6.417
 5749SOL    HW118146   2.390   6.206   6.503
 5749SOL    HW218147   2.367   6.170   6.346
 5750SOL     OW18148   6.435   2.683   4.469
 5750SOL    HW118149   6.465   2.681   4.373
 5750SOL    HW218150   6.454   2.773   4.507
 5751SOL     OW18151   0.181   3.778   4.485
 5751SOL    HW118152   0.098   3.792   4.539
 5751SOL    HW218153   0.160   3.725   4.403
 5752SOL     OW18154   5.451   1.016   0.484
 5752SOL    HW118155   5.503   1.037   0.566
 5752SOL    HW218156   5.478   0.926   0.449
 5753SOL     OW18157   3.686   3.820   4.237
 5753SOL    HW118158   3.708   3.916   4.255
 5753SOL    HW218159   3.715   3.764   4.315
 5754SOL     OW18160   6.276   6.011   0.925
 5754SOL    HW118161   6.209   6.082   0.946
 5754SOL    HW218162   6.364   6.035   0.967
 5755SOL     OW18163   1.488   2.987   6.367
 5755SOL    HW118164   1.477   3.079   6.331
 5755SOL    HW218165   1.403   2.958   6.411
 5756SOL     OW18166   6.294   6.240   1.796
 5756SOL    HW118167   6.259   6.334   1.796
 5756SOL    HW218168   6.324   6.216   1.703
 5757SOL     OW18169   0.695   1.259   3.687
 5757SOL    HW118170   0.772   1.249   3.625
 5757SOL    HW218171   0.612   1.276   3.634
 5758SOL     OW18172   6.232   6.941   3.473
 5758SOL    HW118173   6.205   0.013   3.445
 5758SOL    HW218174   6.180   6.874   3.421
 5759SOL     OW18175   1.939   6.730   2.707
 5759SOL    HW118176   1.852   6.773   2.685
 5759SOL    HW218177   2.003   6.800   2.741
 5760SOL     OW18178   0.549   2.125   6.679
 5760SOL    HW118179   0.578   2.062   6.751
 5760SOL    HW218180   0.610   2.205   6.679
 5761SOL     OW18181   6.787   6.479   4.696
 5761SOL    HW118182   6.791   6.484   4.796
 5761SOL    HW218183   6.693   6.496   4.665
 5762SOL     OW18184   1.060   5.264   5.484
 5762SOL    HW118185   1.045   5.178   5.533
 5762SOL    HW218186   1.155   5.268   5.454
 5763SOL     OW18187   5.163   0.435   0.210
 5763SOL    HW118188   5.225   0.357   0.213
 5763SOL    HW218189   5.069   0.403   0.200
 5764SOL     OW18190   4.361   6.337   4.547
 5764SOL    HW118191   4.334   6.404   4.478
 5764SOL    HW218192   4.457   6.351   4.572
 5765SOL     OW18193   0.059   5.662   2.306
 5765SOL    HW118194   7.004   5.630   2.363
 5765SOL    HW218195   0.145   5.640   2.351
 5766SOL     OW18196   0.752   1.153   4.164
 5766SOL    HW118197   0.707   1.222   4.108
 5766SOL    HW218198   0.696   1.133   4.244
 5767SOL     OW18199   4.789   6.817   0.242
 5767SOL    HW118200   4.869   6.799   0.300
 5767SOL    HW218201   4.707   6.819   0.298
 5768SOL     OW18202   1.330   0.834   4.774
 5768SOL    HW118203   1.237   0.865   4.755
 5768SOL    HW218204   1.353   0.856   4.869
 5769SOL     OW18205   0.644   2.702   5.407
 5769SOL    HW118206   0.685   2.635   5.468
 5769SOL    HW218207   0.547   2.680   5.392
 5770SOL     OW18208   1.837   4.472   1.956
 5770SOL    HW118209   1.931   4.460   1.925
 5770SOL    HW218210   1.777   4.408   1.907
 5771SOL     OW18211   2.867   5.313   3.356
 5771SOL    HW118212   2.884   5.353   3.446
 5771SOL    HW218213   2.768   5.313   3.338
 5772SOL     OW18214   2.923   0.109   3.100
 5772SOL    HW118215   2.906   0.068   3.190
 5772SOL    HW218216   3.011   0.158   3.103
 5773SOL     OW18217   5.660   0.789   3.774
 5773SOL    HW118218   5.572   0.833   3.792
 5773SOL    HW218219   5.668   0.706   3.829
 5774SOL     OW18220   0.915   6.728   3.626
 5774SOL    HW118221   0.918   6.630   3.604
 5774SOL    HW218222   0.841   6.772   3.575
 5775SOL     OW18223   6.347   4.963   2.110
 5775SOL    HW118224   6.259   4.918   2.127
 5775SOL    HW218225   6.341   5.019   2.028
 5776SOL     OW18226   2.818   0.821   4.057
 5776SOL    HW118227   2.853   0.834   4.150
 5776SOL    HW218228   2.722   0.795   4.061
 5777SOL     OW18229   1.311   0.455   1.731
 5777SOL    HW118230   1.307   0.368   1.781
 5777SOL    HW218231   1.224   0.470   1.684
 5778SOL     OW18232   0.276   0.184   0.579
 5778SOL    HW118233   0.192   0.174   0.525
 5778SOL    HW218234   0.306   0.279   0.575
 5779SOL     OW18235   5.703   1.627   0.649
 5779SOL    HW118236   5.681   1.705   0.590
 5779SOL    HW218237   5.802   1.620   0.660
 5780SOL     OW18238   5.071   4.748   3.922
 5780SOL    HW118239   5.011   4.667   3.921
 5780SOL    HW218240   5.028   4.822   3.871
 5781SOL     OW18241   1.565   5.472   6.053
 5781SOL    HW118242   1.582   5.454   6.150
 5781SOL    HW218243   1.651   5.463   6.002
 5782SOL     OW18244   6.939   0.819   0.086
 5782SOL    HW118245   6.943   0.825   0.185
 5782SOL    HW218246   0.008   0.840   0.047
 5783SOL     OW18247   2.535   2.565   6.887
 5783SOL    HW118248   2.518   2.594   6.981
 5783SOL    HW218249   2.454   2.519   6.850
 5784SOL     OW18250   0.189   6.302   6.700
 5784SOL    HW118251   0.180   6.238   6.776
 5784SOL    HW218252   0.277   6.349   6.707
 5785SOL     OW18253   1.806   1.250   0.901
 5785SOL    HW118254   1.800   1.183   0.828
 5785SOL    HW218255   1.752   1.331   0.876
 5786SOL     OW18256   6.215   5.388   1.504
 5786SOL    HW118257   6.173   5.477   1.523
 5786SOL    HW218258   6.278   5.396   1.427
 5787SOL     OW18259   2.165   3.248   5.835
 5787SOL    HW118260   2.126   3.303   5.908
 5787SOL    HW218261   2.126   3.155   5.839
 5788SOL     OW18262   3.321   0.947   3.653
 5788SOL    HW118263   3.411   0.985   3.672
 5788SOL    HW218264   3.329   0.873   3.586
 5789SOL     OW18265   3.730   5.124   6.095
 5789SOL    HW118266   3.731   5.143   6.194
 5789SOL    HW218267   3.824   5.112   6.063
 5790SOL     OW18268   1.050   3.979   3.760
 5790SOL    HW118269   1.085   4.033   3.837
 5790SOL    HW218270   1.126   3.942   3.708
 5791SOL     OW18271   1.808   0.675   3.319
 5791SOL    HW118272   1.800   0.618   3.401
 5791SOL    HW218273   1.748   0.754   3.327
 5792SOL     OW18274   0.105   2.285   2.572
 5792SOL    HW118275   0.093   2.384   2.580
 5792SOL    HW218276   0.025   2.238   2.610
 5793SOL     OW18277   6.299   0.717   4.744
 5793SOL    HW118278   6.341   0.699   4.655
 5793SOL    HW218279   6.366   0.703   4.816
 5794SOL     OW18280   6.365   4.177   6.497
 5794SOL    HW118281   6.409   4.219   6.576
 5794SOL    HW218282   6.406   4.088   6.480
 5795SOL     OW18283   5.624   4.129   6.545
 5795SOL    HW118284   5.578   4.058   6.492
 5795SOL    HW218285   5.641   4.097   6.638
 5796SOL     OW18286   3.064   2.496   0.867
 5796SOL    HW118287   3.088   2.473   0.961
 5796SOL    HW218288   2.988   2.560   0.866
 5797SOL     OW18289   2.835   2.450   5.368
 5797SOL    HW118290   2.771   2.410   5.434
 5797SOL    HW218291   2.825   2.403   5.280
 5798SOL     OW18292   6.193   5.256   4.334
 5798SOL    HW118293   6.232   5.342   4.367
 5798SOL    HW218294   6.263   5.185   4.335
 5799SOL     OW18295   5.290   0.962   4.048
 5799SOL    HW118296   5.302   1.061   4.057
 5799SOL    HW218297   5.193   0.940   4.055
 5800SOL     OW18298   6.198   5.956   6.713
 5800SOL    HW118299   6.233   6.042   6.676
 5800SOL    HW218300   6.260   5.882   6.689
 5801SOL     OW18301   2.109   0.918   2.689
 5801SOL    HW118302   2.189   0.879   2.644
 5801SOL    HW218303   2.126   1.014   2.710
 5802SOL     OW18304   0.631   3.022   4.669
 5802SOL    HW118305   0.678   2.998   4.754
 5802SOL    HW218306   0.696   3.063   4.605
 5803SOL     OW18307   1.491   4.926   1.260
 5803SOL    HW118308   1.508   5.000   1.195
 5803SOL    HW218309   1.395   4.926   1.287
 5804SOL     OW18310   0.074   2.874   6.087
 5804SOL    HW118311   0.007   2.919   6.146
 5804SOL    HW218312   0.054   2.776   6.083
 5805SOL     OW18313   5.874   3.497   6.798
 5805SOL    HW118314   5.797   3.466   6.744
 5805SOL    HW218315   5.890   3.433   6.873
 5806SOL     OW18316   6.741   0.070   6.983
 5806SOL    HW118317   6.769   6.999   7.008
 5806SOL    HW218318   6.691   0.112   0.039
 5807SOL     OW18319   2.261   3.594   1.483
 5807SOL    HW118320   2.228   3.549   1.565
 5807SOL    HW218321   2.184   3.626   1.428
 5808SOL     OW18322   6.060   1.643   3.420
 5808SOL    HW118323   6.016   1.727   3.454
 5808SOL    HW218324   6.159   1.652   3.427
 5809SOL     OW18325   0.272   2.933   4.058
 5809SOL    HW118326   0.331   2.989   4.117
 5809SOL    HW218327   0.287   2.959   3.963
 5810SOL     OW18328   2.281   2.106   2.711
 5810SOL    HW118329   2.362   2.054   2.684
 5810SOL    HW218330   2.221   2.119   2.632
 5811SOL     OW18331   2.983   0.319   2.451
 5811SOL    HW118332   2.935   0.249   2.399
 5811SOL    HW218333   3.043   0.275   2.518
 5812SOL     OW18334   4.764   0.606   4.667
 5812SOL    HW118335   4.718   0.694   4.665
 5812SOL    HW218336   4.742   0.554   4.584
 5813SOL     OW18337   1.723   1.162   5.342
 5813SOL    HW118338   1.810   1.119   5.319
 5813SOL    HW218339   1.738   1.259   5.364
 5814SOL     OW18340   6.906   5.136   0.645
 5814SOL    HW118341   6.907   5.124   0.744
 5814SOL    HW218342   6.820   5.177   0.617
 5815SOL     OW18343   3.892   1.251   3.549
 5815SOL    HW118344   3.808   1.297   3.580
 5815SOL    HW218345   3.968   1.316   3.551
 5816SOL     OW18346   5.208   6.697   0.665
 5816SOL    HW118347   5.142   6.633   0.625
 5816SOL    HW218348   5.299   6.676   0.631
 5817SOL     OW18349   5.988   2.068   6.003
 5817SOL    HW118350   6.051   2.010   5.951
 5817SOL    HW218351   6.032   2.097   6.088
 5818SOL     OW18352   6.443   6.000   5.621
 5818SOL    HW118353   6.528   6.052   5.612
 5818SOL    HW218354   6.436   5.933   5.547
 5819SOL     OW18355   5.715   0.187   0.525
 5819SOL    HW118356   5.664   0.272   0.517
 5819SOL    HW218357   5.655   0.116   0.563
 5820SOL     OW18358   5.817   5.194   2.164
 5820SOL    HW118359   5.867   5.220   2.246
 5820SOL    HW218360   5.724   5.168   2.188
 5821SOL     OW18361   3.270   6.654   2.808
 5821SOL    HW118362   3.205   6.729   2.824
 5821SOL    HW218363   3.228   6.586   2.747
 5822SOL     OW18364   0.868   1.248   2.141
 5822SOL    HW118365   0.915   1.253   2.053
 5822SOL    HW218366   0.932   1.220   2.212
 5823SOL     OW18367   1.930   2.728   4.295
 5823SOL    HW118368   1.901   2.636   4.268
 5823SOL    HW218369   1.944   2.783   4.213
 5824SOL     OW18370   4.200   0.506   3.557
 5824SOL    HW118371   4.160   0.416   3.537
 5824SOL    HW218372   4.133   0.562   3.605
 5825SOL     OW18373   3.557   1.154   1.577
 5825SOL    HW118374   3.490   1.200   1.635
 5825SOL    HW218375   3.635   1.215   1.561
 5826SOL     OW18376   0.018   6.761   3.747
 5826SOL    HW118377   6.943   6.773   3.773
 5826SOL    HW218378   0.059   6.687   3.800
 5827SOL     OW18379   1.899   4.669   5.481
 5827SOL    HW118380   1.806   4.676   5.518
 5827SOL    HW218381   1.899   4.699   5.386
 5828SOL     OW18382   6.626   2.353   1.685
 5828SOL    HW118383   6.542   2.407   1.683
 5828SOL    HW218384   6.610   2.268   1.734
 5829SOL     OW18385   1.213   1.534   1.601
 5829SOL    HW118386   1.177   1.459   1.546
 5829SOL    HW218387   1.310   1.520   1.618
 5830SOL     OW18388   2.014   0.844   5.245
 5830SOL    HW118389   1.994   0.879   5.154
 5830SOL    HW218390   1.999   0.745   5.248
 5831SOL     OW18391   6.118   6.179   3.084
 5831SOL    HW118392   6.201   6.123   3.085
 5831SOL    HW218393   6.041   6.123   3.055
 5832SOL     OW18394   3.579   3.334   4.313
 5832SOL    HW118395   3.528   3.254   4.281
 5832SOL    HW218396   3.522   3.387   4.376
 5833SOL     OW18397   3.226   3.564   5.176
 5833SOL    HW118398   3.221   3.467   5.199
 5833SOL    HW218399   3.194   3.578   5.082
 5834SOL     OW18400   6.314   0.561   0.237
 5834SOL    HW118401   6.237   0.578   0.174
 5834SOL    HW218402   6.400   0.576   0.188
 5835SOL     OW18403   5.169   2.935   4.475
 5835SOL    HW118404   5.162   2.948   4.574
 5835SOL    HW218405   5.251   2.880   4.455
 5836SOL     OW18406   3.317   0.035   2.958
 5836SOL    HW118407   3.253   0.078   3.021
 5836SOL    HW218408   3.298   6.957   2.953
 5837SOL     OW18409   4.489   4.420   6.595
 5837SOL    HW118410   4.505   4.499   6.654
 5837SOL    HW218411   4.452   4.344   6.650
 5838SOL     OW18412   0.859   1.241   5.730
 5838SOL    HW118413   0.924   1.315   5.746
 5838SOL    HW218414   0.869   1.208   5.636
 5839SOL     OW18415   0.072   2.254   2.298
 5839SOL    HW118416   0.113   2.217   2.382
 5839SOL    HW218417   0.144   2.279   2.234
 5840SOL     OW18418   3.084   5.320   0.315
 5840SOL    HW118419   3.118   5.386   0.382
 5840SOL    HW218420   3.065   5.233   0.361
 5841SOL     OW18421   6.480   2.465   3.048
 5841SOL    HW118422   6.393   2.510   3.069
 5841SOL    HW218423   6.540   2.468   3.128
 5842SOL     OW18424   3.779   2.879   0.430
 5842SOL    HW118425   3.830   2.956   0.391
 5842SOL    HW218426   3.690   2.872   0.385
 5843SOL     OW18427   0.571   3.374   1.090
 5843SOL    HW118428   0.640   3.429   1.042
 5843SOL    HW218429   0.579   3.278   1.061
 5844SOL     OW18430   1.535   5.991   6.842
 5844SOL    HW118431   1.461   5.978   6.908
 5844SOL    HW218432   1.551   6.088   6.828
 5845SOL     OW18433   0.979   2.548   4.778
 5845SOL    HW118434   0.913   2.603   4.728
 5845SOL    HW218435   1.071   2.570   4.747
 5846SOL     OW18436   0.545   3.497   6.252
 5846SOL    HW118437   0.516   3.402   6.267
 5846SOL    HW218438   0.539   3.518   6.154
 5847SOL     OW18439   1.687   2.512   3.773
 5847SOL    HW118440   1.670   2.414   3.760
 5847SOL    HW218441   1.648   2.563   3.696
 5848SOL     OW18442   1.269   4.840   3.488
 5848SOL    HW118443   1.229   4.927   3.458
 5848SOL    HW218444   1.367   4.841   3.471
 5849SOL     OW18445   3.067   6.623   5.772
 5849SOL    HW118446   3.144   6.608   5.709
 5849SOL    HW218447   3.098   6.679   5.848
 5850SOL     OW18448   0.602   4.554   3.476
 5850SOL    HW118449   0.650   4.482   3.425
 5850SOL    HW218450   0.665   4.630   3.492
 5851SOL     OW18451   5.237   2.709   1.986
 5851SOL    HW118452   5.281   2.671   1.904
 5851SOL    HW218453   5.192   2.795   1.963
 5852SOL     OW18454   4.480   6.149   2.645
 5852SOL    HW118455   4.460   6.059   2.684
 5852SOL    HW218456   4.405   6.212   2.666
 5853SOL     OW18457   4.810   4.043   5.711
 5853SOL    HW118458   4.768   4.104   5.643
 5853SOL    HW218459   4.753   4.041   5.793
 5854SOL     OW18460   0.823   0.879   6.542
 5854SOL    HW118461   0.920   0.862   6.526
 5854SOL    HW218462   0.786   0.934   6.467
 5855SOL     OW18463   1.794   1.363   5.021
 5855SOL    HW118464   1.745   1.277   5.012
 5855SOL    HW218465   1.880   1.357   4.970
 5856SOL     OW18466   1.881   5.130   3.044
 5856SOL    HW118467   1.981   5.136   3.041
 5856SOL    HW218468   1.854   5.035   3.027
 5857SOL     OW18469   0.204   2.302   5.149
 5857SOL    HW118470   0.127   2.257   5.194
 5857SOL    HW218471   0.237   2.246   5.074
 5858SOL     OW18472   4.067   6.933   3.344
 5858SOL    HW118473   3.968   6.923   3.354
 5858SOL    HW218474   4.114   6.873   3.409
 5859SOL     OW18475   6.261   5.935   1.906
 5859SOL    HW118476   6.318   5.947   1.825
 5859SOL    HW218477   6.299   5.989   1.981
 5860SOL     OW18478   0.211   3.765   1.040
 5860SOL    HW118479   0.197   3.833   0.969
 5860SOL    HW218480   0.303   3.726   1.032
 5861SOL     OW18481   6.115   1.833   3.768
 5861SOL    HW118482   6.095   1.868   3.860
 5861SOL    HW218483   6.157   1.743   3.775
 5862SOL     OW18484   4.661   4.689   3.903
 5862SOL    HW118485   4.623   4.707   3.994
 5862SOL    HW218486   4.756   4.659   3.912
 5863SOL     OW18487   2.011   1.432   1.276
 5863SOL    HW118488   1.991   1.362   1.207
 5863SOL    HW218489   1.985   1.522   1.241
 5864SOL     OW18490   4.283   5.456   0.582
 5864SOL    HW118491   4.199   5.437   0.633
 5864SOL    HW218492   4.355   5.485   0.646
 5865SOL     OW18493   4.495   0.833   3.684
 5865SOL    HW118494   4.547   0.913   3.715
 5865SOL    HW218495   4.405   0.835   3.727
 5866SOL     OW18496   3.205   1.952   0.066
 5866SOL    HW118497   3.271   2.018   0.031
 5866SOL    HW218498   3.141   1.926   7.014
 5867SOL     OW18499   0.252   2.737   1.164
 5867SOL    HW118500   0.209   2.671   1.102
 5867SOL    HW218501   0.322   2.691   1.218
 5868SOL     OW18502   1.266   6.693   4.458
 5868SOL    HW118503   1.233   6.669   4.367
 5868SOL    HW218504   1.248   6.618   4.522
 5869SOL     OW18505   3.305   4.890   4.078
 5869SOL    HW118506   3.304   4.841   3.990
 5869SOL    HW218507   3.213   4.890   4.117
 5870SOL     OW18508   5.126   5.430   4.173
 5870SOL    HW118509   5.145   5.342   4.130
 5870SOL    HW218510   5.173   5.503   4.123
 5871SOL     OW18511   2.720   3.536   0.273
 5871SOL    HW118512   2.718   3.604   0.346
 5871SOL    HW218513   2.751   3.448   0.309
 5872SOL     OW18514   3.809   5.430   4.303
 5872SOL    HW118515   3.747   5.354   4.283
 5872SOL    HW218516   3.853   5.459   4.218
 5873SOL     OW18517   1.798   2.958   0.089
 5873SOL    HW118518   1.848   2.874   0.071
 5873SOL    HW218519   1.826   3.029   0.024
 5874SOL     OW18520   1.202   4.232   6.640
 5874SOL    HW118521   1.220   4.162   6.571
 5874SOL    HW218522   1.224   4.322   6.603
 5875SOL     OW18523   3.830   2.222   0.719
 5875SOL    HW118524   3.740   2.263   0.734
 5875SOL    HW218525   3.901   2.282   0.756
 5876SOL     OW18526   3.969   4.212   6.281
 5876SOL    HW118527   3.931   4.304   6.285
 5876SOL    HW218528   4.068   4.216   6.286
 5877SOL     OW18529   6.168   0.149   2.234
 5877SOL    HW118530   6.138   0.203   2.312
 5877SOL    HW218531   6.138   0.054   2.246
 5878SOL     OW18532   4.905   4.186   2.205
 5878SOL    HW118533   4.999   4.168   2.176
 5878SOL    HW218534   4.842   4.140   2.143
 5879SOL     OW18535   3.100   4.342   5.271
 5879SOL    HW118536   3.028   4.399   5.231
 5879SOL    HW218537   3.083   4.328   5.368
 5880SOL     OW18538   5.632   2.269   0.094
 5880SOL    HW118539   5.533   2.256   0.092
 5880SOL    HW218540   5.653   2.356   0.137
 5881SOL     OW18541   1.626   6.137   2.784
 5881SOL    HW118542   1.676   6.123   2.699
 5881SOL    HW218543   1.689   6.134   2.862
 5882SOL     OW18544   1.549   4.893   5.783
 5882SOL    HW118545   1.545   4.802   5.825
 5882SOL    HW218546   1.635   4.937   5.808
 5883SOL     OW18547   6.821   5.554   7.015
 5883SOL    HW118548   6.910   5.542   6.970
 5883SOL    HW218549   6.796   5.651   7.014
 5884SOL     OW18550   6.412   1.080   2.371
 5884SOL    HW118551   6.420   1.021   2.451
 5884SOL    HW218552   6.459   1.038   2.293
 5885SOL     OW18553   0.106   5.254   1.270
 5885SOL    HW118554   0.022   5.209   1.240
 5885SOL    HW218555   0.118   5.240   1.368
 5886SOL     OW18556   2.018   4.981   3.429
 5886SOL    HW118557   1.926   4.986   3.391
 5886SOL    HW218558   2.085   5.001   3.357
 5887SOL     OW18559   3.328   3.190   0.386
 5887SOL    HW118560   3.285   3.188   0.476
 5887SOL    HW218561   3.326   3.098   0.346
 5888SOL     OW18562   2.693   6.091   1.371
 5888SOL    HW118563   2.706   6.002   1.328
 5888SOL    HW218564   2.781   6.140   1.374
 5889SOL     OW18565   5.622   1.301   2.415
 5889SOL    HW118566   5.672   1.377   2.374
 5889SOL    HW218567   5.685   1.243   2.466
 5890SOL     OW18568   2.793   5.055   3.579
 5890SOL    HW118569   2.863   5.097   3.637
 5890SOL    HW218570   2.785   5.106   3.494
 5891SOL     OW18571   2.394   3.481   6.653
 5891SOL    HW118572   2.407   3.407   6.720
 5891SOL    HW218573   2.401   3.444   6.561
 5892SOL     OW18574   1.122   2.809   0.362
 5892SOL    HW118575   1.181   2.871   0.414
 5892SOL    HW218576   1.027   2.834   0.377
 5893SOL     OW18577   0.845   6.382   1.553
 5893SOL    HW118578   0.856   6.371   1.454
 5893SOL    HW218579   0.907   6.320   1.601
 5894SOL     OW18580   2.033   5.727   6.722
 5894SOL    HW118581   2.116   5.686   6.758
 5894SOL    HW218582   1.973   5.752   6.798
 5895SOL     OW18583   5.678   4.018   3.562
 5895SOL    HW118584   5.735   3.937   3.579
 5895SOL    HW218585   5.714   4.067   3.483
 5896SOL     OW18586   5.519   2.534   2.393
 5896SOL    HW118587   5.535   2.448   2.440
 5896SOL    HW218588   5.429   2.532   2.349
 5897SOL     OW18589   3.294   2.290   0.480
 5897SOL    HW118590   3.263   2.225   0.411
 5897SOL    HW218591   3.381   2.259   0.519
 5898SOL     OW18592   2.386   0.653   6.688
 5898SOL    HW118593   2.468   0.611   6.728
 5898SOL    HW218594   2.326   0.687   6.760
 5899SOL     OW18595   6.779   6.984   0.532
 5899SOL    HW118596   6.692   6.973   0.580
 5899SOL    HW218597   6.854   6.954   0.590
 5900SOL     OW18598   5.938   6.607   2.307
 5900SOL    HW118599   6.037   6.614   2.318
 5900SOL    HW218600   5.897   6.571   2.391
 5901SOL     OW18601   2.207   0.491   5.129
 5901SOL    HW118602   2.300   0.501   5.164
 5901SOL    HW218603   2.176   0.397   5.144
 5902SOL     OW18604   4.005   4.366   5.586
 5902SOL    HW118605   4.045   4.331   5.501
 5902SOL    HW218606   3.917   4.408   5.567
 5903SOL     OW18607   6.675   1.945   4.913
 5903SOL    HW118608   6.616   2.003   4.970
 5903SOL    HW218609   6.630   1.928   4.826
 5904SOL     OW18610   0.178   4.869   1.356
 5904SOL    HW118611   0.196   4.911   1.445
 5904SOL    HW218612   0.079   4.854   1.346
 5905SOL     OW18613   6.216   2.383   5.104
 5905SOL    HW118614   6.129   2.375   5.153
 5905SOL    HW218615   6.198   2.395   5.007
 5906SOL     OW18616   4.664   1.218   5.807
 5906SOL    HW118617   4.602   1.296   5.806
 5906SOL    HW218618   4.675   1.183   5.714
 5907SOL     OW18619   1.390   3.190   5.717
 5907SOL    HW118620   1.469   3.130   5.727
 5907SOL    HW218621   1.309   3.135   5.697
 5908SOL     OW18622   4.292   3.919   6.788
 5908SOL    HW118623   4.262   3.943   6.696
 5908SOL    HW218624   4.212   3.910   6.848
 5909SOL     OW18625   5.947   4.852   3.963
 5909SOL    HW118626   5.972   4.871   4.058
 5909SOL    HW218627   5.870   4.789   3.961
 5910SOL     OW18628   3.313   4.490   1.100
 5910SOL    HW118629   3.235   4.526   1.048
 5910SOL    HW218630   3.340   4.557   1.170
 5911SOL     OW18631   6.161   0.349   6.292
 5911SOL    HW118632   6.176   0.446   6.272
 5911SOL    HW218633   6.221   0.321   6.367
 5912SOL     OW18634   0.410   3.428   5.838
 5912SOL    HW118635   0.421   3.370   5.757
 5912SOL    HW218636   0.313   3.451   5.848
 5913SOL     OW18637   1.704   2.413   4.541
 5913SOL    HW118638   1.641   2.336   4.528
 5913SOL    HW218639   1.703   2.471   4.459
 5914SOL     OW18640   1.444   6.081   0.855
 5914SOL    HW118641   1.358   6.101   0.807
 5914SOL    HW218642   1.429   6.085   0.953
 5915SOL     OW18643   5.754   3.547   4.445
 5915SOL    HW118644   5.730   3.625   4.503
 5915SOL    HW218645   5.834   3.501   4.482
 5916SOL     OW18646   3.150   0.387   6.445
 5916SOL    HW118647   3.217   0.421   6.379
 5916SOL    HW218648   3.197   0.356   6.528
 5917SOL     OW18649   3.793   4.069   2.545
 5917SOL    HW118650   3.871   4.033   2.495
 5917SOL    HW218651   3.795   4.036   2.639
 5918SOL     OW18652   2.423   1.939   3.968
 5918SOL    HW118653   2.379   1.877   4.033
 5918SOL    HW218654   2.505   1.895   3.930
 5919SOL     OW18655   1.761   1.822   6.936
 5919SOL    HW118656   1.723   1.853   0.002
 5919SOL    HW218657   1.811   1.897   6.892
 5920SOL     OW18658   2.878   5.321   6.909
 5920SOL    HW118659   2.872   5.233   6.956
 5920SOL    HW218660   2.913   5.390   6.972
 5921SOL     OW18661   4.018   5.288   5.332
 5921SOL    HW118662   4.054   5.321   5.419
 5921SOL    HW218663   4.016   5.188   5.333
 5922SOL     OW18664   6.437   4.757   1.372
 5922SOL    HW118665   6.424   4.833   1.436
 5922SOL    HW218666   6.384   4.774   1.289
 5923SOL     OW18667   0.700   0.582   3.442
 5923SOL    HW118668   0.654   0.495   3.460
 5923SOL    HW218669   0.652   0.655   3.491
 5924SOL     OW18670   6.026   1.856   4.390
 5924SOL    HW118671   6.013   1.944   4.343
 5924SOL    HW218672   6.094   1.802   4.341
 5925SOL     OW18673   6.281   6.074   0.342
 5925SOL    HW118674   6.192   6.047   0.305
 5925SOL    HW218675   6.309   6.160   0.300
 5926SOL     OW18676   3.647   5.930   1.774
 5926SOL    HW118677   3.663   5.832   1.760
 5926SOL    HW218678   3.734   5.979   1.773
 5927SOL     OW18679   2.250   5.093   1.783
 5927SOL    HW118680   2.199   5.031   1.724
 5927SOL    HW218681   2.201   5.105   1.870
 5928SOL     OW18682   0.735   6.194   0.998
 5928SOL    HW118683   0.707   6.285   0.968
 5928SOL    HW218684   0.655   6.134   1.006
 5929SOL     OW18685   0.533   6.789   5.636
 5929SOL    HW118686   0.633   6.788   5.638
 5929SOL    HW218687   0.502   6.840   5.556
 5930SOL     OW18688   6.198   1.307   5.134
 5930SOL    HW118689   6.121   1.281   5.191
 5930SOL    HW218690   6.237   1.226   5.090
 5931SOL     OW18691   6.014   4.872   0.482
 5931SOL    HW118692   6.008   4.881   0.582
 5931SOL    HW218693   6.043   4.960   0.443
 5932SOL     OW18694   2.079   0.276   0.168
 5932SOL    HW118695   2.125   0.193   0.138
 5932SOL    HW218696   1.995   0.251   0.218
 5933SOL     OW18697   6.417   3.441   3.223
 5933SOL    HW118698   6.378   3.460   3.133
 5933SOL    HW218699   6.503   3.492   3.233
 5934SOL     OW18700   3.932   3.853   2.408
 5934SOL    HW118701   3.917   3.768   2.358
 5934SOL    HW218702   3.893   3.846   2.499
 5935SOL     OW18703   4.088   3.322   2.996
 5935SOL    HW118704   4.000   3.285   3.025
 5935SOL    HW218705   4.133   3.364   3.075
 5936SOL     OW18706   6.626   6.180   6.574
 5936SOL    HW118707   6.706   6.232   6.605
 5936SOL    HW218708   6.613   6.100   6.633
 5937SOL     OW18709   1.096   4.323   0.252
 5937SOL    HW118710   1.031   4.268   0.200
 5937SOL    HW218711   1.056   4.349   0.340
 5938SOL     OW18712   2.241   4.344   0.553
 5938SOL    HW118713   2.294   4.423   0.583
 5938SOL    HW218714   2.187   4.309   0.629
 5939SOL     OW18715   1.469   1.502   2.164
 5939SOL    HW118716   1.516   1.548   2.240
 5939SOL    HW218717   1.469   1.403   2.180
 5940SOL     OW18718   3.833   4.881   3.503
 5940SOL    HW118719   3.753   4.912   3.553
 5940SOL    HW218720   3.822   4.901   3.405
 5941SOL     OW18721   6.523   3.149   3.047
 5941SOL    HW118722   6.575   3.153   2.962
 5941SOL    HW218723   6.572   3.095   3.115
 5942SOL     OW18724   6.972   1.808   4.557
 5942SOL    HW118725   7.008   1.739   4.621
 5942SOL    HW218726   6.896   1.768   4.506
 5943SOL     OW18727   1.455   5.065   0.729
 5943SOL    HW118728   1.548   5.047   0.763
 5943SOL    HW218729   1.405   4.979   0.723
 5944SOL     OW18730   4.988   2.339   3.114
 5944SOL    HW118731   5.038   2.382   3.189
 5944SOL    HW218732   4.944   2.256   3.147
 5945SOL     OW18733   6.728   5.486   6.157
 5945SOL    HW118734   6.658   5.518   6.094
 5945SOL    HW218735   6.705   5.514   6.250
 5946SOL     OW18736   3.722   2.679   5.322
 5946SOL    HW118737   3.781   2.757   5.302
 5946SOL    HW218738   3.632   2.712   5.352
 5947SOL     OW18739   4.794   3.938   1.737
 5947SOL    HW118740   4.835   3.849   1.715
 5947SOL    HW218741   4.732   3.966   1.664
 5948SOL     OW18742   3.172   5.156   3.236
 5948SOL    HW118743   3.200   5.061   3.238
 5948SOL    HW218744   3.074   5.162   3.214
 5949SOL     OW18745   4.315   4.653   3.001
 5949SOL    HW118746   4.248   4.727   2.995
 5949SOL    HW218747   4.337   4.637   3.098
 5950SOL     OW18748   6.185   2.760   4.267
 5950SOL    HW118749   6.251   2.754   4.342
 5950SOL    HW218750   6.212   2.697   4.194
 5951SOL     OW18751   2.111   0.230   4.236
 5951SOL    HW118752   2.089   0.200   4.329
 5951SOL    HW218753   2.052   0.308   4.212
 5952SOL     OW18754   0.373   5.723   4.880
 5952SOL    HW118755   0.303   5.788   4.851
 5952SOL    HW218756   0.461   5.769   4.886
 5953SOL     OW18757   1.178   3.073   6.013
 5953SOL    HW118758   1.129   3.029   5.938
 5953SOL    HW218759   1.273   3.042   6.013
 5954SOL     OW18760   1.245   4.915   6.677
 5954SOL    HW118761   1.150   4.892   6.698
 5954SOL    HW218762   1.248   5.000   6.626
 5955SOL     OW18763   4.994   4.937   2.866
 5955SOL    HW118764   4.910   4.949   2.815
 5955SOL    HW218765   4.997   4.845   2.906
 5956SOL     OW18766   0.270   2.193   6.995
 5956SOL    HW118767   0.240   2.122   6.931
 5956SOL    HW218768   0.205   2.200   0.050
 5957SOL     OW18769   4.413   6.684   5.434
 5957SOL    HW118770   4.339   6.632   5.392
 5957SOL    HW218771   4.377   6.737   5.511
 5958SOL     OW18772   0.982   5.326   2.455
 5958SOL    HW118773   1.021   5.236   2.474
 5958SOL    HW218774   1.043   5.398   2.490
 5959SOL     OW18775   1.078   0.773   6.447
 5959SOL    HW118776   1.049   0.693   6.500
 5959SOL    HW218777   1.173   0.793   6.468
 5960SOL     OW18778   3.651   6.689   5.664
 5960SOL    HW118779   3.643   6.605   5.611
 5960SOL    HW218780   3.613   6.765   5.611
 5961SOL     OW18781   2.441   0.992   5.415
 5961SOL    HW118782   2.516   0.927   5.399
 5961SOL    HW218783   2.368   0.974   5.349
 5962SOL     OW18784   5.050   3.806   2.249
 5962SOL    HW118785   4.993   3.809   2.331
 5962SOL    HW218786   5.114   3.729   2.256
 5963SOL     OW18787   4.107   3.728   1.724
 5963SOL    HW118788   4.072   3.792   1.793
 5963SOL    HW218789   4.129   3.641   1.767
 5964SOL     OW18790   1.770   3.798   5.592
 5964SOL    HW118791   1.757   3.705   5.558
 5964SOL    HW218792   1.791   3.859   5.516
 5965SOL     OW18793   2.105   1.715   3.856
 5965SOL    HW118794   2.189   1.761   3.885
 5965SOL    HW218795   2.124   1.618   3.841
 5966SOL     OW18796   2.263   5.805   4.084
 5966SOL    HW118797   2.178   5.789   4.135
 5966SOL    HW218798   2.339   5.765   4.135
 5967SOL     OW18799   4.788   5.991   2.184
 5967SOL    HW118800   4.769   6.017   2.278
 5967SOL    HW218801   4.702   5.980   2.134
 5968SOL     OW18802   0.323   1.623   3.616
 5968SOL    HW118803   0.235   1.634   3.569
 5968SOL    HW218804   0.335   1.527   3.642
 5969SOL     OW18805   6.036   2.739   2.792
 5969SOL    HW118806   6.035   2.729   2.892
 5969SOL    HW218807   6.116   2.693   2.755
 5970SOL     OW18808   2.184   3.255   3.518
 5970SOL    HW118809   2.257   3.298   3.464
 5970SOL    HW218810   2.113   3.322   3.537
 5971SOL     OW18811   3.006   6.701   3.154
 5971SOL    HW118812   2.967   6.611   3.136
 5971SOL    HW218813   2.981   6.730   3.246
 5972SOL     OW18814   5.348   0.233   1.637
 5972SOL    HW118815   5.359   0.209   1.541
 5972SOL    HW218816   5.401   0.171   1.694
 5973SOL     OW18817   1.565   4.246   2.983
 5973SOL    HW118818   1.588   4.272   3.077
 5973SOL    HW218819   1.469   4.268   2.965
 5974SOL     OW18820   1.203   3.829   6.046
 5974SOL    HW118821   1.299   3.855   6.038
 5974SOL    HW218822   1.196   3.731   6.066
 5975SOL     OW18823   2.409   2.569   6.500
 5975SOL    HW118824   2.388   2.666   6.483
 5975SOL    HW218825   2.507   2.560   6.521
 5976SOL     OW18826   3.387   3.028   4.745
 5976SOL    HW118827   3.429   2.959   4.685
 5976SOL    HW218828   3.442   3.112   4.742
 5977SOL     OW18829   0.579   3.633   3.347
 5977SOL    HW118830   0.482   3.634   3.373
 5977SOL    HW218831   0.598   3.713   3.289
 5978SOL     OW18832   4.832   5.652   2.336
 5978SOL    HW118833   4.855   5.667   2.239
 5978SOL    HW218834   4.804   5.557   2.349
 5979SOL     OW18835   0.813   1.128   1.654
 5979SOL    HW118836   0.734   1.090   1.703
 5979SOL    HW218837   0.800   1.116   1.556
 5980SOL     OW18838   6.256   3.024   6.112
 5980SOL    HW118839   6.256   2.945   6.174
 5980SOL    HW218840   6.292   2.996   6.023
 5981SOL     OW18841   4.122   2.068   0.738
 5981SOL    HW118842   4.084   1.976   0.749
 5981SOL    HW218843   4.056   2.136   0.772
 5982SOL     OW18844   5.995   1.979   0.142
 5982SOL    HW118845   5.958   2.069   0.120
 5982SOL    HW218846   5.924   1.924   0.186
 5983SOL     OW18847   1.038   0.471   4.735
 5983SOL    HW118848   0.975   0.456   4.659
 5983SOL    HW218849   0.996   0.533   4.801
 5984SOL     OW18850   0.293   6.905   5.804
 5984SOL    HW118851   0.390   6.924   5.790
 5984SOL    HW218852   0.275   6.808   5.787
 5985SOL     OW18853   5.234   3.245   4.334
 5985SOL    HW118854   5.285   3.195   4.403
 5985SOL    HW218855   5.283   3.329   4.310
 5986SOL     OW18856   2.930   3.294   3.003
 5986SOL    HW118857   2.882   3.216   3.042
 5986SOL    HW218858   3.028   3.285   3.020
 5987SOL     OW18859   4.976   0.301   5.605
 5987SOL    HW118860   4.941   0.276   5.515
 5987SOL    HW218861   4.997   0.218   5.657
 5988SOL     OW18862   3.813   0.285   5.567
 5988SOL    HW118863   3.797   0.308   5.471
 5988SOL    HW218864   3.838   0.367   5.618
 5989SOL     OW18865   2.824   1.813   6.927
 5989SOL    HW118866   2.769   1.893   6.954
 5989SOL    HW218867   2.920   1.840   6.920
 5990SOL     OW18868   3.532   5.136   2.417
 5990SOL    HW118869   3.596   5.142   2.494
 5990SOL    HW218870   3.509   5.040   2.401
 5991SOL     OW18871   3.010   5.120   3.729
 5991SOL    HW118872   3.082   5.174   3.772
 5991SOL    HW218873   3.001   5.033   3.777
 5992SOL     OW18874   4.292   2.349   4.026
 5992SOL    HW118875   4.321   2.442   4.007
 5992SOL    HW218876   4.313   2.326   4.121
 5993SOL     OW18877   3.228   5.697   3.681
 5993SOL    HW118878   3.229   5.744   3.770
 5993SOL    HW218879   3.139   5.713   3.637
 5994SOL     OW18880   6.125   2.193   1.404
 5994SOL    HW118881   6.129   2.262   1.477
 5994SOL    HW218882   6.119   2.239   1.315
 5995SOL     OW18883   0.974   4.475   1.114
 5995SOL    HW118884   0.918   4.559   1.117
 5995SOL    HW218885   0.969   4.429   1.202
 5996SOL     OW18886   0.852   5.702   5.552
 5996SOL    HW118887   0.921   5.716   5.623
 5996SOL    HW218888   0.849   5.605   5.527
 5997SOL     OW18889   0.540   0.578   1.551
 5997SOL    HW118890   0.523   0.551   1.456
 5997SOL    HW218891   0.593   0.663   1.552
 5998SOL     OW18892   4.323   2.390   3.455
 5998SOL    HW118893   4.294   2.466   3.514
 5998SOL    HW218894   4.378   2.326   3.508
 5999SOL     OW18895   2.536   2.603   3.335
 5999SOL    HW118896   2.586   2.528   3.378
 5999SOL    HW218897   2.539   2.684   3.394
 6000SOL     OW18898   4.858   0.320   3.376
 6000SOL    HW118899   4.891   0.226   3.369
 6000SOL    HW218900   4.932   0.379   3.409
 6001SOL     OW18901   6.403   2.106   0.011
 6001SOL    HW118902   6.358   2.054   0.083
 6001SOL    HW218903   6.462   2.175   0.052
 6002SOL     OW18904   1.815   0.416   2.034
 6002SOL    HW118905   1.721   0.431   2.065
 6002SOL    HW218906   1.867   0.500   2.043
 6003SOL     OW18907   5.471   4.376   3.853
 6003SOL    HW118908   5.406   4.446   3.824
 6003SOL    HW218909   5.447   4.288   3.812
 6004SOL     OW18910   0.022   3.340   1.969
 6004SOL    HW118911   0.068   3.319   2.055
 6004SOL    HW218912   0.073   3.299   1.893
 6005SOL     OW18913   2.203   6.021   2.217
 6005SOL    HW118914   2.260   6.003   2.137
 6005SOL    HW218915   2.173   6.116   2.217
 6006SOL     OW18916   2.243   5.680   0.452
 6006SOL    HW118917   2.285   5.749   0.393
 6006SOL    HW218918   2.186   5.619   0.396
 6007SOL     OW18919   4.886   3.026   4.851
 6007SOL    HW118920   4.935   2.945   4.882
 6007SOL    HW218921   4.924   3.107   4.896
 6008SOL     OW18922   4.680   3.807   1.350
 6008SOL    HW118923   4.684   3.718   1.394
 6008SOL    HW218924   4.745   3.810   1.274
 6009SOL     OW18925   4.207   1.682   5.046
 6009SOL    HW118926   4.233   1.763   5.100
 6009SOL    HW218927   4.108   1.672   5.047
 6010SOL     OW18928   1.057   4.111   3.283
 6010SOL    HW118929   1.153   4.097   3.309
 6010SOL    HW218930   1.036   4.209   3.286
 6011SOL     OW18931   6.634   2.577   1.974
 6011SOL    HW118932   6.552   2.594   1.919
 6011SOL    HW218933   6.688   2.504   1.932
 6012SOL     OW18934   0.459   2.669   1.695
 6012SOL    HW118935   0.459   2.769   1.705
 6012SOL    HW218936   0.499   2.644   1.608
 6013SOL     OW18937   5.807   0.683   2.294
 6013SOL    HW118938   5.833   0.667   2.198
 6013SOL    HW218939   5.888   0.708   2.346
 6014SOL     OW18940   6.071   0.336   1.195
 6014SOL    HW118941   6.101   0.421   1.237
 6014SOL    HW218942   6.130   0.316   1.116
 6015SOL     OW18943   5.845   0.474   4.296
 6015SOL    HW118944   5.945   0.470   4.289
 6015SOL    HW218945   5.810   0.382   4.315
 6016SOL     OW18946   2.041   7.007   5.157
 6016SOL    HW118947   1.942   7.009   5.161
 6016SOL    HW218948   2.077   6.951   5.231
 6017SOL     OW18949   6.946   3.734   2.650
 6017SOL    HW118950   6.873   3.800   2.668
 6017SOL    HW218951   0.012   3.782   2.638
 6018SOL     OW18952   2.752   5.116   1.645
 6018SOL    HW118953   2.725   5.091   1.551
 6018SOL    HW218954   2.815   5.193   1.642
 6019SOL     OW18955   5.820   6.086   3.376
 6019SOL    HW118956   5.914   6.109   3.403
 6019SOL    HW218957   5.761   6.164   3.391
 6020SOL     OW18958   2.658   6.930   2.744
 6020SOL    HW118959   2.653   0.005   2.773
 6020SOL    HW218960   2.573   6.905   2.697
 6021SOL     OW18961   3.838   0.822   4.004
 6021SOL    HW118962   3.914   0.850   4.063
 6021SOL    HW218963   3.756   0.874   4.028
 6022SOL     OW18964   4.810   0.870   5.389
 6022SOL    HW118965   4.757   0.948   5.357
 6022SOL    HW218966   4.756   0.817   5.454
 6023SOL     OW18967   0.351   2.021   2.523
 6023SOL    HW118968   0.301   2.057   2.602
 6023SOL    HW218969   0.309   1.936   2.492
 6024SOL     OW18970   6.993   5.961   2.554
 6024SOL    HW118971   6.953   5.875   2.586
 6024SOL    HW218972   0.047   5.941   2.490
 6025SOL     OW18973   4.168   2.263   2.646
 6025SOL    HW118974   4.148   2.258   2.548
 6025SOL    HW218975   4.206   2.354   2.667
 6026SOL     OW18976   0.485   4.464   5.701
 6026SOL    HW118977   0.489   4.379   5.648
 6026SOL    HW218978   0.444   4.445   5.790
 6027SOL     OW18979   3.960   3.203   0.353
 6027SOL    HW118980   3.977   3.277   0.288
 6027SOL    HW218981   3.868   3.212   0.391
 6028SOL     OW18982   0.889   4.191   0.134
 6028SOL    HW118983   0.825   4.186   0.211
 6028SOL    HW218984   0.851   4.251   0.063
 6029SOL     OW18985   0.688   4.619   1.576
 6029SOL    HW118986   0.647   4.557   1.643
 6029SOL    HW218987   0.787   4.613   1.580
 6030SOL     OW18988   1.813   6.739   1.370
 6030SOL    HW118989   1.752   6.667   1.402
 6030SOL    HW218990   1.877   6.764   1.443
 6031SOL     OW18991   5.127   0.623   4.340
 6031SOL    HW118992   5.050   0.673   4.301
 6031SOL    HW218993   5.113   0.613   4.439
 6032SOL     OW18994   0.467   3.403   2.415
 6032SOL    HW118995   0.368   3.412   2.406
 6032SOL    HW218996   0.489   3.319   2.463
 6033SOL     OW18997   0.242   6.564   4.630
 6033SOL    HW118998   0.155   6.608   4.654
 6033SOL    HW218999   0.314   6.599   4.689
 6034SOL     OW19000   2.370   4.391   5.253
 6034SOL    HW119001   2.435   4.318   5.274
 6034SOL    HW219002   2.301   4.357   5.189
 6035SOL     OW19003   5.266   0.011   3.887
 6035SOL    HW119004   5.273   0.111   3.885
 6035SOL    HW219005   5.251   6.997   3.795
 6036SOL     OW19006   6.936   0.604   4.427
 6036SOL    HW119007   6.848   0.621   4.382
 6036SOL    HW219008   7.010   0.618   4.362
 6037SOL     OW19009   0.476   5.471   4.846
 6037SOL    HW119010   0.431   5.560   4.845
 6037SOL    HW219011   0.562   5.477   4.794
 6038SOL     OW19012   5.978   3.974   6.629
 6038SOL    HW119013   6.057   3.929   6.586
 6038SOL    HW219014   5.993   4.073   6.632
 6039SOL     OW19015   4.153   3.340   4.772
 6039SOL    HW119016   4.211   3.275   4.821
 6039SOL    HW219017   4.081   3.289   4.724
 6040SOL     OW19018   1.711   1.014   1.131
 6040SOL    HW119019   1.780   1.025   1.060
 6040SOL    HW219020   1.749   1.043   1.219
 6041SOL     OW19021   0.808   2.632   0.459
 6041SOL    HW119022   0.838   2.612   0.366
 6041SOL    HW219023   0.808   2.731   0.474
 6042SOL     OW19024   5.775   5.755   4.933
 6042SOL    HW119025   5.751   5.814   5.010
 6042SOL    HW219026   5.717   5.674   4.934
 6043SOL     OW19027   0.127   4.585   4.248
 6043SOL    HW119028   0.209   4.642   4.239
 6043SOL    HW219029   0.084   4.575   4.158
 6044SOL     OW19030   1.546   0.521   1.617
 6044SOL    HW119031   1.539   0.611   1.574
 6044SOL    HW219032   1.462   0.501   1.666
 6045SOL     OW19033   6.583   4.117   0.826
 6045SOL    HW119034   6.660   4.056   0.807
 6045SOL    HW219035   6.539   4.091   0.912
 6046SOL     OW19036   2.001   3.189   0.572
 6046SOL    HW119037   1.959   3.239   0.648
 6046SOL    HW219038   2.009   3.250   0.493
 6047SOL     OW19039   0.423   6.306   4.615
 6047SOL    HW119040   0.472   6.282   4.699
 6047SOL    HW219041   0.383   6.397   4.624
 6048SOL     OW19042   4.930   6.027   4.831
 6048SOL    HW119043   4.924   6.102   4.766
 6048SOL    HW219044   4.844   6.019   4.882
 6049SOL     OW19045   6.591   5.649   0.165
 6049SOL    HW119046   6.566   5.729   0.111
 6049SOL    HW219047   6.666   5.601   0.119
 6050SOL     OW19048   5.634   4.611   5.877
 6050SOL    HW119049   5.601   4.699   5.842
 6050SOL    HW219050   5.692   4.568   5.808
 6051SOL     OW19051   2.873   1.388   3.293
 6051SOL    HW119052   2.889   1.481   3.262
 6051SOL    HW219053   2.856   1.388   3.391
 6052SOL     OW19054   6.514   1.499   0.314
 6052SOL    HW119055   6.430   1.474   0.362
 6052SOL    HW219056   6.497   1.578   0.256
 6053SOL     OW19057   1.730   0.151   6.123
 6053SOL    HW119058   1.791   0.085   6.079
 6053SOL    HW219059   1.723   0.130   6.220
 6054SOL     OW19060   1.819   4.181   6.170
 6054SOL    HW119061   1.805   4.274   6.202
 6054SOL    HW219062   1.774   4.169   6.081
 6055SOL     OW19063   5.275   0.148   3.526
 6055SOL    HW119064   5.347   0.202   3.483
 6055SOL    HW219065   5.191   0.202   3.529
 6056SOL     OW19066   5.227   3.557   6.177
 6056SOL    HW119067   5.171   3.606   6.111
 6056SOL    HW219068   5.287   3.621   6.225
 6057SOL     OW19069   3.496   0.828   6.246
 6057SOL    HW119070   3.486   0.805   6.343
 6057SOL    HW219071   3.590   0.856   6.228
 6058SOL     OW19072   5.231   1.941   5.083
 6058SOL    HW119073   5.153   1.884   5.057
 6058SOL    HW219074   5.199   2.025   5.126
 6059SOL     OW19075   6.563   6.265   6.212
 6059SOL    HW119076   6.572   6.335   6.283
 6059SOL    HW219077   6.603   6.299   6.127
 6060SOL     OW19078   3.179   6.600   6.562
 6060SOL    HW119079   3.113   6.525   6.552
 6060SOL    HW219080   3.170   6.662   6.484
 6061SOL     OW19081   2.072   1.850   0.106
 6061SOL    HW119082   2.074   1.876   0.010
 6061SOL    HW219083   2.166   1.842   0.141
 6062SOL     OW19084   1.066   0.273   4.046
 6062SOL    HW119085   1.111   0.246   4.131
 6062SOL    HW219086   0.972   0.301   4.065
 6063SOL     OW19087   5.479   5.861   0.361
 6063SOL    HW119088   5.535   5.781   0.339
 6063SOL    HW219089   5.431   5.892   0.278
 6064SOL     OW19090   0.729   5.317   2.566
 6064SOL    HW119091   0.820   5.351   2.542
 6064SOL    HW219092   0.694   5.259   2.492
 6065SOL     OW19093   5.980   6.485   1.809
 6065SOL    HW119094   6.000   6.486   1.907
 6065SOL    HW219095   5.943   6.395   1.784
 6066SOL     OW19096   4.594   2.035   6.276
 6066SOL    HW119097   4.551   2.032   6.185
 6066SOL    HW219098   4.536   1.985   6.341
 6067SOL     OW19099   5.175   2.352   6.670
 6067SOL    HW119100   5.124   2.349   6.756
 6067SOL    HW219101   5.148   2.275   6.613
 6068SOL     OW19102   5.452   1.707   5.744
 6068SOL    HW119103   5.488   1.690   5.836
 6068SOL    HW219104   5.383   1.637   5.722
 6069SOL     OW19105   5.884   4.307   4.500
 6069SOL    HW119106   5.982   4.287   4.505
 6069SOL    HW219107   5.863   4.350   4.413
 6070SOL     OW19108   4.437   2.808   6.635
 6070SOL    HW119109   4.435   2.892   6.581
 6070SOL    HW219110   4.484   2.736   6.583
 6071SOL     OW19111   5.182   6.879   5.617
 6071SOL    HW119112   5.238   6.837   5.689
 6071SOL    HW219113   5.147   6.807   5.557
 6072SOL     OW19114   6.858   1.565   0.642
 6072SOL    HW119115   6.776   1.579   0.698
 6072SOL    HW219116   6.850   1.618   0.558
 6073SOL     OW19117   6.776   1.614   1.053
 6073SOL    HW119118   6.722   1.649   0.977
 6073SOL    HW219119   6.744   1.523   1.078
 6074SOL     OW19120   0.452   0.293   5.212
 6074SOL    HW119121   0.368   0.342   5.235
 6074SOL    HW219122   0.507   0.281   5.295
 6075SOL     OW19123   4.506   4.046   6.649
 6075SOL    HW119124   4.452   4.038   6.733
 6075SOL    HW219125   4.487   4.133   6.605
 6076SOL     OW19126   2.668   0.389   4.270
 6076SOL    HW119127   2.598   0.454   4.298
 6076SOL    HW219128   2.740   0.437   4.220
 6077SOL     OW19129   5.232   5.021   2.721
 6077SOL    HW119130   5.251   5.119   2.729
 6077SOL    HW219131   5.164   4.994   2.789
 6078SOL     OW19132   2.160   4.455   3.715
 6078SOL    HW119133   2.146   4.530   3.780
 6078SOL    HW219134   2.249   4.466   3.671
 6079SOL     OW19135   2.832   1.470   0.579
 6079SOL    HW119136   2.842   1.407   0.502
 6079SOL    HW219137   2.769   1.432   0.646
 6080SOL     OW19138   6.037   2.639   3.047
 6080SOL    HW119139   6.128   2.640   3.089
 6080SOL    HW219140   5.979   2.706   3.092
 6081SOL     OW19141   0.748   3.789   2.895
 6081SOL    HW119142   0.662   3.828   2.930
 6081SOL    HW219143   0.733   3.692   2.872
 6082SOL     OW19144   3.313   1.669   4.664
 6082SOL    HW119145   3.309   1.732   4.586
 6082SOL    HW219146   3.265   1.710   4.742
 6083SOL     OW19147   2.030   7.012   0.710
 6083SOL    HW119148   2.064   6.932   0.758
 6083SOL    HW219149   1.931   7.014   0.714
 6084SOL     OW19150   0.189   5.394   5.584
 6084SOL    HW119151   0.138   5.364   5.504
 6084SOL    HW219152   0.167   5.490   5.603
 6085SOL     OW19153   5.386   5.376   1.413
 6085SOL    HW119154   5.380   5.377   1.513
 6085SOL    HW219155   5.334   5.453   1.376
 6086SOL     OW19156   2.798   1.682   2.724
 6086SOL    HW119157   2.869   1.700   2.792
 6086SOL    HW219158   2.722   1.633   2.768
 6087SOL     OW19159   3.587   0.638   0.891
 6087SOL    HW119160   3.686   0.647   0.882
 6087SOL    HW219161   3.542   0.701   0.827
 6088SOL     OW19162   0.109   0.078   5.668
 6088SOL    HW119163   0.204   0.090   5.639
 6088SOL    HW219164   0.098   7.006   5.704
 6089SOL     OW19165   6.406   3.808   0.603
 6089SOL    HW119166   6.427   3.903   0.580
 6089SOL    HW219167   6.322   3.779   0.557
 6090SOL     OW19168   0.471   5.763   3.898
 6090SOL    HW119169   0.393   5.797   3.845
 6090SOL    HW219170   0.501   5.674   3.861
 6091SOL     OW19171   6.093   2.312   1.152
 6091SOL    HW119172   5.995   2.331   1.145
 6091SOL    HW219173   6.143   2.398   1.163
 6092SOL     OW19174   0.842   3.184   1.199
 6092SOL    HW119175   0.863   3.254   1.130
 6092SOL    HW219176   0.913   3.114   1.199
 6093SOL     OW19177   1.098   3.888   0.569
 6093SOL    HW119178   1.178   3.926   0.521
 6093SOL    HW219179   1.016   3.902   0.514
 6094SOL     OW19180   0.670   1.464   0.817
 6094SOL    HW119181   0.643   1.558   0.800
 6094SOL    HW219182   0.770   1.459   0.826
 6095SOL     OW19183   0.006   4.018   5.060
 6095SOL    HW119184   0.022   3.968   4.975
 6095SOL    HW219185   0.093   4.050   5.098
 6096SOL     OW19186   4.763   1.812   2.862
 6096SOL    HW119187   4.702   1.890   2.848
 6096SOL    HW219188   4.779   1.766   2.774
 6097SOL     OW19189   3.207   2.128   2.043
 6097SOL    HW119190   3.149   2.177   2.107
 6097SOL    HW219191   3.159   2.116   1.956
 6098SOL     OW19192   1.294   0.343   6.436
 6098SOL    HW119193   1.359   0.373   6.365
 6098SOL    HW219194   1.301   0.404   6.515
 6099SOL     OW19195   6.060   4.414   5.147
 6099SOL    HW119196   6.012   4.331   5.117
 6099SOL    HW219197   6.072   4.411   5.246
 6100SOL     OW19198   6.887   2.301   6.900
 6100SOL    HW119199   6.789   2.296   6.922
 6100SOL    HW219200   6.915   2.397   6.900
 6101SOL     OW19201   6.070   0.109   3.710
 6101SOL    HW119202   6.036   0.039   3.647
 6101SOL    HW219203   6.167   0.127   3.691
 6102SOL     OW19204   2.939   6.735   5.037
 6102SOL    HW119205   3.038   6.744   5.029
 6102SOL    HW219206   2.909   6.774   5.124
 6103SOL     OW19207   5.945   1.482   5.467
 6103SOL    HW119208   5.855   1.441   5.480
 6103SOL    HW219209   6.012   1.410   5.452
 6104SOL     OW19210   1.091   3.046   0.975
 6104SOL    HW119211   1.190   3.032   0.972
 6104SOL    HW219212   1.072   3.144   0.982
 6105SOL     OW19213   3.409   4.995   4.962
 6105SOL    HW119214   3.332   4.961   5.016
 6105SOL    HW219215   3.398   4.967   4.867
 6106SOL     OW19216   3.060   4.836   4.210
 6106SOL    HW119217   2.981   4.775   4.200
 6106SOL    HW219218   3.054   4.883   4.298
 6107SOL     OW19219   2.179   5.083   5.315
 6107SOL    HW119220   2.217   5.123   5.399
 6107SOL    HW219221   2.210   4.989   5.306
 6108SOL     OW19222   5.540   1.725   4.443
 6108SOL    HW119223   5.485   1.723   4.527
 6108SOL    HW219224   5.637   1.722   4.466
 6109SOL     OW19225   6.664   3.742   1.992
 6109SOL    HW119226   6.696   3.653   1.959
 6109SOL    HW219227   6.575   3.731   2.036
 6110SOL     OW19228   3.279   2.085   3.509
 6110SOL    HW119229   3.213   2.046   3.444
 6110SOL    HW219230   3.370   2.084   3.469
 6111SOL     OW19231   0.328   4.803   3.508
 6111SOL    HW119232   0.256   4.832   3.446
 6111SOL    HW219233   0.295   4.730   3.567
 6112SOL     OW19234   1.083   2.413   0.435
 6112SOL    HW119235   1.162   2.475   0.430
 6112SOL    HW219236   1.040   2.422   0.525
 6113SOL     OW19237   1.655   5.409   5.206
 6113SOL    HW119238   1.750   5.409   5.238
 6113SOL    HW219239   1.649   5.362   5.118
 6114SOL     OW19240   4.950   4.634   0.847
 6114SOL    HW119241   5.048   4.619   0.831
 6114SOL    HW219242   4.923   4.722   0.809
 6115SOL     OW19243   6.407   4.357   2.045
 6115SOL    HW119244   6.338   4.296   2.084
 6115SOL    HW219245   6.361   4.431   1.995
 6116SOL     OW19246   3.413   2.091   1.160
 6116SOL    HW119247   3.484   2.037   1.114
 6116SOL    HW219248   3.334   2.100   1.100
 6117SOL     OW19249   5.583   6.751   4.066
 6117SOL    HW119250   5.651   6.747   4.139
 6117SOL    HW219251   5.517   6.824   4.085
 6118SOL     OW19252   6.360   0.411   3.427
 6118SOL    HW119253   6.415   0.347   3.481
 6118SOL    HW219254   6.319   0.361   3.350
 6119SOL     OW19255   5.555   5.827   4.128
 6119SOL    HW119256   5.476   5.779   4.165
 6119SOL    HW219257   5.632   5.764   4.117
 6120SOL     OW19258   2.447   1.858   3.467
 6120SOL    HW119259   2.439   1.889   3.372
 6120SOL    HW219260   2.531   1.894   3.506
 6121SOL     OW19261   6.724   1.544   4.639
 6121SOL    HW119262   6.649   1.496   4.684
 6121SOL    HW219263   6.809   1.494   4.654
 6122SOL     OW19264   3.851   6.389   4.214
 6122SOL    HW119265   3.761   6.432   4.222
 6122SOL    HW219266   3.913   6.427   4.282
 6123SOL     OW19267   5.827   1.288   2.618
 6123SOL    HW119268   5.914   1.330   2.641
 6123SOL    HW219269   5.787   1.247   2.700
 6124SOL     OW19270   2.852   0.270   4.690
 6124SOL    HW119271   2.894   0.204   4.629
 6124SOL    HW219272   2.753   0.266   4.682
 6125SOL     OW19273   0.897   4.313   2.277
 6125SOL    HW119274   0.847   4.342   2.196
 6125SOL    HW219275   0.846   4.240   2.323
 6126SOL     OW19276   3.873   5.986   2.583
 6126SOL    HW119277   3.787   6.026   2.552
 6126SOL    HW219278   3.866   5.962   2.680
 6127SOL     OW19279   2.134   5.134   2.028
 6127SOL    HW119280   2.176   5.153   2.117
 6127SOL    HW219281   2.056   5.195   2.015
 6128SOL     OW19282   5.193   3.386   1.188
 6128SOL    HW119283   5.113   3.342   1.229
 6128SOL    HW219284   5.249   3.318   1.141
 6129SOL     OW19285   6.453   3.883   3.471
 6129SOL    HW119286   6.545   3.848   3.454
 6129SOL    HW219287   6.458   3.982   3.486
 6130SOL     OW19288   5.103   4.306   2.521
 6130SOL    HW119289   5.100   4.351   2.431
 6130SOL    HW219290   5.015   4.261   2.538
 6131SOL     OW19291   6.340   1.558   5.112
 6131SOL    HW119292   6.427   1.559   5.063
 6131SOL    HW219293   6.298   1.467   5.104
 6132SOL     OW19294   6.449   2.488   0.497
 6132SOL    HW119295   6.548   2.495   0.512
 6132SOL    HW219296   6.401   2.501   0.583
 6133SOL     OW19297   1.364   4.322   0.487
 6133SOL    HW119298   1.297   4.247   0.480
 6133SOL    HW219299   1.333   4.399   0.431
 6134SOL     OW19300   4.733   3.683   0.249
 6134SOL    HW119301   4.770   3.606   0.301
 6134SOL    HW219302   4.660   3.727   0.301
 6135SOL     OW19303   5.639   0.220   2.742
 6135SOL    HW119304   5.542   0.206   2.760
 6135SOL    HW219305   5.689   0.221   2.829
 6136SOL     OW19306   0.822   1.485   2.504
 6136SOL    HW119307   0.888   1.436   2.446
 6136SOL    HW219308   0.861   1.574   2.529
 6137SOL     OW19309   3.172   7.007   6.526
 6137SOL    HW119310   3.202   6.998   6.621
 6137SOL    HW219311   3.110   0.065   6.518
 6138SOL     OW19312   5.097   0.194   3.099
 6138SOL    HW119313   5.080   0.147   3.186
 6138SOL    HW219314   5.135   0.129   3.033
 6139SOL     OW19315   2.458   6.301   3.791
 6139SOL    HW119316   2.440   6.335   3.699
 6139SOL    HW219317   2.411   6.213   3.802
 6140SOL     OW19318   1.788   5.531   1.169
 6140SOL    HW119319   1.795   5.504   1.264
 6140SOL    HW219320   1.708   5.487   1.127
 6141SOL     OW19321   0.031   5.910   5.396
 6141SOL    HW119322   0.077   5.848   5.460
 6141SOL    HW219323   0.094   5.934   5.322
 6142SOL     OW19324   0.607   3.985   3.396
 6142SOL    HW119325   0.578   3.967   3.302
 6142SOL    HW219326   0.694   3.938   3.414
 6143SOL     OW19327   6.598   4.388   6.193
 6143SOL    HW119328   6.632   4.294   6.185
 6143SOL    HW219329   6.622   4.439   6.111
 6144SOL     OW19330   0.250   4.835   4.277
 6144SOL    HW119331   0.162   4.839   4.324
 6144SOL    HW219332   0.305   4.915   4.302
 6145SOL     OW19333   5.846   5.232   3.409
 6145SOL    HW119334   5.807   5.155   3.458
 6145SOL    HW219335   5.826   5.317   3.458
 6146SOL     OW19336   5.790   2.507   3.747
 6146SOL    HW119337   5.806   2.541   3.839
 6146SOL    HW219338   5.877   2.484   3.704
 6147SOL     OW19339   1.111   4.063   2.666
 6147SOL    HW119340   1.141   3.974   2.702
 6147SOL    HW219341   1.172   4.092   2.594
 6148SOL     OW19342   6.175   5.728   2.869
 6148SOL    HW119343   6.226   5.802   2.825
 6148SOL    HW219344   6.117   5.766   2.942
 6149SOL     OW19345   1.632   6.173   4.960
 6149SOL    HW119346   1.672   6.095   5.007
 6149SOL    HW219347   1.703   6.219   4.906
 6150SOL     OW19348   4.466   6.079   5.906
 6150SOL    HW119349   4.557   6.044   5.928
 6150SOL    HW219350   4.467   6.179   5.912
 6151SOL     OW19351   4.691   0.344   5.540
 6151SOL    HW119352   4.717   0.257   5.497
 6151SOL    HW219353   4.770   0.383   5.588
 6152SOL     OW19354   6.447   4.543   5.200
 6152SOL    HW119355   6.525   4.598   5.168
 6152SOL    HW219356   6.362   4.584   5.167
 6153SOL     OW19357   4.338   4.695   6.607
 6153SOL    HW119358   4.345   4.694   6.508
 6153SOL    HW219359   4.398   4.766   6.644
 6154SOL     OW19360   5.253   3.164   3.809
 6154SOL    HW119361   5.191   3.094   3.845
 6154SOL    HW219362   5.286   3.137   3.719
 6155SOL     OW19363   2.461   4.861   4.989
 6155SOL    HW119364   2.532   4.814   4.937
 6155SOL    HW219365   2.437   4.807   5.070
 6156SOL     OW19366   5.981   0.407   4.650
 6156SOL    HW119367   5.960   0.434   4.744
 6156SOL    HW219368   6.020   0.485   4.601
 6157SOL     OW19369   0.834   1.681   3.786
 6157SOL    HW119370   0.767   1.631   3.841
 6157SOL    HW219371   0.874   1.753   3.841
 6158SOL     OW19372   5.639   6.671   0.093
 6158SOL    HW119373   5.734   6.699   0.104
 6158SOL    HW219374   5.581   6.722   0.157
 6159SOL     OW19375   4.937   3.520   6.832
 6159SOL    HW119376   5.001   3.594   6.813
 6159SOL    HW219377   4.905   3.479   6.747
 6160SOL     OW19378   6.411   4.324   0.712
 6160SOL    HW119379   6.471   4.379   0.653
 6160SOL    HW219380   6.466   4.264   0.769
 6161SOL     OW19381   6.175   7.006   6.297
 6161SOL    HW119382   6.239   6.978   6.225
 6161SOL    HW219383   6.214   0.061   6.350
 6162SOL     OW19384   5.267   4.947   4.300
 6162SOL    HW119385   5.278   5.039   4.336
 6162SOL    HW219386   5.319   4.939   4.214
 6163SOL     OW19387   6.939   4.029   2.509
 6163SOL    HW119388   6.969   3.971   2.433
 6163SOL    HW219389   6.877   3.977   2.567
 6164SOL     OW19390   4.514   2.861   0.374
 6164SOL    HW119391   4.562   2.945   0.349
 6164SOL    HW219392   4.578   2.795   0.412
 6165SOL     OW19393   3.959   0.584   1.391
 6165SOL    HW119394   4.006   0.621   1.311
 6165SOL    HW219395   3.863   0.613   1.389
 6166SOL     OW19396   3.838   1.198   0.693
 6166SOL    HW119397   3.811   1.272   0.755
 6166SOL    HW219398   3.832   1.110   0.741
 6167SOL     OW19399   6.873   5.528   3.812
 6167SOL    HW119400   6.903   5.584   3.889
 6167SOL    HW219401   6.872   5.432   3.839
 6168SOL     OW19402   0.198   3.196   1.226
 6168SOL    HW119403   0.277   3.215   1.284
 6168SOL    HW219404   0.170   3.280   1.178
 6169SOL     OW19405   1.906   4.369   1.576
 6169SOL    HW119406   1.877   4.283   1.619
 6169SOL    HW219407   2.005   4.380   1.588
 6170SOL     OW19408   6.520   1.887   3.331
 6170SOL    HW119409   6.513   1.793   3.364
 6170SOL    HW219410   6.453   1.944   3.378
 6171SOL     OW19411   6.128   1.170   5.788
 6171SOL    HW119412   6.041   1.125   5.768
 6171SOL    HW219413   6.121   1.219   5.875
 6172SOL     OW19414   1.018   4.647   4.208
 6172SOL    HW119415   0.984   4.629   4.300
 6172SOL    HW219416   1.107   4.693   4.214
 6173SOL     OW19417   5.531   6.199   3.025
 6173SOL    HW119418   5.627   6.180   3.046
 6173SOL    HW219419   5.480   6.113   3.022
 6174SOL     OW19420   6.641   2.373   2.859
 6174SOL    HW119421   6.585   2.418   2.929
 6174SOL    HW219422   6.628   2.274   2.864
 6175SOL     OW19423   3.740   1.392   6.752
 6175SOL    HW119424   3.670   1.346   6.698
 6175SOL    HW219425   3.744   1.489   6.726
 6176SOL     OW19426   2.616   4.453   6.415
 6176SOL    HW119427   2.682   4.436   6.489
 6176SOL    HW219428   2.525   4.463   6.453
 6177SOL     OW19429   5.700   5.304   1.572
 6177SOL    HW119430   5.740   5.344   1.490
 6177SOL    HW219431   5.681   5.207   1.556
 6178SOL     OW19432   4.031   4.887   2.061
 6178SOL    HW119433   3.944   4.935   2.074
 6178SOL    HW219434   4.032   4.843   1.971
 6179SOL     OW19435   5.541   5.105   5.096
 6179SOL    HW119436   5.614   5.063   5.150
 6179SOL    HW219437   5.460   5.046   5.101
 6180SOL     OW19438   1.939   3.991   6.652
 6180SOL    HW119439   1.995   3.908   6.656
 6180SOL    HW219440   1.850   3.974   6.692
 6181SOL     OW19441   6.045   6.144   6.898
 6181SOL    HW119442   6.105   6.222   6.882
 6181SOL    HW219443   6.076   6.066   6.844
 6182SOL     OW19444   2.767   2.422   6.771
 6182SOL    HW119445   2.670   2.413   6.792
 6182SOL    HW219446   2.807   2.332   6.754
 6183SOL     OW19447   0.049   0.621   0.613
 6183SOL    HW119448   0.058   0.719   0.597
 6183SOL    HW219449   7.018   0.579   0.538
 6184SOL     OW19450   3.155   6.768   5.443
 6184SOL    HW119451   3.161   6.854   5.392
 6184SOL    HW219452   3.158   6.691   5.379
 6185SOL     OW19453   3.559   2.953   5.432
 6185SOL    HW119454   3.505   3.037   5.425
 6185SOL    HW219455   3.498   2.875   5.447
 6186SOL     OW19456   1.285   2.218   2.702
 6186SOL    HW119457   1.241   2.249   2.787
 6186SOL    HW219458   1.370   2.268   2.689
 6187SOL     OW19459   3.252   1.812   6.334
 6187SOL    HW119460   3.322   1.880   6.314
 6187SOL    HW219461   3.168   1.857   6.365
 6188SOL     OW19462   1.572   1.443   5.775
 6188SOL    HW119463   1.519   1.526   5.754
 6188SOL    HW219464   1.642   1.465   5.843
 6189SOL     OW19465   6.671   4.944   0.321
 6189SOL    HW119466   6.628   4.929   0.232
 6189SOL    HW219467   6.703   5.038   0.327
 6190SOL     OW19468   0.590   2.671   3.664
 6190SOL    HW119469   0.534   2.679   3.582
 6190SOL    HW219470   0.552   2.729   3.736
 6191SOL     OW19471   2.481   4.158   0.670
 6191SOL    HW119472   2.423   4.206   0.604
 6191SOL    HW219473   2.457   4.061   0.670
 6192SOL     OW19474   3.187   1.704   1.506
 6192SOL    HW119475   3.137   1.637   1.451
 6192SOL    HW219476   3.257   1.657   1.560
 6193SOL     OW19477   4.103   5.922   6.796
 6193SOL    HW119478   4.127   5.996   6.859
 6193SOL    HW219479   4.063   5.846   6.848
 6194SOL     OW19480   5.304   0.115   6.096
 6194SOL    HW119481   5.276   0.057   6.019
 6194SOL    HW219482   5.296   0.062   6.181
 6195SOL     OW19483   4.815   5.748   5.761
 6195SOL    HW119484   4.733   5.696   5.783
 6195SOL    HW219485   4.799   5.802   5.678
 6196SOL     OW19486   6.369   3.512   3.486
 6196SOL    HW119487   6.386   3.437   3.549
 6196SOL    HW219488   6.363   3.477   3.392
 6197SOL     OW19489   0.999   5.041   1.126
 6197SOL    HW119490   1.011   4.971   1.055
 6197SOL    HW219491   0.902   5.044   1.152
 6198SOL     OW19492   5.910   1.444   6.482
 6198SOL    HW119493   5.979   1.420   6.550
 6198SOL    HW219494   5.945   1.425   6.390
 6199SOL     OW19495   2.448   0.031   6.060
 6199SOL    HW119496   2.509   6.977   6.086
 6199SOL    HW219497   2.383   7.020   5.991
 6200SOL     OW19498   1.345   0.201   0.809
 6200SOL    HW119499   1.404   0.180   0.730
 6200SOL    HW219500   1.321   0.116   0.856
 6201SOL     OW19501   0.285   5.332   3.535
 6201SOL    HW119502   0.193   5.294   3.520
 6201SOL    HW219503   0.277   5.426   3.568
 6202SOL     OW19504   5.680   0.748   1.967
 6202SOL    HW119505   5.657   0.808   1.890
 6202SOL    HW219506   5.598   0.732   2.023
 6203SOL     OW19507   6.218   0.945   1.948
 6203SOL    HW119508   6.298   0.886   1.940
 6203SOL    HW219509   6.146   0.895   1.997
 6204SOL     OW19510   0.950   5.877   4.812
 6204SOL    HW119511   0.884   5.802   4.819
 6204SOL    HW219512   0.957   5.906   4.717
 6205SOL     OW19513   5.879   4.518   3.325
 6205SOL    HW119514   5.865   4.561   3.414
 6205SOL    HW219515   5.974   4.489   3.316
 6206SOL     OW19516   5.607   2.225   3.372
 6206SOL    HW119517   5.608   2.306   3.431
 6206SOL    HW219518   5.512   2.196   3.358
 6207SOL     OW19519   1.878   5.968   3.581
 6207SOL    HW119520   1.810   5.968   3.508
 6207SOL    HW219521   1.910   5.875   3.597
 6208SOL     OW19522   3.827   4.431   6.625
 6208SOL    HW119523   3.873   4.343   6.626
 6208SOL    HW219524   3.860   4.485   6.547
 6209SOL     OW19525   3.669   1.426   2.189
 6209SOL    HW119526   3.666   1.521   2.220
 6209SOL    HW219527   3.612   1.369   2.248
 6210SOL     OW19528   5.649   1.076   4.004
 6210SOL    HW119529   5.731   1.133   4.009
 6210SOL    HW219530   5.604   1.090   3.916
 6211SOL     OW19531   5.129   3.402   5.343
 6211SOL    HW119532   5.069   3.477   5.316
 6211SOL    HW219533   5.074   3.319   5.358
 6212SOL     OW19534   4.849   4.569   5.044
 6212SOL    HW119535   4.812   4.590   4.954
 6212SOL    HW219536   4.796   4.496   5.086
 6213SOL     OW19537   5.191   6.103   0.627
 6213SOL    HW119538   5.226   6.025   0.678
 6213SOL    HW219539   5.091   6.098   0.622
 6214SOL     OW19540   6.359   0.186   6.425
 6214SOL    HW119541   6.358   0.211   6.522
 6214SOL    HW219542   6.395   0.093   6.415
 6215SOL     OW19543   5.570   2.043   5.272
 6215SOL    HW119544   5.563   1.986   5.190
 6215SOL    HW219545   5.503   2.014   5.339
 6216SOL     OW19546   5.043   2.122   5.465
 6216SOL    HW119547   5.088   2.117   5.376
 6216SOL    HW219548   4.985   2.204   5.468
 6217SOL     OW19549   6.900   4.496   2.544
 6217SOL    HW119550   6.933   4.432   2.474
 6217SOL    HW219551   6.823   4.549   2.507
 6218SOL     OW19552   4.621   6.674   0.788
 6218SOL    HW119553   4.577   6.757   0.825
 6218SOL    HW219554   4.576   6.648   0.702
 6219SOL     OW19555   2.337   0.431   7.014
 6219SOL    HW119556   2.421   0.481   6.991
 6219SOL    HW219557   2.329   0.422   0.092
 6220SOL     OW19558   3.370   6.904   2.139
 6220SOL    HW119559   3.459   6.865   2.118
 6220SOL    HW219560   3.347   6.885   2.235
 6221SOL     OW19561   4.511   5.538   5.383
 6221SOL    HW119562   4.511   5.488   5.469
 6221SOL    HW219563   4.420   5.576   5.366
 6222SOL     OW19564   6.252   1.378   2.401
 6222SOL    HW119565   6.184   1.307   2.382
 6222SOL    HW219566   6.265   1.434   2.318
 6223SOL     OW19567   6.624   4.991   4.540
 6223SOL    HW119568   6.572   5.015   4.622
 6223SOL    HW219569   6.569   4.931   4.482
 6224SOL     OW19570   4.195   6.593   0.266
 6224SOL    HW119571   4.292   6.592   0.291
 6224SOL    HW219572   4.163   6.688   0.261
 6225SOL     OW19573   4.888   6.220   6.191
 6225SOL    HW119574   4.968   6.188   6.140
 6225SOL    HW219575   4.835   6.141   6.223
 6226SOL     OW19576   0.780   0.976   3.641
 6226SOL    HW119577   0.807   1.047   3.576
 6226SOL    HW219578   0.736   1.018   3.720
 6227SOL     OW19579   2.370   5.008   5.832
 6227SOL    HW119580   2.307   4.965   5.896
 6227SOL    HW219581   2.452   5.039   5.881
 6228SOL     OW19582   0.642   3.501   3.866
 6228SOL    HW119583   0.696   3.553   3.932
 6228SOL    HW219584   0.659   3.535   3.774
 6229SOL     OW19585   0.436   4.359   4.317
 6229SOL    HW119586   0.476   4.375   4.407
 6229SOL    HW219587   0.415   4.447   4.274
 6230SOL     OW19588   0.613   0.982   1.780
 6230SOL    HW119589   0.513   0.993   1.772
 6230SOL    HW219590   0.639   0.984   1.876
 6231SOL     OW19591   2.201   5.354   6.150
 6231SOL    HW119592   2.189   5.414   6.070
 6231SOL    HW219593   2.137   5.382   6.222
 6232SOL     OW19594   4.432   0.147   6.628
 6232SOL    HW119595   4.473   0.091   6.556
 6232SOL    HW219596   4.458   0.243   6.615
 6233SOL     OW19597   0.109   4.038   1.502
 6233SOL    HW119598   0.185   4.102   1.510
 6233SOL    HW219599   0.130   3.969   1.433
 6234SOL     OW19600   4.997   5.798   3.996
 6234SOL    HW119601   4.934   5.874   3.981
 6234SOL    HW219602   5.089   5.834   4.014
 6235SOL     OW19603   0.702   0.654   1.927
 6235SOL    HW119604   0.707   0.752   1.946
 6235SOL    HW219605   0.615   0.633   1.883
 6236SOL     OW19606   6.750   5.872   1.297
 6236SOL    HW119607   6.682   5.897   1.228
 6236SOL    HW219608   6.753   5.943   1.368
 6237SOL     OW19609   3.781   1.111   2.429
 6237SOL    HW119610   3.750   1.038   2.491
 6237SOL    HW219611   3.717   1.120   2.353
 6238SOL     OW19612   2.551   0.532   3.522
 6238SOL    HW119613   2.614   0.591   3.573
 6238SOL    HW219614   2.509   0.465   3.583
 6239SOL     OW19615   4.323   1.365   4.039
 6239SOL    HW119616   4.242   1.329   3.994
 6239SOL    HW219617   4.310   1.366   4.138
 6240SOL     OW19618   3.873   2.974   4.371
 6240SOL    HW119619   3.841   3.006   4.460
 6240SOL    HW219620   3.935   2.896   4.384
 6241SOL     OW19621   3.704   0.150   3.696
 6241SOL    HW119622   3.664   0.062   3.668
 6241SOL    HW219623   3.653   0.225   3.654
 6242SOL     OW19624   3.313   2.133   4.409
 6242SOL    HW119625   3.386   2.117   4.475
 6242SOL    HW219626   3.225   2.128   4.455
 6243SOL     OW19627   4.284   1.174   0.268
 6243SOL    HW119628   4.372   1.165   0.222
 6243SOL    HW219629   4.258   1.087   0.309
 6244SOL     OW19630   4.396   2.153   2.088
 6244SOL    HW119631   4.447   2.083   2.137
 6244SOL    HW219632   4.427   2.244   2.117
 6245SOL     OW19633   6.851   5.333   1.703
 6245SOL    HW119634   6.873   5.282   1.786
 6245SOL    HW219635   6.760   5.373   1.711
 6246SOL     OW19636   0.678   6.344   5.191
 6246SOL    HW119637   0.773   6.313   5.179
 6246SOL    HW219638   0.667   6.434   5.148
 6247SOL     OW19639   5.530   5.030   2.941
 6247SOL    HW119640   5.568   4.938   2.947
 6247SOL    HW219641   5.553   5.081   3.024
 6248SOL     OW19642   4.513   2.648   5.574
 6248SOL    HW119643   4.454   2.637   5.494
 6248SOL    HW219644   4.519   2.745   5.598
 6249SOL     OW19645   5.851   3.299   3.412
 6249SOL    HW119646   5.917   3.238   3.456
 6249SOL    HW219647   5.868   3.299   3.313
 6250SOL     OW19648   5.635   0.067   5.900
 6250SOL    HW119649   5.636   0.081   5.999
 6250SOL    HW219650   5.541   0.068   5.867
 6251SOL     OW19651   2.955   0.554   4.461
 6251SOL    HW119652   3.043   0.524   4.424
 6251SOL    HW219653   2.881   0.501   4.418
 6252SOL     OW19654   3.318   5.125   0.688
 6252SOL    HW119655   3.391   5.178   0.732
 6252SOL    HW219656   3.237   5.183   0.677
 6253SOL     OW19657   5.057   6.003   4.205
 6253SOL    HW119658   5.142   5.976   4.159
 6253SOL    HW219659   4.983   5.941   4.178
 6254SOL     OW19660   0.812   0.084   1.740
 6254SOL    HW119661   0.798   0.157   1.674
 6254SOL    HW219662   0.762   0.105   1.824
 6255SOL     OW19663   1.870   0.861   0.881
 6255SOL    HW119664   1.882   0.776   0.832
 6255SOL    HW219665   1.875   0.938   0.817
 6256SOL     OW19666   6.141   5.336   2.142
 6256SOL    HW119667   6.062   5.293   2.184
 6256SOL    HW219668   6.112   5.417   2.091
 6257SOL     OW19669   3.861   3.584   0.942
 6257SOL    HW119670   3.836   3.662   0.884
 6257SOL    HW219671   3.960   3.584   0.957
 6258SOL     OW19672   4.182   5.088   5.092
 6258SOL    HW119673   4.144   5.122   5.006
 6258SOL    HW219674   4.197   4.990   5.085
 6259SOL     OW19675   4.439   0.918   4.780
 6259SOL    HW119676   4.437   0.858   4.860
 6259SOL    HW219677   4.388   1.002   4.799
 6260SOL     OW19678   3.378   2.070   0.811
 6260SOL    HW119679   3.308   2.140   0.826
 6260SOL    HW219680   3.406   2.070   0.715
 6261SOL     OW19681   4.011   0.096   0.823
 6261SOL    HW119682   4.092   0.054   0.863
 6261SOL    HW219683   3.929   0.049   0.858
 6262SOL     OW19684   5.934   1.057   2.452
 6262SOL    HW119685   6.013   1.000   2.475
 6262SOL    HW219686   5.856   1.030   2.508
 6263SOL     OW19687   6.387   6.093   6.338
 6263SOL    HW119688   6.448   6.165   6.305
 6263SOL    HW219689   6.377   6.023   6.267
 6264SOL     OW19690   0.902   6.195   0.613
 6264SOL    HW119691   0.947   6.165   0.529
 6264SOL    HW219692   0.807   6.164   0.612
 6265SOL     OW19693   3.998   6.853   6.576
 6265SOL    HW119694   3.911   6.884   6.538
 6265SOL    HW219695   4.052   6.811   6.504
 6266SOL     OW19696   3.430   5.302   3.175
 6266SOL    HW119697   3.500   5.232   3.190
 6266SOL    HW219698   3.340   5.263   3.195
 6267SOL     OW19699   0.585   6.255   4.361
 6267SOL    HW119700   0.685   6.246   4.367
 6267SOL    HW219701   0.547   6.271   4.452
 6268SOL     OW19702   3.853   1.744   0.991
 6268SOL    HW119703   3.846   1.829   1.044
 6268SOL    HW219704   3.847   1.666   1.052
 6269SOL     OW19705   6.764   6.197   0.077
 6269SOL    HW119706   6.822   6.133   0.128
 6269SOL    HW219707   6.670   6.190   0.110
 6270SOL     OW19708   1.261   6.384   0.795
 6270SOL    HW119709   1.276   6.375   0.893
 6270SOL    HW219710   1.211   6.468   0.776
 6271SOL     OW19711   6.903   3.157   5.611
 6271SOL    HW119712   6.804   3.160   5.624
 6271SOL    HW219713   6.949   3.178   5.697
 6272SOL     OW19714   0.678   1.231   0.317
 6272SOL    HW119715   0.738   1.201   0.391
 6272SOL    HW219716   0.698   1.327   0.295
 6273SOL     OW19717   0.310   6.447   3.120
 6273SOL    HW119718   0.305   6.352   3.150
 6273SOL    HW219719   0.406   6.473   3.107
 6274SOL     OW19720   2.812   6.500   4.009
 6274SOL    HW119721   2.827   6.499   4.108
 6274SOL    HW219722   2.737   6.562   3.987
 6275SOL     OW19723   2.614   5.812   0.533
 6275SOL    HW119724   2.672   5.838   0.456
 6275SOL    HW219725   2.525   5.857   0.525
 6276SOL     OW19726   1.994   5.371   2.656
 6276SOL    HW119727   1.922   5.365   2.726
 6276SOL    HW219728   1.953   5.393   2.568
 6277SOL     OW19729   5.167   2.590   1.014
 6277SOL    HW119730   5.143   2.501   1.054
 6277SOL    HW219731   5.095   2.656   1.034
 6278SOL     OW19732   3.691   2.502   0.299
 6278SOL    HW119733   3.759   2.470   0.233
 6278SOL    HW219734   3.735   2.521   0.387
 6279SOL     OW19735   1.959   6.455   2.154
 6279SOL    HW119736   1.962   6.498   2.063
 6279SOL    HW219737   1.933   6.523   2.222
 6280SOL     OW19738   5.189   1.085   6.734
 6280SOL    HW119739   5.255   1.157   6.757
 6280SOL    HW219740   5.127   1.119   6.663
 6281SOL     OW19741   4.977   4.184   6.127
 6281SOL    HW119742   4.967   4.236   6.043
 6281SOL    HW219743   4.890   4.185   6.177
 6282SOL     OW19744   0.897   3.664   5.744
 6282SOL    HW119745   0.984   3.714   5.752
 6282SOL    HW219746   0.835   3.694   5.816
 6283SOL     OW19747   2.606   0.617   4.605
 6283SOL    HW119748   2.655   0.544   4.651
 6283SOL    HW219749   2.527   0.645   4.660
 6284SOL     OW19750   1.814   3.223   6.083
 6284SOL    HW119751   1.738   3.255   6.139
 6284SOL    HW219752   1.898   3.271   6.109
 6285SOL     OW19753   0.918   4.017   2.875
 6285SOL    HW119754   0.863   3.934   2.877
 6285SOL    HW219755   0.961   4.027   2.785
 6286SOL     OW19756   1.042   2.405   6.626
 6286SOL    HW119757   1.028   2.313   6.661
 6286SOL    HW219758   1.033   2.405   6.526
 6287SOL     OW19759   4.427   4.949   4.456
 6287SOL    HW119760   4.503   4.891   4.484
 6287SOL    HW219761   4.401   5.010   4.532
 6288SOL     OW19762   3.185   3.625   6.106
 6288SOL    HW119763   3.258   3.603   6.041
 6288SOL    HW219764   3.123   3.693   6.065
 6289SOL     OW19765   2.609   4.654   4.915
 6289SOL    HW119766   2.700   4.654   4.955
 6289SOL    HW219767   2.544   4.615   4.980
 6290SOL     OW19768   6.823   6.813   3.434
 6290SOL    HW119769   6.888   6.762   3.378
 6290SOL    HW219770   6.759   6.750   3.477
 6291SOL     OW19771   3.250   3.764   2.007
 6291SOL    HW119772   3.246   3.682   2.064
 6291SOL    HW219773   3.166   3.816   2.018
 6292SOL     OW19774   1.541   4.283   4.469
 6292SOL    HW119775   1.461   4.239   4.428
 6292SOL    HW219776   1.595   4.327   4.398
 6293SOL     OW19777   2.832   1.040   6.673
 6293SOL    HW119778   2.909   0.984   6.705
 6293SOL    HW219779   2.796   1.002   6.589
 6294SOL     OW19780   1.779   1.383   2.218
 6294SOL    HW119781   1.709   1.415   2.154
 6294SOL    HW219782   1.781   1.283   2.219
 6295SOL     OW19783   4.511   3.499   6.248
 6295SOL    HW119784   4.471   3.446   6.323
 6295SOL    HW219785   4.437   3.536   6.192
 6296SOL     OW19786   0.159   2.970   0.148
 6296SOL    HW119787   0.115   2.975   0.238
 6296SOL    HW219788   0.121   2.893   0.097
 6297SOL     OW19789   6.587   0.971   4.187
 6297SOL    HW119790   6.568   0.911   4.265
 6297SOL    HW219791   6.684   0.965   4.163
 6298SOL     OW19792   0.112   6.644   6.933
 6298SOL    HW119793   0.110   6.631   0.012
 6298SOL    HW219794   0.040   6.589   6.891
 6299SOL     OW19795   3.410   1.896   3.978
 6299SOL    HW119796   3.403   1.890   3.878
 6299SOL    HW219797   3.448   1.986   4.002
 6300SOL     OW19798   2.514   1.931   1.212
 6300SOL    HW119799   2.559   2.012   1.250
 6300SOL    HW219800   2.445   1.898   1.276
 6301SOL     OW19801   4.012   6.525   0.484
 6301SOL    HW119802   4.065   6.547   0.402
 6301SOL    HW219803   4.051   6.444   0.529
 6302SOL     OW19804   1.690   3.715   0.375
 6302SOL    HW119805   1.785   3.738   0.352
 6302SOL    HW219806   1.628   3.773   0.322
 6303SOL     OW19807   6.735   4.955   4.238
 6303SOL    HW119808   6.709   4.992   4.328
 6303SOL    HW219809   6.684   5.002   4.167
 6304SOL     OW19810   2.243   1.283   3.880
 6304SOL    HW119811   2.342   1.268   3.881
 6304SOL    HW219812   2.203   1.246   3.964
 6305SOL     OW19813   0.656   5.325   5.603
 6305SOL    HW119814   0.573   5.353   5.555
 6305SOL    HW219815   0.644   5.340   5.701
 6306SOL     OW19816   0.810   4.273   4.319
 6306SOL    HW119817   0.774   4.292   4.227
 6306SOL    HW219818   0.909   4.287   4.320
 6307SOL     OW19819   3.227   3.216   2.899
 6307SOL    HW119820   3.226   3.123   2.936
 6307SOL    HW219821   3.319   3.255   2.911
 6308SOL     OW19822   1.414   1.902   0.846
 6308SOL    HW119823   1.344   1.832   0.833
 6308SOL    HW219824   1.383   1.988   0.805
 6309SOL     OW19825   2.226   5.706   4.907
 6309SOL    HW119826   2.235   5.788   4.962
 6309SOL    HW219827   2.179   5.635   4.959
 6310SOL     OW19828   0.163   6.992   3.247
 6310SOL    HW119829   0.144   0.037   3.320
 6310SOL    HW219830   0.195   6.906   3.287
 6311SOL     OW19831   6.351   1.425   6.833
 6311SOL    HW119832   6.305   1.480   6.764
 6311SOL    HW219833   6.424   1.371   6.791
 6312SOL     OW19834   3.556   5.462   1.161
 6312SOL    HW119835   3.535   5.366   1.143
 6312SOL    HW219836   3.512   5.520   1.092
 6313SOL     OW19837   5.660   4.841   3.658
 6313SOL    HW119838   5.647   4.826   3.756
 6313SOL    HW219839   5.650   4.755   3.609
 6314SOL     OW19840   1.978   6.949   3.385
 6314SOL    HW119841   1.924   6.877   3.429
 6314SOL    HW219842   2.071   6.948   3.422
 6315SOL     OW19843   2.787   2.300   3.164
 6315SOL    HW119844   2.783   2.260   3.255
 6315SOL    HW219845   2.696   2.332   3.138
 6316SOL     OW19846   4.465   0.465   5.065
 6316SOL    HW119847   4.520   0.447   5.147
 6316SOL    HW219848   4.373   0.426   5.077
 6317SOL     OW19849   4.410   4.656   2.727
 6317SOL    HW119850   4.472   4.735   2.729
 6317SOL    HW219851   4.374   4.640   2.819
 6318SOL     OW19852   6.310   6.758   0.088
 6318SOL    HW119853   6.289   6.851   0.118
 6318SOL    HW219854   6.264   6.740   0.001
 6319SOL     OW19855   4.886   2.310   4.622
 6319SOL    HW119856   4.909   2.404   4.597
 6319SOL    HW219857   4.838   2.266   4.546
 6320SOL     OW19858   6.287   1.345   6.170
 6320SOL    HW119859   6.377   1.303   6.159
 6320SOL    HW219860   6.285   1.433   6.122
 6321SOL     OW19861   0.392   3.772   0.545
 6321SOL    HW119862   0.362   3.686   0.503
 6321SOL    HW219863   0.383   3.847   0.479
 6322SOL     OW19864   1.499   1.854   2.803
 6322SOL    HW119865   1.434   1.826   2.873
 6322SOL    HW219866   1.590   1.820   2.826
 6323SOL     OW19867   2.283   5.973   1.355
 6323SOL    HW119868   2.253   5.998   1.447
 6323SOL    HW219869   2.366   5.917   1.361
 6324SOL     OW19870   4.942   3.012   1.008
 6324SOL    HW119871   4.965   3.081   0.939
 6324SOL    HW219872   4.858   2.965   0.981
 6325SOL     OW19873   1.282   3.909   3.637
 6325SOL    HW119874   1.360   3.849   3.656
 6325SOL    HW219875   1.312   3.984   3.578
 6326SOL     OW19876   4.902   5.227   5.373
 6326SOL    HW119877   4.934   5.132   5.379
 6326SOL    HW219878   4.861   5.243   5.284
 6327SOL     OW19879   0.569   0.844   2.534
 6327SOL    HW119880   0.603   0.918   2.591
 6327SOL    HW219881   0.490   0.876   2.482
 6328SOL     OW19882   4.048   3.662   5.625
 6328SOL    HW119883   3.969   3.706   5.667
 6328SOL    HW219884   4.048   3.679   5.526
 6329SOL     OW19885   0.470   2.967   5.166
 6329SOL    HW119886   0.511   3.049   5.126
 6329SOL    HW219887   0.448   2.902   5.093
 6330SOL     OW19888   4.005   1.957   3.452
 6330SOL    HW119889   4.001   2.057   3.462
 6330SOL    HW219890   4.101   1.927   3.458
 6331SOL     OW19891   1.675   3.796   3.885
 6331SOL    HW119892   1.769   3.769   3.863
 6331SOL    HW219893   1.676   3.886   3.929
 6332SOL     OW19894   4.289   1.674   0.051
 6332SOL    HW119895   4.381   1.710   0.068
 6332SOL    HW219896   4.295   1.583   0.009
 6333SOL     OW19897   5.812   0.562   0.421
 6333SOL    HW119898   5.866   0.514   0.490
 6333SOL    HW219899   5.742   0.500   0.385
 6334SOL     OW19900   2.482   1.223   1.883
 6334SOL    HW119901   2.476   1.281   1.802
 6334SOL    HW219902   2.395   1.174   1.894
 6335SOL     OW19903   6.756   3.526   5.709
 6335SOL    HW119904   6.660   3.498   5.709
 6335SOL    HW219905   6.785   3.547   5.615
 6336SOL     OW19906   1.290   4.475   5.263
 6336SOL    HW119907   1.296   4.556   5.323
 6336SOL    HW219908   1.260   4.396   5.317
 6337SOL     OW19909   6.080   6.808   4.939
 6337SOL    HW119910   6.020   6.851   4.871
 6337SOL    HW219911   6.108   6.718   4.905
 6338SOL     OW19912   0.815   0.665   2.697
 6338SOL    HW119913   0.749   0.625   2.634
 6338SOL    HW219914   0.850   0.751   2.659
 6339SOL     OW19915   0.313   3.683   3.386
 6339SOL    HW119916   0.217   3.670   3.361
 6339SOL    HW219917   0.326   3.777   3.418
 6340SOL     OW19918   2.881   5.116   6.479
 6340SOL    HW119919   2.940   5.121   6.398
 6340SOL    HW219920   2.790   5.085   6.453
 6341SOL     OW19921   0.370   4.704   2.890
 6341SOL    HW119922   0.391   4.607   2.901
 6341SOL    HW219923   0.275   4.720   2.920
 6342SOL     OW19924   2.165   0.685   1.601
 6342SOL    HW119925   2.215   0.670   1.686
 6342SOL    HW219926   2.226   0.724   1.533
 6343SOL     OW19927   1.518   5.245   6.750
 6343SOL    HW119928   1.552   5.298   6.673
 6343SOL    HW219929   1.470   5.306   6.813
 6344SOL     OW19930   1.423   1.805   4.478
 6344SOL    HW119931   1.329   1.773   4.463
 6344SOL    HW219932   1.471   1.808   4.390
 6345SOL     OW19933   6.850   3.095   3.134
 6345SOL    HW119934   6.838   3.031   3.058
 6345SOL    HW219935   6.779   3.079   3.203
 6346SOL     OW19936   0.597   4.765   4.536
 6346SOL    HW119937   0.545   4.816   4.468
 6346SOL    HW219938   0.552   4.678   4.554
 6347SOL     OW19939   2.009   2.484   3.526
 6347SOL    HW119940   2.055   2.565   3.562
 6347SOL    HW219941   2.031   2.405   3.583
 6348SOL     OW19942   0.845   2.865   6.587
 6348SOL    HW119943   0.836   2.963   6.604
 6348SOL    HW219944   0.767   2.833   6.533
 6349SOL     OW19945   5.964   0.840   0.687
 6349SOL    HW119946   5.996   0.921   0.736
 6349SOL    HW219947   5.898   0.868   0.617
 6350SOL     OW19948   0.676   6.082   1.306
 6350SOL    HW119949   0.663   5.995   1.258
 6350SOL    HW219950   0.587   6.125   1.321
 6351SOL     OW19951   5.914   2.614   1.958
 6351SOL    HW119952   5.900   2.672   1.878
 6351SOL    HW219953   6.009   2.583   1.960
 6352SOL     OW19954   4.563   0.654   4.316
 6352SOL    HW119955   4.559   0.679   4.413
 6352SOL    HW219956   4.497   0.582   4.298
 6353SOL     OW19957   3.461   6.675   6.061
 6353SOL    HW119958   3.483   6.724   6.146
 6353SOL    HW219959   3.487   6.731   5.982
 6354SOL     OW19960   5.195   4.969   2.436
 6354SOL    HW119961   5.225   4.991   2.529
 6354SOL    HW219962   5.125   5.035   2.408
 6355SOL     OW19963   4.869   6.036   0.329
 6355SOL    HW119964   4.896   6.017   0.424
 6355SOL    HW219965   4.796   5.974   0.302
 6356SOL     OW19966   6.867   6.658   6.200
 6356SOL    HW119967   6.935   6.595   6.163
 6356SOL    HW219968   6.783   6.651   6.147
 6357SOL     OW19969   4.888   2.088   3.204
 6357SOL    HW119970   4.915   2.022   3.133
 6357SOL    HW219971   4.790   2.080   3.221
 6358SOL     OW19972   1.183   1.636   4.473
 6358SOL    HW119973   1.083   1.631   4.477
 6358SOL    HW219974   1.212   1.644   4.377
 6359SOL     OW19975   6.120   4.972   1.364
 6359SOL    HW119976   6.060   4.901   1.326
 6359SOL    HW219977   6.064   5.051   1.391
 6360SOL     OW19978   2.113   3.115   0.977
 6360SOL    HW119979   2.170   3.197   0.979
 6360SOL    HW219980   2.033   3.131   0.921
 6361SOL     OW19981   0.179   1.779   2.472
 6361SOL    HW119982   0.137   1.705   2.419
 6361SOL    HW219983   0.234   1.740   2.546
 6362SOL     OW19984   1.423   5.056   0.418
 6362SOL    HW119985   1.423   4.963   0.454
 6362SOL    HW219986   1.454   5.119   0.489
 6363SOL     OW19987   0.984   2.270   1.732
 6363SOL    HW119988   1.025   2.260   1.822
 6363SOL    HW219989   1.049   2.239   1.662
 6364SOL     OW19990   3.095   1.191   3.995
 6364SOL    HW119991   3.043   1.257   3.939
 6364SOL    HW219992   3.065   1.098   3.972
 6365SOL     OW19993   6.619   6.966   2.769
 6365SOL    HW119994   6.620   6.939   2.673
 6365SOL    HW219995   6.695   6.923   2.818
 6366SOL     OW19996   5.854   1.627   5.230
 6366SOL    HW119997   5.825   1.693   5.300
 6366SOL    HW219998   5.890   1.545   5.275
 6367SOL     OW19999   0.878   2.323   4.667
 6367SOL    HW120000   0.914   2.408   4.707
 6367SOL    HW220001   0.938   2.247   4.691
 6368SOL     OW20002   5.073   3.502   5.015
 6368SOL    HW120003   4.981   3.540   5.025
 6368SOL    HW220004   5.136   3.574   4.988
 6369SOL     OW20005   3.446   3.975   0.924
 6369SOL    HW120006   3.526   3.984   0.863
 6369SOL    HW220007   3.477   3.956   1.017
 6370SOL     OW20008   5.740   4.228   4.800
 6370SOL    HW120009   5.701   4.317   4.825
 6370SOL    HW220010   5.834   4.222   4.834
 6371SOL     OW20011   5.825   4.013   0.803
 6371SOL    HW120012   5.923   4.034   0.802
 6371SOL    HW220013   5.778   4.069   0.734
 6372SOL     OW20014   6.406   1.300   0.790
 6372SOL    HW120015   6.479   1.232   0.781
 6372SOL    HW220016   6.324   1.256   0.827
 6373SOL     OW20017   5.165   2.283   1.695
 6373SOL    HW120018   5.258   2.313   1.673
 6373SOL    HW220019   5.105   2.362   1.701
 6374SOL     OW20020   4.260   3.427   6.416
 6374SOL    HW120021   4.216   3.513   6.391
 6374SOL    HW220022   4.312   3.439   6.500
 6375SOL     OW20023   4.880   0.984   1.696
 6375SOL    HW120024   4.977   0.976   1.719
 6375SOL    HW220025   4.834   0.897   1.716
 6376SOL     OW20026   2.615   6.493   0.446
 6376SOL    HW120027   2.672   6.571   0.468
 6376SOL    HW220028   2.656   6.441   0.372
 6377SOL     OW20029   0.477   1.023   0.345
 6377SOL    HW120030   0.545   1.094   0.328
 6377SOL    HW220031   0.459   1.018   0.443
 6378SOL     OW20032   6.011   3.887   2.832
 6378SOL    HW120033   5.961   3.960   2.785
 6378SOL    HW220034   6.072   3.927   2.900
 6379SOL     OW20035   3.041   5.445   0.085
 6379SOL    HW120036   2.985   5.526   0.103
 6379SOL    HW220037   3.054   5.393   0.169
 6380SOL     OW20038   1.933   3.020   4.724
 6380SOL    HW120039   2.031   3.035   4.713
 6380SOL    HW220040   1.902   2.951   4.659
 6381SOL     OW20041   3.492   3.694   0.720
 6381SOL    HW120042   3.496   3.668   0.816
 6381SOL    HW220043   3.420   3.762   0.706
 6382SOL     OW20044   2.009   1.236   1.103
 6382SOL    HW120045   2.039   1.143   1.125
 6382SOL    HW220046   1.926   1.232   1.047
 6383SOL     OW20047   2.461   1.921   2.556
 6383SOL    HW120048   2.465   1.877   2.646
 6383SOL    HW220049   2.505   1.862   2.488
 6384SOL     OW20050   6.475   1.955   1.969
 6384SOL    HW120051   6.406   2.013   2.013
 6384SOL    HW220052   6.487   1.871   2.022
 6385SOL     OW20053   6.836   3.785   1.333
 6385SOL    HW120054   6.933   3.783   1.358
 6385SOL    HW220055   6.781   3.751   1.409
 6386SOL     OW20056   3.178   3.835   0.309
 6386SOL    HW120057   3.144   3.808   0.219
 6386SOL    HW220058   3.233   3.761   0.348
 6387SOL     OW20059   6.437   0.768   5.968
 6387SOL    HW120060   6.361   0.807   6.020
 6387SOL    HW220061   6.520   0.822   5.984
 6388SOL     OW20062   6.015   4.749   1.889
 6388SOL    HW120063   5.956   4.733   1.810
 6388SOL    HW220064   6.095   4.802   1.861
 6389SOL     OW20065   6.629   6.558   0.647
 6389SOL    HW120066   6.581   6.626   0.703
 6389SOL    HW220067   6.612   6.467   0.684
 6390SOL     OW20068   5.056   6.612   6.467
 6390SOL    HW120069   5.024   6.519   6.453
 6390SOL    HW220070   5.044   6.637   6.563
 6391SOL     OW20071   1.448   2.359   4.892
 6391SOL    HW120072   1.400   2.414   4.824
 6391SOL    HW220073   1.542   2.391   4.901
 6392SOL     OW20074   5.028   6.554   4.083
 6392SOL    HW120075   5.078   6.471   4.109
 6392SOL    HW220076   5.084   6.609   4.022
 6393SOL     OW20077   2.349   5.235   0.647
 6393SOL    HW120078   2.314   5.164   0.586
 6393SOL    HW220079   2.346   5.323   0.599
 6394SOL     OW20080   1.639   5.545   2.211
 6394SOL    HW120081   1.663   5.618   2.147
 6394SOL    HW220082   1.638   5.457   2.163
 6395SOL     OW20083   1.506   3.999   4.447
 6395SOL    HW120084   1.598   3.988   4.484
 6395SOL    HW220085   1.481   3.919   4.393
 6396SOL     OW20086   1.758   3.701   5.149
 6396SOL    HW120087   1.835   3.666   5.202
 6396SOL    HW220088   1.783   3.704   5.052
 6397SOL     OW20089   6.924   2.794   4.992
 6397SOL    HW120090   6.902   2.860   4.920
 6397SOL    HW220091   7.013   2.817   5.032
 6398SOL     OW20092   1.470   0.358   2.415
 6398SOL    HW120093   1.477   0.441   2.470
 6398SOL    HW220094   1.539   0.292   2.445
 6399SOL     OW20095   2.475   0.172   0.051
 6399SOL    HW120096   2.565   0.199   0.086
 6399SOL    HW220097   2.419   0.254   0.038
 6400SOL     OW20098   0.717   6.302   2.811
 6400SOL    HW120099   0.811   6.329   2.794
 6400SOL    HW220100   0.714   6.233   2.883
 6401SOL     OW20101   3.834   5.203   1.938
 6401SOL    HW120102   3.823   5.104   1.947
 6401SOL    HW220103   3.753   5.250   1.974
 6402SOL     OW20104   3.549   3.834   6.170
 6402SOL    HW120105   3.526   3.809   6.076
 6402SOL    HW220106   3.636   3.884   6.171
 6403SOL     OW20107   4.541   5.401   5.711
 6403SOL    HW120108   4.622   5.395   5.653
 6403SOL    HW220109   4.515   5.310   5.743
 6404SOL     OW20110   4.931   5.611   6.675
 6404SOL    HW120111   4.918   5.515   6.651
 6404SOL    HW220112   4.842   5.656   6.680
 6405SOL     OW20113   4.577   1.181   2.332
 6405SOL    HW120114   4.665   1.154   2.370
 6405SOL    HW220115   4.504   1.124   2.371
 6406SOL     OW20116   0.620   3.601   2.042
 6406SOL    HW120117   0.658   3.537   2.108
 6406SOL    HW220118   0.520   3.602   2.050
 6407SOL     OW20119   0.437   6.980   1.527
 6407SOL    HW120120   0.436   0.053   1.493
 6407SOL    HW220121   0.529   6.957   1.559
 6408SOL     OW20122   0.420   1.107   1.543
 6408SOL    HW120123   0.354   1.041   1.580
 6408SOL    HW220124   0.440   1.177   1.611
 6409SOL     OW20125   5.773   4.226   3.343
 6409SOL    HW120126   5.780   4.207   3.245
 6409SOL    HW220127   5.764   4.324   3.358
 6410SOL     OW20128   1.992   1.107   0.435
 6410SOL    HW120129   1.937   1.165   0.374
 6410SOL    HW220130   2.088   1.135   0.430
 6411SOL     OW20131   1.011   2.575   3.492
 6411SOL    HW120132   1.101   2.586   3.533
 6411SOL    HW220133   0.953   2.652   3.518
 6412SOL     OW20134   3.923   6.960   0.020
 6412SOL    HW120135   3.885   7.014   0.095
 6412SOL    HW220136   3.999   7.010   6.998
 6413SOL     OW20137   4.822   6.089   2.964
 6413SOL    HW120138   4.750   6.021   2.959
 6413SOL    HW220139   4.899   6.062   2.906
 6414SOL     OW20140   3.196   7.004   0.072
 6414SOL    HW120141   3.194   6.944   7.012
 6414SOL    HW220142   3.236   6.955   0.149
 6415SOL     OW20143   0.731   2.006   3.681
 6415SOL    HW120144   0.648   2.057   3.703
 6415SOL    HW220145   0.707   1.920   3.636
 6416SOL     OW20146   2.940   4.548   0.420
 6416SOL    HW120147   2.913   4.452   0.428
 6416SOL    HW220148   2.927   4.580   0.326
 6417SOL     OW20149   4.325   3.480   6.695
 6417SOL    HW120150   4.383   3.562   6.695
 6417SOL    HW220151   4.267   3.481   6.776
 6418SOL     OW20152   4.896   5.639   0.439
 6418SOL    HW120153   4.956   5.559   0.446
 6418SOL    HW220154   4.877   5.658   0.342
 6419SOL     OW20155   0.798   6.644   6.393
 6419SOL    HW120156   0.754   6.565   6.350
 6419SOL    HW220157   0.893   6.622   6.414
 6420SOL     OW20158   2.886   4.801   3.519
 6420SOL    HW120159   2.820   4.731   3.547
 6420SOL    HW220160   2.859   4.889   3.558
 6421SOL     OW20161   5.631   6.610   1.653
 6421SOL    HW120162   5.620   6.514   1.624
 6421SOL    HW220163   5.573   6.668   1.597
 6422SOL     OW20164   0.469   2.001   4.581
 6422SOL    HW120165   0.534   2.069   4.615
 6422SOL    HW220166   0.379   2.044   4.569
 6423SOL     OW20167   1.108   4.317   4.367
 6423SOL    HW120168   1.151   4.234   4.333
 6423SOL    HW220169   1.180   4.383   4.393
 6424SOL     OW20170   6.723   4.011   5.555
 6424SOL    HW120171   6.691   4.099   5.520
 6424SOL    HW220172   6.777   3.965   5.485
 6425SOL     OW20173   0.447   6.798   4.979
 6425SOL    HW120174   0.437   6.745   4.895
 6425SOL    HW220175   0.474   6.737   5.054
 6426SOL     OW20176   3.965   5.521   4.079
 6426SOL    HW120177   4.046   5.463   4.070
 6426SOL    HW220178   3.990   5.615   4.058
 6427SOL     OW20179   3.936   3.062   3.682
 6427SOL    HW120180   3.969   3.081   3.775
 6427SOL    HW220181   3.889   2.974   3.681
 6428SOL     OW20182   6.076   2.302   0.517
 6428SOL    HW120183   5.978   2.312   0.497
 6428SOL    HW220184   6.124   2.384   0.488
 6429SOL     OW20185   2.310   1.427   5.080
 6429SOL    HW120186   2.337   1.495   5.012
 6429SOL    HW220187   2.383   1.359   5.090
 6430SOL     OW20188   5.447   1.442   4.825
 6430SOL    HW120189   5.492   1.367   4.873
 6430SOL    HW220190   5.512   1.516   4.810
 6431SOL     OW20191   3.257   5.223   2.883
 6431SOL    HW120192   3.299   5.268   2.962
 6431SOL    HW220193   3.310   5.141   2.859
 6432SOL     OW20194   4.184   3.180   6.380
 6432SOL    HW120195   4.266   3.123   6.385
 6432SOL    HW220196   4.204   3.272   6.412
 6433SOL     OW20197   3.434   5.263   6.247
 6433SOL    HW120198   3.407   5.190   6.185
 6433SOL    HW220199   3.353   5.305   6.288
 6434SOL     OW20200   6.696   5.059   6.185
 6434SOL    HW120201   6.782   5.087   6.142
 6434SOL    HW220202   6.677   4.963   6.163
 6435SOL     OW20203   4.424   1.427   1.144
 6435SOL    HW120204   4.479   1.375   1.079
 6435SOL    HW220205   4.344   1.465   1.097
 6436SOL     OW20206   0.446   2.976   3.484
 6436SOL    HW120207   0.426   2.881   3.464
 6436SOL    HW220208   0.505   2.982   3.565
 6437SOL     OW20209   1.500   2.908   5.697
 6437SOL    HW120210   1.514   2.916   5.598
 6437SOL    HW220211   1.588   2.905   5.743
 6438SOL     OW20212   0.439   5.133   1.048
 6438SOL    HW120213   0.459   5.113   0.952
 6438SOL    HW220214   0.380   5.061   1.085
 6439SOL     OW20215   5.374   6.638   3.201
 6439SOL    HW120216   5.412   6.705   3.138
 6439SOL    HW220217   5.354   6.553   3.152
 6440SOL     OW20218   2.250   1.740   5.521
 6440SOL    HW120219   2.241   1.705   5.429
 6440SOL    HW220220   2.343   1.726   5.554
 6441SOL     OW20221   1.159   2.281   1.948
 6441SOL    HW120222   1.124   2.320   2.033
 6441SOL    HW220223   1.172   2.183   1.959
 6442SOL     OW20224   2.512   1.517   4.391
 6442SOL    HW120225   2.597   1.566   4.414
 6442SOL    HW220226   2.438   1.550   4.449
 6443SOL     OW20227   2.684   2.533   6.517
 6443SOL    HW120228   2.729   2.498   6.600
 6443SOL    HW220229   2.699   2.470   6.441
 6444SOL     OW20230   0.038   3.603   4.953
 6444SOL    HW120231   0.127   3.648   4.946
 6444SOL    HW220232   0.016   3.587   5.049
 6445SOL     OW20233   3.328   2.904   3.522
 6445SOL    HW120234   3.380   2.926   3.604
 6445SOL    HW220235   3.299   2.809   3.524
 6446SOL     OW20236   1.872   1.041   1.364
 6446SOL    HW120237   1.905   0.965   1.308
 6446SOL    HW220238   1.945   1.110   1.370
 6447SOL     OW20239   5.914   3.629   1.240
 6447SOL    HW120240   5.966   3.660   1.320
 6447SOL    HW220241   5.829   3.681   1.233
 6448SOL     OW20242   4.215   4.216   1.418
 6448SOL    HW120243   4.129   4.200   1.468
 6448SOL    HW220244   4.291   4.215   1.482
 6449SOL     OW20245   4.309   5.088   0.575
 6449SOL    HW120246   4.256   5.153   0.520
 6449SOL    HW220247   4.246   5.022   0.616
 6450SOL     OW20248   4.846   3.480   0.054
 6450SOL    HW120249   4.819   3.573   0.081
 6450SOL    HW220250   4.893   3.484   6.986
 6451SOL     OW20251   4.490   2.963   1.423
 6451SOL    HW120252   4.396   2.969   1.390
 6451SOL    HW220253   4.492   2.981   1.521
 6452SOL     OW20254   4.282   1.813   4.566
 6452SOL    HW120255   4.349   1.870   4.613
 6452SOL    HW220256   4.252   1.859   4.482
 6453SOL     OW20257   2.476   0.476   3.010
 6453SOL    HW120258   2.555   0.431   3.051
 6453SOL    HW220259   2.498   0.505   2.917
 6454SOL     OW20260   5.085   3.727   4.652
 6454SOL    HW120261   5.006   3.673   4.681
 6454SOL    HW220262   5.165   3.667   4.646
 6455SOL     OW20263   0.506   2.771   4.217
 6455SOL    HW120264   0.491   2.825   4.300
 6455SOL    HW220265   0.445   2.804   4.144
 6456SOL     OW20266   6.238   2.014   3.172
 6456SOL    HW120267   6.240   2.093   3.110
 6456SOL    HW220268   6.200   1.935   3.124
 6457SOL     OW20269   2.033   6.046   2.812
 6457SOL    HW120270   2.050   6.074   2.717
 6457SOL    HW220271   2.107   6.081   2.870
 6458SOL     OW20272   0.984   0.230   4.545
 6458SOL    HW120273   0.929   0.290   4.487
 6458SOL    HW220274   1.079   0.263   4.546
 6459SOL     OW20275   0.588   3.246   2.996
 6459SOL    HW120276   0.576   3.287   3.087
 6459SOL    HW220277   0.671   3.191   2.996
 6460SOL     OW20278   1.948   5.236   6.025
 6460SOL    HW120279   1.923   5.234   6.122
 6460SOL    HW220280   2.040   5.199   6.013
 6461SOL     OW20281   0.572   6.646   1.332
 6461SOL    HW120282   0.527   6.733   1.352
 6461SOL    HW220283   0.586   6.638   1.233
 6462SOL     OW20284   2.248   4.100   5.640
 6462SOL    HW120285   2.342   4.077   5.614
 6462SOL    HW220286   2.216   4.176   5.584
 6463SOL     OW20287   4.713   2.811   0.998
 6463SOL    HW120288   4.643   2.860   1.049
 6463SOL    HW220289   4.672   2.733   0.951
 6464SOL     OW20290   1.046   3.719   3.362
 6464SOL    HW120291   1.026   3.621   3.353
 6464SOL    HW220292   0.961   3.771   3.355
 6465SOL     OW20293   2.375   1.389   3.581
 6465SOL    HW120294   2.457   1.416   3.633
 6465SOL    HW220295   2.296   1.440   3.615
 6466SOL     OW20296   6.795   4.722   6.194
 6466SOL    HW120297   6.872   4.749   6.252
 6466SOL    HW220298   6.714   4.709   6.251
 6467SOL     OW20299   2.780   3.027   6.057
 6467SOL    HW120300   2.791   2.998   5.962
 6467SOL    HW220301   2.857   3.086   6.083
 6468SOL     OW20302   0.881   0.595   1.212
 6468SOL    HW120303   0.838   0.639   1.132
 6468SOL    HW220304   0.906   0.665   1.279
 6469SOL     OW20305   2.278   1.002   1.252
 6469SOL    HW120306   2.208   0.966   1.190
 6469SOL    HW220307   2.348   1.050   1.199
 6470SOL     OW20308   5.926   1.785   6.492
 6470SOL    HW120309   5.931   1.713   6.422
 6470SOL    HW220310   5.889   1.868   6.452
 6471SOL     OW20311   0.704   6.046   6.011
 6471SOL    HW120312   0.655   5.974   5.962
 6471SOL    HW220313   0.732   6.117   5.946
 6472SOL     OW20314   0.613   6.553   1.605
 6472SOL    HW120315   0.589   6.580   1.511
 6472SOL    HW220316   0.666   6.468   1.603
 6473SOL     OW20317   2.748   1.599   3.490
 6473SOL    HW120318   2.710   1.691   3.500
 6473SOL    HW220319   2.848   1.604   3.491
 6474SOL     OW20320   3.919   6.706   4.356
 6474SOL    HW120321   4.003   6.760   4.354
 6474SOL    HW220322   3.869   6.726   4.441
 6475SOL     OW20323   4.976   5.708   3.356
 6475SOL    HW120324   5.026   5.767   3.292
 6475SOL    HW220325   5.004   5.613   3.343
 6476SOL     OW20326   4.556   4.186   6.005
 6476SOL    HW120327   4.580   4.099   5.962
 6476SOL    HW220328   4.574   4.181   6.103
 6477SOL     OW20329   0.456   6.122   0.924
 6477SOL    HW120330   0.433   6.134   1.021
 6477SOL    HW220331   0.398   6.180   0.868
 6478SOL     OW20332   1.674   6.340   0.940
 6478SOL    HW120333   1.626   6.400   0.876
 6478SOL    HW220334   1.679   6.248   0.902
 6479SOL     OW20335   4.684   5.860   3.741
 6479SOL    HW120336   4.621   5.800   3.791
 6479SOL    HW220337   4.633   5.911   3.672
 6480SOL     OW20338   3.437   1.359   5.559
 6480SOL    HW120339   3.471   1.451   5.538
 6480SOL    HW220340   3.357   1.340   5.501
 6481SOL     OW20341   4.441   3.028   1.673
 6481SOL    HW120342   4.491   3.031   1.760
 6481SOL    HW220343   4.343   3.024   1.690
 6482SOL     OW20344   5.052   3.098   5.296
 6482SOL    HW120345   5.112   3.112   5.217
 6482SOL    HW220346   4.960   3.076   5.265
 6483SOL     OW20347   1.820   5.789   5.804
 6483SOL    HW120348   1.746   5.723   5.815
 6483SOL    HW220349   1.873   5.767   5.723
 6484SOL     OW20350   3.827   1.592   2.931
 6484SOL    HW120351   3.760   1.651   2.885
 6484SOL    HW220352   3.784   1.547   3.009
 6485SOL     OW20353   2.541   5.257   4.705
 6485SOL    HW120354   2.558   5.350   4.737
 6485SOL    HW220355   2.485   5.261   4.622
 6486SOL     OW20356   6.979   3.905   2.257
 6486SOL    HW120357   6.949   3.940   2.168
 6486SOL    HW220358   0.057   3.913   2.265
 6487SOL     OW20359   5.985   5.104   4.420
 6487SOL    HW120360   5.980   5.142   4.512
 6487SOL    HW220361   6.062   5.145   4.371
 6488SOL     OW20362   3.953   5.154   3.831
 6488SOL    HW120363   3.992   5.171   3.921
 6488SOL    HW220364   3.932   5.240   3.786
 6489SOL     OW20365   6.485   2.975   4.953
 6489SOL    HW120366   6.513   3.071   4.953
 6489SOL    HW220367   6.549   2.921   5.006
 6490SOL     OW20368   1.878   2.955   0.682
 6490SOL    HW120369   1.923   3.003   0.607
 6490SOL    HW220370   1.790   2.918   0.651
 6491SOL     OW20371   1.935   0.766   1.717
 6491SOL    HW120372   2.003   0.733   1.651
 6491SOL    HW220373   1.879   0.689   1.748
 6492SOL     OW20374   4.078   3.396   4.031
 6492SOL    HW120375   4.108   3.390   4.126
 6492SOL    HW220376   4.001   3.459   4.024
 6493SOL     OW20377   1.291   4.753   3.979
 6493SOL    HW120378   1.220   4.788   3.918
 6493SOL    HW220379   1.251   4.734   4.069
 6494SOL     OW20380   6.448   1.058   1.498
 6494SOL    HW120381   6.463   1.074   1.596
 6494SOL    HW220382   6.449   0.960   1.479
 6495SOL     OW20383   6.620   6.647   2.724
 6495SOL    HW120384   6.625   6.709   2.646
 6495SOL    HW220385   6.700   6.659   2.782
 6496SOL     OW20386   2.988   2.255   1.492
 6496SOL    HW120387   2.992   2.174   1.435
 6496SOL    HW220388   3.076   2.267   1.539
 6497SOL     OW20389   0.858   2.280   1.022
 6497SOL    HW120390   0.799   2.215   0.974
 6497SOL    HW220391   0.810   2.367   1.032
 6498SOL     OW20392   1.995   4.638   4.083
 6498SOL    HW120393   1.991   4.564   4.150
 6498SOL    HW220394   1.938   4.714   4.115
 6499SOL     OW20395   5.374   2.130   2.999
 6499SOL    HW120396   5.336   2.221   2.982
 6499SOL    HW220397   5.471   2.139   3.022
 6500SOL     OW20398   1.517   3.734   2.763
 6500SOL    HW120399   1.467   3.821   2.759
 6500SOL    HW220400   1.611   3.748   2.732
 6501SOL     OW20401   6.731   0.538   2.619
 6501SOL    HW120402   6.715   0.525   2.717
 6501SOL    HW220403   6.816   0.492   2.593
 6502SOL     OW20404   0.651   2.933   1.923
 6502SOL    HW120405   0.637   2.838   1.950
 6502SOL    HW220406   0.749   2.954   1.926
 6503SOL     OW20407   0.087   2.612   5.405
 6503SOL    HW120408   0.046   2.651   5.488
 6503SOL    HW220409   0.024   2.626   5.328
 6504SOL     OW20410   4.342   6.937   6.005
 6504SOL    HW120411   4.317   6.853   5.957
 6504SOL    HW220412   4.329   7.015   5.944
 6505SOL     OW20413   0.124   6.321   0.175
 6505SOL    HW120414   0.224   6.325   0.182
 6505SOL    HW220415   0.094   6.226   0.189
 6506SOL     OW20416   6.647   3.633   1.598
 6506SOL    HW120417   6.577   3.697   1.629
 6506SOL    HW220418   6.629   3.605   1.504
 6507SOL     OW20419   3.984   5.468   1.179
 6507SOL    HW120420   4.030   5.469   1.090
 6507SOL    HW220421   4.044   5.508   1.248
 6508SOL     OW20422   6.725   0.521   3.854
 6508SOL    HW120423   6.728   0.560   3.946
 6508SOL    HW220424   6.632   0.491   3.833
 6509SOL     OW20425   2.194   1.692   0.393
 6509SOL    HW120426   2.188   1.640   0.478
 6509SOL    HW220427   2.258   1.647   0.331
 6510SOL     OW20428   3.382   4.911   4.716
 6510SOL    HW120429   3.291   4.940   4.686
 6510SOL    HW220430   3.404   4.822   4.674
 6511SOL     OW20431   3.291   2.735   6.850
 6511SOL    HW120432   3.204   2.784   6.838
 6511SOL    HW220433   3.307   2.678   6.769
 6512SOL     OW20434   4.951   0.906   0.897
 6512SOL    HW120435   4.980   0.811   0.908
 6512SOL    HW220436   5.013   0.966   0.948
 6513SOL     OW20437   3.055   4.937   2.576
 6513SOL    HW120438   3.045   4.854   2.520
 6513SOL    HW220439   3.066   5.016   2.517
 6514SOL     OW20440   5.032   5.610   5.492
 6514SOL    HW120441   5.081   5.695   5.509
 6514SOL    HW220442   5.037   5.551   5.573
 6515SOL     OW20443   0.545   5.000   2.122
 6515SOL    HW120444   0.601   4.937   2.176
 6515SOL    HW220445   0.589   5.090   2.120
 6516SOL     OW20446   5.960   1.237   3.796
 6516SOL    HW120447   6.016   1.317   3.773
 6516SOL    HW220448   5.870   1.247   3.754
 6517SOL     OW20449   6.825   3.992   0.799
 6517SOL    HW120450   6.902   4.053   0.779
 6517SOL    HW220451   6.849   3.931   0.875
 6518SOL     OW20452   1.033   1.651   2.246
 6518SOL    HW120453   1.038   1.730   2.307
 6518SOL    HW220454   0.945   1.651   2.199
 6519SOL     OW20455   1.190   1.416   2.845
 6519SOL    HW120456   1.196   1.497   2.788
 6519SOL    HW220457   1.094   1.396   2.866
 6520SOL     OW20458   6.111   5.655   6.611
 6520SOL    HW120459   6.184   5.670   6.545
 6520SOL    HW220460   6.147   5.608   6.691
 6521SOL     OW20461   1.902   4.266   4.502
 6521SOL    HW120462   1.805   4.282   4.483
 6521SOL    HW220463   1.944   4.352   4.532
 6522SOL     OW20464   2.128   3.104   5.075
 6522SOL    HW120465   2.169   3.186   5.115
 6522SOL    HW220466   2.199   3.040   5.048
 6523SOL     OW20467   5.690   6.459   0.624
 6523SOL    HW120468   5.635   6.379   0.649
 6523SOL    HW220469   5.640   6.515   0.558
 6524SOL     OW20470   3.465   2.848   1.406
 6524SOL    HW120471   3.466   2.777   1.476
 6524SOL    HW220472   3.559   2.877   1.387
 6525SOL     OW20473   2.106   4.936   3.745
 6525SOL    HW120474   2.115   4.841   3.775
 6525SOL    HW220475   2.081   4.938   3.648
 6526SOL     OW20476   6.570   6.287   0.290
 6526SOL    HW120477   6.574   6.215   0.359
 6526SOL    HW220478   6.613   6.370   0.325
 6527SOL     OW20479   5.055   1.864   1.255
 6527SOL    HW120480   5.033   1.832   1.162
 6527SOL    HW220481   5.130   1.809   1.292
 6528SOL     OW20482   4.651   6.762   6.993
 6528SOL    HW120483   4.555   6.771   6.967
 6528SOL    HW220484   4.660   6.774   0.072
 6529SOL     OW20485   4.344   0.401   1.699
 6529SOL    HW120486   4.302   0.449   1.776
 6529SOL    HW220487   4.276   0.342   1.655
 6530SOL     OW20488   6.966   2.745   3.785
 6530SOL    HW120489   6.986   2.810   3.859
 6530SOL    HW220490   6.994   2.784   3.698
 6531SOL     OW20491   4.021   3.282   3.520
 6531SOL    HW120492   3.991   3.226   3.598
 6531SOL    HW220493   3.998   3.235   3.435
 6532SOL     OW20494   0.615   5.477   0.071
 6532SOL    HW120495   0.546   5.462   7.021
 6532SOL    HW220496   0.630   5.576   0.082
 6533SOL     OW20497   5.338   5.129   1.250
 6533SOL    HW120498   5.310   5.042   1.288
 6533SOL    HW220499   5.351   5.196   1.323
 6534SOL     OW20500   6.905   3.127   4.088
 6534SOL    HW120501   6.970   3.160   4.157
 6534SOL    HW220502   6.838   3.198   4.068
 6535SOL     OW20503   5.470   3.853   5.871
 6535SOL    HW120504   5.540   3.816   5.809
 6535SOL    HW220505   5.491   3.948   5.891
 6536SOL     OW20506   0.388   4.986   5.576
 6536SOL    HW120507   0.482   5.016   5.559
 6536SOL    HW220508   0.389   4.901   5.628
 6537SOL     OW20509   6.701   5.281   4.526
 6537SOL    HW120510   6.659   5.202   4.480
 6537SOL    HW220511   6.727   5.349   4.458
 6538SOL     OW20512   1.666   3.467   3.804
 6538SOL    HW120513   1.738   3.494   3.740
 6538SOL    HW220514   1.576   3.487   3.764
 6539SOL     OW20515   4.989   7.011   6.309
 6539SOL    HW120516   5.081   0.014   6.340
 6539SOL    HW220517   4.980   6.912   6.304
 6540SOL     OW20518   0.709   2.163   4.946
 6540SOL    HW120519   0.809   2.166   4.953
 6540SOL    HW220520   0.682   2.178   4.850
 6541SOL     OW20521   3.763   1.604   5.336
 6541SOL    HW120522   3.752   1.514   5.294
 6541SOL    HW220523   3.860   1.630   5.335
 6542SOL     OW20524   1.670   4.243   1.872
 6542SOL    HW120525   1.749   4.189   1.846
 6542SOL    HW220526   1.588   4.207   1.826
 6543SOL     OW20527   3.918   1.529   4.141
 6543SOL    HW120528   3.937   1.549   4.045
 6543SOL    HW220529   3.988   1.571   4.198
 6544SOL     OW20530   0.967   0.344   1.081
 6544SOL    HW120531   1.001   0.269   1.138
 6544SOL    HW220532   0.956   0.426   1.137
 6545SOL     OW20533   5.863   5.893   0.869
 6545SOL    HW120534   5.867   5.810   0.813
 6545SOL    HW220535   5.921   5.963   0.829
 6546SOL     OW20536   4.555   5.137   5.292
 6546SOL    HW120537   4.502   5.215   5.258
 6546SOL    HW220538   4.516   5.052   5.255
 6547SOL     OW20539   0.893   6.444   5.455
 6547SOL    HW120540   0.929   6.502   5.382
 6547SOL    HW220541   0.793   6.438   5.446
 6548SOL     OW20542   1.359   1.942   6.420
 6548SOL    HW120543   1.347   1.843   6.422
 6548SOL    HW220544   1.377   1.972   6.326
 6549SOL     OW20545   3.799   1.344   2.658
 6549SOL    HW120546   3.816   1.285   2.578
 6549SOL    HW220547   3.741   1.421   2.631
 6550SOL     OW20548   6.302   0.027   1.695
 6550SOL    HW120549   6.342   7.006   1.613
 6550SOL    HW220550   6.326   6.994   1.775
 6551SOL     OW20551   2.703   4.859   0.961
 6551SOL    HW120552   2.740   4.788   0.902
 6551SOL    HW220553   2.621   4.898   0.919
 6552SOL     OW20554   2.216   4.095   6.989
 6552SOL    HW120555   2.296   4.152   7.007
 6552SOL    HW220556   2.151   4.146   6.932
 6553SOL     OW20557   6.924   1.912   3.381
 6553SOL    HW120558   6.879   1.895   3.293
 6553SOL    HW220559   6.855   1.911   3.454
 6554SOL     OW20560   1.262   2.386   3.247
 6554SOL    HW120561   1.327   2.345   3.183
 6554SOL    HW220562   1.289   2.481   3.266
 6555SOL     OW20563   1.410   3.990   2.847
 6555SOL    HW120564   1.335   4.011   2.910
 6555SOL    HW220565   1.439   4.074   2.800
 6556SOL     OW20566   4.937   3.247   2.880
 6556SOL    HW120567   5.013   3.284   2.827
 6556SOL    HW220568   4.947   3.272   2.976
 6557SOL     OW20569   1.869   0.498   2.506
 6557SOL    HW120570   1.925   0.446   2.442
 6557SOL    HW220571   1.883   0.462   2.598
 6558SOL     OW20572   5.365   5.640   0.889
 6558SOL    HW120573   5.450   5.596   0.860
 6558SOL    HW220574   5.295   5.570   0.904
 6559SOL     OW20575   0.504   2.046   6.442
 6559SOL    HW120576   0.421   2.097   6.420
 6559SOL    HW220577   0.524   2.055   6.540
 6560SOL     OW20578   6.919   4.880   6.434
 6560SOL    HW120579   6.863   4.961   6.452
 6560SOL    HW220580   6.911   4.817   6.511
 6561SOL     OW20581   2.514   5.411   0.844
 6561SOL    HW120582   2.579   5.450   0.778
 6561SOL    HW220583   2.450   5.351   0.796
 6562SOL     OW20584   4.716   2.255   2.093
 6562SOL    HW120585   4.734   2.349   2.122
 6562SOL    HW220586   4.803   2.207   2.080
 6563SOL     OW20587   6.126   5.519   5.461
 6563SOL    HW120588   6.189   5.467   5.519
 6563SOL    HW220589   6.045   5.545   5.514
 6564SOL     OW20590   5.318   3.023   2.591
 6564SOL    HW120591   5.226   3.024   2.628
 6564SOL    HW220592   5.336   2.934   2.547
 6565SOL     OW20593   5.080   5.579   2.471
 6565SOL    HW120594   4.981   5.588   2.477
 6565SOL    HW220595   5.121   5.597   2.561
 6566SOL     OW20596   5.453   5.377   3.786
 6566SOL    HW120597   5.359   5.407   3.799
 6566SOL    HW220598   5.481   5.321   3.864
 6567SOL     OW20599   3.442   1.099   2.744
 6567SOL    HW120600   3.363   1.112   2.804
 6567SOL    HW220601   3.419   1.033   2.672
 6568SOL     OW20602   5.657   0.923   0.973
 6568SOL    HW120603   5.565   0.897   0.943
 6568SOL    HW220604   5.709   0.840   0.994
 6569SOL     OW20605   1.554   4.762   3.089
 6569SOL    HW120606   1.554   4.734   2.993
 6569SOL    HW220607   1.549   4.862   3.094
 6570SOL     OW20608   4.517   0.149   2.453
 6570SOL    HW120609   4.571   0.073   2.417
 6570SOL    HW220610   4.572   0.202   2.517
 6571SOL     OW20611   2.754   6.430   2.820
 6571SOL    HW120612   2.779   6.525   2.801
 6571SOL    HW220613   2.802   6.370   2.756
 6572SOL     OW20614   2.102   6.351   3.792
 6572SOL    HW120615   2.020   6.359   3.850
 6572SOL    HW220616   2.138   6.258   3.799
 6573SOL     OW20617   0.108   2.073   3.461
 6573SOL    HW120618   0.037   2.004   3.448
 6573SOL    HW220619   0.155   2.090   3.374
 6574SOL     OW20620   0.548   5.365   2.119
 6574SOL    HW120621   0.574   5.331   2.028
 6574SOL    HW220622   0.628   5.363   2.179
 6575SOL     OW20623   6.973   1.404   3.549
 6575SOL    HW120624   7.000   1.489   3.504
 6575SOL    HW220625   6.891   1.367   3.504
 6576SOL     OW20626   3.903   0.096   1.755
 6576SOL    HW120627   3.869   0.140   1.672
 6576SOL    HW220628   3.975   0.153   1.795
 6577SOL     OW20629   3.564   1.065   5.027
 6577SOL    HW120630   3.537   1.073   4.931
 6577SOL    HW220631   3.506   1.125   5.083
 6578SOL     OW20632   1.041   5.369   0.017
 6578SOL    HW120633   1.078   5.401   0.104
 6578SOL    HW220634   0.944   5.394   0.011
 6579SOL     OW20635   1.845   1.684   3.762
 6579SOL    HW120636   1.939   1.693   3.797
 6579SOL    HW220637   1.840   1.724   3.671
 6580SOL     OW20638   3.196   2.660   0.239
 6580SOL    HW120639   3.139   2.729   0.195
 6580SOL    HW220640   3.188   2.574   0.188
 6581SOL     OW20641   0.653   2.731   2.237
 6581SOL    HW120642   0.564   2.768   2.266
 6581SOL    HW220643   0.644   2.686   2.149
 6582SOL     OW20644   4.541   0.497   3.122
 6582SOL    HW120645   4.489   0.487   3.207
 6582SOL    HW220646   4.595   0.581   3.127
 6583SOL     OW20647   2.788   4.487   0.975
 6583SOL    HW120648   2.843   4.534   0.907
 6583SOL    HW220649   2.847   4.442   1.042
 6584SOL     OW20650   3.747   2.892   6.433
 6584SOL    HW120651   3.719   2.799   6.460
 6584SOL    HW220652   3.824   2.887   6.371
 6585SOL     OW20653   5.375   6.817   1.694
 6585SOL    HW120654   5.348   6.814   1.790
 6585SOL    HW220655   5.294   6.811   1.636
 6586SOL     OW20656   6.513   1.556   7.002
 6586SOL    HW120657   6.450   1.487   6.965
 6586SOL    HW220658   6.463   1.616   0.044
 6587SOL     OW20659   3.278   5.232   5.165
 6587SOL    HW120660   3.182   5.225   5.193
 6587SOL    HW220661   3.312   5.141   5.140
 6588SOL     OW20662   1.044   1.236   0.392
 6588SOL    HW120663   1.017   1.285   0.309
 6588SOL    HW220664   0.963   1.220   0.449
 6589SOL     OW20665   6.164   6.907   1.325
 6589SOL    HW120666   6.105   6.981   1.356
 6589SOL    HW220667   6.253   6.914   1.369
 6590SOL     OW20668   1.418   6.393   4.650
 6590SOL    HW120669   1.433   6.300   4.617
 6590SOL    HW220670   1.337   6.394   4.709
 6591SOL     OW20671   6.484   3.259   3.629
 6591SOL    HW120672   6.582   3.251   3.610
 6591SOL    HW220673   6.433   3.233   3.547
 6592SOL     OW20674   0.239   0.710   3.991
 6592SOL    HW120675   0.329   0.754   3.980
 6592SOL    HW220676   0.210   0.671   3.904
 6593SOL     OW20677   1.763   0.680   2.762
 6593SOL    HW120678   1.666   0.681   2.783
 6593SOL    HW220679   1.779   0.722   2.672
 6594SOL     OW20680   5.946   0.221   6.654
 6594SOL    HW120681   5.931   0.236   6.557
 6594SOL    HW220682   5.861   0.235   6.704
 6595SOL     OW20683   1.266   1.664   5.018
 6595SOL    HW120684   1.204   1.633   5.089
 6595SOL    HW220685   1.230   1.637   4.928
 6596SOL     OW20686   5.237   0.808   2.980
 6596SOL    HW120687   5.162   0.742   2.975
 6596SOL    HW220688   5.246   0.855   2.893
 6597SOL     OW20689   0.823   5.047   1.359
 6597SOL    HW120690   0.765   5.127   1.342
 6597SOL    HW220691   0.787   4.995   1.437
 6598SOL     OW20692   1.037   4.851   2.126
 6598SOL    HW120693   1.128   4.817   2.103
 6598SOL    HW220694   0.999   4.796   2.201
 6599SOL     OW20695   0.813   5.530   6.482
 6599SOL    HW120696   0.769   5.590   6.415
 6599SOL    HW220697   0.795   5.564   6.574
 6600SOL     OW20698   3.916   6.282   4.964
 6600SOL    HW120699   3.993   6.331   5.005
 6600SOL    HW220700   3.949   6.226   4.888
 6601SOL     OW20701   1.157   2.827   2.061
 6601SOL    HW120702   1.169   2.736   2.020
 6601SOL    HW220703   1.245   2.874   2.062
 6602SOL     OW20704   6.280   5.743   0.873
 6602SOL    HW120705   6.188   5.715   0.844
 6602SOL    HW220706   6.279   5.841   0.893
 6603SOL     OW20707   7.020   4.279   2.409
 6603SOL    HW120708   7.011   4.253   2.313
 6603SOL    HW220709   6.970   4.215   2.466
 6604SOL     OW20710   1.252   5.180   2.475
 6604SOL    HW120711   1.222   5.243   2.547
 6604SOL    HW220712   1.329   5.220   2.426
 6605SOL     OW20713   0.131   5.098   1.010
 6605SOL    HW120714   0.176   5.064   1.093
 6605SOL    HW220715   0.134   5.198   1.010
 6606SOL     OW20716   1.741   4.272   2.339
 6606SOL    HW120717   1.690   4.268   2.253
 6606SOL    HW220718   1.689   4.224   2.410
 6607SOL     OW20719   6.830   3.421   4.266
 6607SOL    HW120720   6.900   3.443   4.198
 6607SOL    HW220721   6.779   3.503   4.290
 6608SOL     OW20722   0.903   0.378   5.582
 6608SOL    HW120723   0.992   0.422   5.592
 6608SOL    HW220724   0.914   0.278   5.589
 6609SOL     OW20725   2.942   2.527   6.972
 6609SOL    HW120726   2.944   2.627   6.979
 6609SOL    HW220727   2.882   2.500   6.897
 6610SOL     OW20728   2.903   6.683   1.335
 6610SOL    HW120729   2.918   6.708   1.240
 6610SOL    HW220730   2.811   6.712   1.363
 6611SOL     OW20731   3.075   1.438   4.452
 6611SOL    HW120732   3.082   1.396   4.362
 6611SOL    HW220733   3.165   1.440   4.496
 6612SOL     OW20734   0.479   6.885   0.222
 6612SOL    HW120735   0.428   6.808   0.260
 6612SOL    HW220736   0.421   6.936   0.159
 6613SOL     OW20737   3.746   6.572   1.237
 6613SOL    HW120738   3.790   6.485   1.258
 6613SOL    HW220739   3.812   6.632   1.191
 6614SOL     OW20740   3.747   4.511   0.925
 6614SOL    HW120741   3.664   4.472   0.965
 6614SOL    HW220742   3.827   4.465   0.963
 6615SOL     OW20743   3.179   5.421   5.843
 6615SOL    HW120744   3.224   5.351   5.789
 6615SOL    HW220745   3.195   5.511   5.801
 6616SOL     OW20746   4.165   1.717   6.592
 6616SOL    HW120747   4.165   1.687   6.496
 6616SOL    HW220748   4.073   1.706   6.630
 6617SOL     OW20749   3.428   1.701   4.158
 6617SOL    HW120750   3.511   1.646   4.156
 6617SOL    HW220751   3.440   1.781   4.098
 6618SOL     OW20752   5.761   3.409   3.872
 6618SOL    HW120753   5.821   3.418   3.952
 6618SOL    HW220754   5.711   3.495   3.858
 6619SOL     OW20755   4.987   5.089   4.148
 6619SOL    HW120756   4.970   5.118   4.242
 6619SOL    HW220757   5.058   5.146   4.108
 6620SOL     OW20758   1.561   3.006   3.387
 6620SOL    HW120759   1.614   2.961   3.459
 6620SOL    HW220760   1.621   3.027   3.310
 6621SOL     OW20761   3.574   3.700   3.696
 6621SOL    HW120762   3.553   3.769   3.765
 6621SOL    HW220763   3.609   3.744   3.613
 6622SOL     OW20764   0.306   4.909   1.127
 6622SOL    HW120765   0.277   4.869   1.214
 6622SOL    HW220766   0.296   4.841   1.054
 6623SOL     OW20767   3.581   3.566   3.303
 6623SOL    HW120768   3.624   3.570   3.213
 6623SOL    HW220769   3.608   3.646   3.357
 6624SOL     OW20770   2.483   2.130   3.002
 6624SOL    HW120771   2.479   2.230   2.998
 6624SOL    HW220772   2.546   2.096   2.933
 6625SOL     OW20773   0.052   4.372   5.179
 6625SOL    HW120774   0.040   4.279   5.213
 6625SOL    HW220775   0.111   4.423   5.242
 6626SOL     OW20776   2.880   5.768   5.691
 6626SOL    HW120777   2.836   5.687   5.729
 6626SOL    HW220778   2.944   5.806   5.757
 6627SOL     OW20779   2.291   6.738   4.289
 6627SOL    HW120780   2.250   6.783   4.210
 6627SOL    HW220781   2.219   6.709   4.352
 6628SOL     OW20782   3.946   0.716   3.344
 6628SOL    HW120783   3.908   0.652   3.411
 6628SOL    HW220784   3.891   0.799   3.342
 6629SOL     OW20785   4.383   5.799   4.938
 6629SOL    HW120786   4.405   5.853   5.019
 6629SOL    HW220787   4.361   5.706   4.966
 6630SOL     OW20788   1.896   0.183   0.361
 6630SOL    HW120789   1.894   0.271   0.410
 6630SOL    HW220790   1.844   0.115   0.414
 6631SOL     OW20791   1.442   2.487   5.417
 6631SOL    HW120792   1.353   2.449   5.443
 6631SOL    HW220793   1.513   2.419   5.435
 6632SOL     OW20794   1.356   0.090   6.571
 6632SOL    HW120795   1.354   0.188   6.551
 6632SOL    HW220796   1.267   0.062   6.608
 6633SOL     OW20797   4.465   6.450   5.590
 6633SOL    HW120798   4.484   6.520   5.658
 6633SOL    HW220799   4.433   6.493   5.505
 6634SOL     OW20800   2.909   2.281   3.548
 6634SOL    HW120801   2.860   2.239   3.471
 6634SOL    HW220802   2.984   2.222   3.575
 6635SOL     OW20803   5.026   5.651   5.916
 6635SOL    HW120804   4.955   5.676   5.851
 6635SOL    HW220805   5.096   5.723   5.919
 6636SOL     OW20806   3.999   1.236   1.052
 6636SOL    HW120807   4.069   1.207   0.987
 6636SOL    HW220808   4.029   1.216   1.145
 6637SOL     OW20809   0.131   1.916   6.883
 6637SOL    HW120810   0.074   1.889   6.805
 6637SOL    HW220811   0.072   1.931   6.963
 6638SOL     OW20812   3.158   3.536   3.615
 6638SOL    HW120813   3.191   3.457   3.562
 6638SOL    HW220814   3.058   3.536   3.616
 6639SOL     OW20815   5.000   2.702   1.431
 6639SOL    HW120816   4.975   2.610   1.461
 6639SOL    HW220817   4.923   2.764   1.444
 6640SOL     OW20818   1.371   4.175   4.294
 6640SOL    HW120819   1.404   4.090   4.334
 6640SOL    HW220820   1.377   4.171   4.195
 6641SOL     OW20821   6.061   2.514   0.102
 6641SOL    HW120822   5.963   2.497   0.110
 6641SOL    HW220823   6.084   2.527   0.005
 6642SOL     OW20824   1.024   5.098   5.971
 6642SOL    HW120825   0.973   5.029   6.023
 6642SOL    HW220826   0.959   5.153   5.918
 6643SOL     OW20827   4.068   5.422   6.116
 6643SOL    HW120828   4.031   5.388   6.030
 6643SOL    HW220829   3.997   5.421   6.186
 6644SOL     OW20830   1.815   0.377   3.802
 6644SOL    HW120831   1.857   0.291   3.776
 6644SOL    HW220832   1.719   0.361   3.827
 6645SOL     OW20833   4.447   2.462   5.926
 6645SOL    HW120834   4.361   2.505   5.897
 6645SOL    HW220835   4.502   2.529   5.975
 6646SOL     OW20836   4.757   0.266   6.001
 6646SOL    HW120837   4.683   0.326   5.969
 6646SOL    HW220838   4.762   0.270   6.101
 6647SOL     OW20839   4.035   4.548   1.340
 6647SOL    HW120840   4.009   4.491   1.262
 6647SOL    HW220841   3.997   4.510   1.423
 6648SOL     OW20842   3.346   5.231   5.718
 6648SOL    HW120843   3.414   5.243   5.646
 6648SOL    HW220844   3.383   5.172   5.790
 6649SOL     OW20845   5.088   2.692   5.953
 6649SOL    HW120846   5.013   2.626   5.957
 6649SOL    HW220847   5.129   2.690   5.861
 6650SOL     OW20848   2.547   1.329   5.234
 6650SOL    HW120849   2.504   1.315   5.323
 6650SOL    HW220850   2.547   1.243   5.183
 6651SOL     OW20851   6.968   1.588   4.241
 6651SOL    HW120852   6.979   1.492   4.266
 6651SOL    HW220853   6.906   1.632   4.305
 6652SOL     OW20854   0.252   4.539   6.686
 6652SOL    HW120855   0.311   4.463   6.655
 6652SOL    HW220856   0.274   4.561   6.781
 6653SOL     OW20857   5.517   4.268   6.906
 6653SOL    HW120858   5.535   4.366   6.898
 6653SOL    HW220859   5.450   4.242   6.836
 6654SOL     OW20860   6.646   2.121   3.172
 6654SOL    HW120861   6.635   2.040   3.229
 6654SOL    HW220862   6.617   2.101   3.079
 6655SOL     OW20863   6.585   5.876   1.094
 6655SOL    HW120864   6.506   5.842   1.145
 6655SOL    HW220865   6.641   5.799   1.064
 6656SOL     OW20866   4.148   1.163   2.219
 6656SOL    HW120867   4.139   1.111   2.305
 6656SOL    HW220868   4.069   1.222   2.208
 6657SOL     OW20869   4.687   1.940   4.710
 6657SOL    HW120870   4.762   1.888   4.751
 6657SOL    HW220871   4.700   2.038   4.729
 6658SOL     OW20872   6.868   5.855   4.630
 6658SOL    HW120873   6.915   5.788   4.574
 6658SOL    HW220874   6.811   5.913   4.573
 6659SOL     OW20875   0.453   5.405   0.973
 6659SOL    HW120876   0.542   5.416   0.929
 6659SOL    HW220877   0.434   5.308   0.987
 6660SOL     OW20878   0.625   0.251   4.412
 6660SOL    HW120879   0.615   0.342   4.371
 6660SOL    HW220880   0.590   0.182   4.348
 6661SOL     OW20881   4.302   6.411   3.807
 6661SOL    HW120882   4.397   6.387   3.787
 6661SOL    HW220883   4.246   6.327   3.810
 6662SOL     OW20884   3.413   6.932   2.487
 6662SOL    HW120885   3.370   7.019   2.512
 6662SOL    HW220886   3.342   6.867   2.459
 6663SOL     OW20887   1.895   4.391   5.512
 6663SOL    HW120888   1.915   4.488   5.499
 6663SOL    HW220889   1.979   4.341   5.529
 6664SOL     OW20890   3.456   0.089   1.897
 6664SOL    HW120891   3.377   0.068   1.956
 6664SOL    HW220892   3.440   0.051   1.806
 6665SOL     OW20893   2.652   0.410   0.694
 6665SOL    HW120894   2.743   0.381   0.726
 6665SOL    HW220895   2.661   0.477   0.621
 6666SOL     OW20896   2.812   6.123   5.923
 6666SOL    HW120897   2.896   6.070   5.915
 6666SOL    HW220898   2.739   6.079   5.871
 6667SOL     OW20899   1.476   5.716   0.249
 6667SOL    HW120900   1.561   5.768   0.258
 6667SOL    HW220901   1.399   5.772   0.279
 6668SOL     OW20902   6.943   3.788   6.726
 6668SOL    HW120903   7.004   3.739   6.663
 6668SOL    HW220904   6.928   3.880   6.692
 6669SOL     OW20905   1.321   2.676   3.300
 6669SOL    HW120906   1.417   2.681   3.272
 6669SOL    HW220907   1.316   2.659   3.399
 6670SOL     OW20908   3.095   3.440   0.581
 6670SOL    HW120909   3.070   3.469   0.673
 6670SOL    HW220910   3.129   3.346   0.583
 6671SOL     OW20911   4.402   4.872   0.728
 6671SOL    HW120912   4.326   4.814   0.699
 6671SOL    HW220913   4.403   4.955   0.672
 6672SOL     OW20914   1.764   2.691   1.367
 6672SOL    HW120915   1.830   2.634   1.318
 6672SOL    HW220916   1.684   2.636   1.392
 6673SOL     OW20917   5.546   3.663   3.727
 6673SOL    HW120918   5.510   3.737   3.784
 6673SOL    HW220919   5.496   3.578   3.746
 6674SOL     OW20920   6.913   0.288   0.700
 6674SOL    HW120921   6.844   0.253   0.763
 6674SOL    HW220922   6.981   0.341   0.750
 6675SOL     OW20923   4.544   1.173   0.153
 6675SOL    HW120924   4.577   1.237   0.084
 6675SOL    HW220925   4.568   1.080   0.126
 6676SOL     OW20926   0.963   4.316   5.009
 6676SOL    HW120927   0.889   4.309   5.075
 6676SOL    HW220928   0.981   4.226   4.968
 6677SOL     OW20929   0.362   2.289   6.757
 6677SOL    HW120930   0.319   2.244   6.836
 6677SOL    HW220931   0.416   2.221   6.707
 6678SOL     OW20932   2.996   4.443   6.309
 6678SOL    HW120933   2.997   4.541   6.292
 6678SOL    HW220934   2.917   4.420   6.368
 6679SOL     OW20935   1.155   0.558   4.236
 6679SOL    HW120936   1.244   0.514   4.247
 6679SOL    HW220937   1.085   0.502   4.279
 6680SOL     OW20938   6.279   4.872   1.843
 6680SOL    HW120939   6.277   4.904   1.748
 6680SOL    HW220940   6.364   4.903   1.886
 6681SOL     OW20941   2.977   5.877   1.434
 6681SOL    HW120942   2.991   5.786   1.471
 6681SOL    HW220943   3.012   5.945   1.499
 6682SOL     OW20944   2.286   5.479   6.456
 6682SOL    HW120945   2.378   5.516   6.449
 6682SOL    HW220946   2.223   5.533   6.400
 6683SOL     OW20947   6.723   5.764   5.752
 6683SOL    HW120948   6.634   5.760   5.707
 6683SOL    HW220949   6.728   5.694   5.823
 6684SOL     OW20950   3.017   5.682   6.223
 6684SOL    HW120951   3.053   5.714   6.135
 6684SOL    HW220952   2.929   5.725   6.241
 6685SOL     OW20953   4.098   2.724   1.028
 6685SOL    HW120954   4.054   2.713   1.117
 6685SOL    HW220955   4.109   2.822   1.008
 6686SOL     OW20956   4.735   4.833   5.588
 6686SOL    HW120957   4.715   4.802   5.681
 6686SOL    HW220958   4.679   4.913   5.567
 6687SOL     OW20959   0.384   2.098   1.410
 6687SOL    HW120960   0.321   2.164   1.368
 6687SOL    HW220961   0.475   2.111   1.372
 6688SOL     OW20962   4.780   6.014   0.873
 6688SOL    HW120963   4.738   6.071   0.943
 6688SOL    HW220964   4.756   5.918   0.890
 6689SOL     OW20965   3.596   4.927   6.347
 6689SOL    HW120966   3.650   5.009   6.364
 6689SOL    HW220967   3.558   4.930   6.255
 6690SOL     OW20968   1.011   0.507   0.459
 6690SOL    HW120969   0.947   0.437   0.491
 6690SOL    HW220970   1.064   0.471   0.382
 6691SOL     OW20971   2.629   1.756   2.024
 6691SOL    HW120972   2.721   1.795   2.026
 6691SOL    HW220973   2.635   1.661   1.993
 6692SOL     OW20974   4.402   6.495   2.171
 6692SOL    HW120975   4.447   6.410   2.144
 6692SOL    HW220976   4.312   6.474   2.210
 6693SOL     OW20977   3.537   1.553   5.867
 6693SOL    HW120978   3.453   1.568   5.816
 6693SOL    HW220979   3.616   1.581   5.812
 6694SOL     OW20980   4.282   3.742   1.531
 6694SOL    HW120981   4.336   3.825   1.544
 6694SOL    HW220982   4.213   3.736   1.603
 6695SOL     OW20983   3.012   2.700   0.470
 6695SOL    HW120984   3.038   2.607   0.495
 6695SOL    HW220985   3.041   2.719   0.376
 6696SOL     OW20986   3.856   2.936   5.354
 6696SOL    HW120987   3.907   3.021   5.340
 6696SOL    HW220988   3.763   2.957   5.383
 6697SOL     OW20989   4.667   2.108   2.551
 6697SOL    HW120990   4.592   2.044   2.536
 6697SOL    HW220991   4.732   2.101   2.476
 6698SOL     OW20992   2.724   3.660   1.663
 6698SOL    HW120993   2.780   3.683   1.742
 6698SOL    HW220994   2.781   3.653   1.582
 6699SOL     OW20995   1.468   3.248   6.306
 6699SOL    HW120996   1.431   3.340   6.298
 6699SOL    HW220997   1.568   3.252   6.302
 6700SOL     OW20998   5.640   0.521   1.290
 6700SOL    HW120999   5.692   0.512   1.375
 6700SOL    HW221000   5.543   0.528   1.311
 6701SOL     OW21001   6.035   6.931   1.861
 6701SOL    HW121002   6.012   6.846   1.814
 6701SOL    HW221003   6.096   6.986   1.804
 6702SOL     OW21004   4.066   3.053   0.580
 6702SOL    HW121005   4.160   3.080   0.603
 6702SOL    HW221006   4.042   3.091   0.491
 6703SOL     OW21007   0.717   1.518   0.351
 6703SOL    HW121008   0.666   1.572   0.419
 6703SOL    HW221009   0.709   1.561   0.261
 6704SOL     OW21010   3.050   0.142   5.701
 6704SOL    HW121011   2.977   0.195   5.744
 6704SOL    HW221012   3.134   0.151   5.754
 6705SOL     OW21013   6.869   4.325   2.099
 6705SOL    HW121014   6.808   4.402   2.114
 6705SOL    HW221015   6.876   4.306   2.001
 6706SOL     OW21016   0.012   6.335   0.440
 6706SOL    HW121017   6.996   6.424   0.468
 6706SOL    HW221018   0.018   6.332   0.340
 6707SOL     OW21019   4.191   1.018   2.844
 6707SOL    HW121020   4.097   1.025   2.809
 6707SOL    HW221021   4.217   0.922   2.854
 6708SOL     OW21022   0.536   3.064   0.373
 6708SOL    HW121023   0.463   3.100   0.314
 6708SOL    HW221024   0.577   3.139   0.424
 6709SOL     OW21025   2.106   4.510   1.904
 6709SOL    HW121026   2.132   4.530   1.998
 6709SOL    HW221027   2.175   4.452   1.861
 6710SOL     OW21028   4.586   1.674   1.152
 6710SOL    HW121029   4.677   1.633   1.142
 6710SOL    HW221030   4.526   1.641   1.079
 6711SOL     OW21031   3.850   5.541   6.224
 6711SOL    HW121032   3.757   5.504   6.218
 6711SOL    HW221033   3.869   5.567   6.318
 6712SOL     OW21034   5.002   4.007   1.343
 6712SOL    HW121035   4.945   3.925   1.341
 6712SOL    HW221036   5.006   4.041   1.437
 6713SOL     OW21037   2.196   4.105   4.155
 6713SOL    HW121038   2.131   4.118   4.080
 6713SOL    HW221039   2.248   4.190   4.169
 6714SOL     OW21040   5.170   1.319   1.451
 6714SOL    HW121041   5.186   1.222   1.433
 6714SOL    HW221042   5.073   1.340   1.437
 6715SOL     OW21043   1.038   0.229   5.953
 6715SOL    HW121044   1.131   0.263   5.965
 6715SOL    HW221045   0.974   0.290   5.999
 6716SOL     OW21046   1.131   5.414   1.588
 6716SOL    HW121047   1.032   5.419   1.573
 6716SOL    HW221048   1.152   5.330   1.638
 6717SOL     OW21049   6.364   2.020   5.605
 6717SOL    HW121050   6.429   1.973   5.546
 6717SOL    HW221051   6.284   1.962   5.620
 6718SOL     OW21052   4.560   1.941   1.249
 6718SOL    HW121053   4.601   1.963   1.338
 6718SOL    HW221054   4.561   1.841   1.236
 6719SOL     OW21055   1.483   1.481   0.555
 6719SOL    HW121056   1.476   1.578   0.576
 6719SOL    HW221057   1.410   1.431   0.604
 6720SOL     OW21058   1.337   1.395   5.447
 6720SOL    HW121059   1.396   1.323   5.411
 6720SOL    HW221060   1.245   1.384   5.409
 6721SOL     OW21061   6.413   6.474   0.126
 6721SOL    HW121062   6.373   6.564   0.145
 6721SOL    HW221063   6.445   6.433   0.212
 6722SOL     OW21064   5.650   4.647   0.732
 6722SOL    HW121065   5.626   4.586   0.808
 6722SOL    HW221066   5.695   4.594   0.660
 6723SOL     OW21067   1.455   3.287   4.491
 6723SOL    HW121068   1.460   3.231   4.408
 6723SOL    HW221069   1.534   3.348   4.495
 6724SOL     OW21070   2.154   4.134   4.493
 6724SOL    HW121071   2.160   4.067   4.419
 6724SOL    HW221072   2.059   4.161   4.505
 6725SOL     OW21073   4.794   3.084   4.322
 6725SOL    HW121074   4.820   3.078   4.418
 6725SOL    HW221075   4.777   3.179   4.298
 6726SOL     OW21076   0.024   1.485   6.843
 6726SOL    HW121077   6.964   1.544   6.858
 6726SOL    HW221078   0.000   1.391   6.866
 6727SOL     OW21079   0.870   4.960   5.373
 6727SOL    HW121080   0.826   4.926   5.289
 6727SOL    HW221081   0.969   4.952   5.364
 6728SOL     OW21082   3.332   1.209   4.095
 6728SOL    HW121083   3.325   1.293   4.150
 6728SOL    HW221084   3.248   1.197   4.041
 6729SOL     OW21085   4.068   0.949   1.776
 6729SOL    HW121086   4.064   0.974   1.680
 6729SOL    HW221087   3.985   0.898   1.801
 6730SOL     OW21088   0.035   2.063   0.730
 6730SOL    HW121089   0.047   1.972   0.771
 6730SOL    HW221090   0.081   2.065   0.642
 6731SOL     OW21091   4.253   0.510   5.779
 6731SOL    HW121092   4.293   0.548   5.862
 6731SOL    HW221093   4.191   0.435   5.803
 6732SOL     OW21094   6.592   4.956   5.787
 6732SOL    HW121095   6.640   4.903   5.857
 6732SOL    HW221096   6.608   5.053   5.801
 6733SOL     OW21097   4.915   4.958   4.873
 6733SOL    HW121098   4.982   4.959   4.946
 6733SOL    HW221099   4.907   5.051   4.834
 6734SOL     OW21100   5.615   2.325   5.187
 6734SOL    HW121101   5.598   2.236   5.145
 6734SOL    HW221102   5.649   2.312   5.280
 6735SOL     OW21103   5.335   2.715   4.382
 6735SOL    HW121104   5.259   2.658   4.414
 6735SOL    HW221105   5.419   2.689   4.429
 6736SOL     OW21106   3.496   4.095   0.537
 6736SOL    HW121107   3.436   4.036   0.592
 6736SOL    HW221108   3.541   4.039   0.467
 6737SOL     OW21109   6.277   3.720   1.079
 6737SOL    HW121110   6.307   3.624   1.087
 6737SOL    HW221111   6.270   3.761   1.170
 6738SOL     OW21112   2.161   6.616   4.530
 6738SOL    HW121113   2.212   6.562   4.598
 6738SOL    HW221114   2.067   6.584   4.526
 6739SOL     OW21115   6.903   6.587   5.647
 6739SOL    HW121116   6.970   6.514   5.658
 6739SOL    HW221117   6.907   6.649   5.725
 6740SOL     OW21118   0.308   6.983   1.760
 6740SOL    HW121119   0.358   6.974   1.674
 6740SOL    HW221120   0.340   6.914   1.825
 6741SOL     OW21121   3.190   1.791   0.384
 6741SOL    HW121122   3.241   1.736   0.318
 6741SOL    HW221123   3.118   1.842   0.336
 6742SOL     OW21124   6.424   4.477   2.822
 6742SOL    HW121125   6.493   4.405   2.827
 6742SOL    HW221126   6.358   4.454   2.749
 6743SOL     OW21127   3.680   3.553   0.140
 6743SOL    HW121128   3.601   3.501   0.171
 6743SOL    HW221129   3.704   3.526   0.046
 6744SOL     OW21130   6.593   6.757   5.552
 6744SOL    HW121131   6.639   6.700   5.485
 6744SOL    HW221132   6.628   6.851   5.546
 6745SOL     OW21133   6.658   4.245   5.455
 6745SOL    HW121134   6.719   4.301   5.398
 6745SOL    HW221135   6.564   4.276   5.442
 6746SOL     OW21136   1.029   2.528   3.129
 6746SOL    HW121137   1.078   2.492   3.209
 6746SOL    HW221138   1.090   2.589   3.078
 6747SOL     OW21139   0.916   6.380   5.056
 6747SOL    HW121140   0.896   6.423   4.968
 6747SOL    HW221141   0.955   6.289   5.040
 6748SOL     OW21142   1.625   1.071   5.035
 6748SOL    HW121143   1.585   1.061   4.944
 6748SOL    HW221144   1.660   0.982   5.065
 6749SOL     OW21145   4.065   5.129   2.309
 6749SOL    HW121146   3.968   5.154   2.305
 6749SOL    HW221147   4.111   5.184   2.379
 6750SOL     OW21148   3.317   1.247   5.783
 6750SOL    HW121149   3.359   1.279   5.698
 6750SOL    HW221150   3.222   1.224   5.767
 6751SOL     OW21151   4.367   0.881   4.335
 6751SOL    HW121152   4.432   0.809   4.309
 6751SOL    HW221153   4.317   0.854   4.417
 6752SOL     OW21154   2.321   5.112   2.806
 6752SOL    HW121155   2.418   5.094   2.820
 6752SOL    HW221156   2.308   5.207   2.779
 6753SOL     OW21157   3.721   3.453   6.905
 6753SOL    HW121158   3.729   3.363   6.949
 6753SOL    HW221159   3.774   3.452   6.820
 6754SOL     OW21160   6.298   1.054   0.569
 6754SOL    HW121161   6.337   0.986   0.631
 6754SOL    HW221162   6.274   1.010   0.483
 6755SOL     OW21163   3.355   5.859   6.076
 6755SOL    HW121164   3.339   5.917   6.156
 6755SOL    HW221165   3.449   5.824   6.079
 6756SOL     OW21166   3.648   3.326   6.525
 6756SOL    HW121167   3.581   3.330   6.599
 6756SOL    HW221168   3.634   3.402   6.463
 6757SOL     OW21169   4.226   0.236   1.534
 6757SOL    HW121170   4.286   0.160   1.510
 6757SOL    HW221171   4.159   0.251   1.461
 6758SOL     OW21172   4.987   3.110   3.319
 6758SOL    HW121173   5.037   3.100   3.405
 6758SOL    HW221174   4.892   3.081   3.333
 6759SOL     OW21175   1.186   1.660   2.712
 6759SOL    HW121176   1.168   1.754   2.740
 6759SOL    HW221177   1.101   1.619   2.677
 6760SOL     OW21178   5.383   2.311   5.440
 6760SOL    HW121179   5.450   2.385   5.432
 6760SOL    HW221180   5.328   2.307   5.357
 6761SOL     OW21181   3.389   1.408   4.995
 6761SOL    HW121182   3.387   1.337   5.065
 6761SOL    HW221183   3.399   1.497   5.038
 6762SOL     OW21184   5.585   4.801   4.805
 6762SOL    HW121185   5.619   4.708   4.822
 6762SOL    HW221186   5.662   4.862   4.790
 6763SOL     OW21187   5.823   0.200   4.437
 6763SOL    HW121188   5.911   0.170   4.399
 6763SOL    HW221189   5.834   0.221   4.534
 6764SOL     OW21190   0.442   4.837   1.738
 6764SOL    HW121191   0.397   4.748   1.741
 6764SOL    HW221192   0.382   4.904   1.694
 6765SOL     OW21193   0.337   3.642   2.072
 6765SOL    HW121194   0.245   3.644   2.032
 6765SOL    HW221195   0.336   3.686   2.161
 6766SOL     OW21196   6.055   0.137   1.392
 6766SOL    HW121197   6.044   0.202   1.317
 6766SOL    HW221198   5.969   0.131   1.443
 6767SOL     OW21199   3.017   0.335   1.217
 6767SOL    HW121200   3.052   0.385   1.296
 6767SOL    HW221201   2.928   0.371   1.191
 6768SOL     OW21202   1.799   6.936   6.892
 6768SOL    HW121203   1.783   7.010   6.957
 6768SOL    HW221204   1.736   6.861   6.909
 6769SOL     OW21205   5.108   2.974   1.258
 6769SOL    HW121206   5.076   2.965   1.163
 6769SOL    HW221207   5.050   2.918   1.317
 6770SOL     OW21208   7.005   1.478   1.772
 6770SOL    HW121209   0.082   1.499   1.778
 6770SOL    HW221210   6.967   1.471   1.864
 6771SOL     OW21211   4.661   1.829   3.330
 6771SOL    HW121212   4.624   1.750   3.281
 6771SOL    HW221213   4.654   1.911   3.273
 6772SOL     OW21214   3.773   1.716   4.511
 6772SOL    HW121215   3.680   1.753   4.505
 6772SOL    HW221216   3.837   1.783   4.474
 6773SOL     OW21217   0.670   3.689   1.440
 6773SOL    HW121218   0.730   3.615   1.472
 6773SOL    HW221219   0.592   3.699   1.503
 6774SOL     OW21220   0.744   2.587   6.129
 6774SOL    HW121221   0.649   2.603   6.156
 6774SOL    HW221222   0.779   2.666   6.079
 6775SOL     OW21223   1.235   4.291   6.903
 6775SOL    HW121224   1.267   4.198   6.923
 6775SOL    HW221225   1.191   4.292   6.813
 6776SOL     OW21226   5.882   5.546   6.759
 6776SOL    HW121227   5.915   5.528   6.852
 6776SOL    HW221228   5.947   5.604   6.711
 6777SOL     OW21229   4.707   5.308   0.098
 6777SOL    HW121230   4.707   5.385   0.034
 6777SOL    HW221231   4.746   5.227   0.053
 6778SOL     OW21232   6.315   5.662   3.181
 6778SOL    HW121233   6.398   5.707   3.148
 6778SOL    HW221234   6.317   5.566   3.155
 6779SOL     OW21235   6.186   3.707   6.291
 6779SOL    HW121236   6.232   3.769   6.227
 6779SOL    HW221237   6.094   3.687   6.259
 6780SOL     OW21238   0.915   2.963   1.997
 6780SOL    HW121239   1.000   2.911   2.003
 6780SOL    HW221240   0.899   3.013   2.082
 6781SOL     OW21241   5.898   5.032   5.765
 6781SOL    HW121242   5.833   5.096   5.806
 6781SOL    HW221243   5.988   5.074   5.759
 6782SOL     OW21244   5.780   0.710   3.317
 6782SOL    HW121245   5.864   0.688   3.267
 6782SOL    HW221246   5.707   0.730   3.252
 6783SOL     OW21247   0.717   5.574   6.739
 6783SOL    HW121248   0.760   5.505   6.796
 6783SOL    HW221249   0.703   5.658   6.792
 6784SOL     OW21250   4.141   2.786   0.072
 6784SOL    HW121251   4.055   2.758   0.115
 6784SOL    HW221252   4.134   2.881   0.042
 6785SOL     OW21253   6.098   5.798   2.257
 6785SOL    HW121254   6.142   5.708   2.251
 6785SOL    HW221255   6.029   5.807   2.185
 6786SOL     OW21256   1.518   3.795   5.740
 6786SOL    HW121257   1.451   3.781   5.667
 6786SOL    HW221258   1.605   3.825   5.700
 6787SOL     OW21259   1.091   3.766   1.576
 6787SOL    HW121260   1.171   3.825   1.565
 6787SOL    HW221261   1.085   3.704   1.498
 6788SOL     OW21262   3.028   4.304   0.959
 6788SOL    HW121263   2.964   4.243   0.910
 6788SOL    HW221264   3.103   4.328   0.898
 6789SOL     OW21265   0.822   5.494   3.460
 6789SOL    HW121266   0.886   5.516   3.386
 6789SOL    HW221267   0.742   5.554   3.453
 6790SOL     OW21268   1.185   2.815   0.688
 6790SOL    HW121269   1.123   2.887   0.720
 6790SOL    HW221270   1.138   2.727   0.691
 6791SOL     OW21271   3.188   3.909   6.153
 6791SOL    HW121272   3.213   3.847   6.227
 6791SOL    HW221273   3.271   3.948   6.113
 6792SOL     OW21274   0.405   4.833   6.877
 6792SOL    HW121275   0.491   4.783   6.876
 6792SOL    HW221276   0.339   4.785   6.935
 6793SOL     OW21277   5.782   1.490   1.593
 6793SOL    HW121278   5.735   1.402   1.594
 6793SOL    HW221279   5.789   1.523   1.498
 6794SOL     OW21280   4.236   1.075   4.601
 6794SOL    HW121281   4.143   1.110   4.600
 6794SOL    HW221282   4.286   1.112   4.523
 6795SOL     OW21283   3.462   6.012   6.890
 6795SOL    HW121284   3.523   5.992   6.966
 6795SOL    HW221285   3.439   6.109   6.889
 6796SOL     OW21286   3.773   1.859   3.155
 6796SOL    HW121287   3.777   1.953   3.122
 6796SOL    HW221288   3.854   1.809   3.125
 6797SOL     OW21289   6.985   2.395   2.051
 6797SOL    HW121290   6.895   2.369   2.016
 6797SOL    HW221291   6.976   2.424   2.147
 6798SOL     OW21292   6.448   0.337   2.402
 6798SOL    HW121293   6.505   0.271   2.452
 6798SOL    HW221294   6.353   0.306   2.404
 6799SOL     OW21295   5.083   5.802   1.779
 6799SOL    HW121296   5.032   5.791   1.865
 6799SOL    HW221297   5.159   5.865   1.793
 6800SOL     OW21298   3.402   4.121   6.407
 6800SOL    HW121299   3.500   4.122   6.384
 6800SOL    HW221300   3.356   4.195   6.359
 6801SOL     OW21301   1.093   2.511   2.769
 6801SOL    HW121302   1.010   2.552   2.807
 6801SOL    HW221303   1.140   2.458   2.840
 6802SOL     OW21304   2.691   4.708   2.768
 6802SOL    HW121305   2.766   4.735   2.829
 6802SOL    HW221306   2.726   4.695   2.676
 6803SOL     OW21307   3.980   2.458   0.507
 6803SOL    HW121308   4.005   2.409   0.590
 6803SOL    HW221309   3.979   2.394   0.430
 6804SOL     OW21310   0.924   0.166   3.770
 6804SOL    HW121311   1.012   0.199   3.802
 6804SOL    HW221312   0.934   0.075   3.730
 6805SOL     OW21313   5.267   0.821   4.856
 6805SOL    HW121314   5.233   0.727   4.856
 6805SOL    HW221315   5.351   0.826   4.803
 6806SOL     OW21316   5.419   6.331   5.419
 6806SOL    HW121317   5.423   6.306   5.323
 6806SOL    HW221318   5.471   6.415   5.433
 6807SOL     OW21319   3.409   3.250   7.006
 6807SOL    HW121320   3.391   3.322   6.939
 6807SOL    HW221321   3.477   3.187   6.968
 6808SOL     OW21322   2.069   3.503   3.975
 6808SOL    HW121323   2.167   3.491   3.993
 6808SOL    HW221324   2.028   3.414   3.954
 6809SOL     OW21325   1.752   3.266   6.833
 6809SOL    HW121326   1.669   3.288   6.781
 6809SOL    HW221327   1.806   3.349   6.847
 6810SOL     OW21328   5.826   1.422   2.990
 6810SOL    HW121329   5.849   1.488   3.062
 6810SOL    HW221330   5.906   1.365   2.970
 6811SOL     OW21331   4.792   5.564   1.874
 6811SOL    HW121332   4.704   5.545   1.918
 6811SOL    HW221333   4.837   5.640   1.921
 6812SOL     OW21334   3.525   3.097   2.729
 6812SOL    HW121335   3.453   3.046   2.680
 6812SOL    HW221336   3.590   3.135   2.662
 6813SOL     OW21337   5.438   3.276   1.119
 6813SOL    HW121338   5.468   3.181   1.122
 6813SOL    HW221339   5.454   3.313   1.027
 6814SOL     OW21340   2.707   2.976   0.732
 6814SOL    HW121341   2.793   2.995   0.780
 6814SOL    HW221342   2.713   3.012   0.638
 6815SOL     OW21343   1.273   6.881   1.427
 6815SOL    HW121344   1.194   6.932   1.460
 6815SOL    HW221345   1.356   6.915   1.473
 6816SOL     OW21346   6.192   3.846   1.344
 6816SOL    HW121347   6.237   3.927   1.380
 6816SOL    HW221348   6.111   3.826   1.399
 6817SOL     OW21349   0.790   2.372   6.279
 6817SOL    HW121350   0.880   2.329   6.278
 6817SOL    HW221351   0.796   2.463   6.237
 6818SOL     OW21352   3.646   5.539   1.545
 6818SOL    HW121353   3.553   5.518   1.514
 6818SOL    HW221354   3.690   5.456   1.577
 6819SOL     OW21355   3.102   1.415   3.566
 6819SOL    HW121356   3.002   1.416   3.576
 6819SOL    HW221357   3.133   1.320   3.558
 6820SOL     OW21358   2.107   5.502   3.910
 6820SOL    HW121359   2.164   5.569   3.862
 6820SOL    HW221360   2.155   5.471   3.992
 6821SOL     OW21361   2.491   2.519   4.172
 6821SOL    HW121362   2.489   2.478   4.081
 6821SOL    HW221363   2.534   2.455   4.236
 6822SOL     OW21364   5.195   1.910   6.104
 6822SOL    HW121365   5.284   1.930   6.062
 6822SOL    HW221366   5.149   1.996   6.127
 6823SOL     OW21367   4.081   3.458   2.380
 6823SOL    HW121368   3.990   3.482   2.346
 6823SOL    HW221369   4.126   3.397   2.315
 6824SOL     OW21370   1.521   4.990   6.186
 6824SOL    HW121371   1.502   5.086   6.206
 6824SOL    HW221372   1.539   4.941   6.271
 6825SOL     OW21373   5.408   6.942   4.094
 6825SOL    HW121374   5.344   6.967   4.021
 6825SOL    HW221375   5.459   0.003   4.123
 6826SOL     OW21376   0.618   3.168   2.569
 6826SOL    HW121377   0.662   3.121   2.492
 6826SOL    HW221378   0.616   3.106   2.648
 6827SOL     OW21379   5.718   6.159   4.907
 6827SOL    HW121380   5.743   6.111   4.822
 6827SOL    HW221381   5.619   6.163   4.915
 6828SOL     OW21382   1.921   1.676   1.222
 6828SOL    HW121383   1.833   1.702   1.261
 6828SOL    HW221384   1.994   1.729   1.266
 6829SOL     OW21385   5.285   5.079   3.489
 6829SOL    HW121386   5.197   5.093   3.444
 6829SOL    HW221387   5.330   4.999   3.451
 6830SOL     OW21388   4.968   2.252   4.326
 6830SOL    HW121389   5.051   2.287   4.282
 6830SOL    HW221390   4.909   2.328   4.351
 6831SOL     OW21391   6.862   1.329   5.804
 6831SOL    HW121392   6.789   1.291   5.746
 6831SOL    HW221393   6.940   1.266   5.805
 6832SOL     OW21394   2.946   5.594   1.826
 6832SOL    HW121395   3.021   5.528   1.829
 6832SOL    HW221396   2.861   5.551   1.855
 6833SOL     OW21397   4.546   5.631   0.198
 6833SOL    HW121398   4.459   5.677   0.212
 6833SOL    HW221399   4.548   5.545   0.249
 6834SOL     OW21400   3.668   5.683   2.337
 6834SOL    HW121401   3.715   5.616   2.279
 6834SOL    HW221402   3.693   5.776   2.307
 6835SOL     OW21403   4.061   0.138   4.714
 6835SOL    HW121404   4.072   0.111   4.809
 6835SOL    HW221405   4.089   0.064   4.653
 6836SOL     OW21406   3.688   5.651   6.608
 6836SOL    HW121407   3.765   5.632   6.548
 6836SOL    HW221408   3.612   5.687   6.554
 6837SOL     OW21409   0.128   2.863   3.021
 6837SOL    HW121410   0.195   2.926   2.982
 6837SOL    HW221411   0.057   2.843   2.953
 6838SOL     OW21412   2.704   1.868   0.754
 6838SOL    HW121413   2.704   1.845   0.851
 6838SOL    HW221414   2.610   1.878   0.722
 6839SOL     OW21415   4.388   0.907   1.461
 6839SOL    HW121416   4.464   0.861   1.505
 6839SOL    HW221417   4.400   0.906   1.362
 6840SOL     OW21418   0.472   1.047   6.768
 6840SOL    HW121419   0.546   1.091   6.716
 6840SOL    HW221420   0.506   0.962   6.809
 6841SOL     OW21421   0.128   3.427   5.828
 6841SOL    HW121422   0.040   3.462   5.858
 6841SOL    HW221423   0.133   3.430   5.728
 6842SOL     OW21424   2.573   4.976   2.693
 6842SOL    HW121425   2.548   4.963   2.789
 6842SOL    HW221426   2.651   4.919   2.670
 6843SOL     OW21427   4.313   0.092   1.001
 6843SOL    HW121428   4.353   0.004   0.976
 6843SOL    HW221429   4.306   0.149   0.919
 6844SOL     OW21430   5.605   0.602   6.041
 6844SOL    HW121431   5.551   0.528   5.999
 6844SOL    HW221432   5.698   0.570   6.058
 6845SOL     OW21433   4.976   1.883   3.019
 6845SOL    HW121434   5.037   1.811   3.054
 6845SOL    HW221435   4.899   1.841   2.972
 6846SOL     OW21436   2.178   3.404   0.275
 6846SOL    HW121437   2.143   3.310   0.277
 6846SOL    HW221438   2.277   3.402   0.271
 6847SOL     OW21439   6.813   2.667   4.509
 6847SOL    HW121440   6.822   2.577   4.467
 6847SOL    HW221441   6.762   2.659   4.595
 6848SOL     OW21442   6.728   5.010   3.522
 6848SOL    HW121443   6.704   5.106   3.536
 6848SOL    HW221444   6.743   4.993   3.425
 6849SOL     OW21445   2.979   4.354   5.848
 6849SOL    HW121446   2.970   4.308   5.760
 6849SOL    HW221447   3.009   4.448   5.834
 6850SOL     OW21448   4.636   0.158   3.721
 6850SOL    HW121449   4.569   0.171   3.795
 6850SOL    HW221450   4.721   0.204   3.746
 6851SOL     OW21451   1.744   3.682   2.946
 6851SOL    HW121452   1.781   3.769   2.913
 6851SOL    HW221453   1.645   3.690   2.956
 6852SOL     OW21454   4.438   4.486   0.344
 6852SOL    HW121455   4.391   4.501   0.431
 6852SOL    HW221456   4.456   4.573   0.300
 6853SOL     OW21457   4.074   4.797   6.671
 6853SOL    HW121458   4.043   4.830   6.581
 6853SOL    HW221459   4.156   4.740   6.659
 6854SOL     OW21460   5.048   5.285   5.970
 6854SOL    HW121461   5.091   5.196   5.961
 6854SOL    HW221462   5.097   5.339   6.039
 6855SOL     OW21463   4.484   5.356   3.093
 6855SOL    HW121464   4.571   5.362   3.141
 6855SOL    HW221465   4.500   5.338   2.996
 6856SOL     OW21466   6.989   2.830   0.046
 6856SOL    HW121467   6.950   2.904   7.012
 6856SOL    HW221468   6.922   2.802   0.115
 6857SOL     OW21469   1.146   4.391   5.714
 6857SOL    HW121470   1.113   4.343   5.795
 6857SOL    HW221471   1.122   4.488   5.721
 6858SOL     OW21472   1.723   3.929   1.828
 6858SOL    HW121473   1.630   3.927   1.864
 6858SOL    HW221474   1.785   3.969   1.895
 6859SOL     OW21475   2.231   1.734   1.619
 6859SOL    HW121476   2.133   1.718   1.624
 6859SOL    HW221477   2.276   1.697   1.701
 6860SOL     OW21478   0.417   6.098   0.332
 6860SOL    HW121479   0.452   6.186   0.299
 6860SOL    HW221480   0.416   6.032   0.258
 6861SOL     OW21481   5.985   3.171   6.464
 6861SOL    HW121482   5.889   3.181   6.493
 6861SOL    HW221483   6.008   3.074   6.461
 6862SOL     OW21484   1.137   4.528   3.792
 6862SOL    HW121485   1.097   4.598   3.733
 6862SOL    HW221486   1.194   4.466   3.737
 6863SOL     OW21487   5.585   1.644   5.102
 6863SOL    HW121488   5.522   1.618   5.176
 6863SOL    HW221489   5.677   1.613   5.125
 6864SOL     OW21490   1.344   3.525   6.322
 6864SOL    HW121491   1.379   3.539   6.415
 6864SOL    HW221492   1.244   3.521   6.325
 6865SOL     OW21493   2.286   0.745   4.361
 6865SOL    HW121494   2.305   0.818   4.427
 6865SOL    HW221495   2.194   0.757   4.323
 6866SOL     OW21496   1.617   4.659   0.316
 6866SOL    HW121497   1.714   4.648   0.295
 6866SOL    HW221498   1.583   4.744   0.277
 6867SOL     OW21499   2.204   3.348   6.938
 6867SOL    HW121500   2.244   3.285   6.871
 6867SOL    HW221501   2.275   3.410   6.972
 6868SOL     OW21502   3.695   5.178   3.228
 6868SOL    HW121503   3.746   5.231   3.160
 6868SOL    HW221504   3.709   5.080   3.211
 6869SOL     OW21505   2.272   0.590   5.756
 6869SOL    HW121506   2.308   0.629   5.671
 6869SOL    HW221507   2.249   0.664   5.819
 6870SOL     OW21508   5.414   2.184   6.950
 6870SOL    HW121509   5.391   2.116   7.020
 6870SOL    HW221510   5.470   2.141   6.879
 6871SOL     OW21511   6.763   3.323   2.590
 6871SOL    HW121512   6.682   3.375   2.563
 6871SOL    HW221513   6.845   3.365   2.551
 6872SOL     OW21514   1.719   4.157   1.086
 6872SOL    HW121515   1.770   4.222   1.029
 6872SOL    HW221516   1.775   4.076   1.103
 6873SOL     OW21517   0.491   4.173   3.067
 6873SOL    HW121518   0.581   4.182   3.024
 6873SOL    HW221519   0.485   4.085   3.113
 6874SOL     OW21520   4.726   6.636   2.262
 6874SOL    HW121521   4.690   6.558   2.314
 6874SOL    HW221522   4.656   6.706   2.254
 6875SOL     OW21523   2.577   1.206   0.202
 6875SOL    HW121524   2.633   1.140   0.151
 6875SOL    HW221525   2.636   1.263   0.259
 6876SOL     OW21526   5.341   5.415   3.320
 6876SOL    HW121527   5.426   5.435   3.271
 6876SOL    HW221528   5.362   5.364   3.403
 6877SOL     OW21529   0.689   4.389   1.819
 6877SOL    HW121530   0.596   4.410   1.790
 6877SOL    HW221531   0.737   4.340   1.746
 6878SOL     OW21532   2.035   0.629   4.699
 6878SOL    HW121533   2.065   0.553   4.640
 6878SOL    HW221534   1.935   0.637   4.693
 6879SOL     OW21535   1.224   1.673   1.210
 6879SOL    HW121536   1.191   1.615   1.136
 6879SOL    HW221537   1.311   1.716   1.183
 6880SOL     OW21538   1.564   6.047   0.184
 6880SOL    HW121539   1.495   6.014   0.119
 6880SOL    HW221540   1.644   6.078   0.133
 6881SOL     OW21541   6.824   3.353   0.304
 6881SOL    HW121542   6.773   3.386   0.384
 6881SOL    HW221543   6.787   3.396   0.221
 6882SOL     OW21544   3.114   6.375   0.409
 6882SOL    HW121545   3.018   6.358   0.386
 6882SOL    HW221546   3.148   6.301   0.468
 6883SOL     OW21547   5.353   0.506   1.291
 6883SOL    HW121548   5.317   0.591   1.252
 6883SOL    HW221549   5.313   0.428   1.244
 6884SOL     OW21550   2.451   4.987   3.531
 6884SOL    HW121551   2.428   5.048   3.607
 6884SOL    HW221552   2.469   5.042   3.449
 6885SOL     OW21553   6.035   4.585   4.924
 6885SOL    HW121554   6.036   4.537   5.012
 6885SOL    HW221555   5.984   4.530   4.857
 6886SOL     OW21556   5.384   3.530   0.056
 6886SOL    HW121557   5.289   3.533   0.087
 6886SOL    HW221558   5.426   3.445   0.088
 6887SOL     OW21559   5.376   6.107   5.814
 6887SOL    HW121560   5.281   6.131   5.837
 6887SOL    HW221561   5.399   6.021   5.859
 6888SOL     OW21562   6.294   4.155   0.276
 6888SOL    HW121563   6.238   4.073   0.283
 6888SOL    HW221564   6.264   4.222   0.344
 6889SOL     OW21565   0.089   1.433   5.396
 6889SOL    HW121566   0.145   1.515   5.380
 6889SOL    HW221567   0.006   1.438   5.340
 6890SOL     OW21568   4.933   4.520   3.952
 6890SOL    HW121569   4.902   4.427   3.932
 6890SOL    HW221570   5.010   4.515   4.017
 6891SOL     OW21571   1.147   1.508   1.008
 6891SOL    HW121572   1.236   1.464   1.004
 6891SOL    HW221573   1.114   1.526   0.915
 6892SOL     OW21574   2.947   0.956   4.914
 6892SOL    HW121575   2.988   0.867   4.895
 6892SOL    HW221576   2.935   1.006   4.828
 6893SOL     OW21577   6.140   2.813   0.338
 6893SOL    HW121578   6.197   2.732   0.324
 6893SOL    HW221579   6.045   2.791   0.317
 6894SOL     OW21580   5.744   4.752   0.010
 6894SOL    HW121581   5.817   4.728   6.966
 6894SOL    HW221582   5.697   4.834   6.999
 6895SOL     OW21583   1.008   5.844   2.360
 6895SOL    HW121584   1.006   5.944   2.351
 6895SOL    HW221585   0.915   5.808   2.352
 6896SOL     OW21586   4.714   1.404   5.510
 6896SOL    HW121587   4.635   1.390   5.451
 6896SOL    HW221588   4.684   1.425   5.603
 6897SOL     OW21589   4.364   2.560   5.361
 6897SOL    HW121590   4.289   2.494   5.363
 6897SOL    HW221591   4.365   2.608   5.274
 6898SOL     OW21592   1.413   6.638   1.151
 6898SOL    HW121593   1.396   6.605   1.244
 6898SOL    HW221594   1.444   6.733   1.155
 6899SOL     OW21595   5.804   5.867   2.790
 6899SOL    HW121596   5.883   5.928   2.797
 6899SOL    HW221597   5.744   5.881   2.869
 6900SOL     OW21598   6.625   3.524   4.709
 6900SOL    HW121599   6.565   3.583   4.655
 6900SOL    HW221600   6.718   3.532   4.675
 6901SOL     OW21601   5.556   4.894   5.822
 6901SOL    HW121602   5.620   4.914   5.749
 6901SOL    HW221603   5.464   4.921   5.794
 6902SOL     OW21604   0.595   5.858   5.594
 6902SOL    HW121605   0.685   5.820   5.577
 6902SOL    HW221606   0.533   5.785   5.623
 6903SOL     OW21607   1.401   6.343   5.029
 6903SOL    HW121608   1.357   6.312   5.114
 6903SOL    HW221609   1.473   6.278   5.003
 6904SOL     OW21610   0.201   0.659   5.676
 6904SOL    HW121611   0.273   0.661   5.745
 6904SOL    HW221612   0.112   0.666   5.721
 6905SOL     OW21613   5.032   5.976   5.751
 6905SOL    HW121614   5.013   6.073   5.736
 6905SOL    HW221615   4.946   5.926   5.761
 6906SOL     OW21616   2.587   0.653   3.938
 6906SOL    HW121617   2.627   0.666   3.848
 6906SOL    HW221618   2.518   0.581   3.934
 6907SOL     OW21619   5.831   1.573   0.980
 6907SOL    HW121620   5.733   1.582   0.997
 6907SOL    HW221621   5.880   1.647   1.025
 6908SOL     OW21622   3.824   5.377   0.695
 6908SOL    HW121623   3.761   5.371   0.617
 6908SOL    HW221624   3.807   5.463   0.744
 6909SOL     OW21625   5.398   4.225   2.336
 6909SOL    HW121626   5.360   4.181   2.418
 6909SOL    HW221627   5.453   4.159   2.285
 6910SOL     OW21628   1.019   2.464   2.525
 6910SOL    HW121629   1.067   2.499   2.606
 6910SOL    HW221630   0.927   2.503   2.522
 6911SOL     OW21631   2.793   6.562   5.889
 6911SOL    HW121632   2.887   6.590   5.907
 6911SOL    HW221633   2.754   6.619   5.816
 6912SOL     OW21634   3.074   4.072   6.949
 6912SOL    HW121635   3.087   4.158   6.999
 6912SOL    HW221636   3.088   4.088   6.851
 6913SOL     OW21637   4.603   5.630   5.837
 6913SOL    HW121638   4.518   5.669   5.872
 6913SOL    HW221639   4.583   5.545   5.789
 6914SOL     OW21640   6.396   2.250   2.344
 6914SOL    HW121641   6.441   2.314   2.283
 6914SOL    HW221642   6.308   2.287   2.373
 6915SOL     OW21643   0.241   3.434   3.567
 6915SOL    HW121644   0.341   3.437   3.565
 6915SOL    HW221645   0.209   3.355   3.515
 6916SOL     OW21646   4.790   6.430   5.819
 6916SOL    HW121647   4.714   6.420   5.755
 6916SOL    HW221648   4.834   6.518   5.805
 6917SOL     OW21649   3.485   6.178   2.035
 6917SOL    HW121650   3.389   6.207   2.031
 6917SOL    HW221651   3.489   6.081   2.060
 6918SOL     OW21652   1.749   3.448   0.408
 6918SOL    HW121653   1.760   3.418   0.313
 6918SOL    HW221654   1.741   3.547   0.411
 6919SOL     OW21655   6.355   6.032   3.181
 6919SOL    HW121656   6.414   6.106   3.215
 6919SOL    HW221657   6.410   5.966   3.130
 6920SOL     OW21658   6.800   2.113   5.329
 6920SOL    HW121659   6.784   2.015   5.320
 6920SOL    HW221660   6.774   2.143   5.421
 6921SOL     OW21661   4.099   0.083   4.091
 6921SOL    HW121662   4.027   0.061   4.157
 6921SOL    HW221663   4.132   7.019   4.049
 6922SOL     OW21664   3.029   5.256   6.669
 6922SOL    HW121665   2.980   5.203   6.600
 6922SOL    HW221666   2.983   5.247   6.757
 6923SOL     OW21667   5.206   0.068   2.885
 6923SOL    HW121668   5.131   0.002   2.880
 6923SOL    HW221669   5.213   0.118   2.799
 6924SOL     OW21670   3.414   5.653   1.948
 6924SOL    HW121671   3.478   5.581   1.975
 6924SOL    HW221672   3.414   5.662   1.848
 6925SOL     OW21673   5.923   6.331   4.906
 6925SOL    HW121674   5.990   6.356   4.976
 6925SOL    HW221675   5.850   6.277   4.947
 6926SOL     OW21676   3.036   2.414   0.471
 6926SOL    HW121677   3.131   2.393   0.446
 6926SOL    HW221678   3.009   2.360   0.550
 6927SOL     OW21679   3.723   0.435   6.877
 6927SOL    HW121680   3.711   0.468   6.971
 6927SOL    HW221681   3.813   0.393   6.868
 6928SOL     OW21682   3.545   5.225   6.855
 6928SOL    HW121683   3.569   5.270   6.941
 6928SOL    HW221684   3.452   5.250   6.829
 6929SOL     OW21685   4.537   4.890   2.358
 6929SOL    HW121686   4.472   4.814   2.346
 6929SOL    HW221687   4.630   4.854   2.361
 6930SOL     OW21688   1.141   6.295   1.667
 6930SOL    HW121689   1.118   6.201   1.644
 6930SOL    HW221690   1.236   6.314   1.642
 6931SOL     OW21691   3.067   3.331   1.065
 6931SOL    HW121692   3.161   3.296   1.077
 6931SOL    HW221693   3.002   3.260   1.092
 6932SOL     OW21694   4.243   0.484   6.062
 6932SOL    HW121695   4.252   0.420   6.138
 6932SOL    HW221696   4.213   0.573   6.096
 6933SOL     OW21697   2.655   5.971   6.142
 6933SOL    HW121698   2.561   5.947   6.165
 6933SOL    HW221699   2.657   6.016   6.052
 6934SOL     OW21700   4.981   5.126   0.162
 6934SOL    HW121701   5.033   5.042   0.180
 6934SOL    HW221702   4.898   5.104   0.112
 6935SOL     OW21703   3.957   6.084   1.899
 6935SOL    HW121704   3.963   6.139   1.816
 6935SOL    HW221705   3.958   6.145   1.979
 6936SOL     OW21706   1.050   1.737   6.304
 6936SOL    HW121707   1.137   1.755   6.349
 6936SOL    HW221708   1.023   1.642   6.318
 6937SOL     OW21709   5.832   5.351   0.552
 6937SOL    HW121710   5.749   5.297   0.535
 6937SOL    HW221711   5.893   5.344   0.473
 6938SOL     OW21712   2.893   1.059   4.646
 6938SOL    HW121713   2.822   1.127   4.631
 6938SOL    HW221714   2.859   0.968   4.621
 6939SOL     OW21715   5.837   3.482   3.605
 6939SOL    HW121716   5.825   3.429   3.689
 6939SOL    HW221717   5.853   3.420   3.528
 6940SOL     OW21718   2.454   6.697   1.015
 6940SOL    HW121719   2.421   6.650   0.933
 6940SOL    HW221720   2.400   6.668   1.094
 6941SOL     OW21721   3.850   2.978   2.861
 6941SOL    HW121722   3.808   2.953   2.773
 6941SOL    HW221723   3.814   2.919   2.933
 6942SOL     OW21724   6.406   5.199   2.906
 6942SOL    HW121725   6.392   5.227   2.811
 6942SOL    HW221726   6.343   5.250   2.965
 6943SOL     OW21727   4.679   4.790   6.117
 6943SOL    HW121728   4.663   4.817   6.212
 6943SOL    HW221729   4.774   4.763   6.106
 6944SOL     OW21730   0.964   4.686   5.254
 6944SOL    HW121731   0.905   4.753   5.207
 6944SOL    HW221732   1.058   4.697   5.224
 6945SOL     OW21733   4.914   2.108   0.887
 6945SOL    HW121734   4.923   2.008   0.879
 6945SOL    HW221735   4.865   2.131   0.970
 6946SOL     OW21736   5.310   6.220   2.575
 6946SOL    HW121737   5.351   6.298   2.622
 6946SOL    HW221738   5.241   6.252   2.511
 6947SOL     OW21739   6.349   4.229   5.137
 6947SOL    HW121740   6.360   4.323   5.105
 6947SOL    HW221741   6.403   4.167   5.079
 6948SOL     OW21742   6.935   4.049   6.659
 6948SOL    HW121743   6.905   4.097   6.577
 6948SOL    HW221744   6.879   4.079   6.737
 6949SOL     OW21745   2.920   1.351   2.700
 6949SOL    HW121746   2.864   1.413   2.755
 6949SOL    HW221747   2.938   1.267   2.752
 6950SOL     OW21748   1.274   0.957   3.898
 6950SOL    HW121749   1.311   1.040   3.941
 6950SOL    HW221750   1.319   0.876   3.937
 6951SOL     OW21751   1.375   3.717   6.599
 6951SOL    HW121752   1.334   3.686   6.684
 6951SOL    HW221753   1.303   3.740   6.533
 6952SOL     OW21754   4.729   5.773   3.444
 6952SOL    HW121755   4.817   5.731   3.425
 6952SOL    HW221756   4.711   5.769   3.543
 6953SOL     OW21757   6.391   1.316   1.423
 6953SOL    HW121758   6.404   1.222   1.454
 6953SOL    HW221759   6.478   1.365   1.430
 6954SOL     OW21760   0.005   4.199   6.189
 6954SOL    HW121761   0.028   4.109   6.226
 6954SOL    HW221762   0.089   4.251   6.175
 6955SOL     OW21763   4.935   5.323   2.944
 6955SOL    HW121764   4.974   5.254   3.006
 6955SOL    HW221765   4.907   5.403   2.997
 6956SOL     OW21766   5.305   5.377   1.676
 6956SOL    HW121767   5.250   5.295   1.691
 6956SOL    HW221768   5.278   5.448   1.741
 6957SOL     OW21769   5.954   5.343   5.273
 6957SOL    HW121770   5.923   5.297   5.356
 6957SOL    HW221771   6.046   5.378   5.288
 6958SOL     OW21772   3.497   3.302   2.449
 6958SOL    HW121773   3.586   3.270   2.482
 6958SOL    HW221774   3.494   3.402   2.454
 6959SOL     OW21775   1.764   4.175   2.794
 6959SOL    HW121776   1.692   4.206   2.856
 6959SOL    HW221777   1.853   4.204   2.829
 6960SOL     OW21778   5.152   4.491   1.339
 6960SOL    HW121779   5.091   4.545   1.398
 6960SOL    HW221780   5.160   4.536   1.250
 6961SOL     OW21781   4.716   2.777   5.798
 6961SOL    HW121782   4.694   2.733   5.885
 6961SOL    HW221783   4.798   2.736   5.760
 6962SOL     OW21784   2.781   6.031   0.067
 6962SOL    HW121785   2.773   5.988   0.157
 6962SOL    HW221786   2.867   6.081   0.061
 6963SOL     OW21787   0.431   6.434   6.691
 6963SOL    HW121788   0.517   6.389   6.717
 6963SOL    HW221789   0.428   6.526   6.732
 6964SOL     OW21790   2.169   1.800   4.704
 6964SOL    HW121791   2.086   1.830   4.657
 6964SOL    HW221792   2.183   1.856   4.786
 6965SOL     OW21793   1.882   1.389   7.016
 6965SOL    HW121794   1.795   1.367   6.972
 6965SOL    HW221795   1.867   1.451   0.072
 6966SOL     OW21796   1.102   6.722   1.237
 6966SOL    HW121797   1.126   6.627   1.254
 6966SOL    HW221798   1.162   6.782   1.291
 6967SOL     OW21799   3.738   0.577   0.102
 6967SOL    HW121800   3.785   0.590   0.190
 6967SOL    HW221801   3.700   0.665   0.072
 6968SOL     OW21802   3.209   0.473   2.955
 6968SOL    HW121803   3.296   0.521   2.955
 6968SOL    HW221804   3.139   0.531   2.997
 6969SOL     OW21805   1.749   2.571   1.880
 6969SOL    HW121806   1.836   2.579   1.928
 6969SOL    HW221807   1.681   2.631   1.924
 6970SOL     OW21808   3.264   5.665   5.701
 6970SOL    HW121809   3.289   5.714   5.784
 6970SOL    HW221810   3.337   5.673   5.633
 6971SOL     OW21811   5.828   4.023   6.854
 6971SOL    HW121812   5.749   3.963   6.868
 6971SOL    HW221813   5.908   3.968   6.829
 6972SOL     OW21814   6.033   3.646   1.483
 6972SOL    HW121815   6.014   3.708   1.559
 6972SOL    HW221816   5.985   3.559   1.497
 6973SOL     OW21817   0.875   1.360   2.844
 6973SOL    HW121818   0.785   1.320   2.825
 6973SOL    HW221819   0.900   1.340   2.939
 6974SOL     OW21820   4.168   3.507   3.163
 6974SOL    HW121821   4.268   3.500   3.161
 6974SOL    HW221822   4.142   3.598   3.198
 6975SOL     OW21823   3.203   5.207   4.792
 6975SOL    HW121824   3.177   5.265   4.715
 6975SOL    HW221825   3.297   5.175   4.778
 6976SOL     OW21826   4.315   5.044   6.118
 6976SOL    HW121827   4.401   5.081   6.085
 6976SOL    HW221828   4.257   5.118   6.152
 6977SOL     OW21829   4.866   4.788   2.383
 6977SOL    HW121830   4.921   4.728   2.441
 6977SOL    HW221831   4.905   4.787   2.290
 6978SOL     OW21832   0.726   3.924   0.656
 6978SOL    HW121833   0.662   3.871   0.712
 6978SOL    HW221834   0.690   4.016   0.643
 6979SOL     OW21835   1.150   3.421   2.614
 6979SOL    HW121836   1.198   3.420   2.526
 6979SOL    HW221837   1.052   3.435   2.598
 6980SOL     OW21838   2.542   5.009   2.968
 6980SOL    HW121839   2.475   4.954   3.017
 6980SOL    HW221840   2.625   5.019   3.025
 6981SOL     OW21841   4.570   3.076   6.556
 6981SOL    HW121842   4.659   3.043   6.525
 6981SOL    HW221843   4.563   3.065   6.655
 6982SOL     OW21844   0.098   0.511   1.618
 6982SOL    HW121845   0.192   0.479   1.629
 6982SOL    HW221846   0.043   0.439   1.574
 6983SOL     OW21847   6.451   6.921   4.193
 6983SOL    HW121848   6.486   7.004   4.236
 6983SOL    HW221849   6.396   6.945   4.113
 6984SOL     OW21850   1.288   3.739   3.234
 6984SOL    HW121851   1.359   3.729   3.303
 6984SOL    HW221852   1.198   3.738   3.279
 6985SOL     OW21853   5.394   2.984   0.305
 6985SOL    HW121854   5.314   2.924   0.315
 6985SOL    HW221855   5.399   3.046   0.383
 6986SOL     OW21856   4.212   5.186   5.697
 6986SOL    HW121857   4.304   5.158   5.725
 6986SOL    HW221858   4.217   5.274   5.650
 6987SOL     OW21859   6.863   1.081   6.486
 6987SOL    HW121860   6.875   1.062   6.388
 6987SOL    HW221861   6.843   1.178   6.498
 6988SOL     OW21862   2.345   1.451   6.628
 6988SOL    HW121863   2.303   1.515   6.693
 6988SOL    HW221864   2.402   1.386   6.678
 6989SOL     OW21865   0.451   4.344   2.656
 6989SOL    HW121866   0.463   4.427   2.601
 6989SOL    HW221867   0.531   4.330   2.713
 6990SOL     OW21868   3.783   3.685   6.595
 6990SOL    HW121869   3.792   3.586   6.604
 6990SOL    HW221870   3.865   3.729   6.630
 6991SOL     OW21871   5.663   3.613   2.941
 6991SOL    HW121872   5.754   3.594   2.905
 6991SOL    HW221873   5.620   3.528   2.972
 6992SOL     OW21874   1.661   5.037   0.016
 6992SOL    HW121875   1.733   4.995   6.982
 6992SOL    HW221876   1.572   5.018   6.995
 6993SOL     OW21877   3.844   2.236   1.652
 6993SOL    HW121878   3.778   2.260   1.724
 6993SOL    HW221879   3.917   2.304   1.650
 6994SOL     OW21880   2.891   1.083   3.288
 6994SOL    HW121881   2.873   1.165   3.233
 6994SOL    HW221882   2.988   1.057   3.278
 6995SOL     OW21883   0.427   4.464   0.611
 6995SOL    HW121884   0.410   4.490   0.706
 6995SOL    HW221885   0.489   4.530   0.569
 6996SOL     OW21886   0.673   1.141   6.608
 6996SOL    HW121887   0.687   1.097   6.519
 6996SOL    HW221888   0.691   1.239   6.599
 6997SOL     OW21889   6.299   6.299   6.077
 6997SOL    HW121890   6.256   6.365   6.139
 6997SOL    HW221891   6.398   6.310   6.079
 6998SOL     OW21892   0.568   0.389   0.417
 6998SOL    HW121893   0.625   0.464   0.383
 6998SOL    HW221894   0.626   0.317   0.454
 6999SOL     OW21895   6.676   2.684   6.840
 6999SOL    HW121896   6.640   2.750   6.906
 6999SOL    HW221897   6.758   2.722   6.797
 7000SOL     OW21898   0.318   5.617   3.508
 7000SOL    HW121899   0.414   5.593   3.517
 7000SOL    HW221900   0.308   5.717   3.508
 7001SOL     OW21901   7.008   1.350   3.826
 7001SOL    HW121902   7.008   1.386   3.732
 7001SOL    HW221903   6.981   1.423   3.889
 7002SOL     OW21904   0.932   4.984   2.639
 7002SOL    HW121905   0.968   5.010   2.550
 7002SOL    HW221906   0.921   4.885   2.643
 7003SOL     OW21907   0.506   5.065   6.837
 7003SOL    HW121908   0.459   5.131   6.895
 7003SOL    HW221909   0.455   4.979   6.836
 7004SOL     OW21910   1.883   0.169   6.368
 7004SOL    HW121911   1.905   0.225   6.289
 7004SOL    HW221912   1.867   0.227   6.447
 7005SOL     OW21913   1.670   5.335   0.466
 7005SOL    HW121914   1.641   5.323   0.371
 7005SOL    HW221915   1.755   5.386   0.469
 7006SOL     OW21916   0.417   0.478   3.728
 7006SOL    HW121917   0.464   0.425   3.658
 7006SOL    HW221918   0.439   0.441   3.818
 7007SOL     OW21919   2.078   0.320   6.241
 7007SOL    HW121920   2.111   0.246   6.300
 7007SOL    HW221921   2.140   0.332   6.164
 7008SOL     OW21922   4.893   3.123   3.680
 7008SOL    HW121923   4.936   3.041   3.643
 7008SOL    HW221924   4.917   3.202   3.623
 7009SOL     OW21925   5.196   6.044   2.015
 7009SOL    HW121926   5.135   6.098   1.957
 7009SOL    HW221927   5.150   6.026   2.103
 7010SOL     OW21928   5.052   2.946   2.647
 7010SOL    HW121929   4.974   2.983   2.697
 7010SOL    HW221930   5.086   2.865   2.693
 7011SOL     OW21931   2.557   6.808   6.088
 7011SOL    HW121932   2.490   6.801   6.161
 7011SOL    HW221933   2.542   6.736   6.021
 7012SOL     OW21934   0.090   3.434   0.752
 7012SOL    HW121935   0.053   3.343   0.733
 7012SOL    HW221936   0.097   3.448   0.851
 7013SOL     OW21937   3.484   2.840   7.002
 7013SOL    HW121938   3.519   2.779   0.053
 7013SOL    HW221939   3.417   2.791   6.946
 7014SOL     OW21940   6.051   3.279   0.177
 7014SOL    HW121941   5.988   3.208   0.209
 7014SOL    HW221942   6.136   3.237   0.146
 7015SOL     OW21943   6.441   6.136   1.113
 7015SOL    HW121944   6.514   6.069   1.123
 7015SOL    HW221945   6.430   6.187   1.199
 7016SOL     OW21946   3.175   4.725   1.204
 7016SOL    HW121947   3.117   4.751   1.126
 7016SOL    HW221948   3.124   4.665   1.265
 7017SOL     OW21949   6.283   4.590   6.167
 7017SOL    HW121950   6.298   4.589   6.266
 7017SOL    HW221951   6.294   4.497   6.131
 7018SOL     OW21952   5.492   3.777   5.194
 7018SOL    HW121953   5.452   3.749   5.281
 7018SOL    HW221954   5.477   3.875   5.181
 7019SOL     OW21955   3.740   5.540   2.083
 7019SOL    HW121956   3.830   5.581   2.072
 7019SOL    HW221957   3.733   5.457   2.028
 7020SOL     OW21958   0.939   2.159   6.718
 7020SOL    HW121959   1.000   2.097   6.768
 7020SOL    HW221960   0.888   2.108   6.649
 7021SOL     OW21961   1.164   1.604   4.751
 7021SOL    HW121962   1.210   1.648   4.675
 7021SOL    HW221963   1.091   1.545   4.717
 7022SOL     OW21964   2.369   3.977   0.897
 7022SOL    HW121965   2.285   3.998   0.848
 7022SOL    HW221966   2.383   3.878   0.898
 7023SOL     OW21967   0.253   1.732   0.724
 7023SOL    HW121968   0.201   1.659   0.769
 7023SOL    HW221969   0.347   1.729   0.757
 7024SOL     OW21970   3.234   4.161   5.119
 7024SOL    HW121971   3.183   4.221   5.180
 7024SOL    HW221972   3.177   4.136   5.041
 7025SOL     OW21973   3.055   0.947   1.237
 7025SOL    HW121974   3.046   0.996   1.150
 7025SOL    HW221975   3.064   0.849   1.219
 7026SOL     OW21976   3.163   2.151   1.033
 7026SOL    HW121977   3.086   2.087   1.027
 7026SOL    HW221978   3.135   2.231   1.085
 7027SOL     OW21979   3.269   4.833   2.030
 7027SOL    HW121980   3.366   4.810   2.021
 7027SOL    HW221981   3.216   4.779   1.964
 7028SOL     OW21982   3.593   0.362   3.573
 7028SOL    HW121983   3.560   0.353   3.479
 7028SOL    HW221984   3.590   0.458   3.601
 7029SOL     OW21985   3.450   3.936   3.845
 7029SOL    HW121986   3.419   4.001   3.914
 7029SOL    HW221987   3.489   3.985   3.768
 7030SOL     OW21988   6.154   0.114   5.289
 7030SOL    HW121989   6.210   0.070   5.219
 7030SOL    HW221990   6.201   0.110   5.377
 7031SOL     OW21991   4.694   5.752   0.911
 7031SOL    HW121992   4.765   5.685   0.888
 7031SOL    HW221993   4.604   5.712   0.893
 7032SOL     OW21994   4.336   5.098   4.680
 7032SOL    HW121995   4.392   5.108   4.762
 7032SOL    HW221996   4.260   5.034   4.699
 7033SOL     OW21997   1.693   1.641   5.289
 7033SOL    HW121998   1.615   1.688   5.248
 7033SOL    HW221999   1.741   1.703   5.351
 7034SOL     OW22000   6.497   1.728   2.121
 7034SOL    HW122001   6.550   1.676   2.188
 7034SOL    HW222002   6.474   1.669   2.044
 7035SOL     OW22003   2.844   1.643   1.591
 7035SOL    HW122004   2.799   1.714   1.646
 7035SOL    HW222005   2.811   1.648   1.497
 7036SOL     OW22006   6.047   1.539   1.638
 7036SOL    HW122007   5.950   1.519   1.623
 7036SOL    HW222008   6.059   1.581   1.728
 7037SOL     OW22009   1.668   0.386   6.377
 7037SOL    HW122010   1.711   0.379   6.467
 7037SOL    HW222011   1.726   0.440   6.317
 7038SOL     OW22012   1.019   4.662   0.792
 7038SOL    HW122013   1.087   4.629   0.727
 7038SOL    HW222014   1.060   4.666   0.883
 7039SOL     OW22015   6.664   0.306   1.683
 7039SOL    HW122016   6.712   0.357   1.753
 7039SOL    HW222017   6.648   0.212   1.715
 7040SOL     OW22018   5.647   2.881   5.385
 7040SOL    HW122019   5.591   2.944   5.440
 7040SOL    HW222020   5.726   2.931   5.348
 7041SOL     OW22021   1.185   0.360   3.821
 7041SOL    HW122022   1.273   0.392   3.856
 7041SOL    HW222023   1.128   0.328   3.896
 7042SOL     OW22024   6.142   6.004   5.451
 7042SOL    HW122025   6.156   6.006   5.550
 7042SOL    HW222026   6.175   5.916   5.415
 7043SOL     OW22027   1.835   5.852   0.766
 7043SOL    HW122028   1.773   5.820   0.694
 7043SOL    HW222029   1.803   5.940   0.801
 7044SOL     OW22030   4.495   6.351   5.264
 7044SOL    HW122031   4.549   6.397   5.193
 7044SOL    HW222032   4.550   6.341   5.347
 7045SOL     OW22033   6.023   6.068   2.108
 7045SOL    HW122034   5.980   5.978   2.098
 7045SOL    HW222035   5.968   6.137   2.061
 7046SOL     OW22036   2.314   1.661   3.193
 7046SOL    HW122037   2.388   1.607   3.232
 7046SOL    HW222038   2.335   1.758   3.202
 7047SOL     OW22039   1.275   7.002   0.979
 7047SOL    HW122040   1.184   7.016   1.018
 7047SOL    HW222041   1.339   6.978   1.052
 7048SOL     OW22042   0.600   6.204   3.620
 7048SOL    HW122043   0.614   6.270   3.546
 7048SOL    HW222044   0.523   6.145   3.598
 7049SOL     OW22045   3.298   1.418   4.605
 7049SOL    HW122046   3.251   1.374   4.681
 7049SOL    HW222047   3.321   1.512   4.629
 7050SOL     OW22048   3.959   4.242   0.799
 7050SOL    HW122049   3.929   4.206   0.887
 7050SOL    HW222050   3.900   4.318   0.772
 7051SOL     OW22051   1.524   1.945   1.747
 7051SOL    HW122052   1.518   1.928   1.845
 7051SOL    HW222053   1.458   1.887   1.699
 7052SOL     OW22054   5.062   2.499   2.919
 7052SOL    HW122055   5.024   2.461   2.835
 7052SOL    HW222056   5.033   2.443   2.997
 7053SOL     OW22057   1.516   5.060   3.722
 7053SOL    HW122058   1.601   5.051   3.671
 7053SOL    HW222059   1.492   4.973   3.764
 7054SOL     OW22060   5.457   0.073   6.832
 7054SOL    HW122061   5.420   7.004   6.857
 7054SOL    HW222062   5.382   0.138   6.820
 7055SOL     OW22063   2.339   6.842   0.462
 7055SOL    HW122064   2.426   6.891   0.470
 7055SOL    HW222065   2.264   6.909   0.456
 7056SOL     OW22066   6.741   5.315   0.890
 7056SOL    HW122067   6.641   5.316   0.880
 7056SOL    HW222068   6.766   5.349   0.980
 7057SOL     OW22069   3.387   5.889   4.807
 7057SOL    HW122070   3.478   5.905   4.770
 7057SOL    HW222071   3.370   5.790   4.812
 7058SOL     OW22072   6.422   2.220   6.138
 7058SOL    HW122073   6.386   2.131   6.163
 7058SOL    HW222074   6.388   2.289   6.202
 7059SOL     OW22075   1.784   0.392   5.199
 7059SOL    HW122076   1.705   0.449   5.220
 7059SOL    HW222077   1.765   0.336   5.118
 7060SOL     OW22078   3.367   2.525   1.545
 7060SOL    HW122079   3.328   2.606   1.590
 7060SOL    HW222080   3.303   2.449   1.552
 7061SOL     OW22081   1.881   1.032   1.645
 7061SOL    HW122082   1.905   0.944   1.686
 7061SOL    HW222083   1.870   1.021   1.546
 7062SOL     OW22084   3.294   0.773   4.526
 7062SOL    HW122085   3.285   0.862   4.481
 7062SOL    HW222086   3.247   0.703   4.471
 7063SOL     OW22087   6.992   1.156   1.786
 7063SOL    HW122088   0.069   1.153   1.808
 7063SOL    HW222089   6.962   1.252   1.783
 7064SOL     OW22090   3.038   1.204   5.739
 7064SOL    HW122091   2.979   1.261   5.682
 7064SOL    HW222092   2.984   1.162   5.811
 7065SOL     OW22093   3.343   6.166   4.878
 7065SOL    HW122094   3.332   6.066   4.877
 7065SOL    HW222095   3.440   6.189   4.882
 7066SOL     OW22096   3.079   0.570   1.376
 7066SOL    HW122097   3.107   0.618   1.293
 7066SOL    HW222098   3.112   0.621   1.456
 7067SOL     OW22099   2.175   4.446   6.319
 7067SOL    HW122100   2.086   4.406   6.338
 7067SOL    HW222101   2.191   4.522   6.382
 7068SOL     OW22102   5.017   4.251   4.484
 7068SOL    HW122103   5.055   4.234   4.575
 7068SOL    HW222104   5.087   4.293   4.426
 7069SOL     OW22105   4.923   0.823   5.689
 7069SOL    HW122106   5.002   0.783   5.735
 7069SOL    HW222107   4.925   0.797   5.592
 7070SOL     OW22108   0.309   1.045   5.873
 7070SOL    HW122109   0.263   1.130   5.847
 7070SOL    HW222110   0.352   1.056   5.963
 7071SOL     OW22111   4.536   5.784   6.470
 7071SOL    HW122112   4.442   5.796   6.501
 7071SOL    HW222113   4.540   5.795   6.371
 7072SOL     OW22114   0.869   3.938   6.332
 7072SOL    HW122115   0.826   3.848   6.322
 7072SOL    HW222116   0.941   3.933   6.401
 7073SOL     OW22117   4.657   1.087   3.730
 7073SOL    HW122118   4.746   1.048   3.753
 7073SOL    HW222119   4.607   1.107   3.814
 7074SOL     OW22120   6.052   3.960   1.882
 7074SOL    HW122121   6.148   3.986   1.864
 7074SOL    HW222122   6.048   3.903   1.964
 7075SOL     OW22123   2.457   5.411   2.546
 7075SOL    HW122124   2.384   5.370   2.602
 7075SOL    HW222125   2.419   5.436   2.456
 7076SOL     OW22126   5.757   1.873   1.375
 7076SOL    HW122127   5.740   1.783   1.334
 7076SOL    HW222128   5.852   1.899   1.361
 7077SOL     OW22129   3.596   6.040   1.353
 7077SOL    HW122130   3.510   6.032   1.403
 7077SOL    HW222131   3.659   5.968   1.384
 7078SOL     OW22132   6.735   1.341   6.406
 7078SOL    HW122133   6.683   1.426   6.404
 7078SOL    HW222134   6.677   1.268   6.443
 7079SOL     OW22135   2.084   5.476   5.006
 7079SOL    HW122136   1.999   5.428   4.986
 7079SOL    HW222137   2.162   5.421   4.975
 7080SOL     OW22138   4.372   1.375   6.080
 7080SOL    HW122139   4.366   1.300   6.146
 7080SOL    HW222140   4.281   1.394   6.042
 7081SOL     OW22141   2.146   6.405   0.175
 7081SOL    HW122142   2.083   6.480   0.196
 7081SOL    HW222143   2.240   6.440   0.176
 7082SOL     OW22144   0.640   4.117   2.290
 7082SOL    HW122145   0.580   4.186   2.330
 7082SOL    HW222146   0.658   4.140   2.194
 7083SOL     OW22147   5.427   2.859   3.222
 7083SOL    HW122148   5.420   2.867   3.123
 7083SOL    HW222149   5.508   2.909   3.254
 7084SOL     OW22150   1.006   5.289   0.770
 7084SOL    HW122151   1.010   5.340   0.684
 7084SOL    HW222152   1.035   5.347   0.846
 7085SOL     OW22153   0.265   4.123   2.623
 7085SOL    HW122154   0.223   4.169   2.546
 7085SOL    HW222155   0.353   4.166   2.644
 7086SOL     OW22156   4.745   0.688   3.521
 7086SOL    HW122157   4.678   0.725   3.585
 7086SOL    HW222158   4.788   0.762   3.470
 7087SOL     OW22159   5.379   2.428   3.364
 7087SOL    HW122160   5.439   2.428   3.444
 7087SOL    HW222161   5.381   2.338   3.321
 7088SOL     OW22162   5.926   2.594   5.367
 7088SOL    HW122163   5.963   2.509   5.330
 7088SOL    HW222164   5.955   2.670   5.309
 7089SOL     OW22165   3.088   5.684   0.821
 7089SOL    HW122166   3.065   5.781   0.834
 7089SOL    HW222167   3.011   5.628   0.852
 7090SOL     OW22168   4.652   2.890   0.705
 7090SOL    HW122169   4.726   2.838   0.748
 7090SOL    HW222170   4.679   2.917   0.613
 7091SOL     OW22171   6.278   0.007   6.832
 7091SOL    HW122172   6.203   7.007   6.769
 7091SOL    HW222173   6.360   6.980   6.802
 7092SOL     OW22174   4.221   0.188   6.359
 7092SOL    HW122175   4.179   0.203   6.448
 7092SOL    HW222176   4.290   0.259   6.343
 7093SOL     OW22177   3.450   3.439   0.256
 7093SOL    HW122178   3.471   3.442   0.354
 7093SOL    HW222179   3.381   3.369   0.239
 7094SOL     OW22180   4.582   1.133   5.135
 7094SOL    HW122181   4.681   1.134   5.125
 7094SOL    HW222182   4.555   1.057   5.193
 7095SOL     OW22183   2.803   4.727   4.150
 7095SOL    HW122184   2.790   4.717   4.052
 7095SOL    HW222185   2.742   4.665   4.199
 7096SOL     OW22186   6.043   6.206   0.426
 7096SOL    HW122187   6.006   6.292   0.461
 7096SOL    HW222188   6.116   6.173   0.486
 7097SOL     OW22189   5.161   1.617   2.715
 7097SOL    HW122190   5.120   1.531   2.683
 7097SOL    HW222191   5.241   1.638   2.659
 7098SOL     OW22192   0.583   1.289   2.811
 7098SOL    HW122193   0.499   1.263   2.763
 7098SOL    HW222194   0.566   1.289   2.910
 7099SOL     OW22195   3.558   1.894   4.484
 7099SOL    HW122196   3.474   1.849   4.455
 7099SOL    HW222197   3.550   1.922   4.580
 7100SOL     OW22198   0.308   4.217   1.488
 7100SOL    HW122199   0.285   4.314   1.490
 7100SOL    HW222200   0.322   4.188   1.393
 7101SOL     OW22201   2.806   5.593   3.785
 7101SOL    HW122202   2.854   5.582   3.872
 7101SOL    HW222203   2.830   5.518   3.724
 7102SOL     OW22204   5.204   1.262   2.881
 7102SOL    HW122205   5.120   1.291   2.926
 7102SOL    HW222206   5.277   1.252   2.949
 7103SOL     OW22207   5.477   4.091   3.757
 7103SOL    HW122208   5.548   4.067   3.692
 7103SOL    HW222209   5.511   4.080   3.850
 7104SOL     OW22210   5.014   2.583   4.710
 7104SOL    HW122211   5.020   2.613   4.805
 7104SOL    HW222212   4.970   2.654   4.655
 7105SOL     OW22213   3.525   4.102   2.494
 7105SOL    HW122214   3.625   4.098   2.505
 7105SOL    HW222215   3.486   4.151   2.572
 7106SOL     OW22216   2.944   2.086   2.192
 7106SOL    HW122217   2.896   2.162   2.149
 7106SOL    HW222218   2.928   2.088   2.291
 7107SOL     OW22219   3.866   0.952   6.726
 7107SOL    HW122220   3.832   1.012   6.798
 7107SOL    HW222221   3.810   0.961   6.644
 7108SOL     OW22222   3.774   0.461   1.867
 7108SOL    HW122223   3.787   0.494   1.773
 7108SOL    HW222224   3.712   0.523   1.915
 7109SOL     OW22225   3.254   4.991   5.593
 7109SOL    HW122226   3.282   5.080   5.629
 7109SOL    HW222227   3.157   4.995   5.567
 7110SOL     OW22228   2.619   6.095   5.424
 7110SOL    HW122229   2.616   6.000   5.392
 7110SOL    HW222230   2.714   6.125   5.430
 7111SOL     OW22231   6.432   1.082   4.799
 7111SOL    HW122232   6.338   1.066   4.829
 7111SOL    HW222233   6.448   1.034   4.713
 7112SOL     OW22234   0.128   5.338   5.326
 7112SOL    HW122235   0.169   5.247   5.329
 7112SOL    HW222236   0.050   5.337   5.264
 7113SOL     OW22237   3.217   6.768   5.077
 7113SOL    HW122238   3.282   6.830   5.120
 7113SOL    HW222239   3.245   6.749   4.983
 7114SOL     OW22240   5.561   3.885   0.787
 7114SOL    HW122241   5.516   3.840   0.864
 7114SOL    HW222242   5.646   3.927   0.817
 7115SOL     OW22243   4.752   3.044   6.208
 7115SOL    HW122244   4.746   3.139   6.177
 7115SOL    HW222245   4.670   2.995   6.178
 7116SOL     OW22246   6.471   4.771   4.960
 7116SOL    HW122247   6.505   4.828   5.035
 7116SOL    HW222248   6.466   4.825   4.877
 7117SOL     OW22249   4.654   0.421   2.881
 7117SOL    HW122250   4.592   0.415   2.959
 7117SOL    HW222251   4.663   0.517   2.852
 7118SOL     OW22252   4.351   4.351   5.888
 7118SOL    HW122253   4.426   4.302   5.932
 7118SOL    HW222254   4.384   4.440   5.854
 7119SOL     OW22255   2.845   6.552   4.678
 7119SOL    HW122256   2.913   6.481   4.658
 7119SOL    HW222257   2.763   6.509   4.717
 7120SOL     OW22258   4.066   1.590   1.550
 7120SOL    HW122259   4.083   1.529   1.473
 7120SOL    HW222260   4.004   1.664   1.522
 7121SOL     OW22261   1.207   6.183   2.158
 7121SOL    HW122262   1.279   6.232   2.208
 7121SOL    HW222263   1.127   6.173   2.217
 7122SOL     OW22264   3.916   1.790   6.452
 7122SOL    HW122265   3.975   1.731   6.397
 7122SOL    HW222266   3.904   1.877   6.406
 7123SOL     OW22267   5.013   4.495   6.218
 7123SOL    HW122268   4.970   4.442   6.145
 7123SOL    HW222269   4.954   4.496   6.298
 7124SOL     OW22270   2.835   2.994   0.255
 7124SOL    HW122271   2.799   2.903   0.235
 7124SOL    HW222272   2.785   3.062   0.201
 7125SOL     OW22273   1.073   6.582   1.874
 7125SOL    HW122274   1.044   6.488   1.892
 7125SOL    HW222275   1.173   6.584   1.862
 7126SOL     OW22276   4.083   4.779   1.232
 7126SOL    HW122277   4.058   4.689   1.268
 7126SOL    HW222278   4.161   4.815   1.285
 7127SOL     OW22279   2.938   6.122   6.276
 7127SOL    HW122280   2.864   6.063   6.242
 7127SOL    HW222281   3.015   6.120   6.212
 7128SOL     OW22282   3.520   4.176   0.142
 7128SOL    HW122283   3.484   4.142   0.056
 7128SOL    HW222284   3.605   4.127   0.164
 7129SOL     OW22285   0.143   0.569   0.018
 7129SOL    HW122286   0.075   0.562   0.091
 7129SOL    HW222287   0.186   0.480   0.004
 7130SOL     OW22288   3.612   0.494   4.208
 7130SOL    HW122289   3.657   0.503   4.120
 7130SOL    HW222290   3.680   0.497   4.281
 7131SOL     OW22291   2.324   1.564   2.429
 7131SOL    HW122292   2.293   1.644   2.378
 7131SOL    HW222293   2.337   1.589   2.525
 7132SOL     OW22294   4.950   4.353   1.908
 7132SOL    HW122295   4.853   4.335   1.925
 7132SOL    HW222296   4.996   4.268   1.882
 7133SOL     OW22297   4.609   6.286   2.876
 7133SOL    HW122298   4.574   6.276   2.783
 7133SOL    HW222299   4.636   6.197   2.911
 7134SOL     OW22300   4.701   4.989   0.290
 7134SOL    HW122301   4.761   4.969   0.367
 7134SOL    HW222302   4.617   5.032   0.323
 7135SOL     OW22303   2.117   4.459   1.259
 7135SOL    HW122304   2.147   4.533   1.197
 7135SOL    HW222305   2.030   4.484   1.301
 7136SOL     OW22306   1.240   2.626   1.620
 7136SOL    HW122307   1.329   2.665   1.599
 7136SOL    HW222308   1.174   2.652   1.549
 7137SOL     OW22309   2.664   1.019   2.544
 7137SOL    HW122310   2.749   0.995   2.591
 7137SOL    HW222311   2.674   0.998   2.446
 7138SOL     OW22312   6.862   3.082   6.966
 7138SOL    HW122313   6.887   3.175   6.992
 7138SOL    HW222314   6.763   3.075   6.958
 7139SOL     OW22315   5.823   5.528   1.168
 7139SOL    HW122316   5.917   5.503   1.193
 7139SOL    HW222317   5.782   5.453   1.115
 7140SOL     OW22318   0.011   5.124   0.368
 7140SOL    HW122319   6.989   5.118   0.458
 7140SOL    HW222320   6.962   5.146   0.300
 7141SOL     OW22321   3.579   1.457   1.076
 7141SOL    HW122322   3.489   1.436   1.037
 7141SOL    HW222323   3.576   1.547   1.120
 7142SOL     OW22324   4.673   0.131   5.181
 7142SOL    HW122325   4.584   0.104   5.144
 7142SOL    HW222326   4.746   0.086   5.130
 7143SOL     OW22327   3.179   2.508   6.114
 7143SOL    HW122328   3.179   2.590   6.171
 7143SOL    HW222329   3.134   2.527   6.027
 7144SOL     OW22330   6.636   1.223   5.603
 7144SOL    HW122331   6.645   1.138   5.550
 7144SOL    HW222332   6.618   1.299   5.541
 7145SOL     OW22333   6.552   2.192   5.895
 7145SOL    HW122334   6.499   2.205   5.979
 7145SOL    HW222335   6.500   2.226   5.817
 7146SOL     OW22336   0.201   1.698   4.396
 7146SOL    HW122337   0.240   1.686   4.487
 7146SOL    HW222338   0.104   1.674   4.398
 7147SOL     OW22339   6.918   0.046   1.154
 7147SOL    HW122340   7.015   0.023   1.143
 7147SOL    HW222341   6.878   0.064   1.064
 7148SOL     OW22342   5.635   6.941   0.931
 7148SOL    HW122343   5.623   6.877   1.006
 7148SOL    HW222344   5.630   6.892   0.844
 7149SOL     OW22345   5.465   4.101   6.159
 7149SOL    HW122346   5.503   4.030   6.219
 7149SOL    HW222347   5.521   4.183   6.165
 7150SOL     OW22348   2.957   2.299   0.083
 7150SOL    HW122349   2.868   2.256   0.070
 7150SOL    HW222350   2.949   2.398   0.070
 7151SOL     OW22351   5.463   1.234   0.102
 7151SOL    HW122352   5.458   1.334   0.108
 7151SOL    HW222353   5.403   1.202   0.029
 7152SOL     OW22354   4.801   0.119   5.428
 7152SOL    HW122355   4.744   0.142   5.348
 7152SOL    HW222356   4.853   0.036   5.409
 7153SOL     OW22357   4.065   5.983   0.719
 7153SOL    HW122358   3.975   5.940   0.709
 7153SOL    HW222359   4.135   5.912   0.723
 7154SOL     OW22360   5.160   0.966   1.758
 7154SOL    HW122361   5.208   0.881   1.776
 7154SOL    HW222362   5.226   1.041   1.748
 7155SOL     OW22363   1.678   0.025   1.204
 7155SOL    HW122364   1.727   6.974   1.154
 7155SOL    HW222365   1.707   0.023   1.300
 7156SOL     OW22366   6.409   3.780   5.542
 7156SOL    HW122367   6.315   3.752   5.522
 7156SOL    HW222368   6.409   3.858   5.604
 7157SOL     OW22369   0.201   3.891   5.759
 7157SOL    HW122370   0.130   3.961   5.752
 7157SOL    HW222371   0.246   3.881   5.670
 7158SOL     OW22372   5.331   0.301   3.897
 7158SOL    HW122373   5.330   0.360   3.817
 7158SOL    HW222374   5.406   0.329   3.958
 7159SOL     OW22375   0.738   6.185   3.243
 7159SOL    HW122376   0.706   6.157   3.153
 7159SOL    HW222377   0.801   6.263   3.233
 7160SOL     OW22378   5.771   0.011   2.586
 7160SOL    HW122379   5.798   0.052   2.498
 7160SOL    HW222380   5.725   0.079   2.642
 7161SOL     OW22381   3.893   3.661   2.178
 7161SOL    HW122382   3.968   3.641   2.116
 7161SOL    HW222383   3.843   3.741   2.146
 7162SOL     OW22384   0.069   6.196   0.892
 7162SOL    HW122385   0.006   6.137   0.943
 7162SOL    HW222386   0.073   6.165   0.797
 7163SOL     OW22387   6.837   0.105   0.894
 7163SOL    HW122388   6.738   0.095   0.887
 7163SOL    HW222389   6.882   0.043   0.830
 7164SOL     OW22390   1.641   0.364   0.065
 7164SOL    HW122391   1.727   0.411   0.048
 7164SOL    HW222392   1.635   0.340   0.162
 7165SOL     OW22393   4.920   2.063   6.799
 7165SOL    HW122394   5.018   2.060   6.782
 7165SOL    HW222395   4.895   2.153   6.837
 7166SOL     OW22396   6.651   5.453   5.241
 7166SOL    HW122397   6.740   5.496   5.227
 7166SOL    HW222398   6.579   5.508   5.199
 7167SOL     OW22399   0.378   3.254   5.584
 7167SOL    HW122400   0.401   3.263   5.487
 7167SOL    HW222401   0.314   3.178   5.597
 7168SOL     OW22402   1.405   1.170   2.497
 7168SOL    HW122403   1.429   1.147   2.591
 7168SOL    HW222404   1.347   1.252   2.497
 7169SOL     OW22405   1.532   4.642   5.859
 7169SOL    HW122406   1.623   4.605   5.872
 7169SOL    HW222407   1.472   4.572   5.820
 7170SOL     OW22408   4.048   1.828   0.866
 7170SOL    HW122409   4.111   1.854   0.939
 7170SOL    HW222410   3.963   1.792   0.906
 7171SOL     OW22411   6.889   4.408   1.008
 7171SOL    HW122412   6.796   4.373   1.014
 7171SOL    HW222413   6.954   4.334   1.024
 7172SOL     OW22414   0.573   2.392   3.560
 7172SOL    HW122415   0.637   2.419   3.489
 7172SOL    HW222416   0.560   2.466   3.625
 7173SOL     OW22417   3.669   5.748   4.979
 7173SOL    HW122418   3.742   5.720   4.916
 7173SOL    HW222419   3.704   5.749   5.072
 7174SOL     OW22420   6.513   3.952   2.358
 7174SOL    HW122421   6.437   3.894   2.328
 7174SOL    HW222422   6.596   3.896   2.367
 7175SOL     OW22423   6.630   3.768   5.892
 7175SOL    HW122424   6.626   3.719   5.979
 7175SOL    HW222425   6.655   3.705   5.819
 7176SOL     OW22426   0.434   1.160   6.389
 7176SOL    HW122427   0.464   1.070   6.421
 7176SOL    HW222428   0.335   1.169   6.406
 7177SOL     OW22429   1.402   5.504   3.215
 7177SOL    HW122430   1.440   5.587   3.174
 7177SOL    HW222431   1.397   5.516   3.315
 7178SOL     OW22432   0.945   6.434   5.715
 7178SOL    HW122433   1.012   6.507   5.730
 7178SOL    HW222434   0.933   6.419   5.617
 7179SOL     OW22435   4.280   4.785   6.080
 7179SOL    HW122436   4.295   4.883   6.093
 7179SOL    HW222437   4.224   4.771   5.998
 7180SOL     OW22438   1.399   2.940   2.125
 7180SOL    HW122439   1.412   2.853   2.172
 7180SOL    HW222440   1.487   2.971   2.089
 7181SOL     OW22441   2.649   0.623   0.522
 7181SOL    HW122442   2.647   0.627   0.422
 7181SOL    HW222443   2.590   0.695   0.559
 7182SOL     OW22444   1.841   1.281   3.238
 7182SOL    HW122445   1.853   1.207   3.303
 7182SOL    HW222446   1.883   1.364   3.274
 7183SOL     OW22447   1.317   0.159   1.759
 7183SOL    HW122448   1.219   0.143   1.767
 7183SOL    HW222449   1.357   0.167   1.850
 7184SOL     OW22450   0.077   0.890   3.749
 7184SOL    HW122451   7.001   0.913   3.750
 7184SOL    HW222452   0.088   0.794   3.725
 7185SOL     OW22453   3.952   0.519   3.753
 7185SOL    HW122454   3.885   0.485   3.819
 7185SOL    HW222455   3.968   0.451   3.683
 7186SOL     OW22456   6.539   1.008   6.458
 7186SOL    HW122457   6.480   1.002   6.539
 7186SOL    HW222458   6.635   1.010   6.487
 7187SOL     OW22459   3.453   3.178   4.138
 7187SOL    HW122460   3.373   3.238   4.134
 7187SOL    HW222461   3.527   3.219   4.084
 7188SOL     OW22462   4.804   4.845   0.669
 7188SOL    HW122463   4.739   4.772   0.646
 7188SOL    HW222464   4.844   4.881   0.585
 7189SOL     OW22465   6.915   2.312   5.952
 7189SOL    HW122466   6.858   2.303   5.870
 7189SOL    HW222467   6.957   2.223   5.973
 7190SOL     OW22468   6.065   5.464   6.984
 7190SOL    HW122469   6.146   5.500   6.937
 7190SOL    HW222470   6.031   5.532   0.028
 7191SOL     OW22471   6.862   4.934   2.043
 7191SOL    HW122472   6.923   4.870   2.090
 7191SOL    HW222473   6.795   4.970   2.108
 7192SOL     OW22474   2.640   3.857   5.316
 7192SOL    HW122475   2.607   3.788   5.380
 7192SOL    HW222476   2.566   3.884   5.255
 7193SOL     OW22477   3.700   1.583   3.842
 7193SOL    HW122478   3.752   1.668   3.840
 7193SOL    HW222479   3.686   1.554   3.937
 7194SOL     OW22480   2.683   2.090   5.880
 7194SOL    HW122481   2.763   2.035   5.907
 7194SOL    HW222482   2.694   2.183   5.916
 7195SOL     OW22483   0.845   3.327   5.949
 7195SOL    HW122484   0.933   3.360   5.983
 7195SOL    HW222485   0.861   3.263   5.873
 7196SOL     OW22486   2.899   3.724   1.459
 7196SOL    HW122487   2.949   3.675   1.388
 7196SOL    HW222488   2.964   3.765   1.523
 7197SOL     OW22489   3.571   5.014   0.088
 7197SOL    HW122490   3.575   5.110   0.058
 7197SOL    HW222491   3.489   5.000   0.143
 7198SOL     OW22492   0.979   0.602   1.902
 7198SOL    HW122493   0.999   0.541   1.826
 7198SOL    HW222494   0.884   0.633   1.895
 7199SOL     OW22495   5.777   1.048   3.319
 7199SOL    HW122496   5.857   1.108   3.308
 7199SOL    HW222497   5.808   0.953   3.324
 7200SOL     OW22498   0.976   3.130   6.833
 7200SOL    HW122499   1.050   3.193   6.809
 7200SOL    HW222500   0.912   3.124   6.756
 7201SOL     OW22501   6.052   6.249   3.874
 7201SOL    HW122502   6.001   6.209   3.950
 7201SOL    HW222503   6.100   6.176   3.825
 7202SOL     OW22504   4.863   0.018   5.973
 7202SOL    HW122505   4.795   0.090   5.962
 7202SOL    HW222506   4.824   6.964   6.027
 7203SOL     OW22507   0.482   1.720   0.858
 7203SOL    HW122508   0.455   1.649   0.922
 7203SOL    HW222509   0.550   1.780   0.901
 7204SOL     OW22510   5.844   1.062   2.171
 7204SOL    HW122511   5.867   1.053   2.268
 7204SOL    HW222512   5.852   1.158   2.143
 7205SOL     OW22513   3.021   1.229   4.264
 7205SOL    HW122514   2.932   1.274   4.274
 7205SOL    HW222515   3.038   1.210   4.168
 7206SOL     OW22516   2.080   3.601   0.072
 7206SOL    HW122517   2.161   3.654   0.093
 7206SOL    HW222518   2.063   3.535   0.144
 7207SOL     OW22519   1.913   1.362   2.849
 7207SOL    HW122520   1.962   1.284   2.887
 7207SOL    HW222521   1.847   1.396   2.915
 7208SOL     OW22522   3.711   0.575   3.977
 7208SOL    HW122523   3.757   0.662   3.991
 7208SOL    HW222524   3.653   0.580   3.896
 7209SOL     OW22525   3.611   1.130   2.205
 7209SOL    HW122526   3.638   1.170   2.118
 7209SOL    HW222527   3.521   1.166   2.232
 7210SOL     OW22528   3.654   1.540   4.111
 7210SOL    HW122529   3.626   1.445   4.122
 7210SOL    HW222530   3.750   1.550   4.139
 7211SOL     OW22531   3.989   6.253   5.864
 7211SOL    HW122532   3.908   6.311   5.877
 7211SOL    HW222533   3.961   6.159   5.848
 7212SOL     OW22534   0.849   5.454   5.452
 7212SOL    HW122535   0.761   5.412   5.475
 7212SOL    HW222536   0.921   5.386   5.460
 7213SOL     OW22537   4.404   2.788   0.096
 7213SOL    HW122538   4.435   2.817   0.187
 7213SOL    HW222539   4.305   2.773   0.097
 7214SOL     OW22540   6.011   0.998   6.175
 7214SOL    HW122541   5.948   0.932   6.215
 7214SOL    HW222542   6.083   1.020   6.242
 7215SOL     OW22543   6.652   1.640   2.337
 7215SOL    HW122544   6.637   1.572   2.408
 7215SOL    HW222545   6.645   1.732   2.376
 7216SOL     OW22546   5.442   6.730   3.619
 7216SOL    HW122547   5.374   6.658   3.611
 7216SOL    HW222548   5.521   6.708   3.562
 7217SOL     OW22549   1.294   3.177   3.616
 7217SOL    HW122550   1.323   3.175   3.520
 7217SOL    HW222551   1.299   3.085   3.654
 7218SOL     OW22552   6.540   2.125   5.073
 7218SOL    HW122553   6.609   2.197   5.086
 7218SOL    HW222554   6.467   2.137   5.139
 7219SOL     OW22555   2.619   6.461   2.107
 7219SOL    HW122556   2.680   6.523   2.157
 7219SOL    HW222557   2.601   6.498   2.016
 7220SOL     OW22558   6.493   4.153   3.513
 7220SOL    HW122559   6.531   4.129   3.602
 7220SOL    HW222560   6.564   4.197   3.457
 7221SOL     OW22561   4.192   5.149   3.593
 7221SOL    HW122562   4.235   5.078   3.537
 7221SOL    HW222563   4.100   5.167   3.558
 7222SOL     OW22564   0.370   5.918   4.104
 7222SOL    HW122565   0.402   6.012   4.093
 7222SOL    HW222566   0.344   5.881   4.015
 7223SOL     OW22567   0.013   4.971   1.591
 7223SOL    HW122568   7.019   4.921   1.506
 7223SOL    HW222569   6.995   4.919   1.667
 7224SOL     OW22570   4.556   2.001   2.926
 7224SOL    HW122571   4.488   1.943   2.882
 7224SOL    HW222572   4.535   2.097   2.909
 7225SOL     OW22573   1.077   6.050   0.433
 7225SOL    HW122574   1.034   6.049   0.343
 7225SOL    HW222575   1.159   6.106   0.431
 7226SOL     OW22576   5.868   6.198   0.076
 7226SOL    HW122577   5.936   6.171   0.008
 7226SOL    HW222578   5.854   6.122   0.140
 7227SOL     OW22579   1.854   1.379   2.499
 7227SOL    HW122580   1.809   1.409   2.415
 7227SOL    HW222581   1.872   1.459   2.557
 7228SOL     OW22582   5.878   3.099   2.718
 7228SOL    HW122583   5.833   3.155   2.648
 7228SOL    HW222584   5.974   3.127   2.725
 7229SOL     OW22585   5.851   0.243   5.067
 7229SOL    HW122586   5.892   0.315   5.010
 7229SOL    HW222587   5.782   0.194   5.013
 7230SOL     OW22588   2.181   5.185   4.703
 7230SOL    HW122589   2.091   5.142   4.713
 7230SOL    HW222590   2.209   5.225   4.790
 7231SOL     OW22591   3.867   3.508   6.177
 7231SOL    HW122592   3.944   3.571   6.169
 7231SOL    HW222593   3.901   3.415   6.192
 7232SOL     OW22594   4.556   5.979   3.509
 7232SOL    HW122595   4.637   5.950   3.458
 7232SOL    HW222596   4.477   5.980   3.447
 7233SOL     OW22597   0.492   1.642   6.154
 7233SOL    HW122598   0.537   1.563   6.195
 7233SOL    HW222599   0.478   1.713   6.223
 7234SOL     OW22600   5.622   4.558   3.542
 7234SOL    HW122601   5.525   4.560   3.518
 7234SOL    HW222602   5.645   4.469   3.582
 7235SOL     OW22603   6.330   0.394   1.910
 7235SOL    HW122604   6.411   0.452   1.903
 7235SOL    HW222605   6.299   0.368   1.819
 7236SOL     OW22606   1.147   3.782   2.752
 7236SOL    HW122607   1.166   3.711   2.684
 7236SOL    HW222608   1.166   3.748   2.844
 7237SOL     OW22609   5.488   1.383   0.539
 7237SOL    HW122610   5.398   1.371   0.496
 7237SOL    HW222611   5.475   1.423   0.630
 7238SOL     OW22612   4.140   3.495   0.336
 7238SOL    HW122613   4.198   3.524   0.259
 7238SOL    HW222614   4.054   3.546   0.333
 7239SOL     OW22615   5.646   2.184   2.002
 7239SOL    HW122616   5.642   2.280   1.972
 7239SOL    HW222617   5.595   2.128   1.937
 7240SOL     OW22618   6.990   1.387   0.332
 7240SOL    HW122619   0.047   1.449   0.326
 7240SOL    HW222620   6.980   1.338   0.246
 7241SOL     OW22621   2.057   0.019   2.676
 7241SOL    HW122622   1.996   0.094   2.648
 7241SOL    HW222623   2.070   0.022   2.775
 7242SOL     OW22624   6.908   4.751   5.534
 7242SOL    HW122625   6.954   4.834   5.564
 7242SOL    HW222626   6.913   4.743   5.435
 7243SOL     OW22627   5.279   4.600   6.180
 7243SOL    HW122628   5.192   4.554   6.197
 7243SOL    HW222629   5.331   4.547   6.112
 7244SOL     OW22630   0.270   6.102   6.919
 7244SOL    HW122631   0.342   6.168   6.936
 7244SOL    HW222632   0.307   6.024   6.868
 7245SOL     OW22633   1.329   2.861   6.841
 7245SOL    HW122634   1.350   2.763   6.845
 7245SOL    HW222635   1.306   2.887   6.748
 7246SOL     OW22636   4.124   6.979   3.050
 7246SOL    HW122637   4.034   6.997   3.011
 7246SOL    HW222638   4.116   6.910   3.122
 7247SOL     OW22639   2.909   3.647   4.251
 7247SOL    HW122640   2.982   3.645   4.183
 7247SOL    HW222641   2.822   3.665   4.207
 7248SOL     OW22642   3.058   1.526   5.902
 7248SOL    HW122643   3.124   1.598   5.924
 7248SOL    HW222644   3.051   1.463   5.979
 7249SOL     OW22645   3.871   5.641   2.637
 7249SOL    HW122646   3.915   5.708   2.577
 7249SOL    HW222647   3.803   5.590   2.584
 7250SOL     OW22648   5.691   5.390   5.615
 7250SOL    HW122649   5.604   5.439   5.611
 7250SOL    HW222650   5.695   5.322   5.542
 7251SOL     OW22651   1.202   5.233   4.507
 7251SOL    HW122652   1.161   5.255   4.596
 7251SOL    HW222653   1.251   5.313   4.473
 7252SOL     OW22654   4.089   3.463   2.641
 7252SOL    HW122655   4.098   3.451   2.542
 7252SOL    HW222656   4.103   3.375   2.687
 7253SOL     OW22657   2.383   5.295   4.494
 7253SOL    HW122658   2.387   5.222   4.426
 7253SOL    HW222659   2.323   5.268   4.569
 7254SOL     OW22660   6.032   3.584   4.066
 7254SOL    HW122661   6.077   3.655   4.011
 7254SOL    HW222662   5.943   3.617   4.096
 7255SOL     OW22663   4.703   3.951   0.389
 7255SOL    HW122664   4.681   3.979   0.483
 7255SOL    HW222665   4.799   3.923   0.384
 7256SOL     OW22666   3.395   0.440   4.547
 7256SOL    HW122667   3.354   0.428   4.637
 7256SOL    HW222668   3.488   0.475   4.556
 7257SOL     OW22669   1.191   1.303   4.883
 7257SOL    HW122670   1.183   1.364   4.805
 7257SOL    HW222671   1.152   1.214   4.859
 7258SOL     OW22672   6.147   3.197   2.303
 7258SOL    HW122673   6.199   3.130   2.356
 7258SOL    HW222674   6.173   3.190   2.206
 7259SOL     OW22675   1.471   4.343   2.711
 7259SOL    HW122676   1.534   4.303   2.644
 7259SOL    HW222677   1.519   4.411   2.766
 7260SOL     OW22678   6.045   3.064   0.452
 7260SOL    HW122679   6.108   3.075   0.529
 7260SOL    HW222680   6.057   2.973   0.411
 7261SOL     OW22681   6.732   4.115   6.822
 7261SOL    HW122682   6.720   4.015   6.825
 7261SOL    HW222683   6.643   4.159   6.812
 7262SOL     OW22684   5.091   1.487   4.960
 7262SOL    HW122685   5.028   1.430   4.907
 7262SOL    HW222686   5.164   1.430   4.998
 7263SOL     OW22687   6.908   5.524   5.846
 7263SOL    HW122688   6.969   5.603   5.855
 7263SOL    HW222689   6.917   5.465   5.926
 7264SOL     OW22690   5.382   1.519   1.340
 7264SOL    HW122691   5.323   1.453   1.386
 7264SOL    HW222692   5.469   1.476   1.316
 7265SOL     OW22693   3.890   0.562   5.614
 7265SOL    HW122694   3.949   0.568   5.534
 7265SOL    HW222695   3.934   0.610   5.690
 7266SOL     OW22696   0.362   0.644   3.063
 7266SOL    HW122697   0.269   0.680   3.073
 7266SOL    HW222698   0.363   0.546   3.084
 7267SOL     OW22699   6.600   4.283   4.642
 7267SOL    HW122700   6.641   4.273   4.551
 7267SOL    HW222701   6.663   4.333   4.702
 7268SOL     OW22702   6.140   6.531   4.284
 7268SOL    HW122703   6.179   6.623   4.284
 7268SOL    HW222704   6.049   6.534   4.243
 7269SOL     OW22705   2.468   4.614   4.682
 7269SOL    HW122706   2.479   4.688   4.615
 7269SOL    HW222707   2.525   4.633   4.761
 7270SOL     OW22708   0.940   0.612   5.001
 7270SOL    HW122709   1.038   0.623   5.017
 7270SOL    HW222710   0.889   0.654   5.075
 7271SOL     OW22711   0.522   4.944   3.357
 7271SOL    HW122712   0.467   5.027   3.351
 7271SOL    HW222713   0.473   4.876   3.411
 7272SOL     OW22714   6.351   3.630   1.454
 7272SOL    HW122715   6.431   3.646   1.395
 7272SOL    HW222716   6.281   3.699   1.435
 7273SOL     OW22717   0.856   1.735   5.593
 7273SOL    HW122718   0.797   1.812   5.569
 7273SOL    HW222719   0.800   1.659   5.627
 7274SOL     OW22720   0.361   5.210   6.020
 7274SOL    HW122721   0.433   5.279   6.020
 7274SOL    HW222722   0.310   5.214   5.934
 7275SOL     OW22723   1.038   5.907   4.019
 7275SOL    HW122724   1.064   5.834   3.955
 7275SOL    HW222725   0.955   5.953   3.986
 7276SOL     OW22726   5.008   5.723   3.640
 7276SOL    HW122727   5.023   5.737   3.542
 7276SOL    HW222728   5.018   5.810   3.688
 7277SOL     OW22729   4.887   0.805   0.226
 7277SOL    HW122730   4.963   0.761   0.178
 7277SOL    HW222731   4.806   0.748   0.219
 7278SOL     OW22732   3.395   2.952   2.563
 7278SOL    HW122733   3.413   2.979   2.468
 7278SOL    HW222734   3.297   2.961   2.582
 7279SOL     OW22735   3.418   6.616   6.339
 7279SOL    HW122736   3.390   6.712   6.349
 7279SOL    HW222737   3.342   6.562   6.305
 7280SOL     OW22738   4.672   2.157   5.872
 7280SOL    HW122739   4.638   2.221   5.804
 7280SOL    HW222740   4.595   2.117   5.922
 7281SOL     OW22741   5.249   0.872   6.118
 7281SOL    HW122742   5.254   0.956   6.172
 7281SOL    HW222743   5.304   0.801   6.161
 7282SOL     OW22744   5.192   5.754   2.056
 7282SOL    HW122745   5.225   5.847   2.039
 7282SOL    HW222746   5.257   5.707   2.116
 7283SOL     OW22747   2.128   1.062   4.352
 7283SOL    HW122748   2.107   0.980   4.298
 7283SOL    HW222749   2.045   1.092   4.398
 7284SOL     OW22750   0.721   2.026   5.263
 7284SOL    HW122751   0.699   2.120   5.236
 7284SOL    HW222752   0.819   2.018   5.277
 7285SOL     OW22753   5.591   4.460   1.490
 7285SOL    HW122754   5.559   4.371   1.521
 7285SOL    HW222755   5.669   4.448   1.429
 7286SOL     OW22756   2.085   4.221   0.742
 7286SOL    HW122757   2.139   4.246   0.822
 7286SOL    HW222758   2.093   4.123   0.726
 7287SOL     OW22759   5.731   1.634   5.775
 7287SOL    HW122760   5.661   1.661   5.841
 7287SOL    HW222761   5.753   1.538   5.787
 7288SOL     OW22762   2.857   6.813   6.939
 7288SOL    HW122763   2.762   6.816   6.908
 7288SOL    HW222764   2.872   6.730   6.994
 7289SOL     OW22765   5.431   2.276   4.001
 7289SOL    HW122766   5.447   2.326   4.086
 7289SOL    HW222767   5.462   2.182   4.012
 7290SOL     OW22768   2.717   5.541   4.529
 7290SOL    HW122769   2.631   5.576   4.491
 7290SOL    HW222770   2.739   5.592   4.612
 7291SOL     OW22771   3.360   5.376   1.746
 7291SOL    HW122772   3.311   5.311   1.687
 7291SOL    HW222773   3.347   5.469   1.711
 7292SOL     OW22774   3.308   0.025   4.713
 7292SOL    HW122775   3.315   6.966   4.772
 7292SOL    HW222776   3.312   7.017   4.617
 7293SOL     OW22777   1.927   1.824   6.086
 7293SOL    HW122778   1.837   1.845   6.122
 7293SOL    HW222779   1.919   1.799   5.989
 7294SOL     OW22780   4.450   5.785   0.486
 7294SOL    HW122781   4.532   5.728   0.495
 7294SOL    HW222782   4.474   5.872   0.443
 7295SOL     OW22783   5.323   0.073   1.401
 7295SOL    HW122784   5.364   0.076   1.310
 7295SOL    HW222785   5.229   0.038   1.395
 7296SOL     OW22786   4.083   5.325   2.017
 7296SOL    HW122787   3.994   5.292   1.984
 7296SOL    HW222788   4.150   5.252   2.011
 7297SOL     OW22789   5.435   6.574   2.218
 7297SOL    HW122790   5.427   6.600   2.314
 7297SOL    HW222791   5.518   6.615   2.179
 7298SOL     OW22792   6.465   3.638   4.098
 7298SOL    HW122793   6.398   3.709   4.074
 7298SOL    HW222794   6.416   3.553   4.118
 7299SOL     OW22795   5.327   3.754   6.308
 7299SOL    HW122796   5.374   3.734   6.394
 7299SOL    HW222797   5.232   3.779   6.327
 7300SOL     OW22798   5.003   5.147   1.343
 7300SOL    HW122799   4.918   5.184   1.306
 7300SOL    HW222800   5.081   5.190   1.298
 7301SOL     OW22801   6.523   0.955   6.170
 7301SOL    HW122802   6.523   0.940   6.269
 7301SOL    HW222803   6.544   1.051   6.151
 7302SOL     OW22804   5.628   0.858   6.148
 7302SOL    HW122805   5.601   0.949   6.180
 7302SOL    HW222806   5.558   0.792   6.172
 7303SOL     OW22807   3.434   0.986   0.797
 7303SOL    HW122808   3.475   0.954   0.711
 7303SOL    HW222809   3.505   0.998   0.865
 7304SOL     OW22810   3.630   3.813   5.290
 7304SOL    HW122811   3.564   3.790   5.219
 7304SOL    HW222812   3.719   3.772   5.267
 7305SOL     OW22813   5.592   1.180   0.321
 7305SOL    HW122814   5.542   1.134   0.395
 7305SOL    HW222815   5.528   1.211   0.251
 7306SOL     OW22816   5.222   4.866   1.748
 7306SOL    HW122817   5.244   4.822   1.835
 7306SOL    HW222818   5.129   4.841   1.720
 7307SOL     OW22819   4.217   6.753   2.326
 7307SOL    HW122820   4.200   6.843   2.366
 7307SOL    HW222821   4.181   6.682   2.387
 7308SOL     OW22822   6.159   1.312   4.351
 7308SOL    HW122823   6.155   1.331   4.252
 7308SOL    HW222824   6.176   1.215   4.366
 7309SOL     OW22825   4.465   5.691   2.264
 7309SOL    HW122826   4.385   5.666   2.319
 7309SOL    HW222827   4.520   5.758   2.314
 7310SOL     OW22828   1.879   5.561   1.583
 7310SOL    HW122829   1.830   5.496   1.524
 7310SOL    HW222830   1.977   5.553   1.567
 7311SOL     OW22831   2.694   2.289   2.259
 7311SOL    HW122832   2.771   2.296   2.196
 7311SOL    HW222833   2.728   2.273   2.352
 7312SOL     OW22834   6.996   1.726   5.491
 7312SOL    HW122835   6.958   1.743   5.400
 7312SOL    HW222836   0.052   1.788   5.507
 7313SOL     OW22837   3.838   2.350   6.741
 7313SOL    HW122838   3.740   2.355   6.720
 7313SOL    HW222839   3.886   2.307   6.665
 7314SOL     OW22840   0.749   3.017   4.200
 7314SOL    HW122841   0.656   2.986   4.179
 7314SOL    HW222842   0.746   3.106   4.244
 7315SOL     OW22843   6.949   0.807   5.533
 7315SOL    HW122844   0.002   0.867   5.565
 7315SOL    HW222845   6.881   0.796   5.605
 7316SOL     OW22846   3.666   3.573   5.453
 7316SOL    HW122847   3.633   3.664   5.475
 7316SOL    HW222848   3.749   3.580   5.398
 7317SOL     OW22849   3.152   1.134   3.537
 7317SOL    HW122850   3.147   1.089   3.448
 7317SOL    HW222851   3.213   1.081   3.597
 7318SOL     OW22852   1.430   1.947   1.368
 7318SOL    HW122853   1.376   1.886   1.425
 7318SOL    HW222854   1.470   1.896   1.292
 7319SOL     OW22855   0.067   3.986   6.328
 7319SOL    HW122856   0.124   4.015   6.405
 7319SOL    HW222857   0.105   3.903   6.287
 7320SOL     OW22858   6.716   2.338   2.381
 7320SOL    HW122859   6.650   2.378   2.445
 7320SOL    HW222860   6.807   2.375   2.399
 7321SOL     OW22861   2.752   1.315   4.591
 7321SOL    HW122862   2.808   1.397   4.604
 7321SOL    HW222863   2.683   1.310   4.663
 7322SOL     OW22864   0.489   3.735   1.653
 7322SOL    HW122865   0.420   3.782   1.709
 7322SOL    HW222866   0.568   3.712   1.710
 7323SOL     OW22867   2.084   3.928   3.024
 7323SOL    HW122868   2.082   3.879   2.937
 7323SOL    HW222869   2.020   4.005   3.021
 7324SOL     OW22870   5.441   5.896   2.246
 7324SOL    HW122871   5.467   5.924   2.338
 7324SOL    HW222872   5.393   5.808   2.250
 7325SOL     OW22873   3.047   6.534   0.745
 7325SOL    HW122874   3.137   6.565   0.715
 7325SOL    HW222875   3.038   6.546   0.844
 7326SOL     OW22876   2.590   0.338   4.680
 7326SOL    HW122877   2.535   0.318   4.761
 7326SOL    HW222878   2.534   0.332   4.598
 7327SOL     OW22879   1.599   2.525   5.177
 7327SOL    HW122880   1.578   2.587   5.102
 7327SOL    HW222881   1.535   2.541   5.252
 7328SOL     OW22882   2.600   6.832   6.844
 7328SOL    HW122883   2.561   6.921   6.817
 7328SOL    HW222884   2.535   6.760   6.821
 7329SOL     OW22885   4.368   3.284   1.302
 7329SOL    HW122886   4.468   3.294   1.296
 7329SOL    HW222887   4.332   3.349   1.368
 7330SOL     OW22888   4.569   2.328   0.972
 7330SOL    HW122889   4.519   2.252   0.931
 7330SOL    HW222890   4.664   2.301   0.989
 7331SOL     OW22891   5.226   1.197   2.118
 7331SOL    HW122892   5.127   1.186   2.119
 7331SOL    HW222893   5.270   1.114   2.152
 7332SOL     OW22894   3.463   5.187   1.144
 7332SOL    HW122895   3.399   5.206   1.070
 7332SOL    HW222896   3.424   5.115   1.203
 7333SOL     OW22897   0.369   4.785   2.620
 7333SOL    HW122898   0.439   4.854   2.603
 7333SOL    HW222899   0.382   4.746   2.711
 7334SOL     OW22900   3.789   6.733   4.593
 7334SOL    HW122901   3.735   6.808   4.631
 7334SOL    HW222902   3.856   6.703   4.661
 7335SOL     OW22903   2.283   2.897   2.680
 7335SOL    HW122904   2.358   2.844   2.722
 7335SOL    HW222905   2.199   2.883   2.733
 7336SOL     OW22906   1.874   6.350   4.090
 7336SOL    HW122907   1.817   6.342   4.172
 7336SOL    HW222908   1.947   6.417   4.107
 7337SOL     OW22909   5.054   2.163   2.413
 7337SOL    HW122910   4.966   2.136   2.452
 7337SOL    HW222911   5.094   2.236   2.468
 7338SOL     OW22912   6.486   3.317   0.161
 7338SOL    HW122913   6.414   3.378   0.193
 7338SOL    HW222914   6.566   3.371   0.135
 7339SOL     OW22915   1.518   5.828   4.607
 7339SOL    HW122916   1.475   5.860   4.691
 7339SOL    HW222917   1.447   5.803   4.541
 7340SOL     OW22918   2.498   6.890   6.498
 7340SOL    HW122919   2.419   6.951   6.509
 7340SOL    HW222920   2.481   6.827   6.422
 7341SOL     OW22921   6.709   1.906   0.353
 7341SOL    HW122922   6.613   1.894   0.381
 7341SOL    HW222923   6.764   1.833   0.394
 7342SOL     OW22924   0.249   6.399   2.406
 7342SOL    HW122925   0.314   6.475   2.413
 7342SOL    HW222926   0.287   6.328   2.346
 7343SOL     OW22927   5.665   3.039   0.471
 7343SOL    HW122928   5.648   3.060   0.567
 7343SOL    HW222929   5.686   2.942   0.461
 7344SOL     OW22930   1.782   6.363   6.179
 7344SOL    HW122931   1.789   6.280   6.123
 7344SOL    HW222932   1.689   6.400   6.172
 7345SOL     OW22933   3.302   5.252   6.685
 7345SOL    HW122934   3.203   5.262   6.676
 7345SOL    HW222935   3.347   5.324   6.634
 7346SOL     OW22936   4.208   4.893   2.700
 7346SOL    HW122937   4.135   4.866   2.637
 7346SOL    HW222938   4.291   4.843   2.677
 7347SOL     OW22939   6.258   1.915   0.197
 7347SOL    HW122940   6.173   1.967   0.185
 7347SOL    HW222941   6.259   1.872   0.287
 7348SOL     OW22942   6.212   4.249   0.520
 7348SOL    HW122943   6.127   4.207   0.552
 7348SOL    HW222944   6.278   4.251   0.595
 7349SOL     OW22945   3.881   1.772   1.797
 7349SOL    HW122946   3.918   1.710   1.865
 7349SOL    HW222947   3.949   1.788   1.725
 7350SOL     OW22948   3.571   0.926   4.060
 7350SOL    HW122949   3.531   0.865   4.128
 7350SOL    HW222950   3.561   1.021   4.091
 7351SOL     OW22951   2.495   4.557   3.770
 7351SOL    HW122952   2.502   4.490   3.844
 7351SOL    HW222953   2.452   4.641   3.804
 7352SOL     OW22954   5.793   3.666   4.174
 7352SOL    HW122955   5.793   3.689   4.272
 7352SOL    HW222956   5.700   3.640   4.146
 7353SOL     OW22957   6.614   0.499   5.636
 7353SOL    HW122958   6.658   0.587   5.651
 7353SOL    HW222959   6.684   0.428   5.632
 7354SOL     OW22960   0.566   1.344   3.085
 7354SOL    HW122961   0.636   1.327   3.155
 7354SOL    HW222962   0.519   1.430   3.105
 7355SOL     OW22963   2.981   1.577   0.202
 7355SOL    HW122964   2.912   1.561   0.132
 7355SOL    HW222965   2.968   1.668   0.241
 7356SOL     OW22966   3.936   3.772   6.156
 7356SOL    HW122967   3.862   3.839   6.166
 7356SOL    HW222968   4.002   3.804   6.088
 7357SOL     OW22969   5.082   6.325   1.931
 7357SOL    HW122970   5.126   6.366   2.012
 7357SOL    HW222971   4.986   6.351   1.929
 7358SOL     OW22972   5.453   0.761   3.425
 7358SOL    HW122973   5.486   0.690   3.363
 7358SOL    HW222974   5.358   0.743   3.450
 7359SOL     OW22975   4.645   0.044   1.773
 7359SOL    HW122976   4.605   6.996   1.713
 7359SOL    HW222977   4.632   0.016   1.868
 7360SOL     OW22978   2.945   3.225   4.914
 7360SOL    HW122979   2.962   3.235   4.816
 7360SOL    HW222980   2.848   3.236   4.933
 7361SOL     OW22981   0.070   0.483   2.917
 7361SOL    HW122982   0.042   0.411   2.980
 7361SOL    HW222983   0.100   0.564   2.969
 7362SOL     OW22984   3.444   5.465   0.466
 7362SOL    HW122985   3.428   5.439   0.371
 7362SOL    HW222986   3.520   5.410   0.503
 7363SOL     OW22987   4.241   0.791   0.472
 7363SOL    HW122988   4.195   0.852   0.407
 7363SOL    HW222989   4.333   0.825   0.490
 7364SOL     OW22990   5.836   6.258   1.765
 7364SOL    HW122991   5.742   6.226   1.756
 7364SOL    HW222992   5.899   6.181   1.757
 7365SOL     OW22993   4.854   3.797   2.039
 7365SOL    HW122994   4.925   3.818   2.106
 7365SOL    HW222995   4.797   3.878   2.025
 7366SOL     OW22996   2.012   0.587   3.914
 7366SOL    HW122997   1.934   0.546   3.866
 7366SOL    HW222998   2.071   0.633   3.848
 7367SOL     OW22999   3.909   0.991   0.044
 7367SOL    HW123000   3.814   0.961   0.031
 7367SOL    HW223001   3.966   0.913   0.068
 7368SOL     OW23002   3.593   3.284   3.337
 7368SOL    HW123003   3.594   3.304   3.435
 7368SOL    HW223004   3.613   3.368   3.286
 7369SOL     OW23005   5.310   3.262   0.277
 7369SOL    HW123006   5.239   3.312   0.227
 7369SOL    HW223007   5.311   3.167   0.246
 7370SOL     OW23008   1.926   1.161   4.474
 7370SOL    HW123009   1.935   1.260   4.489
 7370SOL    HW223010   1.843   1.128   4.518
 7371SOL     OW23011   4.092   1.338   3.842
 7371SOL    HW123012   4.095   1.320   3.744
 7371SOL    HW223013   4.046   1.425   3.859
 7372SOL     OW23014   5.562   1.250   5.008
 7372SOL    HW123015   5.576   1.157   5.042
 7372SOL    HW223016   5.648   1.285   4.970
 7373SOL     OW23017   6.186   3.105   4.929
 7373SOL    HW123018   6.223   3.069   4.843
 7373SOL    HW223019   6.181   3.031   4.997
 7374SOL     OW23020   6.822   2.002   6.240
 7374SOL    HW123021   6.801   2.093   6.277
 7374SOL    HW223022   6.893   2.010   6.171
 7375SOL     OW23023   1.497   3.771   1.250
 7375SOL    HW123024   1.422   3.837   1.244
 7375SOL    HW223025   1.570   3.808   1.307
 7376SOL     OW23026   6.883   3.833   1.028
 7376SOL    HW123027   6.869   3.864   1.122
 7376SOL    HW223028   6.885   3.733   1.026
 7377SOL     OW23029   2.439   5.680   1.098
 7377SOL    HW123030   2.447   5.723   1.188
 7377SOL    HW223031   2.368   5.727   1.045
 7378SOL     OW23032   2.064   5.318   4.459
 7378SOL    HW123033   2.020   5.234   4.491
 7378SOL    HW223034   2.090   5.373   4.538
 7379SOL     OW23035   4.385   1.645   2.537
 7379SOL    HW123036   4.288   1.635   2.515
 7379SOL    HW223037   4.439   1.636   2.453
 7380SOL     OW23038   5.377   3.449   1.727
 7380SOL    HW123039   5.464   3.497   1.740
 7380SOL    HW223040   5.317   3.468   1.804
 7381SOL     OW23041   3.726   6.989   1.926
 7381SOL    HW123042   3.791   0.020   1.870
 7381SOL    HW223043   3.634   0.007   1.915
 7382SOL     OW23044   6.528   1.233   6.097
 7382SOL    HW123045   6.610   1.290   6.106
 7382SOL    HW223046   6.508   1.218   6.001
 7383SOL     OW23047   2.083   0.033   1.032
 7383SOL    HW123048   1.989   0.058   1.011
 7383SOL    HW223049   2.141   0.049   0.952
 7384SOL     OW23050   6.501   6.677   0.878
 7384SOL    HW123051   6.470   6.588   0.914
 7384SOL    HW223052   6.505   6.743   0.953
 7385SOL     OW23053   5.988   4.484   2.899
 7385SOL    HW123054   6.000   4.485   2.799
 7385SOL    HW223055   5.928   4.408   2.924
 7386SOL     OW23056   5.174   3.937   6.982
 7386SOL    HW123057   5.121   3.864   0.005
 7386SOL    HW223058   5.233   3.980   0.030
 7387SOL     OW23059   6.346   5.679   4.648
 7387SOL    HW123060   6.350   5.772   4.685
 7387SOL    HW223061   6.397   5.675   4.562
 7388SOL     OW23062   2.105   4.322   2.522
 7388SOL    HW123063   2.138   4.329   2.428
 7388SOL    HW223064   2.038   4.247   2.528
 7389SOL     OW23065   6.395   2.951   0.397
 7389SOL    HW123066   6.430   3.018   0.463
 7389SOL    HW223067   6.300   2.931   0.417
 7390SOL     OW23068   2.413   2.724   4.012
 7390SOL    HW123069   2.445   2.677   3.930
 7390SOL    HW223070   2.418   2.663   4.090
 7391SOL     OW23071   3.567   4.164   2.791
 7391SOL    HW123072   3.647   4.112   2.761
 7391SOL    HW223073   3.575   4.183   2.889
 7392SOL     OW23074   3.300   6.748   6.935
 7392SOL    HW123075   3.345   6.723   0.000
 7392SOL    HW223076   3.216   6.696   6.925
 7393SOL     OW23077   4.944   5.566   3.839
 7393SOL    HW123078   4.932   5.639   3.907
 7393SOL    HW223079   4.970   5.607   3.752
 7394SOL     OW23080   2.168   2.117   5.593
 7394SOL    HW123081   2.201   2.062   5.669
 7394SOL    HW223082   2.151   2.059   5.514
 7395SOL     OW23083   3.022   5.955   1.156
 7395SOL    HW123084   2.996   5.932   1.250
 7395SOL    HW223085   3.021   6.055   1.145
 7396SOL     OW23086   1.747   5.404   2.429
 7396SOL    HW123087   1.750   5.308   2.403
 7396SOL    HW223088   1.716   5.459   2.351
 7397SOL     OW23089   5.974   4.494   3.909
 7397SOL    HW123090   6.056   4.506   3.966
 7397SOL    HW223091   5.902   4.556   3.941
 7398SOL     OW23092   3.192   4.906   2.301
 7398SOL    HW123093   3.119   4.843   2.326
 7398SOL    HW223094   3.208   4.902   2.202
 7399SOL     OW23095   5.109   1.262   6.024
 7399SOL    HW123096   5.019   1.248   5.983
 7399SOL    HW223097   5.178   1.219   5.966
 7400SOL     OW23098   4.843   3.204   5.601
 7400SOL    HW123099   4.789   3.207   5.685
 7400SOL    HW223100   4.940   3.197   5.625
 7401SOL     OW23101   1.234   2.449   4.031
 7401SOL    HW123102   1.288   2.365   4.027
 7401SOL    HW223103   1.144   2.429   4.067
 7402SOL     OW23104   3.598   5.339   4.553
 7402SOL    HW123105   3.543   5.281   4.614
 7402SOL    HW223106   3.552   5.347   4.465
 7403SOL     OW23107   2.015   4.461   4.287
 7403SOL    HW123108   1.956   4.385   4.313
 7403SOL    HW223109   2.025   4.523   4.365
 7404SOL     OW23110   3.002   3.476   0.841
 7404SOL    HW123111   3.006   3.569   0.879
 7404SOL    HW223112   3.032   3.411   0.911
 7405SOL     OW23113   3.918   6.803   5.672
 7405SOL    HW123114   3.850   6.737   5.702
 7405SOL    HW223115   3.890   6.895   5.698
 7406SOL     OW23116   0.949   1.958   4.557
 7406SOL    HW123117   0.984   1.993   4.644
 7406SOL    HW223118   0.870   1.898   4.575
 7407SOL     OW23119   1.224   6.187   5.695
 7407SOL    HW123120   1.212   6.243   5.613
 7407SOL    HW223121   1.215   6.090   5.671
 7408SOL     OW23122   4.596   5.424   5.147
 7408SOL    HW123123   4.525   5.449   5.082
 7408SOL    HW223124   4.563   5.436   5.241
 7409SOL     OW23125   6.859   4.072   1.476
 7409SOL    HW123126   6.848   4.104   1.382
 7409SOL    HW223127   6.952   4.041   1.491
 7410SOL     OW23128   6.732   0.597   0.792
 7410SOL    HW123129   6.649   0.571   0.743
 7410SOL    HW223130   6.795   0.519   0.795
 7411SOL     OW23131   2.633   1.576   5.152
 7411SOL    HW123132   2.600   1.482   5.161
 7411SOL    HW223133   2.602   1.630   5.230
 7412SOL     OW23134   3.908   6.959   0.493
 7412SOL    HW123135   3.856   6.979   0.576
 7412SOL    HW223136   3.993   6.912   0.518
 7413SOL     OW23137   4.798   0.911   3.374
 7413SOL    HW123138   4.788   0.993   3.431
 7413SOL    HW223139   4.833   0.937   3.284
 7414SOL     OW23140   2.708   0.694   3.663
 7414SOL    HW123141   2.798   0.706   3.622
 7414SOL    HW223142   2.658   0.780   3.660
 7415SOL     OW23143   4.145   6.713   6.408
 7415SOL    HW123144   4.226   6.721   6.351
 7415SOL    HW223145   4.097   6.628   6.387
 7416SOL     OW23146   1.748   1.064   2.105
 7416SOL    HW123147   1.652   1.057   2.130
 7416SOL    HW223148   1.765   1.010   2.022
 7417SOL     OW23149   0.726   0.923   2.316
 7417SOL    HW123150   0.658   0.928   2.389
 7417SOL    HW223151   0.815   0.899   2.354
 7418SOL     OW23152   1.459   3.873   6.002
 7418SOL    HW123153   1.483   3.790   6.051
 7418SOL    HW223154   1.458   3.855   5.904
 7419SOL     OW23155   0.185   3.401   4.431
 7419SOL    HW123156   0.230   3.397   4.520
 7419SOL    HW223157   0.090   3.432   4.443
 7420SOL     OW23158   0.038   6.426   0.747
 7420SOL    HW123159   0.029   6.358   0.819
 7420SOL    HW223160   0.030   6.381   0.658
 7421SOL     OW23161   5.915   3.709   0.810
 7421SOL    HW123162   5.979   3.667   0.875
 7421SOL    HW223163   5.901   3.805   0.835
 7422SOL     OW23164   5.576   2.782   1.902
 7422SOL    HW123165   5.576   2.764   2.001
 7422SOL    HW223166   5.483   2.774   1.867
 7423SOL     OW23167   4.792   2.411   6.149
 7423SOL    HW123168   4.860   2.403   6.222
 7423SOL    HW223169   4.721   2.476   6.175
 7424SOL     OW23170   0.275   2.324   3.120
 7424SOL    HW123171   0.257   2.422   3.117
 7424SOL    HW223172   0.356   2.307   3.176
 7425SOL     OW23173   5.601   1.130   0.679
 7425SOL    HW123174   5.699   1.125   0.696
 7425SOL    HW223175   5.580   1.216   0.632
 7426SOL     OW23176   2.778   2.600   6.001
 7426SOL    HW123177   2.743   2.656   6.076
 7426SOL    HW223178   2.878   2.593   6.008
 7427SOL     OW23179   2.962   0.561   3.388
 7427SOL    HW123180   3.045   0.538   3.337
 7427SOL    HW223181   2.974   0.648   3.435
 7428SOL     OW23182   3.427   6.921   5.191
 7428SOL    HW123183   3.466   6.829   5.197
 7428SOL    HW223184   3.479   6.984   5.248
 7429SOL     OW23185   0.769   0.020   2.192
 7429SOL    HW123186   0.821   0.070   2.261
 7429SOL    HW223187   0.824   6.964   2.158
 7430SOL     OW23188   6.503   4.462   3.256
 7430SOL    HW123189   6.447   4.519   3.316
 7430SOL    HW223190   6.481   4.482   3.161
 7431SOL     OW23191   0.689   1.779   3.554
 7431SOL    HW123192   0.714   1.731   3.638
 7431SOL    HW223193   0.731   1.733   3.475
 7432SOL     OW23194   2.016   1.164   3.032
 7432SOL    HW123195   1.949   1.196   3.099
 7432SOL    HW223196   2.003   1.066   3.018
 7433SOL     OW23197   2.916   6.542   6.787
 7433SOL    HW123198   2.895   6.632   6.747
 7433SOL    HW223199   2.869   6.471   6.735
 7434SOL     OW23200   4.378   6.909   3.673
 7434SOL    HW123201   4.433   6.965   3.610
 7434SOL    HW223202   4.322   6.969   3.730
 7435SOL     OW23203   4.776   4.163   3.411
 7435SOL    HW123204   4.758   4.192   3.505
 7435SOL    HW223205   4.801   4.066   3.411
 7436SOL     OW23206   5.598   3.083   6.015
 7436SOL    HW123207   5.600   2.983   6.018
 7436SOL    HW223208   5.691   3.118   6.020
 7437SOL     OW23209   3.238   0.391   1.100
 7437SOL    HW123210   3.149   0.348   1.113
 7437SOL    HW223211   3.307   0.342   1.152
 7438SOL     OW23212   2.165   0.296   6.846
 7438SOL    HW123213   2.116   0.355   6.782
 7438SOL    HW223214   2.217   0.353   6.910
 7439SOL     OW23215   0.808   4.927   6.101
 7439SOL    HW123216   0.857   4.842   6.083
 7439SOL    HW223217   0.757   4.955   6.020
 7440SOL     OW23218   5.505   4.118   4.043
 7440SOL    HW123219   5.503   4.035   4.099
 7440SOL    HW223220   5.416   4.163   4.046
 7441SOL     OW23221   5.097   5.951   0.930
 7441SOL    HW123222   5.016   5.897   0.907
 7441SOL    HW223223   5.176   5.914   0.881
 7442SOL     OW23224   5.099   0.827   6.364
 7442SOL    HW123225   5.109   0.854   6.268
 7442SOL    HW223226   5.120   0.729   6.373
 7443SOL     OW23227   0.498   0.609   1.056
 7443SOL    HW123228   0.441   0.681   1.097
 7443SOL    HW223229   0.440   0.542   1.010
 7444SOL     OW23230   1.759   6.337   0.422
 7444SOL    HW123231   1.670   6.375   0.396
 7444SOL    HW223232   1.821   6.411   0.447
 7445SOL     OW23233   4.134   5.859   1.903
 7445SOL    HW123234   4.060   5.924   1.922
 7445SOL    HW223235   4.142   5.846   1.804
 7446SOL     OW23236   5.889   4.567   6.781
 7446SOL    HW123237   5.888   4.555   6.682
 7446SOL    HW223238   5.909   4.479   6.825
 7447SOL     OW23239   0.621   4.895   0.626
 7447SOL    HW123240   0.678   4.925   0.549
 7447SOL    HW223241   0.647   4.802   0.652
 7448SOL     OW23242   4.580   5.368   6.760
 7448SOL    HW123243   4.670   5.356   6.718
 7448SOL    HW223244   4.582   5.450   6.818
 7449SOL     OW23245   6.482   4.372   5.843
 7449SOL    HW123246   6.524   4.446   5.896
 7449SOL    HW223247   6.475   4.290   5.900
 7450SOL     OW23248   5.672   2.110   6.416
 7450SOL    HW123249   5.638   2.021   6.446
 7450SOL    HW223250   5.646   2.125   6.320
 7451SOL     OW23251   4.543   4.424   3.059
 7451SOL    HW123252   4.559   4.390   2.966
 7451SOL    HW223253   4.450   4.461   3.065
 7452SOL     OW23254   6.443   5.354   5.819
 7452SOL    HW123255   6.381   5.288   5.863
 7452SOL    HW223256   6.410   5.374   5.727
 7453SOL     OW23257   3.949   5.710   5.973
 7453SOL    HW123258   3.918   5.630   6.023
 7453SOL    HW223259   4.011   5.764   6.031
 7454SOL     OW23260   3.663   2.611   1.388
 7454SOL    HW123261   3.654   2.593   1.486
 7454SOL    HW223262   3.601   2.552   1.337
 7455SOL     OW23263   6.730   1.017   3.191
 7455SOL    HW123264   6.687   0.931   3.161
 7455SOL    HW223265   6.810   1.036   3.134
 7456SOL     OW23266   2.890   2.067   6.143
 7456SOL    HW123267   2.941   1.981   6.138
 7456SOL    HW223268   2.953   2.143   6.134
 7457SOL     OW23269   1.198   1.419   2.495
 7457SOL    HW123270   1.259   1.424   2.574
 7457SOL    HW223271   1.222   1.490   2.430
 7458SOL     OW23272   1.453   5.595   5.204
 7458SOL    HW123273   1.394   5.575   5.282
 7458SOL    HW223274   1.533   5.535   5.206
 7459SOL     OW23275   5.599   0.161   3.263
 7459SOL    HW123276   5.534   0.235   3.276
 7459SOL    HW223277   5.691   0.199   3.251
 7460SOL     OW23278   1.346   0.168   1.466
 7460SOL    HW123279   1.426   0.229   1.464
 7460SOL    HW223280   1.311   0.162   1.559
 7461SOL     OW23281   1.969   4.595   5.125
 7461SOL    HW123282   2.023   4.597   5.041
 7461SOL    HW223283   1.944   4.501   5.147
 7462SOL     OW23284   1.545   4.190   0.639
 7462SOL    HW123285   1.643   4.198   0.621
 7462SOL    HW223286   1.494   4.248   0.576
 7463SOL     OW23287   4.497   5.038   1.456
 7463SOL    HW123288   4.500   5.113   1.522
 7463SOL    HW223289   4.588   5.026   1.416
 7464SOL     OW23290   6.537   5.975   5.180
 7464SOL    HW123291   6.443   5.957   5.150
 7464SOL    HW223292   6.598   5.977   5.101
 7465SOL     OW23293   1.203   4.486   0.060
 7465SOL    HW123294   1.178   4.442   0.146
 7465SOL    HW223295   1.211   4.417   7.009
 7466SOL     OW23296   0.043   0.613   5.089
 7466SOL    HW123297   6.993   0.572   5.147
 7466SOL    HW223298   0.093   0.682   5.142
 7467SOL     OW23299   0.867   3.767   4.831
 7467SOL    HW123300   0.892   3.863   4.845
 7467SOL    HW223301   0.949   3.711   4.833
 7468SOL     OW23302   5.751   2.647   6.160
 7468SOL    HW123303   5.740   2.687   6.251
 7468SOL    HW223304   5.700   2.702   6.093
 7469SOL     OW23305   0.469   1.986   0.424
 7469SOL    HW123306   0.509   2.073   0.453
 7469SOL    HW223307   0.446   1.991   0.326
 7470SOL     OW23308   5.381   2.612   3.962
 7470SOL    HW123309   5.329   2.530   3.983
 7470SOL    HW223310   5.354   2.686   4.024
 7471SOL     OW23311   3.687   0.183   6.620
 7471SOL    HW123312   3.724   0.145   6.535
 7471SOL    HW223313   3.729   0.137   6.698
 7472SOL     OW23314   6.890   0.060   5.853
 7472SOL    HW123315   6.852   0.151   5.871
 7472SOL    HW223316   6.984   0.057   5.887
 7473SOL     OW23317   3.951   5.785   3.500
 7473SOL    HW123318   4.020   5.740   3.443
 7473SOL    HW223319   3.865   5.791   3.449
 7474SOL     OW23320   5.781   1.940   0.609
 7474SOL    HW123321   5.683   1.919   0.615
 7474SOL    HW223322   5.828   1.865   0.563
 7475SOL     OW23323   4.901   2.618   0.602
 7475SOL    HW123324   4.961   2.684   0.646
 7475SOL    HW223325   4.881   2.543   0.665
 7476SOL     OW23326   2.819   0.837   3.145
 7476SOL    HW123327   2.729   0.822   3.186
 7476SOL    HW223328   2.858   0.922   3.180
 7477SOL     OW23329   2.118   3.422   6.048
 7477SOL    HW123330   2.100   3.520   6.043
 7477SOL    HW223331   2.211   3.406   6.079
 7478SOL     OW23332   0.159   1.405   5.698
 7478SOL    HW123333   0.150   1.409   5.599
 7478SOL    HW223334   0.086   1.458   5.741
 7479SOL     OW23335   4.917   2.429   1.535
 7479SOL    HW123336   4.820   2.423   1.511
 7479SOL    HW223337   4.926   2.466   1.627
 7480SOL     OW23338   4.192   5.958   2.680
 7480SOL    HW123339   4.130   6.014   2.625
 7480SOL    HW223340   4.155   5.949   2.772
 7481SOL     OW23341   0.174   3.764   6.567
 7481SOL    HW123342   0.173   3.864   6.558
 7481SOL    HW223343   0.232   3.739   6.645
 7482SOL     OW23344   5.918   2.497   4.060
 7482SOL    HW123345   5.845   2.565   4.058
 7482SOL    HW223346   5.918   2.451   4.149
 7483SOL     OW23347   4.545   1.742   6.451
 7483SOL    HW123348   4.473   1.809   6.467
 7483SOL    HW223349   4.509   1.666   6.397
 7484SOL     OW23350   3.390   0.180   3.870
 7484SOL    HW123351   3.473   0.155   3.819
 7484SOL    HW223352   3.415   0.203   3.964
 7485SOL     OW23353   3.880   0.092   6.428
 7485SOL    HW123354   3.953   0.137   6.479
 7485SOL    HW223355   3.919   0.044   6.350
 7486SOL     OW23356   4.018   0.356   0.709
 7486SOL    HW123357   4.033   0.355   0.610
 7486SOL    HW223358   3.965   0.276   0.736
 7487SOL     OW23359   3.584   6.409   3.859
 7487SOL    HW123360   3.497   6.444   3.892
 7487SOL    HW223361   3.628   6.478   3.802
 7488SOL     OW23362   1.253   5.689   4.009
 7488SOL    HW123363   1.328   5.647   4.060
 7488SOL    HW223364   1.175   5.626   4.009
 7489SOL     OW23365   5.778   2.883   6.996
 7489SOL    HW123366   5.849   2.917   0.036
 7489SOL    HW223367   5.693   2.873   0.027
 7490SOL     OW23368   1.085   2.997   2.299
 7490SOL    HW123369   1.119   2.927   2.236
 7490SOL    HW223370   1.160   3.059   2.323
 7491SOL     OW23371   4.298   3.809   0.143
 7491SOL    HW123372   4.200   3.807   0.162
 7491SOL    HW223373   4.343   3.734   0.193
 7492SOL     OW23374   1.409   0.408   3.943
 7492SOL    HW123375   1.429   0.353   4.024
 7492SOL    HW223376   1.452   0.498   3.952
 7493SOL     OW23377   6.124   4.852   4.985
 7493SOL    HW123378   6.099   4.756   4.973
 7493SOL    HW223379   6.173   4.863   5.071
 7494SOL     OW23380   6.359   1.277   2.637
 7494SOL    HW123381   6.323   1.307   2.549
 7494SOL    HW223382   6.291   1.221   2.683
 7495SOL     OW23383   1.649   3.008   5.141
 7495SOL    HW123384   1.736   2.995   5.094
 7495SOL    HW223385   1.602   2.920   5.148
 7496SOL     OW23386   6.240   4.064   2.644
 7496SOL    HW123387   6.212   3.970   2.626
 7496SOL    HW223388   6.339   4.066   2.661
 7497SOL     OW23389   6.459   6.862   1.418
 7497SOL    HW123390   6.543   6.916   1.412
 7497SOL    HW223391   6.483   6.767   1.439
 7498SOL     OW23392   3.318   6.487   3.409
 7498SOL    HW123393   3.239   6.446   3.362
 7498SOL    HW223394   3.329   6.581   3.379
 7499SOL     OW23395   3.183   1.588   3.289
 7499SOL    HW123396   3.262   1.648   3.303
 7499SOL    HW223397   3.198   1.501   3.335
 7500SOL     OW23398   4.000   0.843   3.678
 7500SOL    HW123399   3.926   0.908   3.693
 7500SOL    HW223400   3.969   0.751   3.705
 7501SOL     OW23401   6.623   2.098   4.671
 7501SOL    HW123402   6.646   2.169   4.738
 7501SOL    HW223403   6.707   2.063   4.631
 7502SOL     OW23404   4.232   0.861   3.810
 7502SOL    HW123405   4.133   0.856   3.794
 7502SOL    HW223406   4.263   0.955   3.794
 7503SOL     OW23407   1.781   5.735   2.041
 7503SOL    HW123408   1.850   5.716   1.971
 7503SOL    HW223409   1.816   5.805   2.103
 7504SOL     OW23410   5.793   6.293   4.203
 7504SOL    HW123411   5.737   6.212   4.218
 7504SOL    HW223412   5.882   6.281   4.246
 7505SOL     OW23413   0.306   6.348   5.060
 7505SOL    HW123414   0.230   6.316   5.003
 7505SOL    HW223415   0.336   6.275   5.121
 7506SOL     OW23416   2.953   1.851   3.752
 7506SOL    HW123417   3.021   1.814   3.816
 7506SOL    HW223418   2.988   1.934   3.711
 7507SOL     OW23419   6.494   4.257   6.745
 7507SOL    HW123420   6.434   4.285   6.820
 7507SOL    HW223421   6.526   4.338   6.697
 7508SOL     OW23422   2.917   6.277   0.642
 7508SOL    HW123423   2.876   6.235   0.723
 7508SOL    HW223424   2.964   6.362   0.669
 7509SOL     OW23425   5.904   4.247   2.319
 7509SOL    HW123426   5.858   4.334   2.336
 7509SOL    HW223427   5.977   4.261   2.252
 7510SOL     OW23428   3.437   4.099   2.232
 7510SOL    HW123429   3.473   4.125   2.322
 7510SOL    HW223430   3.340   4.120   2.228
 7511SOL     OW23431   4.158   6.076   4.066
 7511SOL    HW123432   4.247   6.042   4.095
 7511SOL    HW223433   4.118   6.132   4.138
 7512SOL     OW23434   3.975   0.896   1.006
 7512SOL    HW123435   4.061   0.914   0.960
 7512SOL    HW223436   3.927   0.982   1.023
 7513SOL     OW23437   1.137   1.270   1.971
 7513SOL    HW123438   1.226   1.240   1.936
 7513SOL    HW223439   1.152   1.335   2.046
 7514SOL     OW23440   0.273   6.800   1.397
 7514SOL    HW123441   0.328   6.877   1.428
 7514SOL    HW223442   0.241   6.748   1.475
 7515SOL     OW23443   0.132   4.141   5.341
 7515SOL    HW123444   0.128   4.210   5.414
 7515SOL    HW223445   0.050   4.085   5.344
 7516SOL     OW23446   1.769   6.486   5.637
 7516SOL    HW123447   1.723   6.404   5.602
 7516SOL    HW223448   1.701   6.548   5.677
 7517SOL     OW23449   0.741   1.301   6.267
 7517SOL    HW123450   0.648   1.332   6.249
 7517SOL    HW223451   0.806   1.366   6.226
 7518SOL     OW23452   4.435   1.688   4.314
 7518SOL    HW123453   4.494   1.761   4.349
 7518SOL    HW223454   4.395   1.638   4.391
 7519SOL     OW23455   4.036   0.284   4.501
 7519SOL    HW123456   4.050   0.237   4.588
 7519SOL    HW223457   4.054   0.382   4.512
 7520SOL     OW23458   1.789   1.519   0.446
 7520SOL    HW123459   1.782   1.431   0.398
 7520SOL    HW223460   1.698   1.559   0.456
 7521SOL     OW23461   4.080   1.379   4.735
 7521SOL    HW123462   4.034   1.458   4.695
 7521SOL    HW223463   4.178   1.397   4.739
 7522SOL     OW23464   1.985   0.177   3.767
 7522SOL    HW123465   2.072   0.190   3.815
 7522SOL    HW223466   1.949   0.085   3.786
 7523SOL     OW23467   5.965   0.542   0.657
 7523SOL    HW123468   5.986   0.487   0.737
 7523SOL    HW223469   5.953   0.637   0.683
 7524SOL     OW23470   0.549   3.832   4.493
 7524SOL    HW123471   0.492   3.798   4.568
 7524SOL    HW223472   0.600   3.912   4.525
 7525SOL     OW23473   3.085   4.680   6.221
 7525SOL    HW123474   3.098   4.692   6.320
 7525SOL    HW223475   3.110   4.764   6.173
 7526SOL     OW23476   2.609   4.070   0.971
 7526SOL    HW123477   2.531   4.033   0.921
 7526SOL    HW223478   2.674   4.111   0.907
 7527SOL     OW23479   3.035   5.109   2.995
 7527SOL    HW123480   3.057   5.017   3.025
 7527SOL    HW223481   3.100   5.139   2.925
 7528SOL     OW23482   6.655   1.911   5.797
 7528SOL    HW123483   6.645   1.921   5.896
 7528SOL    HW223484   6.577   1.860   5.760
 7529SOL     OW23485   6.711   3.309   4.031
 7529SOL    HW123486   6.726   3.363   4.114
 7529SOL    HW223487   6.614   3.305   4.010
 7530SOL     OW23488   1.305   3.054   3.344
 7530SOL    HW123489   1.400   3.030   3.361
 7530SOL    HW223490   1.253   2.971   3.324
 7531SOL     OW23491   4.012   2.206   4.013
 7531SOL    HW123492   4.078   2.281   4.006
 7531SOL    HW223493   3.948   2.210   3.936
 7532SOL     OW23494   4.513   5.869   6.197
 7532SOL    HW123495   4.607   5.892   6.170
 7532SOL    HW223496   4.471   5.948   6.243
 7533SOL     OW23497   4.155   4.332   1.701
 7533SOL    HW123498   4.210   4.379   1.632
 7533SOL    HW223499   4.214   4.276   1.758
 7534SOL     OW23500   4.802   6.160   5.202
 7534SOL    HW123501   4.819   6.255   5.176
 7534SOL    HW223502   4.751   6.114   5.130
 7535SOL     OW23503   0.583   6.291   3.905
 7535SOL    HW123504   0.609   6.220   3.840
 7535SOL    HW223505   0.575   6.379   3.857
 7536SOL     OW23506   6.192   6.126   3.663
 7536SOL    HW123507   6.167   6.137   3.567
 7536SOL    HW223508   6.190   6.029   3.687
 7537SOL     OW23509   1.643   6.618   2.767
 7537SOL    HW123510   1.715   6.578   2.711
 7537SOL    HW223511   1.685   6.666   2.845
 7538SOL     OW23512   0.615   4.596   0.464
 7538SOL    HW123513   0.691   4.602   0.529
 7538SOL    HW223514   0.651   4.606   0.371
 7539SOL     OW23515   6.732   0.020   4.445
 7539SOL    HW123516   6.663   0.092   4.447
 7539SOL    HW223517   6.759   0.001   4.350
 7540SOL     OW23518   5.468   4.784   3.166
 7540SOL    HW123519   5.505   4.840   3.241
 7540SOL    HW223520   5.473   4.687   3.192
 7541SOL     OW23521   2.706   4.173   5.867
 7541SOL    HW123522   2.632   4.231   5.903
 7541SOL    HW223523   2.792   4.225   5.868
 7542SOL     OW23524   6.066   5.460   4.932
 7542SOL    HW123525   6.073   5.553   4.895
 7542SOL    HW223526   6.138   5.443   4.998
 7543SOL     OW23527   2.384   1.411   0.188
 7543SOL    HW123528   2.440   1.329   0.181
 7543SOL    HW223529   2.424   1.472   0.258
 7544SOL     OW23530   6.511   1.261   4.483
 7544SOL    HW123531   6.588   1.277   4.422
 7544SOL    HW223532   6.520   1.317   4.565
 7545SOL     OW23533   1.862   5.517   5.674
 7545SOL    HW123534   1.873   5.515   5.773
 7545SOL    HW223535   1.874   5.424   5.638
 7546SOL     OW23536   2.295   2.591   1.982
 7546SOL    HW123537   2.247   2.516   1.936
 7546SOL    HW223538   2.341   2.648   1.913
 7547SOL     OW23539   4.032   0.322   1.894
 7547SOL    HW123540   3.943   0.367   1.889
 7547SOL    HW223541   4.103   0.385   1.864
 7548SOL     OW23542   2.930   2.671   6.355
 7548SOL    HW123543   3.001   2.741   6.345
 7548SOL    HW223544   2.842   2.708   6.323
 7549SOL     OW23545   5.437   0.291   4.561
 7549SOL    HW123546   5.468   0.345   4.639
 7549SOL    HW223547   5.495   0.211   4.550
 7550SOL     OW23548   2.432   5.568   4.463
 7550SOL    HW123549   2.429   5.469   4.477
 7550SOL    HW223550   2.367   5.593   4.391
 7551SOL     OW23551   6.315   2.396   6.311
 7551SOL    HW123552   6.256   2.401   6.392
 7551SOL    HW223553   6.374   2.476   6.307
 7552SOL     OW23554   2.579   6.726   4.726
 7552SOL    HW123555   2.495   6.757   4.682
 7552SOL    HW223556   2.586   6.627   4.719
 7553SOL     OW23557   6.162   6.380   5.840
 7553SOL    HW123558   6.206   6.366   5.929
 7553SOL    HW223559   6.144   6.478   5.827
 7554SOL     OW23560   4.398   1.576   0.604
 7554SOL    HW123561   4.489   1.581   0.645
 7554SOL    HW223562   4.392   1.495   0.546
 7555SOL     OW23563   4.687   5.012   4.139
 7555SOL    HW123564   4.785   5.023   4.156
 7555SOL    HW223565   4.659   5.070   4.063
 7556SOL     OW23566   1.344   6.166   1.333
 7556SOL    HW123567   1.367   6.147   1.429
 7556SOL    HW223568   1.251   6.134   1.315
 7557SOL     OW23569   4.359   0.027   1.428
 7557SOL    HW123570   4.296   7.008   1.362
 7557SOL    HW223571   4.450   7.007   1.416
 7558SOL     OW23572   0.459   1.806   3.358
 7558SOL    HW123573   0.451   1.720   3.308
 7558SOL    HW223574   0.477   1.787   3.455
 7559SOL     OW23575   2.569   1.451   4.873
 7559SOL    HW123576   2.653   1.415   4.914
 7559SOL    HW223577   2.554   1.545   4.905
 7560SOL     OW23578   1.329   1.451   5.995
 7560SOL    HW123579   1.357   1.391   5.920
 7560SOL    HW223580   1.296   1.537   5.958
 7561SOL     OW23581   5.466   1.318   5.257
 7561SOL    HW123582   5.520   1.288   5.179
 7561SOL    HW223583   5.419   1.403   5.235
 7562SOL     OW23584   2.194   5.601   3.259
 7562SOL    HW123585   2.208   5.686   3.208
 7562SOL    HW223586   2.133   5.541   3.207
 7563SOL     OW23587   3.967   5.921   2.910
 7563SOL    HW123588   3.967   6.010   2.955
 7563SOL    HW223589   3.879   5.905   2.865
 7564SOL     OW23590   3.926   1.667   5.041
 7564SOL    HW123591   3.863   1.737   5.075
 7564SOL    HW223592   3.878   1.607   4.977
 7565SOL     OW23593   6.418   3.465   5.986
 7565SOL    HW123594   6.371   3.378   5.997
 7565SOL    HW223595   6.493   3.472   6.051
 7566SOL     OW23596   4.612   4.491   1.822
 7566SOL    HW123597   4.520   4.503   1.785
 7566SOL    HW223598   4.612   4.415   1.887
 7567SOL     OW23599   1.021   6.890   4.276
 7567SOL    HW123600   1.112   6.906   4.314
 7567SOL    HW223601   0.957   6.957   4.312
 7568SOL     OW23602   5.710   4.348   1.218
 7568SOL    HW123603   5.613   4.326   1.211
 7568SOL    HW223604   5.763   4.263   1.227
 7569SOL     OW23605   4.970   3.260   0.333
 7569SOL    HW123606   5.040   3.302   0.274
 7569SOL    HW223607   4.909   3.332   0.367
 7570SOL     OW23608   0.956   3.454   2.137
 7570SOL    HW123609   1.047   3.495   2.145
 7570SOL    HW223610   0.896   3.493   2.207
 7571SOL     OW23611   4.456   1.500   2.787
 7571SOL    HW123612   4.427   1.540   2.700
 7571SOL    HW223613   4.501   1.412   2.770
 7572SOL     OW23614   4.721   6.785   3.875
 7572SOL    HW123615   4.804   6.817   3.920
 7572SOL    HW223616   4.735   6.692   3.840
 7573SOL     OW23617   4.229   6.536   6.153
 7573SOL    HW123618   4.307   6.592   6.182
 7573SOL    HW223619   4.148   6.594   6.146
 7574SOL     OW23620   0.618   2.387   4.105
 7574SOL    HW123621   0.553   2.323   4.065
 7574SOL    HW223622   0.694   2.402   4.041
 7575SOL     OW23623   0.002   6.595   2.088
 7575SOL    HW123624   6.929   6.581   2.055
 7575SOL    HW223625   0.009   6.561   2.182
 7576SOL     OW23626   4.745   2.324   6.579
 7576SOL    HW123627   4.786   2.348   6.667
 7576SOL    HW223628   4.691   2.241   6.589
 7577SOL     OW23629   0.931   0.232   6.761
 7577SOL    HW123630   0.852   0.199   6.813
 7577SOL    HW223631   0.967   0.315   6.804
 7578SOL     OW23632   6.447   6.297   3.179
 7578SOL    HW123633   6.425   6.394   3.173
 7578SOL    HW223634   6.541   6.282   3.149
 7579SOL     OW23635   0.605   1.975   6.878
 7579SOL    HW123636   0.698   1.939   6.891
 7579SOL    HW223637   0.539   1.914   6.923
 7580SOL     OW23638   2.607   5.335   3.352
 7580SOL    HW123639   2.558   5.251   3.329
 7580SOL    HW223640   2.542   5.404   3.385
 7581SOL     OW23641   0.040   0.369   1.984
 7581SOL    HW123642   0.107   0.443   1.984
 7581SOL    HW223643   0.076   0.292   1.932
 7582SOL     OW23644   2.361   1.603   6.262
 7582SOL    HW123645   2.358   1.660   6.344
 7582SOL    HW223646   2.423   1.644   6.195
 7583SOL     OW23647   5.719   3.179   2.457
 7583SOL    HW123648   5.628   3.215   2.435
 7583SOL    HW223649   5.747   3.115   2.385
 7584SOL     OW23650   0.889   1.100   3.201
 7584SOL    HW123651   0.811   1.055   3.244
 7584SOL    HW223652   0.972   1.080   3.253
 7585SOL     OW23653   1.080   1.248   6.003
 7585SOL    HW123654   1.162   1.302   6.020
 7585SOL    HW223655   1.004   1.310   5.982
 7586SOL     OW23656   1.943   6.948   3.852
 7586SOL    HW123657   1.923   6.852   3.832
 7586SOL    HW223658   1.947   6.961   3.951
 7587SOL     OW23659   4.698   0.221   1.386
 7587SOL    HW123660   4.747   0.256   1.466
 7587SOL    HW223661   4.599   0.228   1.402
 7588SOL     OW23662   2.308   2.575   4.809
 7588SOL    HW123663   2.212   2.548   4.813
 7588SOL    HW223664   2.361   2.501   4.768
 7589SOL     OW23665   0.065   0.621   2.685
 7589SOL    HW123666   0.069   0.579   2.776
 7589SOL    HW223667   7.015   0.576   2.630
 7590SOL     OW23668   6.153   0.881   0.368
 7590SOL    HW123669   6.206   0.802   0.400
 7590SOL    HW223670   6.167   0.893   0.270
 7591SOL     OW23671   3.296   3.529   4.623
 7591SOL    HW123672   3.217   3.497   4.676
 7591SOL    HW223673   3.288   3.495   4.530
 7592SOL     OW23674   6.953   6.194   3.660
 7592SOL    HW123675   6.878   6.175   3.597
 7592SOL    HW223676   6.925   6.267   3.723
 7593SOL     OW23677   0.058   1.171   5.759
 7593SOL    HW123678   0.093   1.261   5.731
 7593SOL    HW223679   0.072   1.105   5.685
 7594SOL     OW23680   6.881   3.864   6.106
 7594SOL    HW123681   6.950   3.827   6.044
 7594SOL    HW223682   6.846   3.791   6.164
 7595SOL     OW23683   1.084   3.419   6.405
 7595SOL    HW123684   1.029   3.478   6.465
 7595SOL    HW223685   1.023   3.371   6.342
 7596SOL     OW23686   2.768   1.410   0.246
 7596SOL    HW123687   2.768   1.475   0.171
 7596SOL    HW223688   2.861   1.391   0.275
 7597SOL     OW23689   2.360   5.122   1.116
 7597SOL    HW123690   2.344   5.218   1.139
 7597SOL    HW223691   2.287   5.090   1.056
 7598SOL     OW23692   5.969   0.856   2.066
 7598SOL    HW123693   5.931   0.938   2.108
 7598SOL    HW223694   5.898   0.808   2.015
 7599SOL     OW23695   3.183   3.884   1.094
 7599SOL    HW123696   3.233   3.947   1.035
 7599SOL    HW223697   3.136   3.936   1.166
 7600SOL     OW23698   0.996   6.970   4.006
 7600SOL    HW123699   1.006   6.905   4.082
 7600SOL    HW223700   0.942   0.027   4.037
 7601SOL     OW23701   2.362   6.559   1.719
 7601SOL    HW123702   2.378   6.620   1.797
 7601SOL    HW223703   2.371   6.610   1.634
 7602SOL     OW23704   0.798   1.041   0.873
 7602SOL    HW123705   0.722   1.103   0.893
 7602SOL    HW223706   0.770   0.977   0.801
 7603SOL     OW23707   4.324   1.175   5.873
 7603SOL    HW123708   4.334   1.177   5.774
 7603SOL    HW223709   4.345   1.265   5.911
 7604SOL     OW23710   1.497   2.542   4.645
 7604SOL    HW123711   1.557   2.478   4.599
 7604SOL    HW223712   1.550   2.621   4.676
 7605SOL     OW23713   2.524   6.123   0.183
 7605SOL    HW123714   2.592   6.120   0.110
 7605SOL    HW223715   2.432   6.119   0.144
 7606SOL     OW23716   7.009   0.565   3.390
 7606SOL    HW123717   6.969   0.655   3.373
 7606SOL    HW223718   0.084   0.576   3.416
 7607SOL     OW23719   1.920   6.201   5.803
 7607SOL    HW123720   1.902   6.300   5.806
 7607SOL    HW223721   1.913   6.169   5.709
 7608SOL     OW23722   0.148   2.072   6.526
 7608SOL    HW123723   0.065   2.121   6.553
 7608SOL    HW223724   0.202   2.129   6.463
 7609SOL     OW23725   2.901   1.513   4.655
 7609SOL    HW123726   2.931   1.518   4.751
 7609SOL    HW223727   2.977   1.484   4.598
 7610SOL     OW23728   4.123   4.863   4.704
 7610SOL    HW123729   4.197   4.799   4.723
 7610SOL    HW223730   4.106   4.866   4.605
 7611SOL     OW23731   4.707   2.654   0.187
 7611SOL    HW123732   4.714   2.748   0.153
 7611SOL    HW223733   4.676   2.655   0.282
 7612SOL     OW23734   3.808   2.141   3.103
 7612SOL    HW123735   3.902   2.144   3.137
 7612SOL    HW223736   3.764   2.229   3.119
 7613SOL     OW23737   0.947   0.366   0.181
 7613SOL    HW123738   1.046   0.374   0.195
 7613SOL    HW223739   0.914   0.280   0.221
 7614SOL     OW23740   5.372   4.542   0.507
 7614SOL    HW123741   5.424   4.457   0.516
 7614SOL    HW223742   5.431   4.613   0.467
 7615SOL     OW23743   6.303   3.185   5.285
 7615SOL    HW123744   6.246   3.242   5.226
 7615SOL    HW223745   6.400   3.201   5.264
 7616SOL     OW23746   6.821   6.750   2.910
 7616SOL    HW123747   6.910   6.706   2.920
 7616SOL    HW223748   6.783   6.770   3.001
 7617SOL     OW23749   6.432   4.023   2.905
 7617SOL    HW123750   6.469   3.939   2.945
 7617SOL    HW223751   6.454   4.026   2.807
 7618SOL     OW23752   2.721   2.285   0.566
 7618SOL    HW123753   2.814   2.280   0.604
 7618SOL    HW223754   2.659   2.232   0.623
 7619SOL     OW23755   1.703   1.417   4.622
 7619SOL    HW123756   1.782   1.444   4.676
 7619SOL    HW223757   1.625   1.476   4.645
 7620SOL     OW23758   3.208   3.601   1.050
 7620SOL    HW123759   3.157   3.531   1.101
 7620SOL    HW223760   3.171   3.691   1.072
 7621SOL     OW23761   5.937   4.297   6.823
 7621SOL    HW123762   5.900   4.204   6.826
 7621SOL    HW223763   6.002   4.305   6.748
 7622SOL     OW23764   3.188   3.688   1.736
 7622SOL    HW123765   3.224   3.718   1.825
 7622SOL    HW223766   3.210   3.757   1.667
 7623SOL     OW23767   5.790   4.012   1.743
 7623SOL    HW123768   5.888   4.027   1.753
 7623SOL    HW223769   5.740   4.071   1.806
 7624SOL     OW23770   0.908   3.643   2.646
 7624SOL    HW123771   0.869   3.564   2.694
 7624SOL    HW223772   0.933   3.713   2.713
 7625SOL     OW23773   5.413   0.669   2.080
 7625SOL    HW123774   5.329   0.615   2.069
 7625SOL    HW223775   5.472   0.625   2.149
 7626SOL     OW23776   4.201   6.845   0.200
 7626SOL    HW123777   4.125   6.852   0.136
 7626SOL    HW223778   4.286   6.830   0.150
 7627SOL     OW23779   4.094   2.693   6.250
 7627SOL    HW123780   4.078   2.617   6.313
 7627SOL    HW223781   4.067   2.778   6.293
 7628SOL     OW23782   3.058   2.893   0.671
 7628SOL    HW123783   3.036   2.836   0.592
 7628SOL    HW223784   3.131   2.850   0.723
 7629SOL     OW23785   6.231   2.349   3.432
 7629SOL    HW123786   6.244   2.250   3.442
 7629SOL    HW223787   6.299   2.385   3.368
 7630SOL     OW23788   1.372   6.339   3.852
 7630SOL    HW123789   1.463   6.321   3.816
 7630SOL    HW223790   1.327   6.252   3.875
 7631SOL     OW23791   1.131   1.083   5.656
 7631SOL    HW123792   1.175   1.168   5.688
 7631SOL    HW223793   1.043   1.072   5.702
 7632SOL     OW23794   4.811   5.287   1.190
 7632SOL    HW123795   4.877   5.352   1.150
 7632SOL    HW223796   4.754   5.249   1.117
 7633SOL     OW23797   6.162   0.829   1.450
 7633SOL    HW123798   6.134   0.867   1.538
 7633SOL    HW223799   6.140   0.894   1.377
 7634SOL     OW23800   0.294   2.511   6.563
 7634SOL    HW123801   0.280   2.463   6.649
 7634SOL    HW223802   0.391   2.518   6.543
 7635SOL     OW23803   2.144   3.090   5.578
 7635SOL    HW123804   2.175   3.154   5.649
 7635SOL    HW223805   2.223   3.053   5.529
 7636SOL     OW23806   6.909   3.569   3.808
 7636SOL    HW123807   6.967   3.500   3.851
 7636SOL    HW223808   6.813   3.550   3.830
 7637SOL     OW23809   0.506   4.412   5.249
 7637SOL    HW123810   0.496   4.466   5.332
 7637SOL    HW223811   0.467   4.461   5.171
 7638SOL     OW23812   0.285   5.910   1.221
 7638SOL    HW123813   0.204   5.855   1.239
 7638SOL    HW223814   0.349   5.859   1.163
 7639SOL     OW23815   1.531   0.172   0.612
 7639SOL    HW123816   1.571   0.263   0.626
 7639SOL    HW223817   1.591   0.118   0.553
 7640SOL     OW23818   3.339   1.395   0.973
 7640SOL    HW123819   3.303   1.320   1.029
 7640SOL    HW223820   3.310   1.381   0.878
 7641SOL     OW23821   0.274   4.601   4.816
 7641SOL    HW123822   0.271   4.658   4.734
 7641SOL    HW223823   0.187   4.608   4.864
 7642SOL     OW23824   5.190   0.683   3.524
 7642SOL    HW123825   5.148   0.766   3.560
 7642SOL    HW223826   5.141   0.654   3.442
 7643SOL     OW23827   5.220   3.699   4.945
 7643SOL    HW123828   5.297   3.645   4.912
 7643SOL    HW223829   5.197   3.770   4.877
 7644SOL     OW23830   5.124   3.902   0.949
 7644SOL    HW123831   5.222   3.920   0.955
 7644SOL    HW223832   5.075   3.988   0.932
 7645SOL     OW23833   4.257   4.818   0.369
 7645SOL    HW123834   4.211   4.778   0.448
 7645SOL    HW223835   4.190   4.838   0.298
 7646SOL     OW23836   0.209   2.404   0.614
 7646SOL    HW123837   0.271   2.442   0.682
 7646SOL    HW223838   0.254   2.399   0.525
 7647SOL     OW23839   6.957   2.481   4.150
 7647SOL    HW123840   6.884   2.547   4.167
 7647SOL    HW223841   6.982   2.484   4.053
 7648SOL     OW23842   2.123   2.371   1.903
 7648SOL    HW123843   2.103   2.360   1.805
 7648SOL    HW223844   2.203   2.316   1.927
 7649SOL     OW23845   3.987   0.734   0.102
 7649SOL    HW123846   3.902   0.726   0.049
 7649SOL    HW223847   3.970   0.704   0.196
 7650SOL     OW23848   3.640   2.208   0.080
 7650SOL    HW123849   3.647   2.232   7.004
 7650SOL    HW223850   3.732   2.193   0.117
 7651SOL     OW23851   3.716   5.184   6.362
 7651SOL    HW123852   3.636   5.225   6.318
 7651SOL    HW223853   3.768   5.255   6.410
 7652SOL     OW23854   1.081   0.906   4.699
 7652SOL    HW123855   0.999   0.850   4.687
 7652SOL    HW223856   1.089   0.969   4.622
 7653SOL     OW23857   2.131   0.002   0.461
 7653SOL    HW123858   2.116   7.020   0.560
 7653SOL    HW223859   2.103   0.091   0.426
 7654SOL     OW23860   6.641   1.872   6.099
 7654SOL    HW123861   6.714   1.916   6.152
 7654SOL    HW223862   6.565   1.935   6.087
 7655SOL     OW23863   3.581   1.644   5.090
 7655SOL    HW123864   3.608   1.558   5.134
 7655SOL    HW223865   3.649   1.714   5.111
 7656SOL     OW23866   5.725   4.251   0.102
 7656SOL    HW123867   5.647   4.248   0.040
 7656SOL    HW223868   5.765   4.342   0.102
 7657SOL     OW23869   1.304   3.956   4.614
 7657SOL    HW123870   1.304   4.030   4.681
 7657SOL    HW223871   1.377   3.972   4.548
 7658SOL     OW23872   2.782   0.932   0.970
 7658SOL    HW123873   2.797   0.840   1.005
 7658SOL    HW223874   2.869   0.980   0.963
 7659SOL     OW23875   5.057   4.671   5.552
 7659SOL    HW123876   5.034   4.717   5.467
 7659SOL    HW223877   5.063   4.572   5.537
 7660SOL     OW23878   6.692   6.435   5.551
 7660SOL    HW123879   6.737   6.404   5.467
 7660SOL    HW223880   6.749   6.504   5.595
 7661SOL     OW23881   3.360   0.885   5.226
 7661SOL    HW123882   3.387   0.846   5.138
 7661SOL    HW223883   3.264   0.913   5.222
 7662SOL     OW23884   6.758   5.669   1.021
 7662SOL    HW123885   6.733   5.580   1.058
 7662SOL    HW223886   6.858   5.677   1.019
 7663SOL     OW23887   1.034   5.265   4.784
 7663SOL    HW123888   0.946   5.227   4.811
 7663SOL    HW223889   1.065   5.331   4.853
 7664SOL     OW23890   4.527   2.331   2.467
 7664SOL    HW123891   4.564   2.239   2.482
 7664SOL    HW223892   4.511   2.345   2.369
 7665SOL     OW23893   3.446   0.750   5.470
 7665SOL    HW123894   3.449   0.819   5.397
 7665SOL    HW223895   3.404   0.666   5.436
 7666SOL     OW23896   5.166   5.229   4.003
 7666SOL    HW123897   5.253   5.182   4.009
 7666SOL    HW223898   5.142   5.243   3.907
 7667SOL     OW23899   4.141   6.453   2.240
 7667SOL    HW123900   4.050   6.476   2.275
 7667SOL    HW223901   4.196   6.415   2.313
 7668SOL     OW23902   1.297   5.837   0.385
 7668SOL    HW123903   1.207   5.819   0.423
 7668SOL    HW223904   1.322   5.933   0.399
 7669SOL     OW23905   2.760   1.568   6.753
 7669SOL    HW123906   2.714   1.507   6.818
 7669SOL    HW223907   2.818   1.632   6.803
 7670SOL     OW23908   1.008   0.348   0.816
 7670SOL    HW123909   0.919   0.379   0.783
 7670SOL    HW223910   1.003   0.330   0.914
 7671SOL     OW23911   3.079   0.081   1.561
 7671SOL    HW123912   3.042   7.013   1.587
 7671SOL    HW223913   3.107   0.131   1.643
 7672SOL     OW23914   5.532   3.426   1.979
 7672SOL    HW123915   5.436   3.410   1.959
 7672SOL    HW223916   5.586   3.347   1.948
 7673SOL     OW23917   1.762   6.835   4.793
 7673SOL    HW123918   1.829   6.762   4.809
 7673SOL    HW223919   1.671   6.802   4.814
 7674SOL     OW23920   3.667   5.597   4.499
 7674SOL    HW123921   3.684   5.499   4.488
 7674SOL    HW223922   3.739   5.648   4.453
 7675SOL     OW23923   4.427   6.367   3.102
 7675SOL    HW123924   4.428   6.466   3.116
 7675SOL    HW223925   4.483   6.344   3.023
 7676SOL     OW23926   3.436   2.807   5.164
 7676SOL    HW123927   3.511   2.758   5.119
 7676SOL    HW223928   3.405   2.755   5.244
 7677SOL     OW23929   6.823   4.723   6.992
 7677SOL    HW123930   6.741   4.666   6.997
 7677SOL    HW223931   6.901   4.672   0.008
 7678SOL     OW23932   3.573   1.666   5.500
 7678SOL    HW123933   3.638   1.663   5.577
 7678SOL    HW223934   3.623   1.653   5.414
 7679SOL     OW23935   3.203   5.370   4.566
 7679SOL    HW123936   3.190   5.323   4.478
 7679SOL    HW223937   3.233   5.464   4.549
 7680SOL     OW23938   2.002   0.013   4.109
 7680SOL    HW123939   2.070   0.086   4.122
 7680SOL    HW223940   1.928   0.026   4.175
 7681SOL     OW23941   1.949   2.446   5.425
 7681SOL    HW123942   1.983   2.401   5.507
 7681SOL    HW223943   1.993   2.407   5.344
 7682SOL     OW23944   3.250   0.820   2.256
 7682SOL    HW123945   3.287   0.851   2.168
 7682SOL    HW223946   3.157   0.854   2.267
 7683SOL     OW23947   0.703   4.191   4.746
 7683SOL    HW123948   0.686   4.233   4.835
 7683SOL    HW223949   0.674   4.096   4.747
 7684SOL     OW23950   5.339   2.865   1.155
 7684SOL    HW123951   5.264   2.921   1.190
 7684SOL    HW223952   5.322   2.769   1.177
 7685SOL     OW23953   2.923   0.255   0.427
 7685SOL    HW123954   2.911   0.229   0.523
 7685SOL    HW223955   3.002   0.316   0.419
 7686SOL     OW23956   6.740   6.985   4.181
 7686SOL    HW123957   6.713   6.889   4.190
 7686SOL    HW223958   6.834   6.990   4.146
 7687SOL     OW23959   5.080   3.185   6.385
 7687SOL    HW123960   5.162   3.223   6.342
 7687SOL    HW223961   5.001   3.200   6.326
 7688SOL     OW23962   5.755   2.573   6.984
 7688SOL    HW123963   5.775   2.670   6.970
 7688SOL    HW223964   5.789   2.520   6.906
 7689SOL     OW23965   5.816   0.236   1.759
 7689SOL    HW123966   5.792   0.318   1.707
 7689SOL    HW223967   5.908   0.245   1.796
 7690SOL     OW23968   5.592   5.043   1.969
 7690SOL    HW123969   5.608   5.109   2.042
 7690SOL    HW223970   5.593   4.950   2.007
 7691SOL     OW23971   5.024   2.926   4.239
 7691SOL    HW123972   5.084   2.961   4.310
 7691SOL    HW223973   4.933   2.966   4.249
 7692SOL     OW23974   3.068   6.693   2.131
 7692SOL    HW123975   3.068   6.762   2.059
 7692SOL    HW223976   3.155   6.645   2.131
 7693SOL     OW23977   2.982   1.618   1.840
 7693SOL    HW123978   2.960   1.602   1.744
 7693SOL    HW223979   2.989   1.716   1.857
 7694SOL     OW23980   4.180   2.000   6.679
 7694SOL    HW123981   4.235   2.025   6.758
 7694SOL    HW223982   4.180   1.900   6.668
 7695SOL     OW23983   5.175   6.684   3.857
 7695SOL    HW123984   5.120   6.679   3.773
 7695SOL    HW223985   5.203   6.779   3.873
 7696SOL     OW23986   2.497   2.342   5.481
 7696SOL    HW123987   2.483   2.439   5.457
 7696SOL    HW223988   2.509   2.289   5.397
 7697SOL     OW23989   5.944   6.722   3.552
 7697SOL    HW123990   5.906   6.661   3.483
 7697SOL    HW223991   5.962   6.812   3.511
 7698SOL     OW23992   6.354   2.955   0.922
 7698SOL    HW123993   6.342   3.012   1.004
 7698SOL    HW223994   6.272   2.960   0.865
 7699SOL     OW23995   4.135   6.259   5.572
 7699SOL    HW123996   4.219   6.225   5.614
 7699SOL    HW223997   4.072   6.291   5.643
 7700SOL     OW23998   5.968   5.254   1.362
 7700SOL    HW123999   6.050   5.306   1.338
 7700SOL    HW224000   5.960   5.249   1.461
 7701SOL     OW24001   1.737   1.605   6.773
 7701SOL    HW124002   1.755   1.677   6.840
 7701SOL    HW224003   1.701   1.524   6.820
 7702SOL     OW24004   5.393   6.782   5.358
 7702SOL    HW124005   5.302   6.746   5.381
 7702SOL    HW224006   5.384   6.877   5.328
 7703SOL     OW24007   6.775   6.666   5.388
 7703SOL    HW124008   6.750   6.586   5.334
 7703SOL    HW224009   6.849   6.642   5.451
 7704SOL     OW24010   1.761   1.923   4.819
 7704SOL    HW124011   1.673   1.875   4.810
 7704SOL    HW224012   1.791   1.954   4.729
 7705SOL     OW24013   0.544   4.331   0.101
 7705SOL    HW124014   0.633   4.343   0.058
 7705SOL    HW224015   0.524   4.233   0.109
 7706SOL     OW24016   3.445   3.037   2.311
 7706SOL    HW124017   3.496   3.123   2.317
 7706SOL    HW224018   3.370   3.048   2.246
 7707SOL     OW24019   6.841   4.230   6.426
 7707SOL    HW124020   6.917   4.220   6.361
 7707SOL    HW224021   6.792   4.315   6.408
 7708SOL     OW24022   1.124   0.143   4.307
 7708SOL    HW124023   1.178   0.073   4.354
 7708SOL    HW224024   1.056   0.180   4.370
 7709SOL     OW24025   6.515   4.556   0.930
 7709SOL    HW124026   6.417   4.568   0.910
 7709SOL    HW224027   6.567   4.627   0.883
 7710SOL     OW24028   6.542   3.112   2.217
 7710SOL    HW124029   6.461   3.101   2.159
 7710SOL    HW224030   6.624   3.105   2.161
 7711SOL     OW24031   0.778   4.524   3.802
 7711SOL    HW124032   0.794   4.431   3.834
 7711SOL    HW224033   0.688   4.529   3.758
 7712SOL     OW24034   0.719   4.644   4.933
 7712SOL    HW124035   0.796   4.590   4.898
 7712SOL    HW224036   0.680   4.697   4.858
 7713SOL     OW24037   0.981   4.896   0.900
 7713SOL    HW124038   1.023   4.964   0.839
 7713SOL    HW224039   0.931   4.829   0.845
 7714SOL     OW24040   5.835   1.973   5.247
 7714SOL    HW124041   5.883   1.956   5.333
 7714SOL    HW224042   5.743   2.006   5.267
 7715SOL     OW24043   3.489   2.995   6.388
 7715SOL    HW124044   3.532   3.010   6.300
 7715SOL    HW224045   3.540   2.925   6.439
 7716SOL     OW24046   1.081   6.833   6.273
 7716SOL    HW124047   1.098   6.743   6.232
 7716SOL    HW224048   1.112   6.904   6.210
 7717SOL     OW24049   0.523   2.163   6.032
 7717SOL    HW124050   0.554   2.087   5.975
 7717SOL    HW224051   0.593   2.235   6.032
 7718SOL     OW24052   0.234   2.972   2.790
 7718SOL    HW124053   0.178   3.051   2.817
 7718SOL    HW224054   0.214   2.948   2.695
 7719SOL     OW24055   2.098   5.575   5.253
 7719SOL    HW124056   2.177   5.636   5.263
 7719SOL    HW224057   2.096   5.539   5.159
 7720SOL     OW24058   4.558   1.295   6.636
 7720SOL    HW124059   4.645   1.297   6.588
 7720SOL    HW224060   4.483   1.286   6.570
 7721SOL     OW24061   5.770   5.875   2.489
 7721SOL    HW124062   5.831   5.877   2.569
 7721SOL    HW224063   5.748   5.780   2.468
 7722SOL     OW24064   0.802   6.065   3.978
 7722SOL    HW124065   0.822   6.073   3.880
 7722SOL    HW224066   0.810   6.155   4.021
 7723SOL     OW24067   4.624   4.378   0.180
 7723SOL    HW124068   4.529   4.407   0.175
 7723SOL    HW224069   4.628   4.281   0.205
 7724SOL     OW24070   1.487   3.864   0.250
 7724SOL    HW124071   1.466   3.961   0.259
 7724SOL    HW224072   1.486   3.838   0.153
 7725SOL     OW24073   5.358   3.324   4.594
 7725SOL    HW124074   5.359   3.382   4.513
 7725SOL    HW224075   5.376   3.229   4.567
 7726SOL     OW24076   1.951   3.483   6.826
 7726SOL    HW124077   2.020   3.481   6.898
 7726SOL    HW224078   1.990   3.446   6.742
 7727SOL     OW24079   4.848   0.532   2.304
 7727SOL    HW124080   4.765   0.490   2.340
 7727SOL    HW224081   4.853   0.517   2.205
 7728SOL     OW24082   1.774   3.521   4.688
 7728SOL    HW124083   1.842   3.532   4.616
 7728SOL    HW224084   1.819   3.519   4.777
 7729SOL     OW24085   6.922   0.726   2.306
 7729SOL    HW124086   6.873   0.769   2.381
 7729SOL    HW224087   6.891   0.631   2.296
 7730SOL     OW24088   6.001   4.741   5.764
 7730SOL    HW124089   5.960   4.830   5.780
 7730SOL    HW224090   5.948   4.670   5.810
 7731SOL     OW24091   6.503   6.817   5.792
 7731SOL    HW124092   6.532   6.911   5.807
 7731SOL    HW224093   6.542   6.784   5.706
 7732SOL     OW24094   4.649   0.958   0.035
 7732SOL    HW124095   4.655   0.863   0.002
 7732SOL    HW224096   4.739   1.001   0.030
 7733SOL     OW24097   6.768   5.400   1.183
 7733SOL    HW124098   6.815   5.472   1.235
 7733SOL    HW224099   6.679   5.381   1.226
 7734SOL     OW24100   4.030   3.756   3.522
 7734SOL    HW124101   4.058   3.660   3.534
 7734SOL    HW224102   4.005   3.794   3.611
 7735SOL     OW24103   0.695   5.840   1.168
 7735SOL    HW124104   0.765   5.782   1.209
 7735SOL    HW224105   0.608   5.789   1.164
 7736SOL     OW24106   1.910   2.072   0.153
 7736SOL    HW124107   1.941   1.988   0.108
 7736SOL    HW224108   1.984   2.140   0.150
 7737SOL     OW24109   4.450   4.206   6.953
 7737SOL    HW124110   4.527   4.145   6.934
 7737SOL    HW224111   4.396   4.169   0.007
 7738SOL     OW24112   1.661   0.783   5.100
 7738SOL    HW124113   1.685   0.715   5.031
 7738SOL    HW224114   1.681   0.746   5.191
 7739SOL     OW24115   1.310   2.577   0.478
 7739SOL    HW124116   1.325   2.583   0.577
 7739SOL    HW224117   1.252   2.653   0.449
 7740SOL     OW24118   2.716   1.040   4.208
 7740SOL    HW124119   2.803   1.006   4.245
 7740SOL    HW224120   2.652   0.964   4.197
 7741SOL     OW24121   0.065   4.613   6.090
 7741SOL    HW124122   0.142   4.558   6.121
 7741SOL    HW224123   0.080   4.709   6.115
 7742SOL     OW24124   4.655   2.209   4.481
 7742SOL    HW124125   4.658   2.145   4.404
 7742SOL    HW224126   4.567   2.200   4.528
 7743SOL     OW24127   4.033   1.321   6.009
 7743SOL    HW124128   3.983   1.311   5.923
 7743SOL    HW224129   4.043   1.231   6.052
 7744SOL     OW24130   0.710   6.895   4.573
 7744SOL    HW124131   0.660   6.949   4.641
 7744SOL    HW224132   0.716   6.800   4.603
 7745SOL     OW24133   2.805   6.847   0.997
 7745SOL    HW124134   2.729   6.795   0.958
 7745SOL    HW224135   2.878   6.857   0.930
 7746SOL     OW24136   0.402   6.305   1.150
 7746SOL    HW124137   0.345   6.369   1.201
 7746SOL    HW224138   0.401   6.329   1.053
 7747SOL     OW24139   0.240   5.487   1.286
 7747SOL    HW124140   0.339   5.474   1.295
 7747SOL    HW224141   0.197   5.400   1.262
 7748SOL     OW24142   4.291   0.960   6.405
 7748SOL    HW124143   4.316   1.044   6.355
 7748SOL    HW224144   4.352   0.886   6.377
 7749SOL     OW24145   3.729   2.896   3.080
 7749SOL    HW124146   3.692   2.805   3.097
 7749SOL    HW224147   3.756   2.939   3.166
 7750SOL     OW24148   5.280   4.860   6.011
 7750SOL    HW124149   5.208   4.929   6.016
 7750SOL    HW224150   5.263   4.789   6.079
 7751SOL     OW24151   6.952   1.337   4.324
 7751SOL    HW124152   6.989   1.320   4.416
 7751SOL    HW224153   6.873   1.278   4.309
 7752SOL     OW24154   6.185   4.771   5.259
 7752SOL    HW124155   6.131   4.711   5.318
 7752SOL    HW224156   6.263   4.807   5.310
 7753SOL     OW24157   2.758   0.590   4.863
 7753SOL    HW124158   2.829   0.587   4.792
 7753SOL    HW224159   2.801   0.583   4.953
 7754SOL     OW24160   5.776   0.312   1.138
 7754SOL    HW124161   5.831   0.286   1.217
 7754SOL    HW224162   5.700   0.370   1.168
 7755SOL     OW24163   1.652   6.223   5.573
 7755SOL    HW124164   1.602   6.199   5.656
 7755SOL    HW224165   1.731   6.162   5.562
 7756SOL     OW24166   4.138   5.613   3.366
 7756SOL    HW124167   4.105   5.528   3.405
 7756SOL    HW224168   4.184   5.594   3.279
 7757SOL     OW24169   3.657   0.336   5.984
 7757SOL    HW124170   3.577   0.305   5.932
 7757SOL    HW224171   3.665   0.435   5.976
 7758SOL     OW24172   3.161   2.826   6.218
 7758SOL    HW124173   3.199   2.876   6.140
 7758SOL    HW224174   3.203   2.860   6.302
 7759SOL     OW24175   1.675   0.436   4.709
 7759SOL    HW124176   1.579   0.411   4.700
 7759SOL    HW224177   1.733   0.368   4.665
 7760SOL     OW24178   5.116   2.253   3.447
 7760SOL    HW124179   5.064   2.180   3.490
 7760SOL    HW224180   5.186   2.214   3.387
 7761SOL     OW24181   4.825   1.004   6.644
 7761SOL    HW124182   4.876   0.949   6.711
 7761SOL    HW224183   4.834   1.101   6.667
 7762SOL     OW24184   1.810   2.626   0.359
 7762SOL    HW124185   1.734   2.604   0.418
 7762SOL    HW224186   1.776   2.657   0.270
 7763SOL     OW24187   2.292   2.360   1.496
 7763SOL    HW124188   2.347   2.297   1.441
 7763SOL    HW224189   2.340   2.380   1.582
 7764SOL     OW24190   3.787   3.438   2.311
 7764SOL    HW124191   3.689   3.439   2.291
 7764SOL    HW224192   3.830   3.518   2.269
 7765SOL     OW24193   6.812   1.543   2.131
 7765SOL    HW124194   6.816   1.621   2.068
 7765SOL    HW224195   6.791   1.575   2.223
 7766SOL     OW24196   6.772   3.599   6.838
 7766SOL    HW124197   6.680   3.611   6.802
 7766SOL    HW224198   6.835   3.660   6.790
 7767SOL     OW24199   5.580   3.974   5.543
 7767SOL    HW124200   5.620   3.993   5.453
 7767SOL    HW224201   5.481   3.963   5.533
 7768SOL     OW24202   4.001   5.637   2.064
 7768SOL    HW124203   4.060   5.717   2.052
 7768SOL    HW224204   4.029   5.586   2.145
 7769SOL     OW24205   6.046   1.931   2.736
 7769SOL    HW124206   5.988   2.011   2.750
 7769SOL    HW224207   6.080   1.898   2.824
 7770SOL     OW24208   3.112   6.225   1.006
 7770SOL    HW124209   3.026   6.275   1.006
 7770SOL    HW224210   3.179   6.272   1.063
 7771SOL     OW24211   1.938   1.516   4.700
 7771SOL    HW124212   1.993   1.508   4.783
 7771SOL    HW224213   1.998   1.539   4.623
 7772SOL     OW24214   5.730   0.788   4.953
 7772SOL    HW124215   5.669   0.830   4.886
 7772SOL    HW224216   5.778   0.711   4.911
 7773SOL     OW24217   3.738   4.659   6.162
 7773SOL    HW124218   3.740   4.613   6.073
 7773SOL    HW224219   3.659   4.721   6.164
 7774SOL     OW24220   4.801   1.703   0.010
 7774SOL    HW124221   4.801   1.672   0.105
 7774SOL    HW224222   4.783   1.801   0.006
 7775SOL     OW24223   1.896   0.217   1.877
 7775SOL    HW124224   1.872   0.283   1.948
 7775SOL    HW224225   1.836   0.137   1.885
 7776SOL     OW24226   3.493   3.630   0.980
 7776SOL    HW124227   3.539   3.543   0.993
 7776SOL    HW224228   3.408   3.632   1.033
 7777SOL     OW24229   0.952   6.922   6.530
 7777SOL    HW124230   1.021   6.980   6.574
 7777SOL    HW224231   0.995   6.870   6.456
 7778SOL     OW24232   4.933   1.422   1.775
 7778SOL    HW124233   4.893   1.349   1.719
 7778SOL    HW224234   4.941   1.505   1.719
 7779SOL     OW24235   4.266   2.804   0.462
 7779SOL    HW124236   4.225   2.736   0.401
 7779SOL    HW224237   4.358   2.827   0.430
 7780SOL     OW24238   0.854   0.372   5.205
 7780SOL    HW124239   0.821   0.384   5.298
 7780SOL    HW224240   0.881   0.461   5.168
 7781SOL     OW24241   1.568   4.729   5.476
 7781SOL    HW124242   1.597   4.799   5.410
 7781SOL    HW224243   1.486   4.761   5.523
 7782SOL     OW24244   4.481   4.767   0.246
 7782SOL    HW124245   4.400   4.796   0.297
 7782SOL    HW224246   4.546   4.843   0.241
 7783SOL     OW24247   2.123   5.853   6.972
 7783SOL    HW124248   2.180   5.792   6.917
 7783SOL    HW224249   2.054   5.800   0.001
 7784SOL     OW24250   6.728   3.428   0.550
 7784SOL    HW124251   6.746   3.338   0.589
 7784SOL    HW224252   6.777   3.498   0.603
 7785SOL     OW24253   2.167   5.567   5.950
 7785SOL    HW124254   2.209   5.550   5.861
 7785SOL    HW224255   2.071   5.591   5.939
 7786SOL     OW24256   3.720   4.104   4.594
 7786SOL    HW124257   3.700   4.121   4.691
 7786SOL    HW224258   3.816   4.077   4.585
 7787SOL     OW24259   2.787   2.261   5.165
 7787SOL    HW124260   2.837   2.184   5.124
 7787SOL    HW224261   2.730   2.304   5.097
 7788SOL     OW24262   0.879   2.001   0.804
 7788SOL    HW124263   0.792   1.991   0.854
 7788SOL    HW224264   0.954   1.968   0.861
 7789SOL     OW24265   2.344   0.461   1.416
 7789SOL    HW124266   2.342   0.560   1.432
 7789SOL    HW224267   2.323   0.413   1.501
 7790SOL     OW24268   6.197   3.841   3.113
 7790SOL    HW124269   6.255   3.917   3.142
 7790SOL    HW224270   6.248   3.782   3.050
 7791SOL     OW24271   0.377   4.690   5.388
 7791SOL    HW124272   0.431   4.752   5.331
 7791SOL    HW224273   0.356   4.735   5.475
 7792SOL     OW24274   1.905   5.392   6.660
 7792SOL    HW124275   1.882   5.427   6.751
 7792SOL    HW224276   1.868   5.454   6.590
 7793SOL     OW24277   1.551   1.046   6.548
 7793SOL    HW124278   1.482   1.077   6.483
 7793SOL    HW224279   1.632   1.015   6.499
 7794SOL     OW24280   5.456   5.321   2.556
 7794SOL    HW124281   5.460   5.273   2.644
 7794SOL    HW224282   5.521   5.397   2.556
 7795SOL     OW24283   1.215   4.209   6.107
 7795SOL    HW124284   1.300   4.167   6.073
 7795SOL    HW224285   1.139   4.183   6.047
 7796SOL     OW24286   3.960   3.838   4.789
 7796SOL    HW124287   3.862   3.818   4.792
 7796SOL    HW224288   3.991   3.868   4.880
 7797SOL     OW24289   0.805   6.861   3.097
 7797SOL    HW124290   0.890   6.820   3.131
 7797SOL    HW224291   0.785   6.826   3.005
 7798SOL     OW24292   4.228   6.099   6.061
 7798SOL    HW124293   4.305   6.047   6.025
 7798SOL    HW224294   4.167   6.125   5.986
 7799SOL     OW24295   6.361   5.113   1.215
 7799SOL    HW124296   6.375   5.040   1.148
 7799SOL    HW224297   6.310   5.077   1.293
 7800SOL     OW24298   0.768   6.258   2.150
 7800SOL    HW124299   0.770   6.357   2.160
 7800SOL    HW224300   0.855   6.219   2.180
 7801SOL     OW24301   3.998   2.151   5.072
 7801SOL    HW124302   4.083   2.104   5.048
 7801SOL    HW224303   3.922   2.110   5.021
 7802SOL     OW24304   5.357   2.045   0.138
 7802SOL    HW124305   5.382   1.951   0.162
 7802SOL    HW224306   5.268   2.066   0.177
 7803SOL     OW24307   2.904   3.834   5.223
 7803SOL    HW124308   2.904   3.824   5.123
 7803SOL    HW224309   2.811   3.857   5.254
 7804SOL     OW24310   4.910   0.985   6.160
 7804SOL    HW124311   4.864   0.994   6.249
 7804SOL    HW224312   4.906   1.073   6.112
 7805SOL     OW24313   5.296   3.003   1.735
 7805SOL    HW124314   5.202   2.968   1.730
 7805SOL    HW224315   5.324   3.035   1.645
 7806SOL     OW24316   4.816   3.437   6.586
 7806SOL    HW124317   4.719   3.412   6.576
 7806SOL    HW224318   4.860   3.436   6.497
 7807SOL     OW24319   0.381   3.050   6.816
 7807SOL    HW124320   0.332   2.964   6.832
 7807SOL    HW224321   0.455   3.059   6.882
 7808SOL     OW24322   1.142   0.885   5.175
 7808SOL    HW124323   1.152   0.786   5.175
 7808SOL    HW224324   1.104   0.916   5.262
 7809SOL     OW24325   1.421   5.469   5.787
 7809SOL    HW124326   1.474   5.431   5.863
 7809SOL    HW224327   1.366   5.397   5.746
 7810SOL     OW24328   2.325   1.070   0.013
 7810SOL    HW124329   2.311   1.048   0.109
 7810SOL    HW224330   2.268   1.149   7.009
 7811SOL     OW24331   0.493   4.541   4.640
 7811SOL    HW124332   0.570   4.482   4.616
 7811SOL    HW224333   0.449   4.506   4.723
 7812SOL     OW24334   0.508   2.132   3.710
 7812SOL    HW124335   0.410   2.130   3.693
 7812SOL    HW224336   0.551   2.197   3.648
 7813SOL     OW24337   6.278   2.504   1.181
 7813SOL    HW124338   6.342   2.435   1.216
 7813SOL    HW224339   6.327   2.566   1.120
 7814SOL     OW24340   2.144   3.901   4.324
 7814SOL    HW124341   2.183   3.966   4.259
 7814SOL    HW224342   2.071   3.849   4.279
 7815SOL     OW24343   0.347   1.845   5.533
 7815SOL    HW124344   0.280   1.869   5.604
 7815SOL    HW224345   0.313   1.875   5.444
 7816SOL     OW24346   1.586   4.504   5.154
 7816SOL    HW124347   1.618   4.485   5.247
 7816SOL    HW224348   1.490   4.480   5.146
 7817SOL     OW24349   5.358   3.313   5.192
 7817SOL    HW124350   5.314   3.398   5.221
 7817SOL    HW224351   5.289   3.253   5.152
 7818SOL     OW24352   4.926   4.117   2.762
 7818SOL    HW124353   4.891   4.092   2.852
 7818SOL    HW224354   4.899   4.211   2.740
 7819SOL     OW24355   0.405   1.544   1.045
 7819SOL    HW124356   0.355   1.462   1.017
 7819SOL    HW224357   0.453   1.526   1.131
 7820SOL     OW24358   2.695   0.256   6.567
 7820SOL    HW124359   2.684   0.157   6.561
 7820SOL    HW224360   2.620   0.295   6.620
 7821SOL     OW24361   3.091   5.023   1.192
 7821SOL    HW124362   3.161   5.030   1.121
 7821SOL    HW224363   3.024   4.954   1.166
 7822SOL     OW24364   1.903   6.819   5.567
 7822SOL    HW124365   1.917   6.889   5.638
 7822SOL    HW224366   1.972   6.747   5.577
 7823SOL     OW24367   1.911   4.063   4.889
 7823SOL    HW124368   1.976   4.004   4.939
 7823SOL    HW224369   1.887   4.020   4.802
 7824SOL     OW24370   0.611   3.500   5.569
 7824SOL    HW124371   0.708   3.477   5.566
 7824SOL    HW224372   0.557   3.419   5.545
 7825SOL     OW24373   3.289   0.885   6.932
 7825SOL    HW124374   3.211   0.823   6.931
 7825SOL    HW224375   3.326   0.894   6.840
 7826SOL     OW24376   0.445   3.366   5.340
 7826SOL    HW124377   0.520   3.344   5.277
 7826SOL    HW224378   0.377   3.422   5.293
 7827SOL     OW24379   6.001   5.318   4.628
 7827SOL    HW124380   5.904   5.341   4.640
 7827SOL    HW224381   6.040   5.292   4.717
 7828SOL     OW24382   0.773   5.083   6.795
 7828SOL    HW124383   0.802   5.064   6.889
 7828SOL    HW224384   0.673   5.084   6.791
 7829SOL     OW24385   4.095   4.690   0.983
 7829SOL    HW124386   4.104   4.590   0.986
 7829SOL    HW224387   4.102   4.727   1.075
 7830SOL     OW24388   2.640   6.107   3.418
 7830SOL    HW124389   2.592   6.020   3.406
 7830SOL    HW224390   2.736   6.088   3.443
 7831SOL     OW24391   1.560   0.148   5.876
 7831SOL    HW124392   1.465   0.165   5.903
 7831SOL    HW224393   1.617   0.144   5.959
 7832SOL     OW24394   6.508   1.167   5.269
 7832SOL    HW124395   6.585   1.109   5.296
 7832SOL    HW224396   6.431   1.110   5.243
 7833SOL     OW24397   0.895   0.878   2.540
 7833SOL    HW124398   0.988   0.916   2.535
 7833SOL    HW224399   0.836   0.940   2.591
 7834SOL     OW24400   6.718   3.147   4.973
 7834SOL    HW124401   6.738   3.129   5.069
 7834SOL    HW224402   6.794   3.116   4.916
 7835SOL     OW24403   3.819   2.318   5.998
 7835SOL    HW124404   3.754   2.393   5.993
 7835SOL    HW224405   3.896   2.335   5.936
 7836SOL     OW24406   3.102   4.077   4.890
 7836SOL    HW124407   3.055   4.164   4.872
 7836SOL    HW224408   3.153   4.049   4.809
 7837SOL     OW24409   0.799   5.378   6.898
 7837SOL    HW124410   0.758   5.388   6.988
 7837SOL    HW224411   0.787   5.284   6.866
 7838SOL     OW24412   4.012   5.456   2.268
 7838SOL    HW124413   3.971   5.393   2.333
 7838SOL    HW224414   4.051   5.403   2.192
 7839SOL     OW24415   6.206   3.764   4.356
 7839SOL    HW124416   6.242   3.776   4.448
 7839SOL    HW224417   6.212   3.667   4.330
 7840SOL     OW24418   2.290   2.943   3.926
 7840SOL    HW124419   2.347   2.866   3.951
 7840SOL    HW224420   2.244   2.979   4.007
 7841SOL     OW24421   4.192   1.887   5.999
 7841SOL    HW124422   4.095   1.901   6.018
 7841SOL    HW224423   4.246   1.941   6.064
 7842SOL     OW24424   0.999   0.793   1.525
 7842SOL    HW124425   1.025   0.854   1.450
 7842SOL    HW224426   0.901   0.772   1.519
 7843SOL     OW24427   6.787   6.371   2.375
 7843SOL    HW124428   6.879   6.411   2.380
 7843SOL    HW224429   6.736   6.395   2.457
 7844SOL     OW24430   3.919   0.226   2.794
 7844SOL    HW124431   3.904   0.266   2.885
 7844SOL    HW224432   3.830   0.205   2.753
 7845SOL     OW24433   6.156   3.060   1.452
 7845SOL    HW124434   6.100   2.994   1.501
 7845SOL    HW224435   6.134   3.058   1.355
 7846SOL     OW24436   1.177   0.942   1.031
 7846SOL    HW124437   1.234   0.998   0.972
 7846SOL    HW224438   1.223   0.855   1.050
 7847SOL     OW24439   5.441   4.451   5.998
 7847SOL    HW124440   5.510   4.498   5.943
 7847SOL    HW224441   5.486   4.403   6.074
 7848SOL     OW24442   3.992   4.450   0.392
 7848SOL    HW124443   3.894   4.438   0.376
 7848SOL    HW224444   4.033   4.361   0.411
 7849SOL     OW24445   4.106   5.242   0.050
 7849SOL    HW124446   4.081   5.186   0.129
 7849SOL    HW224447   4.099   5.339   0.075
 7850SOL     OW24448   0.181   0.601   3.740
 7850SOL    HW124449   0.110   0.531   3.750
 7850SOL    HW224450   0.270   0.557   3.729
 7851SOL     OW24451   6.927   4.998   0.915
 7851SOL    HW124452   7.006   5.024   0.971
 7851SOL    HW224453   6.845   4.996   0.971
 7852SOL     OW24454   1.040   2.895   5.795
 7852SOL    HW124455   1.017   2.803   5.764
 7852SOL    HW224456   1.117   2.930   5.741
 7853SOL     OW24457   4.166   3.018   1.763
 7853SOL    HW124458   4.115   3.012   1.849
 7853SOL    HW224459   4.102   3.034   1.688
 7854SOL     OW24460   4.536   1.277   0.919
 7854SOL    HW124461   4.620   1.223   0.917
 7854SOL    HW224462   4.507   1.297   0.826
 7855SOL     OW24463   5.645   6.682   3.818
 7855SOL    HW124464   5.582   6.720   3.750
 7855SOL    HW224465   5.596   6.666   3.904
 7856SOL     OW24466   2.174   6.503   5.598
 7856SOL    HW124467   2.191   6.443   5.676
 7856SOL    HW224468   2.239   6.481   5.525
 7857SOL     OW24469   6.234   4.662   0.871
 7857SOL    HW124470   6.273   4.753   0.883
 7857SOL    HW224471   6.136   4.668   0.855
 7858SOL     OW24472   0.116   3.725   6.231
 7858SOL    HW124473   0.112   3.733   6.131
 7858SOL    HW224474   0.206   3.693   6.258
 7859SOL     OW24475   4.767   2.107   1.123
 7859SOL    HW124476   4.795   2.157   1.205
 7859SOL    HW224477   4.706   2.032   1.150
 7860SOL     OW24478   2.639   1.169   3.912
 7860SOL    HW124479   2.665   1.163   4.008
 7860SOL    HW224480   2.588   1.086   3.887
 7861SOL     OW24481   1.877   6.057   1.119
 7861SOL    HW124482   1.930   6.029   1.200
 7861SOL    HW224483   1.819   5.982   1.090
 7862SOL     OW24484   1.586   6.587   7.004
 7862SOL    HW124485   1.684   6.568   6.993
 7862SOL    HW224486   1.550   6.627   6.920
 7863SOL     OW24487   1.130   4.400   4.028
 7863SOL    HW124488   1.101   4.458   4.103
 7863SOL    HW224489   1.130   4.452   3.943
 7864SOL     OW24490   2.820   5.933   4.512
 7864SOL    HW124491   2.884   5.896   4.578
 7864SOL    HW224492   2.857   6.016   4.472
 7865SOL     OW24493   5.721   4.326   3.673
 7865SOL    HW124494   5.662   4.324   3.754
 7865SOL    HW224495   5.732   4.233   3.638
 7866SOL     OW24496   0.974   0.813   5.725
 7866SOL    HW124497   0.910   0.739   5.746
 7866SOL    HW224498   0.962   0.887   5.792
 7867SOL     OW24499   4.206   5.004   4.036
 7867SOL    HW124500   4.287   5.009   4.095
 7867SOL    HW224501   4.179   4.908   4.026
 7868SOL     OW24502   3.208   6.647   1.404
 7868SOL    HW124503   3.225   6.556   1.366
 7868SOL    HW224504   3.114   6.676   1.383
 7869SOL     OW24505   6.188   4.844   0.176
 7869SOL    HW124506   6.172   4.819   0.271
 7869SOL    HW224507   6.279   4.813   0.148
 7870SOL     OW24508   6.406   6.543   3.456
 7870SOL    HW124509   6.362   6.470   3.510
 7870SOL    HW224510   6.351   6.626   3.462
 7871SOL     OW24511   4.352   1.284   0.532
 7871SOL    HW124512   4.378   1.256   0.440
 7871SOL    HW224513   4.254   1.269   0.544
 7872SOL     OW24514   0.262   5.363   3.086
 7872SOL    HW124515   0.318   5.323   3.013
 7872SOL    HW224516   0.321   5.389   3.163
 7873SOL     OW24517   4.708   2.224   6.900
 7873SOL    HW124518   4.634   2.207   6.835
 7873SOL    HW224519   4.709   2.321   6.925
 7874SOL     OW24520   5.815   2.377   0.448
 7874SOL    HW124521   5.777   2.405   0.360
 7874SOL    HW224522   5.768   2.294   0.479
 7875SOL     OW24523   6.506   4.587   6.379
 7875SOL    HW124524   6.485   4.673   6.332
 7875SOL    HW224525   6.555   4.526   6.317
 7876SOL     OW24526   1.440   6.666   3.161
 7876SOL    HW124527   1.442   6.731   3.085
 7876SOL    HW224528   1.453   6.714   3.248
 7877SOL     OW24529   6.789   2.827   2.406
 7877SOL    HW124530   6.773   2.921   2.433
 7877SOL    HW224531   6.888   2.807   2.408
 7878SOL     OW24532   3.897   6.883   2.476
 7878SOL    HW124533   3.934   6.885   2.383
 7878SOL    HW224534   3.810   6.835   2.476
 7879SOL     OW24535   3.285   6.211   2.962
 7879SOL    HW124536   3.201   6.157   2.960
 7879SOL    HW224537   3.313   6.226   3.057
 7880SOL     OW24538   1.125   4.488   2.231
 7880SOL    HW124539   1.211   4.458   2.272
 7880SOL    HW224540   1.054   4.419   2.247
 7881SOL     OW24541   4.857   3.713   3.600
 7881SOL    HW124542   4.847   3.634   3.539
 7881SOL    HW224543   4.823   3.794   3.554
 7882SOL     OW24544   0.237   2.818   6.828
 7882SOL    HW124545   0.155   2.836   6.882
 7882SOL    HW224546   0.269   2.725   6.846
 7883SOL     OW24547   0.634   0.249   4.978
 7883SOL    HW124548   0.613   0.294   5.065
 7883SOL    HW224549   0.555   0.196   4.948
 7884SOL     OW24550   1.204   3.083   4.170
 7884SOL    HW124551   1.239   3.052   4.258
 7884SOL    HW224552   1.278   3.123   4.117
 7885SOL     OW24553   0.454   5.910   6.856
 7885SOL    HW124554   0.395   5.830   6.845
 7885SOL    HW224555   0.528   5.889   6.918
 7886SOL     OW24556   4.936   3.773   1.140
 7886SOL    HW124557   5.014   3.821   1.100
 7886SOL    HW224558   4.860   3.772   1.074
 7887SOL     OW24559   4.720   3.318   6.127
 7887SOL    HW124560   4.670   3.398   6.158
 7887SOL    HW224561   4.818   3.338   6.125
 7888SOL     OW24562   4.372   6.139   4.843
 7888SOL    HW124563   4.290   6.185   4.810
 7888SOL    HW224564   4.367   6.129   4.943
 7889SOL     OW24565   6.509   5.044   3.140
 7889SOL    HW124566   6.601   5.011   3.160
 7889SOL    HW224567   6.505   5.072   3.044
 7890SOL     OW24568   1.779   3.262   2.293
 7890SOL    HW124569   1.818   3.172   2.312
 7890SOL    HW224570   1.699   3.276   2.350
 7891SOL     OW24571   0.881   4.839   2.996
 7891SOL    HW124572   0.791   4.824   2.955
 7891SOL    HW224573   0.934   4.903   2.939
 7892SOL     OW24574   2.109   2.333   4.864
 7892SOL    HW124575   2.046   2.310   4.938
 7892SOL    HW224576   2.060   2.386   4.794
 7893SOL     OW24577   5.916   6.672   1.386
 7893SOL    HW124578   5.987   6.743   1.388
 7893SOL    HW224579   5.827   6.714   1.370
 7894SOL     OW24580   3.102   0.514   1.790
 7894SOL    HW124581   3.010   0.476   1.798
 7894SOL    HW224582   3.110   0.594   1.851
 7895SOL     OW24583   0.544   1.277   3.457
 7895SOL    HW124584   0.526   1.180   3.440
 7895SOL    HW224585   0.460   1.321   3.488
 7896SOL     OW24586   4.001   1.552   6.152
 7896SOL    HW124587   4.001   1.463   6.106
 7896SOL    HW224588   3.908   1.576   6.180
 7897SOL     OW24589   3.169   3.071   6.652
 7897SOL    HW124590   3.175   3.012   6.733
 7897SOL    HW224591   3.082   3.119   6.652
 7898SOL     OW24592   5.088   1.276   4.274
 7898SOL    HW124593   5.079   1.375   4.261
 7898SOL    HW224594   4.999   1.232   4.265
 7899SOL     OW24595   4.354   1.282   2.060
 7899SOL    HW124596   4.285   1.252   2.124
 7899SOL    HW224597   4.401   1.363   2.096
 7900SOL     OW24598   1.013   5.539   1.299
 7900SOL    HW124599   1.008   5.479   1.379
 7900SOL    HW224600   1.037   5.484   1.219
 7901SOL     OW24601   6.091   5.252   0.681
 7901SOL    HW124602   6.107   5.243   0.779
 7901SOL    HW224603   6.073   5.161   0.642
 7902SOL     OW24604   4.960   4.638   5.803
 7902SOL    HW124605   5.007   4.665   5.719
 7902SOL    HW224606   4.874   4.592   5.779
 7903SOL     OW24607   0.107   2.975   0.802
 7903SOL    HW124608   0.095   2.974   0.901
 7903SOL    HW224609   0.017   2.973   0.757
 7904SOL     OW24610   6.292   2.375   2.624
 7904SOL    HW124611   6.236   2.403   2.546
 7904SOL    HW224612   6.273   2.279   2.646
 7905SOL     OW24613   1.804   1.824   1.771
 7905SOL    HW124614   1.742   1.895   1.738
 7905SOL    HW224615   1.875   1.809   1.703
 7906SOL     OW24616   0.504   4.347   6.780
 7906SOL    HW124617   0.531   4.318   6.688
 7906SOL    HW224618   0.413   4.313   6.801
 7907SOL     OW24619   6.915   2.516   2.469
 7907SOL    HW124620   6.972   2.519   2.386
 7907SOL    HW224621   6.877   2.607   2.487
 7908SOL     OW24622   6.364   1.335   2.975
 7908SOL    HW124623   6.441   1.382   2.934
 7908SOL    HW224624   6.328   1.267   2.911
 7909SOL     OW24625   3.971   6.622   4.804
 7909SOL    HW124626   3.980   6.523   4.811
 7909SOL    HW224627   3.930   6.658   4.888
 7910SOL     OW24628   6.587   2.750   5.952
 7910SOL    HW124629   6.664   2.721   6.009
 7910SOL    HW224630   6.538   2.669   5.919
 7911SOL     OW24631   6.929   5.526   6.748
 7911SOL    HW124632   6.886   5.445   6.708
 7911SOL    HW224633   7.013   5.548   6.699
 7912SOL     OW24634   0.242   5.108   5.360
 7912SOL    HW124635   0.285   5.063   5.438
 7912SOL    HW224636   0.269   5.062   5.276
 7913SOL     OW24637   1.538   6.187   6.412
 7913SOL    HW124638   1.467   6.117   6.405
 7913SOL    HW224639   1.559   6.204   6.508
 7914SOL     OW24640   6.172   4.120   1.117
 7914SOL    HW124641   6.171   4.168   1.204
 7914SOL    HW224642   6.159   4.185   1.042
 7915SOL     OW24643   3.113   1.083   2.539
 7915SOL    HW124644   3.065   1.150   2.482
 7915SOL    HW224645   3.203   1.120   2.565
 7916SOL     OW24646   4.232   3.828   5.775
 7916SOL    HW124647   4.208   3.904   5.714
 7916SOL    HW224648   4.224   3.742   5.725
 7917SOL     OW24649   4.030   3.499   3.794
 7917SOL    HW124650   4.068   3.475   3.705
 7917SOL    HW224651   4.086   3.458   3.866
 7918SOL     OW24652   6.254   2.227   3.015
 7918SOL    HW124653   6.194   2.306   2.999
 7918SOL    HW224654   6.345   2.259   3.039
 7919SOL     OW24655   5.343   4.202   1.801
 7919SOL    HW124656   5.322   4.109   1.828
 7919SOL    HW224657   5.258   4.248   1.773
 7920SOL     OW24658   0.138   0.185   1.787
 7920SOL    HW124659   0.169   0.266   1.737
 7920SOL    HW224660   0.196   0.107   1.762
 7921SOL     OW24661   2.356   6.005   1.982
 7921SOL    HW124662   2.451   5.973   1.973
 7921SOL    HW224663   2.342   6.085   1.923
 7922SOL     OW24664   0.848   5.165   5.763
 7922SOL    HW124665   0.824   5.254   5.724
 7922SOL    HW224666   0.904   5.114   5.698
 7923SOL     OW24667   0.500   1.782   2.998
 7923SOL    HW124668   0.594   1.757   2.976
 7923SOL    HW224669   0.490   1.881   2.998
 7924SOL     OW24670   1.906   1.022   3.427
 7924SOL    HW124671   1.976   0.987   3.365
 7924SOL    HW224672   1.942   1.026   3.520
 7925SOL     OW24673   0.366   1.418   6.890
 7925SOL    HW124674   0.413   1.341   6.931
 7925SOL    HW224675   0.274   1.426   6.929
 7926SOL     OW24676   3.192   0.226   1.771
 7926SOL    HW124677   3.177   0.176   1.857
 7926SOL    HW224678   3.156   0.319   1.779
 7927SOL     OW24679   4.447   4.581   4.478
 7927SOL    HW124680   4.368   4.607   4.421
 7927SOL    HW224681   4.531   4.598   4.427
 7928SOL     OW24682   0.656   4.289   6.565
 7928SOL    HW124683   0.671   4.388   6.567
 7928SOL    HW224684   0.723   4.246   6.503
 7929SOL     OW24685   3.963   3.989   4.537
 7929SOL    HW124686   4.049   4.012   4.491
 7929SOL    HW224687   3.982   3.930   4.616
 7930SOL     OW24688   4.993   6.491   3.119
 7930SOL    HW124689   4.908   6.503   3.068
 7930SOL    HW224690   5.047   6.575   3.113
 7931SOL     OW24691   3.159   3.724   6.367
 7931SOL    HW124692   3.166   3.665   6.286
 7931SOL    HW224693   3.249   3.735   6.408
 7932SOL     OW24694   3.138   0.439   0.451
 7932SOL    HW124695   3.100   0.458   0.542
 7932SOL    HW224696   3.164   0.525   0.408
 7933SOL     OW24697   1.486   0.900   6.134
 7933SOL    HW124698   1.461   0.996   6.127
 7933SOL    HW224699   1.450   0.851   6.054
 7934SOL     OW24700   3.836   2.344   5.613
 7934SOL    HW124701   3.888   2.348   5.527
 7934SOL    HW224702   3.840   2.252   5.650
 7935SOL     OW24703   4.543   5.581   2.015
 7935SOL    HW124704   4.516   5.624   2.101
 7935SOL    HW224705   4.473   5.598   1.946
 7936SOL     OW24706   4.581   6.236   2.356
 7936SOL    HW124707   4.596   6.329   2.390
 7936SOL    HW224708   4.638   6.172   2.408
 7937SOL     OW24709   5.872   1.063   5.727
 7937SOL    HW124710   5.853   0.999   5.802
 7937SOL    HW224711   5.814   1.041   5.649
 7938SOL     OW24712   6.038   4.577   4.224
 7938SOL    HW124713   6.061   4.590   4.321
 7938SOL    HW224714   6.116   4.535   4.177
 7939SOL     OW24715   0.356   6.696   4.185
 7939SOL    HW124716   0.257   6.680   4.185
 7939SOL    HW224717   0.401   6.628   4.243
 7940SOL     OW24718   1.369   5.630   0.639
 7940SOL    HW124719   1.378   5.702   0.708
 7940SOL    HW224720   1.316   5.665   0.562
 7941SOL     OW24721   0.757   0.459   0.753
 7941SOL    HW124722   0.732   0.549   0.719
 7941SOL    HW224723   0.694   0.432   0.826
 7942SOL     OW24724   1.606   1.100   1.506
 7942SOL    HW124725   1.683   1.133   1.453
 7942SOL    HW224726   1.638   1.069   1.596
 7943SOL     OW24727   6.519   2.235   0.253
 7943SOL    HW124728   6.603   2.205   0.299
 7943SOL    HW224729   6.440   2.199   0.302
 7944SOL     OW24730   0.095   3.640   1.972
 7944SOL    HW124731   0.065   3.568   1.910
 7944SOL    HW224732   0.017   3.675   2.024
 7945SOL     OW24733   5.334   0.213   0.554
 7945SOL    HW124734   5.247   0.251   0.586
 7945SOL    HW224735   5.399   0.288   0.540
 7946SOL     OW24736   1.761   1.524   5.952
 7946SOL    HW124737   1.801   1.604   5.908
 7946SOL    HW224738   1.793   1.519   6.046
 7947SOL     OW24739   4.412   5.482   6.173
 7947SOL    HW124740   4.510   5.503   6.175
 7947SOL    HW224741   4.399   5.383   6.182
 7948SOL     OW24742   0.723   5.228   6.258
 7948SOL    HW124743   0.708   5.216   6.356
 7948SOL    HW224744   0.636   5.220   6.209
 7949SOL     OW24745   7.015   4.031   3.638
 7949SOL    HW124746   6.945   4.088   3.595
 7949SOL    HW224747   6.971   3.951   3.680
 7950SOL     OW24748   3.738   5.013   3.884
 7950SOL    HW124749   3.756   4.950   3.960
 7950SOL    HW224750   3.822   5.063   3.862
 7951SOL     OW24751   2.538   3.368   0.568
 7951SOL    HW124752   2.495   3.354   0.657
 7951SOL    HW224753   2.603   3.294   0.551
 7952SOL     OW24754   5.424   4.755   0.844
 7952SOL    HW124755   5.412   4.848   0.808
 7952SOL    HW224756   5.516   4.722   0.823
 7953SOL     OW24757   1.814   3.180   2.892
 7953SOL    HW124758   1.765   3.117   2.832
 7953SOL    HW224759   1.758   3.261   2.908
 7954SOL     OW24760   4.947   5.196   4.392
 7954SOL    HW124761   4.907   5.287   4.392
 7954SOL    HW224762   5.044   5.202   4.417
 7955SOL     OW24763   2.261   6.145   6.212
 7955SOL    HW124764   2.174   6.169   6.170
 7955SOL    HW224765   2.321   6.104   6.143
 7956SOL     OW24766   6.400   6.583   2.893
 7956SOL    HW124767   6.321   6.639   2.869
 7956SOL    HW224768   6.468   6.588   2.820
 7957SOL     OW24769   1.090   2.121   1.103
 7957SOL    HW124770   1.001   2.157   1.074
 7957SOL    HW224771   1.104   2.030   1.064
 7958SOL     OW24772   2.400   6.185   3.345
 7958SOL    HW124773   2.356   6.245   3.413
 7958SOL    HW224774   2.494   6.167   3.373
 7959SOL     OW24775   5.031   4.945   1.557
 7959SOL    HW124776   4.987   5.014   1.499
 7959SOL    HW224777   5.119   4.920   1.517
 7960SOL     OW24778   1.673   2.200   1.160
 7960SOL    HW124779   1.703   2.295   1.154
 7960SOL    HW224780   1.585   2.196   1.209
 7961SOL     OW24781   0.941   6.105   0.203
 7961SOL    HW124782   1.029   6.131   0.165
 7961SOL    HW224783   0.868   6.132   0.141
 7962SOL     OW24784   1.928   6.651   2.362
 7962SOL    HW124785   1.940   6.711   2.283
 7962SOL    HW224786   1.886   6.701   2.437
 7963SOL     OW24787   0.468   6.644   4.756
 7963SOL    HW124788   0.547   6.684   4.711
 7963SOL    HW224789   0.492   6.553   4.791
 7964SOL     OW24790   6.106   5.310   3.933
 7964SOL    HW124791   6.193   5.344   3.971
 7964SOL    HW224792   6.050   5.388   3.905
 7965SOL     OW24793   4.551   1.958   0.585
 7965SOL    HW124794   4.574   1.916   0.673
 7965SOL    HW224795   4.527   2.054   0.599
 7966SOL     OW24796   0.310   0.381   3.437
 7966SOL    HW124797   0.232   0.337   3.482
 7966SOL    HW224798   0.395   0.348   3.479
 7967SOL     OW24799   3.211   0.389   3.340
 7967SOL    HW124800   3.203   0.332   3.421
 7967SOL    HW224801   3.307   0.408   3.320
 7968SOL     OW24802   2.577   0.940   1.595
 7968SOL    HW124803   2.596   0.881   1.517
 7968SOL    HW224804   2.554   1.032   1.563
 7969SOL     OW24805   3.403   1.760   3.378
 7969SOL    HW124806   3.460   1.757   3.461
 7969SOL    HW224807   3.456   1.800   3.304
 7970SOL     OW24808   6.892   5.263   3.864
 7970SOL    HW124809   6.824   5.199   3.828
 7970SOL    HW224810   6.923   5.232   3.953
 7971SOL     OW24811   3.472   1.567   2.384
 7971SOL    HW124812   3.399   1.504   2.410
 7971SOL    HW224813   3.433   1.651   2.348
 7972SOL     OW24814   6.327   4.918   1.563
 7972SOL    HW124815   6.345   5.009   1.600
 7972SOL    HW224816   6.249   4.922   1.501
 7973SOL     OW24817   4.629   2.072   3.187
 7973SOL    HW124818   4.539   2.085   3.229
 7973SOL    HW224819   4.618   2.046   3.091
 7974SOL     OW24820   5.715   6.418   3.752
 7974SOL    HW124821   5.670   6.504   3.775
 7974SOL    HW224822   5.812   6.434   3.734
 7975SOL     OW24823   1.520   1.618   2.414
 7975SOL    HW124824   1.484   1.583   2.500
 7975SOL    HW224825   1.608   1.663   2.430
 7976SOL     OW24826   1.203   6.641   6.064
 7976SOL    HW124827   1.181   6.551   6.102
 7976SOL    HW224828   1.286   6.634   6.008
 7977SOL     OW24829   4.999   6.620   1.212
 7977SOL    HW124830   4.917   6.634   1.157
 7977SOL    HW224831   4.988   6.664   1.301
 7978SOL     OW24832   3.604   2.016   5.462
 7978SOL    HW124833   3.576   2.065   5.379
 7978SOL    HW224834   3.537   1.944   5.482
 7979SOL     OW24835   5.114   6.254   4.088
 7979SOL    HW124836   5.209   6.264   4.058
 7979SOL    HW224837   5.102   6.163   4.128
 7980SOL     OW24838   2.986   0.699   2.793
 7980SOL    HW124839   2.987   0.675   2.890
 7980SOL    HW224840   2.967   0.617   2.738
 7981SOL     OW24841   0.779   6.075   2.509
 7981SOL    HW124842   0.706   6.141   2.529
 7981SOL    HW224843   0.775   6.000   2.574
 7982SOL     OW24844   6.803   2.404   0.159
 7982SOL    HW124845   6.724   2.401   0.097
 7982SOL    HW224846   6.806   2.320   0.213
 7983SOL     OW24847   5.050   2.439   2.033
 7983SOL    HW124848   5.027   2.491   2.116
 7983SOL    HW224849   5.034   2.342   2.049
 7984SOL     OW24850   0.111   0.341   0.281
 7984SOL    HW124851   0.079   0.284   0.357
 7984SOL    HW224852   0.044   0.414   0.263
 7985SOL     OW24853   1.019   1.194   0.819
 7985SOL    HW124854   1.109   1.153   0.809
 7985SOL    HW224855   0.957   1.129   0.864
 7986SOL     OW24856   4.966   3.173   6.936
 7986SOL    HW124857   5.009   3.123   7.011
 7986SOL    HW224858   4.914   3.109   6.878
 7987SOL     OW24859   1.103   2.896   4.840
 7987SOL    HW124860   1.078   2.990   4.860
 7987SOL    HW224861   1.061   2.835   4.907
 7988SOL     OW24862   2.971   1.439   5.507
 7988SOL    HW124863   2.885   1.491   5.503
 7988SOL    HW224864   3.035   1.477   5.440
 7989SOL     OW24865   3.720   3.090   6.204
 7989SOL    HW124866   3.685   3.137   6.285
 7989SOL    HW224867   3.801   3.138   6.170
 7990SOL     OW24868   2.280   2.886   4.819
 7990SOL    HW124869   2.335   2.911   4.899
 7990SOL    HW224870   2.312   2.799   4.782
 7991SOL     OW24871   1.906   2.608   5.782
 7991SOL    HW124872   2.001   2.632   5.762
 7991SOL    HW224873   1.899   2.511   5.802
 7992SOL     OW24874   2.860   1.494   1.057
 7992SOL    HW124875   2.816   1.584   1.067
 7992SOL    HW224876   2.909   1.490   0.970
 7993SOL     OW24877   2.468   6.449   6.289
 7993SOL    HW124878   2.560   6.426   6.257
 7993SOL    HW224879   2.442   6.389   6.364
 7994SOL     OW24880   5.515   0.868   4.494
 7994SOL    HW124881   5.586   0.808   4.458
 7994SOL    HW224882   5.428   0.847   4.448
 7995SOL     OW24883   4.267   5.539   3.138
 7995SOL    HW124884   4.327   5.463   3.163
 7995SOL    HW224885   4.306   5.588   3.060
 7996SOL     OW24886   4.405   1.210   4.946
 7996SOL    HW124887   4.445   1.277   4.883
 7996SOL    HW224888   4.476   1.175   5.007
 7997SOL     OW24889   5.324   2.416   1.940
 7997SOL    HW124890   5.346   2.346   2.008
 7997SOL    HW224891   5.238   2.461   1.965
 7998SOL     OW24892   6.528   4.811   6.260
 7998SOL    HW124893   6.469   4.809   6.179
 7998SOL    HW224894   6.477   4.849   6.337
 7999SOL     OW24895   1.977   1.389   5.770
 7999SOL    HW124896   1.955   1.295   5.744
 7999SOL    HW224897   1.969   1.398   5.870
 8000SOL     OW24898   5.177   0.497   5.615
 8000SOL    HW124899   5.084   0.465   5.597
 8000SOL    HW224900   5.174   0.574   5.678
 8001SOL     OW24901   2.659   5.434   1.085
 8001SOL    HW124902   2.603   5.431   1.002
 8001SOL    HW224903   2.698   5.525   1.096
 8002SOL     OW24904   5.390   2.123   5.641
 8002SOL    HW124905   5.374   2.201   5.581
 8002SOL    HW224906   5.311   2.062   5.640
 8003SOL     OW24907   4.143   5.889   3.685
 8003SOL    HW124908   4.065   5.878   3.623
 8003SOL    HW224909   4.212   5.819   3.664
 8004SOL     OW24910   1.127   4.500   3.022
 8004SOL    HW124911   1.182   4.565   3.076
 8004SOL    HW224912   1.185   4.425   2.990
 8005SOL     OW24913   1.914   0.834   2.504
 8005SOL    HW124914   1.917   0.905   2.434
 8005SOL    HW224915   1.974   0.860   2.580
 8006SOL     OW24916   3.663   6.368   1.974
 8006SOL    HW124917   3.624   6.286   2.015
 8006SOL    HW224918   3.591   6.422   1.932
 8007SOL     OW24919   0.354   0.917   3.732
 8007SOL    HW124920   0.269   0.898   3.781
 8007SOL    HW224921   0.387   1.007   3.758
 8008SOL     OW24922   5.673   5.207   0.871
 8008SOL    HW124923   5.675   5.183   0.968
 8008SOL    HW224924   5.671   5.123   0.817
 8009SOL     OW24925   6.805   0.209   3.697
 8009SOL    HW124926   6.900   0.220   3.725
 8009SOL    HW224927   6.751   0.172   3.772
 8010SOL     OW24928   1.986   2.670   6.826
 8010SOL    HW124929   1.982   2.614   6.743
 8010SOL    HW224930   1.945   2.621   6.902
 8011SOL     OW24931   2.213   2.817   0.566
 8011SOL    HW124932   2.187   2.845   0.658
 8011SOL    HW224933   2.311   2.794   0.564
 8012SOL     OW24934   3.174   0.230   3.089
 8012SOL    HW124935   3.201   0.271   3.176
 8012SOL    HW224936   3.216   0.280   3.013
 8013SOL     OW24937   5.816   5.570   4.529
 8013SOL    HW124938   5.912   5.557   4.555
 8013SOL    HW224939   5.766   5.611   4.605
 8014SOL     OW24940   2.090   6.859   6.806
 8014SOL    HW124941   2.086   6.759   6.807
 8014SOL    HW224942   1.997   6.896   6.816
 8015SOL     OW24943   1.479   2.122   6.234
 8015SOL    HW124944   1.408   2.161   6.176
 8015SOL    HW224945   1.551   2.190   6.249
 8016SOL     OW24946   4.573   5.919   2.003
 8016SOL    HW124947   4.481   5.956   1.993
 8016SOL    HW224948   4.610   5.896   1.913
 8017SOL     OW24949   6.237   3.482   5.762
 8017SOL    HW124950   6.235   3.401   5.703
 8017SOL    HW224951   6.326   3.489   5.807
 8018SOL     OW24952   5.689   3.037   4.577
 8018SOL    HW124953   5.758   3.036   4.505
 8018SOL    HW224954   5.733   3.049   4.666
 8019SOL     OW24955   2.634   5.019   1.399
 8019SOL    HW124956   2.535   5.009   1.390
 8019SOL    HW224957   2.667   5.087   1.334
 8020SOL     OW24958   5.707   6.194   6.571
 8020SOL    HW124959   5.772   6.252   6.524
 8020SOL    HW224960   5.687   6.113   6.516
 8021SOL     OW24961   6.617   1.112   0.705
 8021SOL    HW124962   6.653   1.031   0.659
 8021SOL    HW224963   6.629   1.192   0.646
 8022SOL     OW24964   4.392   4.926   3.481
 8022SOL    HW124965   4.314   4.899   3.425
 8022SOL    HW224966   4.379   4.895   3.575
 8023SOL     OW24967   6.799   6.126   3.456
 8023SOL    HW124968   6.700   6.136   3.449
 8023SOL    HW224969   6.830   6.056   3.392
 8024SOL     OW24970   4.420   5.886   5.255
 8024SOL    HW124971   4.484   5.809   5.242
 8024SOL    HW224972   4.353   5.862   5.325
 8025SOL     OW24973   3.333   5.727   0.576
 8025SOL    HW124974   3.365   5.634   0.560
 8025SOL    HW224975   3.248   5.724   0.629
 8026SOL     OW24976   2.499   3.315   6.843
 8026SOL    HW124977   2.595   3.305   6.818
 8026SOL    HW224978   2.453   3.226   6.834
 8027SOL     OW24979   4.602   3.746   5.572
 8027SOL    HW124980   4.655   3.717   5.651
 8027SOL    HW224981   4.618   3.682   5.497
 8028SOL     OW24982   5.103   5.448   0.425
 8028SOL    HW124983   5.185   5.419   0.473
 8028SOL    HW224984   5.117   5.539   0.385
 8029SOL     OW24985   2.947   4.389   0.070
 8029SOL    HW124986   2.940   4.487   0.092
 8029SOL    HW224987   3.040   4.358   0.089
 8030SOL     OW24988   6.261   3.263   0.915
 8030SOL    HW124989   6.328   3.264   0.841
 8030SOL    HW224990   6.169   3.268   0.877
 8031SOL     OW24991   3.608   6.513   1.009
 8031SOL    HW124992   3.683   6.478   0.952
 8031SOL    HW224993   3.643   6.537   1.099
 8032SOL     OW24994   4.700   4.829   5.868
 8032SOL    HW124995   4.674   4.798   5.959
 8032SOL    HW224996   4.740   4.920   5.875
 8033SOL     OW24997   5.974   1.766   1.082
 8033SOL    HW124998   5.963   1.809   1.172
 8033SOL    HW224999   5.999   1.835   1.015
 8034SOL     OW25000   6.409   1.565   5.360
 8034SOL    HW125001   6.379   1.473   5.385
 8034SOL    HW225002   6.385   1.583   5.265
 8035SOL     OW25003   5.416   5.566   6.242
 8035SOL    HW125004   5.512   5.546   6.219
 8035SOL    HW225005   5.411   5.596   6.338
 8036SOL     OW25006   1.293   4.308   1.295
 8036SOL    HW125007   1.235   4.252   1.353
 8036SOL    HW225008   1.282   4.281   1.200
 8037SOL     OW25009   2.205   3.041   1.657
 8037SOL    HW125010   2.305   3.042   1.660
 8037SOL    HW225011   2.175   3.024   1.563
 8038SOL     OW25012   5.894   1.580   4.204
 8038SOL    HW125013   5.980   1.628   4.224
 8038SOL    HW225014   5.860   1.535   4.286
 8039SOL     OW25015   2.569   6.087   4.267
 8039SOL    HW125016   2.650   6.132   4.230
 8039SOL    HW225017   2.498   6.083   4.197
 8040SOL     OW25018   5.679   5.682   0.289
 8040SOL    HW125019   5.656   5.592   0.253
 8040SOL    HW225020   5.778   5.687   0.305
 8041SOL     OW25021   3.754   2.023   1.093
 8041SOL    HW125022   3.701   2.086   1.035
 8041SOL    HW225023   3.770   2.065   1.182
 8042SOL     OW25024   2.557   4.546   0.446
 8042SOL    HW125025   2.629   4.616   0.440
 8042SOL    HW225026   2.576   4.473   0.381
 8043SOL     OW25027   3.024   0.718   1.104
 8043SOL    HW125028   2.942   0.663   1.122
 8043SOL    HW225029   3.052   0.705   1.009
 8044SOL     OW25030   3.085   3.392   1.825
 8044SOL    HW125031   2.991   3.359   1.823
 8044SOL    HW225032   3.089   3.486   1.789
 8045SOL     OW25033   6.211   3.033   3.795
 8045SOL    HW125034   6.234   2.946   3.752
 8045SOL    HW225035   6.179   3.017   3.889
 8046SOL     OW25036   0.186   5.283   4.965
 8046SOL    HW125037   0.092   5.272   4.998
 8046SOL    HW225038   0.209   5.380   4.964
 8047SOL     OW25039   2.785   0.206   4.434
 8047SOL    HW125040   2.811   0.140   4.364
 8047SOL    HW225041   2.736   0.282   4.392
 8048SOL     OW25042   6.269   0.954   5.736
 8048SOL    HW125043   6.230   0.890   5.801
 8048SOL    HW225044   6.221   1.042   5.742
 8049SOL     OW25045   1.323   0.006   0.407
 8049SOL    HW125046   1.366   0.053   0.485
 8049SOL    HW225047   1.367   0.036   0.322
 8050SOL     OW25048   0.343   3.106   1.515
 8050SOL    HW125049   0.320   3.202   1.531
 8050SOL    HW225050   0.378   3.066   1.600
 8051SOL     OW25051   3.277   1.507   3.728
 8051SOL    HW125052   3.203   1.483   3.664
 8051SOL    HW225053   3.332   1.426   3.747
 8052SOL     OW25054   3.362   2.116   3.145
 8052SOL    HW125055   3.278   2.061   3.150
 8052SOL    HW225056   3.394   2.120   3.051
 8053SOL     OW25057   4.339   3.328   1.700
 8053SOL    HW125058   4.305   3.375   1.781
 8053SOL    HW225059   4.299   3.236   1.695
 8054SOL     OW25060   4.759   6.255   4.325
 8054SOL    HW125061   4.709   6.187   4.271
 8054SOL    HW225062   4.775   6.336   4.268
 8055SOL     OW25063   0.378   0.095   5.587
 8055SOL    HW125064   0.438   0.133   5.658
 8055SOL    HW225065   0.415   0.008   5.555
 8056SOL     OW25066   4.520   1.443   2.201
 8056SOL    HW125067   4.576   1.507   2.254
 8056SOL    HW225068   4.532   1.350   2.238
 8057SOL     OW25069   3.002   0.211   3.526
 8057SOL    HW125070   2.968   0.292   3.574
 8057SOL    HW225071   3.069   0.164   3.584
 8058SOL     OW25072   2.215   0.028   3.068
 8058SOL    HW125073   2.182   0.107   3.121
 8058SOL    HW225074   2.313   0.017   3.084
 8059SOL     OW25075   2.522   0.932   3.620
 8059SOL    HW125076   2.509   0.859   3.552
 8059SOL    HW225077   2.603   0.986   3.596
 8060SOL     OW25078   0.785   2.973   4.897
 8060SOL    HW125079   0.847   3.051   4.904
 8060SOL    HW225080   0.802   2.910   4.973
 8061SOL     OW25081   6.605   5.863   2.169
 8061SOL    HW125082   6.640   5.889   2.079
 8061SOL    HW225083   6.516   5.905   2.183
 8062SOL     OW25084   1.519   3.413   2.262
 8062SOL    HW125085   1.478   3.474   2.330
 8062SOL    HW225086   1.582   3.464   2.204
 8063SOL     OW25087   2.467   2.957   6.379
 8063SOL    HW125088   2.560   2.921   6.390
 8063SOL    HW225089   2.420   2.956   6.467
 8064SOL     OW25090   6.740   2.363   6.436
 8064SOL    HW125091   6.738   2.458   6.467
 8064SOL    HW225092   6.753   2.360   6.337
 8065SOL     OW25093   4.530   6.972   6.450
 8065SOL    HW125094   4.479   6.961   6.366
 8065SOL    HW225095   4.513   6.894   6.511
 8066SOL     OW25096   1.877   6.903   1.838
 8066SOL    HW125097   1.863   6.959   1.756
 8066SOL    HW225098   1.972   6.912   1.869
 8067SOL     OW25099   4.760   2.457   2.537
 8067SOL    HW125100   4.680   2.402   2.513
 8067SOL    HW225101   4.730   2.545   2.575
 8068SOL     OW25102   6.190   4.542   4.442
 8068SOL    HW125103   6.285   4.511   4.448
 8068SOL    HW225104   6.183   4.636   4.475
 8069SOL     OW25105   1.407   6.517   2.248
 8069SOL    HW125106   1.315   6.554   2.234
 8069SOL    HW225107   1.451   6.565   2.324
 8070SOL     OW25108   3.640   0.129   2.665
 8070SOL    HW125109   3.634   0.228   2.653
 8070SOL    HW225110   3.618   0.083   2.580
 8071SOL     OW25111   4.563   6.120   0.072
 8071SOL    HW125112   4.502   6.199   0.077
 8071SOL    HW225113   4.658   6.151   0.075
 8072SOL     OW25114   4.690   0.301   2.608
 8072SOL    HW125115   4.671   0.374   2.542
 8072SOL    HW225116   4.676   0.335   2.701
 8073SOL     OW25117   5.037   0.088   5.739
 8073SOL    HW125118   4.980   0.070   5.819
 8073SOL    HW225119   5.091   0.007   5.717
 8074SOL     OW25120   3.205   4.142   6.694
 8074SOL    HW125121   3.248   4.070   6.640
 8074SOL    HW225122   3.274   4.210   6.720
 8075SOL     OW25123   5.951   2.386   3.513
 8075SOL    HW125124   5.899   2.409   3.431
 8075SOL    HW225125   6.039   2.346   3.487
 8076SOL     OW25126   4.557   2.593   6.505
 8076SOL    HW125127   4.647   2.572   6.542
 8076SOL    HW225128   4.507   2.507   6.490
 8077SOL     OW25129   1.444   0.077   0.182
 8077SOL    HW125130   1.543   0.081   0.170
 8077SOL    HW225131   1.400   0.143   0.120
 8078SOL     OW25132   5.949   2.617   0.981
 8078SOL    HW125133   5.895   2.669   0.916
 8078SOL    HW225134   5.991   2.538   0.936
 8079SOL     OW25135   1.034   2.337   1.348
 8079SOL    HW125136   1.111   2.287   1.388
 8079SOL    HW225137   1.055   2.360   1.253
 8080SOL     OW25138   4.098   4.931   0.630
 8080SOL    HW125139   4.022   4.995   0.634
 8080SOL    HW225140   4.070   4.848   0.581
 8081SOL     OW25141   5.750   1.965   4.703
 8081SOL    HW125142   5.838   1.917   4.700
 8081SOL    HW225143   5.703   1.952   4.616
 8082SOL     OW25144   6.429   3.468   4.460
 8082SOL    HW125145   6.421   3.488   4.362
 8082SOL    HW225146   6.499   3.399   4.474
 8083SOL     OW25147   6.125   2.180   4.701
 8083SOL    HW125148   6.209   2.152   4.653
 8083SOL    HW225149   6.119   2.133   4.788
 8084SOL     OW25150   6.492   0.255   0.409
 8084SOL    HW125151   6.400   0.284   0.383
 8084SOL    HW225152   6.547   0.335   0.432
 8085SOL     OW25153   5.398   2.224   1.017
 8085SOL    HW125154   5.305   2.194   1.000
 8085SOL    HW225155   5.417   2.222   1.115
 8086SOL     OW25156   2.382   5.963   6.022
 8086SOL    HW125157   2.309   5.969   5.954
 8086SOL    HW225158   2.377   5.876   6.070
 8087SOL     OW25159   2.953   3.991   0.688
 8087SOL    HW125160   2.987   4.054   0.619
 8087SOL    HW225161   3.011   3.910   0.691
 8088SOL     OW25162   4.440   0.701   2.861
 8088SOL    HW125163   4.388   0.743   2.935
 8088SOL    HW225164   4.384   0.697   2.778
 8089SOL     OW25165   6.155   2.789   0.692
 8089SOL    HW125166   6.089   2.717   0.672
 8089SOL    HW225167   6.231   2.784   0.627
 8090SOL     OW25168   4.529   2.040   5.256
 8090SOL    HW125169   4.568   1.948   5.265
 8090SOL    HW225170   4.574   2.102   5.320
 8091SOL     OW25171   2.138   4.290   5.115
 8091SOL    HW125172   2.042   4.319   5.106
 8091SOL    HW225173   2.155   4.215   5.051
 8092SOL     OW25174   6.515   1.853   4.629
 8092SOL    HW125175   6.499   1.951   4.643
 8092SOL    HW225176   6.506   1.831   4.532
 8093SOL     OW25177   5.834   5.419   0.810
 8093SOL    HW125178   5.753   5.375   0.848
 8093SOL    HW225179   5.855   5.379   0.721
 8094SOL     OW25180   0.523   4.117   4.309
 8094SOL    HW125181   0.470   4.200   4.322
 8094SOL    HW225182   0.619   4.140   4.295
 8095SOL     OW25183   6.501   3.482   4.939
 8095SOL    HW125184   6.555   3.479   4.854
 8095SOL    HW225185   6.467   3.575   4.953
 8096SOL     OW25186   4.399   0.345   0.493
 8096SOL    HW125187   4.476   0.400   0.528
 8096SOL    HW225188   4.333   0.406   0.448
 8097SOL     OW25189   4.888   1.488   4.485
 8097SOL    HW125190   4.939   1.515   4.403
 8097SOL    HW225191   4.951   1.448   4.551
 8098SOL     OW25192   2.135   1.461   4.463
 8098SOL    HW125193   2.203   1.498   4.527
 8098SOL    HW225194   2.172   1.380   4.418
 8099SOL     OW25195   3.513   6.154   5.369
 8099SOL    HW125196   3.475   6.126   5.457
 8099SOL    HW225197   3.612   6.142   5.369
 8100SOL     OW25198   6.560   6.268   0.733
 8100SOL    HW125199   6.619   6.192   0.757
 8100SOL    HW225200   6.515   6.249   0.646
 8101SOL     OW25201   0.322   4.819   2.187
 8101SOL    HW125202   0.387   4.758   2.232
 8101SOL    HW225203   0.363   4.910   2.178
 8102SOL     OW25204   6.443   0.315   5.794
 8102SOL    HW125205   6.407   0.323   5.887
 8102SOL    HW225206   6.490   0.400   5.770
 8103SOL     OW25207   1.974   2.219   2.189
 8103SOL    HW125208   2.057   2.243   2.239
 8103SOL    HW225209   1.959   2.284   2.115
 8104SOL     OW25210   3.086   6.989   6.099
 8104SOL    HW125211   3.007   7.007   6.157
 8104SOL    HW225212   3.118   0.054   6.059
 8105SOL     OW25213   2.247   2.806   3.177
 8105SOL    HW125214   2.194   2.726   3.205
 8105SOL    HW225215   2.194   2.889   3.196
 8106SOL     OW25216   0.410   3.747   5.188
 8106SOL    HW125217   0.396   3.842   5.216
 8106SOL    HW225218   0.508   3.726   5.188
 8107SOL     OW25219   1.169   5.539   6.809
 8107SOL    HW125220   1.155   5.530   6.711
 8107SOL    HW225221   1.137   5.457   6.856
 8108SOL     OW25222   2.227   3.349   5.189
 8108SOL    HW125223   2.314   3.334   5.235
 8108SOL    HW225224   2.154   3.353   5.257
 8109SOL     OW25225   1.240   5.352   5.248
 8109SOL    HW125226   1.293   5.268   5.261
 8109SOL    HW225227   1.245   5.380   5.152
 8110SOL     OW25228   1.533   4.504   0.648
 8110SOL    HW125229   1.509   4.426   0.591
 8110SOL    HW225230   1.613   4.550   0.609
 8111SOL     OW25231   3.148   5.772   4.192
 8111SOL    HW125232   3.076   5.841   4.206
 8111SOL    HW225233   3.116   5.704   4.126
 8112SOL     OW25234   4.266   1.040   4.106
 8112SOL    HW125235   4.293   0.980   4.181
 8112SOL    HW225236   4.172   1.071   4.119
 8113SOL     OW25237   2.987   2.809   5.650
 8113SOL    HW125238   3.024   2.723   5.614
 8113SOL    HW225239   3.025   2.886   5.599
 8114SOL     OW25240   2.790   3.333   1.832
 8114SOL    HW125241   2.706   3.369   1.793
 8114SOL    HW225242   2.799   3.365   1.927
 8115SOL     OW25243   3.175   2.783   1.316
 8115SOL    HW125244   3.248   2.714   1.312
 8115SOL    HW225245   3.167   2.817   1.409
 8116SOL     OW25246   4.895   1.555   5.356
 8116SOL    HW125247   4.845   1.497   5.420
 8116SOL    HW225248   4.838   1.573   5.276
 8117SOL     OW25249   2.818   1.707   5.836
 8117SOL    HW125250   2.915   1.696   5.813
 8117SOL    HW225251   2.788   1.628   5.889
 8118SOL     OW25252   1.934   2.414   3.946
 8118SOL    HW125253   1.883   2.444   3.865
 8118SOL    HW225254   1.988   2.490   3.982
 8119SOL     OW25255   1.061   6.311   1.932
 8119SOL    HW125256   1.079   6.267   1.844
 8119SOL    HW225257   1.112   6.264   2.004
 8120SOL     OW25258   4.601   4.506   2.436
 8120SOL    HW125259   4.694   4.544   2.434
 8120SOL    HW225260   4.568   4.497   2.342
 8121SOL     OW25261   6.593   6.114   2.835
 8121SOL    HW125262   6.531   6.191   2.822
 8121SOL    HW225263   6.654   6.107   2.756
 8122SOL     OW25264   6.830   5.606   1.329
 8122SOL    HW125265   6.899   5.623   1.400
 8122SOL    HW225266   6.764   5.681   1.329
 8123SOL     OW25267   1.294   5.203   0.226
 8123SOL    HW125268   1.336   5.165   0.309
 8123SOL    HW225269   1.199   5.229   0.246
 8124SOL     OW25270   1.163   6.665   3.411
 8124SOL    HW125271   1.226   6.719   3.467
 8124SOL    HW225272   1.070   6.680   3.444
 8125SOL     OW25273   5.632   4.788   2.947
 8125SOL    HW125274   5.570   4.787   3.026
 8125SOL    HW225275   5.715   4.737   2.969
 8126SOL     OW25276   6.703   4.643   2.340
 8126SOL    HW125277   6.621   4.644   2.396
 8126SOL    HW225278   6.688   4.586   2.259
 8127SOL     OW25279   4.168   5.572   1.420
 8127SOL    HW125280   4.211   5.484   1.441
 8127SOL    HW225281   4.085   5.583   1.476
 8128SOL     OW25282   3.363   1.844   5.487
 8128SOL    HW125283   3.287   1.839   5.551
 8128SOL    HW225284   3.422   1.763   5.499
 8129SOL     OW25285   4.813   5.965   6.289
 8129SOL    HW125286   4.760   5.927   6.365
 8129SOL    HW225287   4.851   5.889   6.235
 8130SOL     OW25288   0.455   0.045   6.826
 8130SOL    HW125289   0.537   0.028   6.771
 8130SOL    HW225290   0.434   0.143   6.825
 8131SOL     OW25291   2.399   1.237   0.868
 8131SOL    HW125292   2.417   1.239   0.966
 8131SOL    HW225293   2.310   1.279   0.849
 8132SOL     OW25294   5.464   4.512   3.214
 8132SOL    HW125295   5.545   4.471   3.174
 8132SOL    HW225296   5.382   4.472   3.172
 8133SOL     OW25297   0.514   5.966   1.691
 8133SOL    HW125298   0.558   6.043   1.644
 8133SOL    HW225299   0.556   5.954   1.781
 8134SOL     OW25300   1.988   2.542   2.026
 8134SOL    HW125301   2.034   2.464   1.983
 8134SOL    HW225302   2.054   2.616   2.040
 8135SOL     OW25303   4.079   6.194   2.567
 8135SOL    HW125304   4.051   6.175   2.472
 8135SOL    HW225305   3.999   6.219   2.621
 8136SOL     OW25306   2.152   6.094   1.560
 8136SOL    HW125307   2.174   6.191   1.566
 8136SOL    HW225308   2.120   6.061   1.649
 8137SOL     OW25309   3.050   3.579   4.956
 8137SOL    HW125310   3.051   3.679   4.948
 8137SOL    HW225311   2.975   3.552   5.017
 8138SOL     OW25312   4.635   1.371   3.333
 8138SOL    HW125313   4.603   1.438   3.265
 8138SOL    HW225314   4.561   1.349   3.395
 8139SOL     OW25315   1.573   3.124   5.381
 8139SOL    HW125316   1.587   3.052   5.313
 8139SOL    HW225317   1.616   3.097   5.467
 8140SOL     OW25318   4.411   0.980   0.797
 8140SOL    HW125319   4.383   0.891   0.833
 8140SOL    HW225320   4.423   1.044   0.872
 8141SOL     OW25321   5.931   1.017   5.385
 8141SOL    HW125322   5.887   0.968   5.310
 8141SOL    HW225323   5.974   0.951   5.447
 8142SOL     OW25324   2.646   5.892   0.822
 8142SOL    HW125325   2.623   5.880   0.725
 8142SOL    HW225326   2.592   5.967   0.860
 8143SOL     OW25327   6.359   4.514   0.203
 8143SOL    HW125328   6.294   4.482   0.134
 8143SOL    HW225329   6.311   4.532   0.288
 8144SOL     OW25330   1.399   5.423   6.916
 8144SOL    HW125331   1.360   5.508   6.879
 8144SOL    HW225332   1.365   5.409   7.009
 8145SOL     OW25333   5.156   5.527   6.324
 8145SOL    HW125334   5.236   5.534   6.264
 8145SOL    HW225335   5.175   5.463   6.398
 8146SOL     OW25336   6.887   6.234   4.763
 8146SOL    HW125337   6.856   6.327   4.743
 8146SOL    HW225338   6.930   6.195   4.682
 8147SOL     OW25339   2.422   0.551   5.288
 8147SOL    HW125340   2.463   0.494   5.358
 8147SOL    HW225341   2.492   0.610   5.246
 8148SOL     OW25342   5.134   4.922   0.299
 8148SOL    HW125343   5.218   4.878   0.266
 8148SOL    HW225344   5.062   4.853   0.309
 8149SOL     OW25345   1.427   6.770   5.390
 8149SOL    HW125346   1.380   6.850   5.426
 8149SOL    HW225347   1.512   6.755   5.441
 8150SOL     OW25348   0.404   3.987   0.354
 8150SOL    HW125349   0.316   3.997   0.309
 8150SOL    HW225350   0.437   4.077   0.385
 8151SOL     OW25351   6.311   4.901   2.832
 8151SOL    HW125352   6.213   4.892   2.851
 8151SOL    HW225353   6.341   4.993   2.855
 8152SOL     OW25354   5.749   1.768   3.170
 8152SOL    HW125355   5.689   1.789   3.247
 8152SOL    HW225356   5.710   1.806   3.086
 8153SOL     OW25357   0.012   1.807   1.480
 8153SOL    HW125358   0.096   1.766   1.445
 8153SOL    HW225359   6.956   1.783   1.419
 8154SOL     OW25360   1.356   0.614   3.149
 8154SOL    HW125361   1.288   0.613   3.076
 8154SOL    HW225362   1.392   0.707   3.161
 8155SOL     OW25363   1.626   5.132   4.343
 8155SOL    HW125364   1.627   5.081   4.256
 8155SOL    HW225365   1.611   5.068   4.418
 8156SOL     OW25366   1.389   3.768   0.882
 8156SOL    HW125367   1.460   3.758   0.951
 8156SOL    HW225368   1.319   3.698   0.894
 8157SOL     OW25369   6.210   4.975   4.769
 8157SOL    HW125370   6.165   5.062   4.750
 8157SOL    HW225371   6.170   4.933   4.851
 8158SOL     OW25372   6.125   5.118   6.095
 8158SOL    HW125373   6.026   5.124   6.080
 8158SOL    HW225374   6.144   5.113   6.193
 8159SOL     OW25375   2.912   0.135   4.927
 8159SOL    HW125376   2.880   0.187   5.006
 8159SOL    HW225377   2.908   0.193   4.845
 8160SOL     OW25378   5.635   2.278   2.813
 8160SOL    HW125379   5.624   2.202   2.876
 8160SOL    HW225380   5.660   2.361   2.864
 8161SOL     OW25381   6.680   2.841   1.874
 8161SOL    HW125382   6.635   2.776   1.934
 8161SOL    HW225383   6.754   2.795   1.824
 8162SOL     OW25384   1.240   5.799   5.376
 8162SOL    HW125385   1.189   5.879   5.345
 8162SOL    HW225386   1.176   5.724   5.395
 8163SOL     OW25387   4.117   4.722   5.367
 8163SOL    HW125388   4.116   4.748   5.271
 8163SOL    HW225389   4.023   4.720   5.402
 8164SOL     OW25390   5.265   1.934   0.880
 8164SOL    HW125391   5.264   1.993   0.799
 8164SOL    HW225392   5.339   1.963   0.941
 8165SOL     OW25393   0.800   1.832   6.211
 8165SOL    HW125394   0.767   1.921   6.243
 8165SOL    HW225395   0.890   1.813   6.251
 8166SOL     OW25396   2.592   1.872   4.738
 8166SOL    HW125397   2.634   1.956   4.774
 8166SOL    HW225398   2.632   1.851   4.648
 8167SOL     OW25399   1.962   2.812   3.339
 8167SOL    HW125400   1.977   2.738   3.274
 8167SOL    HW225401   1.999   2.787   3.428
 8168SOL     OW25402   1.470   6.376   2.812
 8168SOL    HW125403   1.514   6.289   2.790
 8168SOL    HW225404   1.523   6.451   2.771
 8169SOL     OW25405   4.818   4.214   0.684
 8169SOL    HW125406   4.804   4.293   0.744
 8169SOL    HW225407   4.881   4.239   0.611
 8170SOL     OW25408   0.146   4.383   2.858
 8170SOL    HW125409   0.223   4.390   2.921
 8170SOL    HW225410   0.179   4.357   2.767
 8171SOL     OW25411   2.442   1.999   1.563
 8171SOL    HW125412   2.380   2.077   1.577
 8171SOL    HW225413   2.525   2.013   1.618
 8172SOL     OW25414   1.524   4.159   0.927
 8172SOL    HW125415   1.540   4.223   0.851
 8172SOL    HW225416   1.597   4.170   0.994
 8173SOL     OW25417   6.034   0.427   1.671
 8173SOL    HW125418   6.118   0.373   1.667
 8173SOL    HW225419   6.057   0.524   1.673
 8174SOL     OW25420   1.929   6.685   3.810
 8174SOL    HW125421   2.013   6.634   3.793
 8174SOL    HW225422   1.867   6.629   3.866
 8175SOL     OW25423   0.494   2.212   5.580
 8175SOL    HW125424   0.430   2.180   5.650
 8175SOL    HW225425   0.459   2.191   5.489
 8176SOL     OW25426   2.831   4.944   0.270
 8176SOL    HW125427   2.770   4.930   0.192
 8176SOL    HW225428   2.812   4.874   0.339
 8177SOL     OW25429   2.896   1.147   2.903
 8177SOL    HW125430   2.806   1.183   2.879
 8177SOL    HW225431   2.890   1.048   2.916
 8178SOL     OW25432   2.088   6.770   0.893
 8178SOL    HW125433   2.106   6.737   0.986
 8178SOL    HW225434   1.995   6.746   0.866
 8179SOL     OW25435   5.907   0.301   3.492
 8179SOL    HW125436   5.825   0.330   3.541
 8179SOL    HW225437   5.987   0.349   3.530
 8180SOL     OW25438   4.640   5.606   0.490
 8180SOL    HW125439   4.737   5.630   0.484
 8180SOL    HW225440   4.621   5.531   0.428
 8181SOL     OW25441   6.053   0.612   6.159
 8181SOL    HW125442   6.059   0.666   6.243
 8181SOL    HW225443   5.973   0.553   6.163
 8182SOL     OW25444   3.586   3.841   3.000
 8182SOL    HW125445   3.486   3.840   2.991
 8182SOL    HW225446   3.621   3.748   2.993
 8183SOL     OW25447   6.761   0.285   5.615
 8183SOL    HW125448   6.743   0.309   5.711
 8183SOL    HW225449   6.695   0.216   5.586
 8184SOL     OW25450   0.497   6.079   5.474
 8184SOL    HW125451   0.414   6.077   5.530
 8184SOL    HW225452   0.559   6.005   5.502
 8185SOL     OW25453   0.576   5.876   5.270
 8185SOL    HW125454   0.676   5.870   5.270
 8185SOL    HW225455   0.548   5.953   5.327
 8186SOL     OW25456   1.419   5.340   0.750
 8186SOL    HW125457   1.344   5.363   0.811
 8186SOL    HW225458   1.426   5.240   0.742
 8187SOL     OW25459   1.954   6.652   4.859
 8187SOL    HW125460   1.958   6.564   4.811
 8187SOL    HW225461   2.046   6.692   4.862
 8188SOL     OW25462   1.865   3.028   2.326
 8188SOL    HW125463   1.912   3.023   2.414
 8188SOL    HW225464   1.835   2.937   2.299
 8189SOL     OW25465   5.732   4.642   4.001
 8189SOL    HW125466   5.646   4.686   3.972
 8189SOL    HW225467   5.731   4.630   4.100
 8190SOL     OW25468   6.425   3.721   2.933
 8190SOL    HW125469   6.369   3.638   2.936
 8190SOL    HW225470   6.511   3.701   2.885
 8191SOL     OW25471   3.890   4.994   1.098
 8191SOL    HW125472   3.977   4.956   1.131
 8191SOL    HW225473   3.832   5.016   1.177
 8192SOL     OW25474   0.821   6.087   3.721
 8192SOL    HW125475   0.895   6.067   3.657
 8192SOL    HW225476   0.760   6.155   3.681
 8193SOL     OW25477   0.484   5.031   3.853
 8193SOL    HW125478   0.558   4.968   3.830
 8193SOL    HW225479   0.398   4.996   3.816
 8194SOL     OW25480   5.002   0.583   1.822
 8194SOL    HW125481   5.038   0.658   1.878
 8194SOL    HW225482   5.075   0.546   1.765
 8195SOL     OW25483   6.366   0.074   3.678
 8195SOL    HW125484   6.431   0.135   3.633
 8195SOL    HW225485   6.367   7.005   3.632
 8196SOL     OW25486   4.984   0.814   2.104
 8196SOL    HW125487   4.918   0.882   2.072
 8196SOL    HW225488   5.027   0.846   2.188
 8197SOL     OW25489   4.223   1.623   3.414
 8197SOL    HW125490   4.227   1.714   3.456
 8197SOL    HW225491   4.297   1.567   3.450
 8198SOL     OW25492   1.591   5.819   1.205
 8198SOL    HW125493   1.656   5.790   1.274
 8198SOL    HW225494   1.512   5.758   1.206
 8199SOL     OW25495   5.664   2.185   0.534
 8199SOL    HW125496   5.640   2.259   0.598
 8199SOL    HW225497   5.704   2.109   0.585
 8200SOL     OW25498   5.217   4.322   0.737
 8200SOL    HW125499   5.213   4.419   0.714
 8200SOL    HW225500   5.137   4.297   0.793
 8201SOL     OW25501   5.921   7.007   5.306
 8201SOL    HW125502   5.999   0.048   5.292
 8201SOL    HW225503   5.847   0.011   5.244
 8202SOL     OW25504   1.589   6.106   1.949
 8202SOL    HW125505   1.614   6.015   1.916
 8202SOL    HW225506   1.655   6.173   1.916
 8203SOL     OW25507   1.723   3.206   1.151
 8203SOL    HW125508   1.721   3.116   1.194
 8203SOL    HW225509   1.754   3.274   1.217
 8204SOL     OW25510   1.864   3.240   0.892
 8204SOL    HW125511   1.819   3.231   0.804
 8204SOL    HW225512   1.799   3.221   0.966
 8205SOL     OW25513   0.462   3.854   6.763
 8205SOL    HW125514   0.413   3.776   6.802
 8205SOL    HW225515   0.496   3.912   6.836
 8206SOL     OW25516   3.213   1.357   1.347
 8206SOL    HW125517   3.307   1.388   1.361
 8206SOL    HW225518   3.202   1.265   1.384
 8207SOL     OW25519   4.029   3.918   4.249
 8207SOL    HW125520   4.052   3.838   4.303
 8207SOL    HW225521   4.064   3.907   4.156
 8208SOL     OW25522   1.892   0.476   0.075
 8208SOL    HW125523   1.877   0.556   0.133
 8208SOL    HW225524   1.959   0.416   0.117
 8209SOL     OW25525   5.940   2.232   4.495
 8209SOL    HW125526   5.845   2.235   4.528
 8209SOL    HW225527   6.000   2.212   4.572
 8210SOL     OW25528   2.104   2.452   6.186
 8210SOL    HW125529   2.200   2.441   6.160
 8210SOL    HW225530   2.075   2.546   6.167
 8211SOL     OW25531   4.615   4.482   1.444
 8211SOL    HW125532   4.648   4.452   1.355
 8211SOL    HW225533   4.545   4.419   1.477
 8212SOL     OW25534   2.421   2.658   2.791
 8212SOL    HW125535   2.425   2.658   2.891
 8212SOL    HW225536   2.407   2.565   2.758
 8213SOL     OW25537   5.970   4.459   0.984
 8213SOL    HW125538   5.972   4.541   0.927
 8213SOL    HW225539   5.963   4.486   1.081
 8214SOL     OW25540   5.397   3.293   2.705
 8214SOL    HW125541   5.408   3.226   2.631
 8214SOL    HW225542   5.427   3.253   2.791
 8215SOL     OW25543   3.114   5.202   2.372
 8215SOL    HW125544   3.138   5.119   2.322
 8215SOL    HW225545   3.179   5.275   2.350
 8216SOL     OW25546   5.295   3.416   3.153
 8216SOL    HW125547   5.328   3.385   3.242
 8216SOL    HW225548   5.201   3.384   3.139
 8217SOL     OW25549   1.734   6.076   0.876
 8217SOL    HW125550   1.639   6.047   0.887
 8217SOL    HW225551   1.772   6.097   0.966
 8218SOL     OW25552   5.424   2.033   0.475
 8218SOL    HW125553   5.493   2.099   0.507
 8218SOL    HW225554   5.466   1.972   0.407
 8219SOL     OW25555   5.452   1.492   0.113
 8219SOL    HW125556   5.483   1.523   0.023
 8219SOL    HW225557   5.521   1.513   0.181
 8220SOL     OW25558   4.273   3.465   1.470
 8220SOL    HW125559   4.300   3.424   1.557
 8220SOL    HW225560   4.268   3.564   1.480
 8221SOL     OW25561   5.318   4.328   2.705
 8221SOL    HW125562   5.291   4.404   2.764
 8221SOL    HW225563   5.242   4.304   2.645
 8222SOL     OW25564   6.204   1.125   2.807
 8222SOL    HW125565   6.114   1.166   2.822
 8222SOL    HW225566   6.204   1.032   2.843
 8223SOL     OW25567   0.115   5.434   6.387
 8223SOL    HW125568   0.120   5.361   6.318
 8223SOL    HW225569   0.076   5.517   6.345
 8224SOL     OW25570   1.028   3.463   3.052
 8224SOL    HW125571   0.931   3.474   3.034
 8224SOL    HW225572   1.078   3.543   3.016
 8225SOL     OW25573   4.475   0.923   0.481
 8225SOL    HW125574   4.463   0.900   0.577
 8225SOL    HW225575   4.568   0.957   0.466
 8226SOL     OW25576   4.110   0.208   0.168
 8226SOL    HW125577   4.030   0.161   0.206
 8226SOL    HW225578   4.150   0.152   0.095
 8227SOL     OW25579   5.746   3.813   3.123
 8227SOL    HW125580   5.729   3.730   3.070
 8227SOL    HW225581   5.728   3.794   3.220
 8228SOL     OW25582   6.917   1.820   4.071
 8228SOL    HW125583   6.882   1.798   4.162
 8228SOL    HW225584   6.857   1.886   4.027
 8229SOL     OW25585   4.331   5.707   0.997
 8229SOL    HW125586   4.394   5.637   1.032
 8229SOL    HW225587   4.355   5.796   1.035
 8230SOL     OW25588   4.959   7.008   3.874
 8230SOL    HW125589   4.923   0.068   3.827
 8230SOL    HW225590   5.058   7.018   3.885
 8231SOL     OW25591   3.967   6.192   1.642
 8231SOL    HW125592   3.962   6.122   1.571
 8231SOL    HW225593   4.060   6.231   1.644
 8232SOL     OW25594   2.524   1.775   6.917
 8232SOL    HW125595   2.623   1.777   6.926
 8232SOL    HW225596   2.485   1.854   6.966
 8233SOL     OW25597   0.149   5.479   6.034
 8233SOL    HW125598   0.207   5.429   6.098
 8233SOL    HW225599   0.065   5.428   6.016
 8234SOL     OW25600   3.045   3.267   0.229
 8234SOL    HW125601   3.073   3.185   0.278
 8234SOL    HW225602   3.091   3.347   0.268
 8235SOL     OW25603   4.389   2.391   6.855
 8235SOL    HW125604   4.307   2.436   6.893
 8235SOL    HW225605   4.455   2.461   6.828
 8236SOL     OW25606   5.476   2.484   1.122
 8236SOL    HW125607   5.388   2.503   1.164
 8236SOL    HW225608   5.482   2.387   1.099
 8237SOL     OW25609   3.902   6.456   5.451
 8237SOL    HW125610   3.944   6.381   5.400
 8237SOL    HW225611   3.869   6.422   5.539
 8238SOL     OW25612   2.035   0.913   0.104
 8238SOL    HW125613   2.098   0.951   0.172
 8238SOL    HW225614   2.010   0.985   0.039
 8239SOL     OW25615   6.030   0.906   6.886
 8239SOL    HW125616   6.110   0.867   6.840
 8239SOL    HW225617   5.950   0.847   6.869
 8240SOL     OW25618   4.140   3.506   3.529
 8240SOL    HW125619   4.107   3.411   3.525
 8240SOL    HW225620   4.230   3.511   3.485
 8241SOL     OW25621   4.617   6.713   1.754
 8241SOL    HW125622   4.591   6.630   1.803
 8241SOL    HW225623   4.535   6.763   1.726
 8242SOL     OW25624   0.870   3.444   5.560
 8242SOL    HW125625   0.862   3.502   5.641
 8242SOL    HW225626   0.948   3.383   5.569
 8243SOL     OW25627   0.793   3.475   5.315
 8243SOL    HW125628   0.818   3.472   5.412
 8243SOL    HW225629   0.766   3.384   5.284
 8244SOL     OW25630   2.078   5.499   4.676
 8244SOL    HW125631   2.061   5.597   4.686
 8244SOL    HW225632   2.157   5.474   4.731
 8245SOL     OW25633   3.766   3.422   0.576
 8245SOL    HW125634   3.753   3.331   0.536
 8245SOL    HW225635   3.829   3.415   0.654
 8246SOL     OW25636   4.788   3.812   5.223
 8246SOL    HW125637   4.746   3.723   5.205
 8246SOL    HW225638   4.873   3.820   5.172
 8247SOL     OW25639   1.159   6.649   0.799
 8247SOL    HW125640   1.198   6.735   0.764
 8247SOL    HW225641   1.088   6.671   0.866
 8248SOL     OW25642   0.242   4.579   3.681
 8248SOL    HW125643   0.276   4.500   3.630
 8248SOL    HW225644   0.145   4.567   3.702
 8249SOL     OW25645   1.320   5.334   3.017
 8249SOL    HW125646   1.354   5.401   3.083
 8249SOL    HW225647   1.220   5.331   3.020
 8250SOL     OW25648   3.471   3.903   1.884
 8250SOL    HW125649   3.406   3.846   1.933
 8250SOL    HW225650   3.441   3.998   1.887
 8251SOL     OW25651   5.914   1.635   4.873
 8251SOL    HW125652   6.002   1.592   4.893
 8251SOL    HW225653   5.928   1.731   4.849
 8252SOL     OW25654   1.192   3.612   4.234
 8252SOL    HW125655   1.113   3.590   4.292
 8252SOL    HW225656   1.161   3.638   4.143
 8253SOL     OW25657   2.381   2.972   5.428
 8253SOL    HW125658   2.438   2.902   5.471
 8253SOL    HW225659   2.426   3.005   5.345
 8254SOL     OW25660   4.338   5.695   3.566
 8254SOL    HW125661   4.271   5.645   3.512
 8254SOL    HW225662   4.430   5.669   3.537
 8255SOL     OW25663   4.008   4.885   3.752
 8255SOL    HW125664   3.938   4.857   3.686
 8255SOL    HW225665   3.994   4.982   3.776
 8256SOL     OW25666   5.996   2.923   4.123
 8256SOL    HW125667   5.973   3.020   4.118
 8256SOL    HW225668   6.079   2.911   4.177
 8257SOL     OW25669   5.907   4.767   4.526
 8257SOL    HW125670   6.006   4.775   4.534
 8257SOL    HW225671   5.864   4.846   4.569
 8258SOL     OW25672   4.807   1.631   0.304
 8258SOL    HW125673   4.753   1.661   0.382
 8258SOL    HW225674   4.898   1.672   0.309
 8259SOL     OW25675   4.256   1.314   1.489
 8259SOL    HW125676   4.285   1.242   1.551
 8259SOL    HW225677   4.334   1.372   1.466
 8260SOL     OW25678   2.843   5.613   0.149
 8260SOL    HW125679   2.784   5.559   0.209
 8260SOL    HW225680   2.803   5.704   0.136
 8261SOL     OW25681   5.182   1.007   1.372
 8261SOL    HW125682   5.269   1.009   1.421
 8261SOL    HW225683   5.147   0.913   1.370
 8262SOL     OW25684   0.645   2.288   0.808
 8262SOL    HW125685   0.737   2.315   0.780
 8262SOL    HW225686   0.583   2.367   0.802
 8263SOL     OW25687   5.656   1.155   1.096
 8263SOL    HW125688   5.650   1.057   1.081
 8263SOL    HW225689   5.740   1.190   1.054
 8264SOL     OW25690   1.636   4.585   2.115
 8264SOL    HW125691   1.735   4.598   2.120
 8264SOL    HW225692   1.616   4.490   2.093
 8265SOL     OW25693   1.917   1.026   2.315
 8265SOL    HW125694   1.867   1.036   2.228
 8265SOL    HW225695   2.013   1.009   2.296
 8266SOL     OW25696   2.996   0.640   3.083
 8266SOL    HW125697   2.953   0.724   3.116
 8266SOL    HW225698   2.929   0.567   3.079
 8267SOL     OW25699   0.497   3.794   0.794
 8267SOL    HW125700   0.439   3.792   0.713
 8267SOL    HW225701   0.463   3.729   0.862
 8268SOL     OW25702   3.570   5.949   6.295
 8268SOL    HW125703   3.645   5.982   6.352
 8268SOL    HW225704   3.551   6.016   6.222
 8269SOL     OW25705   6.039   1.992   0.967
 8269SOL    HW125706   6.038   2.014   0.869
 8269SOL    HW225707   6.065   2.073   1.019
 8270SOL     OW25708   3.082   6.343   4.205
 8270SOL    HW125709   3.048   6.270   4.145
 8270SOL    HW225710   3.181   6.353   4.192
 8271SOL     OW25711   6.562   2.423   2.577
 8271SOL    HW125712   6.604   2.392   2.662
 8271SOL    HW225713   6.467   2.392   2.574
 8272SOL     OW25714   3.916   1.285   4.319
 8272SOL    HW125715   3.921   1.376   4.277
 8272SOL    HW225716   3.822   1.266   4.347
 8273SOL     OW25717   2.023   6.730   1.647
 8273SOL    HW125718   2.028   6.630   1.649
 8273SOL    HW225719   1.978   6.763   1.730
 8274SOL     OW25720   5.163   4.192   3.293
 8274SOL    HW125721   5.096   4.262   3.313
 8274SOL    HW225722   5.164   4.173   3.195
 8275SOL     OW25723   5.037   2.154   6.518
 8275SOL    HW125724   4.965   2.093   6.484
 8275SOL    HW225725   5.120   2.141   6.464
 8276SOL     OW25726   0.212   1.661   2.847
 8276SOL    HW125727   0.257   1.620   2.769
 8276SOL    HW225728   0.275   1.724   2.893
 8277SOL     OW25729   6.289   0.731   6.809
 8277SOL    HW125730   6.236   0.649   6.829
 8277SOL    HW225731   6.383   0.706   6.788
 8278SOL     OW25732   1.658   2.613   6.509
 8278SOL    HW125733   1.596   2.598   6.586
 8278SOL    HW225734   1.605   2.613   6.424
 8279SOL     OW25735   0.008   6.044   3.871
 8279SOL    HW125736   7.013   6.075   3.777
 8279SOL    HW225737   0.050   6.118   3.924
 8280SOL     OW25738   3.142   2.015   5.908
 8280SOL    HW125739   3.120   2.109   5.935
 8280SOL    HW225740   3.239   2.009   5.882
 8281SOL     OW25741   5.215   5.616   2.701
 8281SOL    HW125742   5.283   5.658   2.640
 8281SOL    HW225743   5.236   5.640   2.796
 8282SOL     OW25744   5.500   2.505   6.347
 8282SOL    HW125745   5.595   2.525   6.372
 8282SOL    HW225746   5.441   2.523   6.425
 8283SOL     OW25747   2.062   2.367   5.642
 8283SOL    HW125748   2.129   2.441   5.638
 8283SOL    HW225749   2.109   2.280   5.626
 8284SOL     OW25750   6.466   3.871   1.706
 8284SOL    HW125751   6.414   3.791   1.736
 8284SOL    HW225752   6.504   3.918   1.785
 8285SOL     OW25753   4.008   3.246   4.355
 8285SOL    HW125754   3.939   3.315   4.332
 8285SOL    HW225755   3.964   3.157   4.364
 8286SOL     OW25756   6.885   1.654   6.245
 8286SOL    HW125757   6.842   1.665   6.334
 8286SOL    HW225758   6.954   1.725   6.232
 8287SOL     OW25759   1.525   5.980   4.256
 8287SOL    HW125760   1.584   5.907   4.221
 8287SOL    HW225761   1.430   5.959   4.234
 8288SOL     OW25762   2.912   2.028   3.125
 8288SOL    HW125763   2.871   2.113   3.160
 8288SOL    HW225764   2.967   2.049   3.044
 8289SOL     OW25765   7.016   5.834   6.763
 8289SOL    HW125766   0.081   5.886   6.764
 8289SOL    HW225767   7.005   5.790   6.674
 8290SOL     OW25768   6.714   2.520   0.533
 8290SOL    HW125769   6.767   2.489   0.454
 8290SOL    HW225770   6.774   2.530   0.612
 8291SOL     OW25771   4.062   0.235   1.100
 8291SOL    HW125772   4.151   0.196   1.076
 8291SOL    HW225773   4.010   0.253   1.017
 8292SOL     OW25774   2.874   0.016   6.324
 8292SOL    HW125775   2.861   0.006   6.422
 8292SOL    HW225776   2.819   0.093   6.291
 8293SOL     OW25777   5.624   5.512   4.838
 8293SOL    HW125778   5.616   5.501   4.937
 8293SOL    HW225779   5.534   5.525   4.797
 8294SOL     OW25780   5.447   3.087   6.981
 8294SOL    HW125781   5.511   3.117   6.911
 8294SOL    HW225782   5.393   3.010   6.946
 8295SOL     OW25783   4.303   3.400   0.027
 8295SOL    HW125784   4.318   3.489   7.005
 8295SOL    HW225785   4.205   3.390   0.049
 8296SOL     OW25786   1.443   5.260   6.223
 8296SOL    HW125787   1.429   5.289   6.318
 8296SOL    HW225788   1.374   5.303   6.165
 8297SOL     OW25789   1.023   2.744   3.808
 8297SOL    HW125790   0.963   2.769   3.732
 8297SOL    HW225791   1.009   2.807   3.884
 8298SOL     OW25792   5.089   1.651   2.413
 8298SOL    HW125793   5.080   1.749   2.429
 8298SOL    HW225794   5.118   1.635   2.318
 8299SOL     OW25795   6.433   2.303   1.305
 8299SOL    HW125796   6.398   2.220   1.348
 8299SOL    HW225797   6.523   2.324   1.344
 8300SOL     OW25798   0.624   5.324   3.308
 8300SOL    HW125799   0.664   5.299   3.397
 8300SOL    HW225800   0.552   5.259   3.284
 8301SOL     OW25801   3.296   2.639   6.599
 8301SOL    HW125802   3.272   2.718   6.542
 8301SOL    HW225803   3.338   2.568   6.542
 8302SOL     OW25804   5.925   5.832   5.891
 8302SOL    HW125805   5.973   5.899   5.948
 8302SOL    HW225806   5.908   5.871   5.801
 8303SOL     OW25807   6.952   0.379   6.326
 8303SOL    HW125808   6.976   0.406   6.233
 8303SOL    HW225809   7.006   0.432   6.391
 8304SOL     OW25810   6.865   2.974   0.718
 8304SOL    HW125811   6.775   2.973   0.762
 8304SOL    HW225812   6.856   2.945   0.623
 8305SOL     OW25813   3.237   5.693   3.374
 8305SOL    HW125814   3.271   5.600   3.363
 8305SOL    HW225815   3.143   5.690   3.409
 8306SOL     OW25816   1.015   3.221   4.050
 8306SOL    HW125817   1.084   3.176   4.108
 8306SOL    HW225818   1.052   3.232   3.958
 8307SOL     OW25819   3.220   5.456   0.844
 8307SOL    HW125820   3.162   5.387   0.889
 8307SOL    HW225821   3.174   5.544   0.847
 8308SOL     OW25822   3.699   0.613   3.142
 8308SOL    HW125823   3.675   0.706   3.173
 8308SOL    HW225824   3.798   0.608   3.127
 8309SOL     OW25825   5.554   6.290   2.127
 8309SOL    HW125826   5.495   6.368   2.144
 8309SOL    HW225827   5.645   6.322   2.099
 8310SOL     OW25828   6.366   4.338   6.970
 8310SOL    HW125829   6.291   4.273   6.963
 8310SOL    HW225830   6.419   4.319   0.032
 8311SOL     OW25831   6.417   0.739   6.492
 8311SOL    HW125832   6.444   0.816   6.549
 8311SOL    HW225833   6.403   0.658   6.549
 8312SOL     OW25834   5.598   6.713   1.111
 8312SOL    HW125835   5.519   6.702   1.050
 8312SOL    HW225836   5.672   6.655   1.078
 8313SOL     OW25837   3.303   1.353   2.543
 8313SOL    HW125838   3.268   1.443   2.568
 8313SOL    HW225839   3.358   1.317   2.619
 8314SOL     OW25840   0.090   6.157   3.366
 8314SOL    HW125841   0.004   6.133   3.321
 8314SOL    HW225842   0.073   6.228   3.434
 8315SOL     OW25843   4.894   4.633   6.480
 8315SOL    HW125844   4.859   4.548   6.521
 8315SOL    HW225845   4.863   4.711   6.535
 8316SOL     OW25846   2.734   5.641   6.797
 8316SOL    HW125847   2.687   5.698   6.865
 8316SOL    HW225848   2.764   5.556   6.840
 8317SOL     OW25849   2.104   4.122   2.159
 8317SOL    HW125850   2.081   4.060   2.235
 8317SOL    HW225851   2.168   4.076   2.097
 8318SOL     OW25852   3.635   1.188   5.509
 8318SOL    HW125853   3.572   1.260   5.539
 8318SOL    HW225854   3.600   1.099   5.538
 8319SOL     OW25855   3.380   0.809   4.925
 8319SOL    HW125856   3.401   0.870   4.849
 8319SOL    HW225857   3.461   0.755   4.947
 8320SOL     OW25858   4.170   4.806   1.662
 8320SOL    HW125859   4.070   4.814   1.665
 8320SOL    HW225860   4.206   4.875   1.600
 8321SOL     OW25861   0.254   0.960   1.372
 8321SOL    HW125862   0.166   1.006   1.380
 8321SOL    HW225863   0.241   0.861   1.366
 8322SOL     OW25864   5.605   6.407   6.976
 8322SOL    HW125865   5.700   6.377   6.983
 8322SOL    HW225866   5.597   6.502   7.006
 8323SOL     OW25867   1.303   1.813   1.577
 8323SOL    HW125868   1.285   1.715   1.562
 8323SOL    HW225869   1.216   1.862   1.585
 8324SOL     OW25870   6.466   1.261   2.049
 8324SOL    HW125871   6.459   1.162   2.055
 8324SOL    HW225872   6.508   1.297   2.132
 8325SOL     OW25873   2.996   3.950   4.128
 8325SOL    HW125874   2.946   3.888   4.069
 8325SOL    HW225875   2.974   3.931   4.224
 8326SOL     OW25876   3.520   3.315   6.009
 8326SOL    HW125877   3.564   3.251   5.946
 8326SOL    HW225878   3.493   3.267   6.092
 8327SOL     OW25879   4.987   2.146   6.089
 8327SOL    HW125880   5.045   2.213   6.136
 8327SOL    HW225881   4.908   2.193   6.049
 8328SOL     OW25882   2.386   2.255   4.513
 8328SOL    HW125883   2.439   2.193   4.455
 8328SOL    HW225884   2.310   2.205   4.554
 8329SOL     OW25885   0.072   2.381   4.798
 8329SOL    HW125886   0.120   2.342   4.719
 8329SOL    HW225887   0.031   2.307   4.852
 8330SOL     OW25888   2.628   6.752   0.780
 8330SOL    HW125889   2.534   6.735   0.752
 8330SOL    HW225890   2.691   6.702   0.720
 8331SOL     OW25891   2.614   6.990   0.657
 8331SOL    HW125892   2.610   6.905   0.708
 8331SOL    HW225893   2.629   6.970   0.560
 8332SOL     OW25894   4.919   5.530   3.138
 8332SOL    HW125895   4.965   5.483   3.213
 8332SOL    HW225896   4.840   5.580   3.174
 8333SOL     OW25897   1.324   5.572   6.105
 8333SOL    HW125898   1.274   5.486   6.093
 8333SOL    HW225899   1.419   5.559   6.076
 8334SOL     OW25900   5.638   0.647   3.999
 8334SOL    HW125901   5.638   0.735   4.046
 8334SOL    HW225902   5.730   0.608   4.001
 8335SOL     OW25903   5.806   6.874   5.544
 8335SOL    HW125904   5.897   6.833   5.541
 8335SOL    HW225905   5.791   6.926   5.460
 8336SOL     OW25906   0.846   2.163   2.300
 8336SOL    HW125907   0.781   2.132   2.370
 8336SOL    HW225908   0.939   2.146   2.330
 8337SOL     OW25909   0.593   6.224   1.912
 8337SOL    HW125910   0.653   6.197   1.987
 8337SOL    HW225911   0.643   6.220   1.826
 8338SOL     OW25912   2.063   4.878   0.743
 8338SOL    HW125913   2.102   4.814   0.810
 8338SOL    HW225914   2.054   4.831   0.655
 8339SOL     OW25915   5.624   0.756   3.103
 8339SOL    HW125916   5.627   0.815   3.023
 8339SOL    HW225917   5.553   0.687   3.091
 8340SOL     OW25918   4.742   3.305   0.926
 8340SOL    HW125919   4.827   3.357   0.920
 8340SOL    HW225920   4.718   3.269   0.836
 8341SOL     OW25921   2.017   0.008   1.308
 8341SOL    HW125922   2.051   7.006   1.217
 8341SOL    HW225923   2.027   0.107   1.324
 8342SOL     OW25924   4.771   0.273   1.099
 8342SOL    HW125925   4.797   0.253   1.193
 8342SOL    HW225926   4.672   0.281   1.093
 8343SOL     OW25927   1.546   5.175   5.954
 8343SOL    HW125928   1.532   5.241   6.028
 8343SOL    HW225929   1.547   5.083   5.992
 8344SOL     OW25930   3.514   0.311   5.329
 8344SOL    HW125931   3.546   0.221   5.358
 8344SOL    HW225932   3.589   0.377   5.337
 8345SOL     OW25933   6.419   1.606   2.509
 8345SOL    HW125934   6.371   1.519   2.493
 8345SOL    HW225935   6.355   1.682   2.494
 8346SOL     OW25936   3.127   5.392   1.855
 8346SOL    HW125937   3.111   5.376   1.952
 8346SOL    HW225938   3.226   5.398   1.838
 8347SOL     OW25939   3.485   5.308   3.605
 8347SOL    HW125940   3.394   5.286   3.569
 8347SOL    HW225941   3.480   5.394   3.655
 8348SOL     OW25942   1.606   0.457   0.655
 8348SOL    HW125943   1.597   0.538   0.713
 8348SOL    HW225944   1.524   0.448   0.598
 8349SOL     OW25945   5.717   5.576   1.643
 8349SOL    HW125946   5.729   5.620   1.554
 8349SOL    HW225947   5.685   5.482   1.630
 8350SOL     OW25948   6.468   0.289   5.011
 8350SOL    HW125949   6.461   0.361   5.081
 8350SOL    HW225950   6.407   0.312   4.934
 8351SOL     OW25951   2.819   6.612   2.229
 8351SOL    HW125952   2.902   6.667   2.223
 8351SOL    HW225953   2.844   6.515   2.233
 8352SOL     OW25954   6.726   6.223   1.326
 8352SOL    HW125955   6.753   6.163   1.401
 8352SOL    HW225956   6.732   6.319   1.355
 8353SOL     OW25957   0.509   4.367   2.325
 8353SOL    HW125958   0.539   4.424   2.249
 8353SOL    HW225959   0.411   4.353   2.320
 8354SOL     OW25960   2.359   0.468   0.541
 8354SOL    HW125961   2.382   0.378   0.578
 8354SOL    HW225962   2.404   0.539   0.596
 8355SOL     OW25963   3.174   1.470   0.470
 8355SOL    HW125964   3.102   1.405   0.444
 8355SOL    HW225965   3.135   1.561   0.476
 8356SOL     OW25966   2.376   5.483   0.564
 8356SOL    HW125967   2.464   5.524   0.589
 8356SOL    HW225968   2.320   5.551   0.515
 8357SOL     OW25969   5.247   5.919   4.013
 8357SOL    HW125970   5.318   5.849   4.024
 8357SOL    HW225971   5.265   5.972   3.930
 8358SOL     OW25972   2.666   2.115   4.878
 8358SOL    HW125973   2.627   2.207   4.884
 8358SOL    HW225974   2.646   2.065   4.962
 8359SOL     OW25975   4.601   5.143   3.917
 8359SOL    HW125976   4.605   5.058   3.865
 8359SOL    HW225977   4.506   5.172   3.926
 8360SOL     OW25978   4.651   0.757   3.123
 8360SOL    HW125979   4.691   0.845   3.097
 8360SOL    HW225980   4.554   0.757   3.099
 8361SOL     OW25981   1.969   0.881   2.921
 8361SOL    HW125982   2.027   0.880   2.840
 8361SOL    HW225983   1.898   0.811   2.912
 8362SOL     OW25984   2.534   3.010   0.443
 8362SOL    HW125985   2.438   2.995   0.417
 8362SOL    HW225986   2.569   3.090   0.394
 8363SOL     OW25987   7.012   3.586   1.074
 8363SOL    HW125988   0.008   3.546   1.164
 8363SOL    HW225989   0.033   3.677   1.070
 8364SOL     OW25990   6.500   4.791   4.408
 8364SOL    HW125991   6.457   4.807   4.319
 8364SOL    HW225992   6.549   4.704   4.406
 8365SOL     OW25993   1.253   3.537   5.772
 8365SOL    HW125994   1.289   3.519   5.680
 8365SOL    HW225995   1.265   3.455   5.829
 8366SOL     OW25996   2.865   0.020   3.351
 8366SOL    HW125997   2.958   0.023   3.388
 8366SOL    HW225998   2.808   0.085   3.400
 8367SOL     OW25999   5.294   5.629   4.043
 8367SOL    HW126000   5.388   5.598   4.030
 8367SOL    HW226001   5.242   5.613   3.959
 8368SOL     OW26002   3.200   5.663   6.420
 8368SOL    HW126003   3.150   5.691   6.337
 8368SOL    HW226004   3.149   5.693   6.501
 8369SOL     OW26005   2.772   1.390   1.311
 8369SOL    HW126006   2.818   1.416   1.226
 8369SOL    HW226007   2.689   1.445   1.322
 8370SOL     OW26008   1.655   1.715   0.246
 8370SOL    HW126009   1.591   1.638   0.242
 8370SOL    HW226010   1.748   1.682   0.229
 8371SOL     OW26011   2.305   2.586   0.228
 8371SOL    HW126012   2.259   2.645   0.294
 8371SOL    HW226013   2.307   2.492   0.264
 8372SOL     OW26014   6.792   0.808   1.349
 8372SOL    HW126015   6.793   0.768   1.440
 8372SOL    HW226016   6.778   0.907   1.355
 8373SOL     OW26017   1.854   6.726   5.101
 8373SOL    HW126018   1.876   6.717   5.004
 8373SOL    HW226019   1.828   6.637   5.138
 8374SOL     OW26020   6.534   0.491   6.088
 8374SOL    HW126021   6.553   0.514   6.184
 8374SOL    HW226022   6.509   0.575   6.039
 8375SOL     OW26023   3.941   1.026   6.024
 8375SOL    HW126024   3.995   0.986   5.949
 8375SOL    HW226025   3.997   1.032   6.106
 8376SOL     OW26026   4.377   0.467   4.258
 8376SOL    HW126027   4.323   0.392   4.295
 8376SOL    HW226028   4.449   0.431   4.199
 8377SOL     OW26029   5.717   4.937   0.769
 8377SOL    HW126030   5.811   4.940   0.734
 8377SOL    HW226031   5.681   4.844   0.757
 8378SOL     OW26032   5.169   2.906   3.891
 8378SOL    HW126033   5.204   2.872   3.978
 8378SOL    HW226034   5.169   2.832   3.823
 8379SOL     OW26035   5.178   2.355   2.573
 8379SOL    HW126036   5.091   2.378   2.615
 8379SOL    HW226037   5.220   2.279   2.623
 8380SOL     OW26038   5.527   1.983   3.805
 8380SOL    HW126039   5.592   1.919   3.846
 8380SOL    HW226040   5.576   2.045   3.742
 8381SOL     OW26041   2.523   5.355   4.194
 8381SOL    HW126042   2.540   5.307   4.281
 8381SOL    HW226043   2.573   5.309   4.121
 8382SOL     OW26044   0.652   4.508   2.797
 8382SOL    HW126045   0.728   4.538   2.739
 8382SOL    HW226046   0.639   4.573   2.871
 8383SOL     OW26047   3.406   1.209   6.251
 8383SOL    HW126048   3.334   1.139   6.248
 8383SOL    HW226049   3.446   1.219   6.160
 8384SOL     OW26050   0.674   6.810   1.951
 8384SOL    HW126051   0.623   6.894   1.969
 8384SOL    HW226052   0.617   6.747   1.899
 8385SOL     OW26053   4.860   2.459   1.071
 8385SOL    HW126054   4.815   2.463   1.161
 8385SOL    HW226055   4.847   2.547   1.024
 8386SOL     OW26056   0.734   4.222   2.944
 8386SOL    HW126057   0.727   4.273   2.859
 8386SOL    HW226058   0.807   4.154   2.936
 8387SOL     OW26059   1.070   1.873   0.972
 8387SOL    HW126060   1.127   1.807   0.924
 8387SOL    HW226061   0.994   1.826   1.017
 8388SOL     OW26062   0.581   6.565   3.116
 8388SOL    HW126063   0.676   6.540   3.096
 8388SOL    HW226064   0.579   6.656   3.157
 8389SOL     OW26065   5.769   2.483   3.176
 8389SOL    HW126066   5.728   2.563   3.219
 8389SOL    HW226067   5.767   2.492   3.077
 8390SOL     OW26068   5.647   1.300   6.207
 8390SOL    HW126069   5.616   1.287   6.112
 8390SOL    HW226070   5.710   1.378   6.211
 8391SOL     OW26071   6.859   6.739   1.536
 8391SOL    HW126072   6.775   6.700   1.573
 8391SOL    HW226073   6.840   6.785   1.449
 8392SOL     OW26074   4.382   2.981   5.838
 8392SOL    HW126075   4.344   2.943   5.923
 8392SOL    HW226076   4.343   2.934   5.760
 8393SOL     OW26077   5.426   0.056   1.149
 8393SOL    HW126078   5.369   0.057   1.067
 8393SOL    HW226079   5.522   0.066   1.124
 8394SOL     OW26080   5.763   2.779   2.418
 8394SOL    HW126081   5.831   2.781   2.491
 8394SOL    HW226082   5.777   2.698   2.360
 8395SOL     OW26083   2.297   1.015   5.070
 8395SOL    HW126084   2.265   0.934   5.118
 8395SOL    HW226085   2.251   1.096   5.107
 8396SOL     OW26086   4.829   5.326   4.991
 8396SOL    HW126087   4.753   5.310   5.053
 8396SOL    HW226088   4.849   5.424   4.988
 8397SOL     OW26089   6.313   0.232   3.233
 8397SOL    HW126090   6.390   0.171   3.249
 8397SOL    HW226091   6.303   0.250   3.135
 8398SOL     OW26092   5.534   2.078   6.136
 8398SOL    HW126093   5.519   2.177   6.137
 8398SOL    HW226094   5.488   2.038   6.057
 8399SOL     OW26095   0.224   4.473   1.523
 8399SOL    HW126096   0.225   4.529   1.441
 8399SOL    HW226097   0.147   4.500   1.581
 8400SOL     OW26098   1.491   1.584   4.674
 8400SOL    HW126099   1.470   1.637   4.756
 8400SOL    HW226100   1.473   1.639   4.593
 8401SOL     OW26101   2.118   0.274   5.420
 8401SOL    HW126102   2.118   0.361   5.469
 8401SOL    HW226103   2.027   0.235   5.422
 8402SOL     OW26104   3.481   0.743   6.493
 8402SOL    HW126105   3.566   0.728   6.542
 8402SOL    HW226106   3.407   0.692   6.538
 8403SOL     OW26107   5.930   4.912   5.404
 8403SOL    HW126108   5.915   4.855   5.323
 8403SOL    HW226109   6.002   4.870   5.460
 8404SOL     OW26110   0.780   1.423   6.642
 8404SOL    HW126111   0.716   1.500   6.646
 8404SOL    HW226112   0.868   1.454   6.606
 8405SOL     OW26113   4.459   0.451   5.450
 8405SOL    HW126114   4.397   0.386   5.405
 8405SOL    HW226115   4.530   0.401   5.499
 8406SOL     OW26116   5.603   0.329   6.171
 8406SOL    HW126117   5.564   0.303   6.259
 8406SOL    HW226118   5.530   0.346   6.105
 8407SOL     OW26119   3.951   0.061   4.345
 8407SOL    HW126120   3.858   0.026   4.348
 8407SOL    HW226121   3.960   0.139   4.408
 8408SOL     OW26122   4.030   1.460   1.246
 8408SOL    HW126123   3.935   1.442   1.273
 8408SOL    HW226124   4.084   1.377   1.261
 8409SOL     OW26125   4.613   1.951   2.202
 8409SOL    HW126126   4.658   1.901   2.129
 8409SOL    HW226127   4.521   1.915   2.216
 8410SOL     OW26128   6.820   1.662   1.628
 8410SOL    HW126129   6.840   1.569   1.660
 8410SOL    HW226130   6.840   1.668   1.531
 8411SOL     OW26131   0.996   6.358   0.986
 8411SOL    HW126132   0.920   6.293   0.980
 8411SOL    HW226133   1.055   6.334   1.063
 8412SOL     OW26134   2.704   2.286   0.106
 8412SOL    HW126135   2.638   2.294   0.181
 8412SOL    HW226136   2.659   2.309   0.020
 8413SOL     OW26137   3.795   5.112   4.510
 8413SOL    HW126138   3.889   5.137   4.487
 8413SOL    HW226139   3.741   5.195   4.524
 8414SOL     OW26140   1.277   0.500   1.184
 8414SOL    HW126141   1.335   0.449   1.121
 8414SOL    HW226142   1.212   0.438   1.227
 8415SOL     OW26143   2.804   1.454   6.110
 8415SOL    HW126144   2.830   1.546   6.140
 8415SOL    HW226145   2.811   1.449   6.010
 8416SOL     OW26146   6.679   2.340   5.169
 8416SOL    HW126147   6.739   2.280   5.221
 8416SOL    HW226148   6.734   2.401   5.112
 8417SOL     OW26149   2.391   3.417   6.122
 8417SOL    HW126150   2.459   3.349   6.096
 8417SOL    HW226151   2.434   3.507   6.130
 8418SOL     OW26152   0.641   5.998   2.200
 8418SOL    HW126153   0.551   5.993   2.155
 8418SOL    HW226154   0.670   6.094   2.205
 8419SOL     OW26155   4.175   1.646   4.241
 8419SOL    HW126156   4.235   1.708   4.191
 8419SOL    HW226157   4.225   1.607   4.319
 8420SOL     OW26158   3.456   0.994   1.796
 8420SOL    HW126159   3.486   0.942   1.717
 8420SOL    HW226160   3.531   1.050   1.831
 8421SOL     OW26161   4.395   6.731   6.288
 8421SOL    HW126162   4.367   6.824   6.264
 8421SOL    HW226163   4.494   6.723   6.277
 8422SOL     OW26164   5.464   2.735   3.712
 8422SOL    HW126165   5.430   2.679   3.787
 8422SOL    HW226166   5.472   2.678   3.630
 8423SOL     OW26167   6.765   5.236   0.265
 8423SOL    HW126168   6.719   5.249   0.177
 8423SOL    HW226169   6.778   5.325   0.310
 8424SOL     OW26170   3.252   0.354   5.051
 8424SOL    HW126171   3.274   0.428   5.115
 8424SOL    HW226172   3.154   0.334   5.055
 8425SOL     OW26173   3.669   4.129   2.078
 8425SOL    HW126174   3.591   4.123   2.140
 8425SOL    HW226175   3.687   4.224   2.056
 8426SOL     OW26176   3.964   2.967   1.979
 8426SOL    HW126177   3.962   2.953   2.078
 8426SOL    HW226178   3.902   3.042   1.955
 8427SOL     OW26179   3.890   3.508   3.251
 8427SOL    HW126180   3.873   3.434   3.317
 8427SOL    HW226181   3.985   3.504   3.221
 8428SOL     OW26182   6.098   6.890   2.259
 8428SOL    HW126183   6.138   6.807   2.221
 8428SOL    HW226184   6.009   6.907   2.217
 8429SOL     OW26185   2.815   5.663   5.257
 8429SOL    HW126186   2.891   5.599   5.247
 8429SOL    HW226187   2.841   5.735   5.322
 8430SOL     OW26188   4.896   0.077   5.044
 8430SOL    HW126189   4.972   0.124   4.998
 8430SOL    HW226190   4.826   0.053   4.976
 8431SOL     OW26191   1.974   3.976   5.707
 8431SOL    HW126192   1.899   3.916   5.681
 8431SOL    HW226193   2.006   4.026   5.627
 8432SOL     OW26194   6.481   5.197   6.325
 8432SOL    HW126195   6.513   5.285   6.360
 8432SOL    HW226196   6.556   5.150   6.279
 8433SOL     OW26197   5.534   2.009   1.276
 8433SOL    HW126198   5.548   2.015   1.177
 8433SOL    HW226199   5.613   1.962   1.317
 8434SOL     OW26200   2.656   5.731   4.782
 8434SOL    HW126201   2.705   5.775   4.858
 8434SOL    HW226202   2.600   5.799   4.735
 8435SOL     OW26203   5.595   1.817   3.398
 8435SOL    HW126204   5.602   1.768   3.484
 8435SOL    HW226205   5.667   1.886   3.393
 8436SOL     OW26206   2.480   5.714   2.194
 8436SOL    HW126207   2.543   5.712   2.116
 8436SOL    HW226208   2.507   5.787   2.257
 8437SOL     OW26209   0.697   5.457   1.264
 8437SOL    HW126210   0.737   5.457   1.172
 8437SOL    HW226211   0.604   5.419   1.260
 8438SOL     OW26212   0.475   3.919   2.342
 8438SOL    HW126213   0.540   3.990   2.314
 8438SOL    HW226214   0.523   3.850   2.395
 8439SOL     OW26215   6.292   4.329   2.620
 8439SOL    HW126216   6.257   4.237   2.636
 8439SOL    HW226217   6.245   4.369   2.541
 8440SOL     OW26218   1.660   2.073   2.834
 8440SOL    HW126219   1.593   2.002   2.809
 8440SOL    HW226220   1.723   2.087   2.758
 8441SOL     OW26221   0.114   1.790   5.829
 8441SOL    HW126222   0.059   1.722   5.781
 8441SOL    HW226223   0.182   1.744   5.886
 8442SOL     OW26224   4.298   2.096   6.915
 8442SOL    HW126225   4.267   2.188   6.889
 8442SOL    HW226226   4.359   2.102   6.994
 8443SOL     OW26227   1.716   4.451   2.539
 8443SOL    HW126228   1.766   4.399   2.470
 8443SOL    HW226229   1.770   4.455   2.623
 8444SOL     OW26230   5.512   5.416   5.094
 8444SOL    HW126231   5.570   5.471   5.154
 8444SOL    HW226232   5.534   5.320   5.106
 8445SOL     OW26233   4.437   6.735   6.594
 8445SOL    HW126234   4.407   6.729   6.499
 8445SOL    HW226235   4.526   6.691   6.604
 8446SOL     OW26236   6.582   5.149   4.982
 8446SOL    HW126237   6.496   5.199   4.993
 8446SOL    HW226238   6.588   5.079   5.053
 8447SOL     OW26239   3.878   1.158   3.944
 8447SOL    HW126240   3.969   1.187   3.915
 8447SOL    HW226241   3.840   1.094   3.877
 8448SOL     OW26242   3.417   6.188   3.227
 8448SOL    HW126243   3.374   6.128   3.295
 8448SOL    HW226244   3.516   6.172   3.227
 8449SOL     OW26245   1.862   2.040   3.485
 8449SOL    HW126246   1.857   2.131   3.442
 8449SOL    HW226247   1.885   2.051   3.582
 8450SOL     OW26248   6.748   0.902   6.904
 8450SOL    HW126249   6.812   0.925   6.831
 8450SOL    HW226250   6.798   0.873   6.985
 8451SOL     OW26251   3.942   2.661   1.249
 8451SOL    HW126252   3.994   2.580   1.275
 8451SOL    HW226253   3.948   2.730   1.322
 8452SOL     OW26254   4.971   1.120   5.812
 8452SOL    HW126255   5.060   1.076   5.820
 8452SOL    HW226256   4.902   1.052   5.789
 8453SOL     OW26257   0.084   6.681   0.178
 8453SOL    HW126258   0.006   6.620   0.194
 8453SOL    HW226259   0.073   6.764   0.232
 8454SOL     OW26260   5.924   4.516   6.521
 8454SOL    HW126261   5.895   4.444   6.458
 8454SOL    HW226262   6.003   4.564   6.484
 8455SOL     OW26263   6.601   1.142   2.620
 8455SOL    HW126264   6.519   1.189   2.653
 8455SOL    HW226265   6.619   1.167   2.525
 8456SOL     OW26266   0.033   0.101   2.657
 8456SOL    HW126267   7.013   0.129   2.744
 8456SOL    HW226268   0.133   0.107   2.663
 8457SOL     OW26269   6.705   6.770   4.973
 8457SOL    HW126270   6.609   6.778   4.947
 8457SOL    HW226271   6.721   6.817   5.059
 8458SOL     OW26272   0.708   6.614   6.677
 8458SOL    HW126273   0.715   6.599   6.578
 8458SOL    HW226274   0.721   6.711   6.697
 8459SOL     OW26275   1.335   6.006   3.654
 8459SOL    HW126276   1.358   5.924   3.603
 8459SOL    HW226277   1.381   6.085   3.613
 8460SOL     OW26278   4.078   3.757   3.260
 8460SOL    HW126279   4.017   3.819   3.209
 8460SOL    HW226280   4.051   3.757   3.356
 8461SOL     OW26281   6.259   3.287   3.795
 8461SOL    HW126282   6.346   3.309   3.751
 8461SOL    HW226283   6.241   3.189   3.788
 8462SOL     OW26284   2.485   2.628   1.743
 8462SOL    HW126285   2.580   2.605   1.719
 8462SOL    HW226286   2.436   2.656   1.661
 8463SOL     OW26287   5.620   0.343   1.982
 8463SOL    HW126288   5.663   0.311   1.898
 8463SOL    HW226289   5.531   0.300   1.992
 8464SOL     OW26290   0.039   1.729   4.802
 8464SOL    HW126291   0.068   1.823   4.786
 8464SOL    HW226292   6.963   1.728   4.826
 8465SOL     OW26293   1.291   1.381   0.075
 8465SOL    HW126294   1.297   1.368   6.997
 8465SOL    HW226295   1.293   1.479   0.095
 8466SOL     OW26296   0.164   0.117   4.076
 8466SOL    HW126297   0.224   0.173   4.019
 8466SOL    HW226298   0.213   0.035   4.105
 8467SOL     OW26299   3.736   5.214   1.266
 8467SOL    HW126300   3.639   5.211   1.239
 8467SOL    HW226301   3.788   5.264   1.196
 8468SOL     OW26302   4.400   2.389   0.350
 8468SOL    HW126303   4.468   2.380   0.277
 8468SOL    HW226304   4.431   2.338   0.430
 8469SOL     OW26305   4.125   2.254   6.279
 8469SOL    HW126306   4.108   2.261   6.377
 8469SOL    HW226307   4.057   2.194   6.237
 8470SOL     OW26308   1.894   2.925   6.828
 8470SOL    HW126309   1.914   2.827   6.831
 8470SOL    HW226310   1.795   2.938   6.822
 8471SOL     OW26311   4.400   1.738   3.889
 8471SOL    HW126312   4.323   1.795   3.916
 8471SOL    HW226313   4.441   1.774   3.805
 8472SOL     OW26314   1.391   6.665   2.673
 8472SOL    HW126315   1.466   6.659   2.739
 8472SOL    HW226316   1.428   6.669   2.580
 8473SOL     OW26317   6.736   5.967   6.131
 8473SOL    HW126318   6.660   5.975   6.066
 8473SOL    HW226319   6.703   5.987   6.223
 8474SOL     OW26320   3.599   5.241   0.555
 8474SOL    HW126321   3.577   5.237   0.652
 8474SOL    HW226322   3.572   5.155   0.511
 8475SOL     OW26323   4.766   1.543   3.019
 8475SOL    HW126324   4.789   1.597   2.938
 8475SOL    HW226325   4.836   1.474   3.034
 8476SOL     OW26326   4.352   0.440   2.453
 8476SOL    HW126327   4.359   0.353   2.406
 8476SOL    HW226328   4.266   0.486   2.427
 8477SOL     OW26329   2.501   0.622   2.337
 8477SOL    HW126330   2.481   0.672   2.253
 8477SOL    HW226331   2.420   0.570   2.366
 8478SOL     OW26332   1.815   0.547   5.730
 8478SOL    HW126333   1.868   0.556   5.815
 8478SOL    HW226334   1.877   0.535   5.653
 8479SOL     OW26335   5.307   1.293   2.400
 8479SOL    HW126336   5.277   1.282   2.305
 8479SOL    HW226337   5.397   1.336   2.402
 8480SOL     OW26338   1.803   1.450   1.488
 8480SOL    HW126339   1.875   1.443   1.418
 8480SOL    HW226340   1.721   1.402   1.456
 8481SOL     OW26341   4.351   0.200   5.343
 8481SOL    HW126342   4.339   0.169   5.438
 8481SOL    HW226343   4.398   0.128   5.291
 8482SOL     OW26344   0.582   0.410   2.297
 8482SOL    HW126345   0.654   0.427   2.229
 8482SOL    HW226346   0.548   0.497   2.332
 8483SOL     OW26347   5.552   6.275   1.774
 8483SOL    HW126348   5.523   6.369   1.792
 8483SOL    HW226349   5.474   6.213   1.785
 8484SOL     OW26350   0.204   4.572   4.541
 8484SOL    HW126351   0.202   4.601   4.445
 8484SOL    HW226352   0.297   4.548   4.567
 8485SOL     OW26353   2.427   3.216   5.611
 8485SOL    HW126354   2.394   3.210   5.516
 8485SOL    HW226355   2.437   3.313   5.636
 8486SOL     OW26356   4.271   0.709   2.625
 8486SOL    HW126357   4.256   0.665   2.537
 8486SOL    HW226358   4.184   0.743   2.661
 8487SOL     OW26359   4.230   1.204   0.879
 8487SOL    HW126360   4.258   1.132   0.815
 8487SOL    HW226361   4.262   1.292   0.845
 8488SOL     OW26362   5.431   3.187   4.841
 8488SOL    HW126363   5.411   3.241   4.759
 8488SOL    HW226364   5.402   3.236   4.922
 8489SOL     OW26365   3.749   5.841   2.798
 8489SOL    HW126366   3.731   5.752   2.757
 8489SOL    HW226367   3.665   5.876   2.841
 8490SOL     OW26368   4.168   5.676   2.644
 8490SOL    HW126369   4.180   5.775   2.650
 8490SOL    HW226370   4.190   5.645   2.552
 8491SOL     OW26371   0.910   1.351   1.864
 8491SOL    HW126372   0.878   1.338   1.770
 8491SOL    HW226373   1.009   1.335   1.869
 8492SOL     OW26374   5.605   4.086   4.617
 8492SOL    HW126375   5.660   4.149   4.671
 8492SOL    HW226376   5.621   4.102   4.520
 8493SOL     OW26377   4.056   2.383   0.767
 8493SOL    HW126378   4.085   2.473   0.732
 8493SOL    HW226379   4.104   2.364   0.853
 8494SOL     OW26380   3.936   6.006   6.598
 8494SOL    HW126381   4.013   5.986   6.659
 8494SOL    HW226382   3.850   6.000   6.649
 8495SOL     OW26383   0.660   2.585   0.154
 8495SOL    HW126384   0.616   2.504   0.193
 8495SOL    HW226385   0.617   2.667   0.189
 8496SOL     OW26386   6.923   2.174   3.053
 8496SOL    HW126387   6.832   2.142   3.078
 8496SOL    HW226388   6.942   2.149   2.958
 8497SOL     OW26389   5.852   4.645   3.065
 8497SOL    HW126390   5.853   4.597   3.153
 8497SOL    HW226391   5.915   4.601   3.001
 8498SOL     OW26392   6.382   1.055   1.226
 8498SOL    HW126393   6.412   1.066   1.321
 8498SOL    HW226394   6.356   1.144   1.189
 8499SOL     OW26395   1.431   3.967   6.463
 8499SOL    HW126396   1.527   3.984   6.443
 8499SOL    HW226397   1.423   3.886   6.522
 8500SOL     OW26398   3.279   0.684   6.113
 8500SOL    HW126399   3.258   0.732   6.028
 8500SOL    HW226400   3.367   0.714   6.148
 8501SOL     OW26401   3.034   4.259   6.100
 8501SOL    HW126402   3.017   4.304   6.013
 8501SOL    HW226403   3.009   4.321   6.175
 8502SOL     OW26404   0.876   6.711   2.084
 8502SOL    HW126405   0.801   6.760   2.039
 8502SOL    HW226406   0.935   6.670   2.015
 8503SOL     OW26407   3.112   6.174   3.414
 8503SOL    HW126408   3.126   6.247   3.348
 8503SOL    HW226409   3.190   6.112   3.412
 8504SOL     OW26410   1.355   5.581   3.481
 8504SOL    HW126411   1.435   5.568   3.539
 8504SOL    HW226412   1.273   5.589   3.538
 8505SOL     OW26413   4.597   2.633   4.140
 8505SOL    HW126414   4.643   2.551   4.105
 8505SOL    HW226415   4.638   2.714   4.101
 8506SOL     OW26416   1.230   6.755   0.418
 8506SOL    HW126417   1.130   6.752   0.410
 8506SOL    HW226418   1.262   6.848   0.401
 8507SOL     OW26419   1.526   0.132   5.281
 8507SOL    HW126420   1.451   0.119   5.346
 8507SOL    HW226421   1.612   0.142   5.331
 8508SOL     OW26422   0.665   2.973   5.455
 8508SOL    HW126423   0.661   2.883   5.411
 8508SOL    HW226424   0.573   3.013   5.457
 8509SOL     OW26425   5.906   2.242   5.019
 8509SOL    HW126426   5.850   2.160   5.019
 8509SOL    HW226427   5.886   2.296   4.937
 8510SOL     OW26428   5.368   6.869   1.951
 8510SOL    HW126429   5.437   6.800   1.976
 8510SOL    HW226430   5.315   6.894   2.032
 8511SOL     OW26431   6.354   5.157   1.681
 8511SOL    HW126432   6.274   5.206   1.646
 8511SOL    HW226433   6.366   5.179   1.778
 8512SOL     OW26434   3.278   3.056   0.852
 8512SOL    HW126435   3.236   2.981   0.902
 8512SOL    HW226436   3.296   3.132   0.914
 8513SOL     OW26437   1.170   3.858   1.096
 8513SOL    HW126438   1.132   3.837   1.186
 8513SOL    HW226439   1.118   3.932   1.054
 8514SOL     OW26440   2.445   2.204   5.234
 8514SOL    HW126441   2.514   2.163   5.174
 8514SOL    HW226442   2.377   2.253   5.179
 8515SOL     OW26443   2.274   0.156   0.847
 8515SOL    HW126444   2.321   0.180   0.763
 8515SOL    HW226445   2.258   0.238   0.901
 8516SOL     OW26446   5.535   3.108   4.269
 8516SOL    HW126447   5.469   3.130   4.197
 8516SOL    HW226448   5.487   3.069   4.348
 8517SOL     OW26449   2.005   1.695   6.386
 8517SOL    HW126450   2.091   1.691   6.435
 8517SOL    HW226451   1.986   1.790   6.359
 8518SOL     OW26452   5.281   5.309   6.494
 8518SOL    HW126453   5.250   5.371   6.567
 8518SOL    HW226454   5.318   5.226   6.535
 8519SOL     OW26455   0.611   3.240   0.576
 8519SOL    HW126456   0.664   3.325   0.572
 8519SOL    HW226457   0.513   3.262   0.569
 8520SOL     OW26458   3.375   4.103   5.780
 8520SOL    HW126459   3.306   4.073   5.846
 8520SOL    HW226460   3.330   4.121   5.692
 8521SOL     OW26461   1.946   6.496   5.425
 8521SOL    HW126462   2.028   6.452   5.463
 8521SOL    HW226463   1.875   6.499   5.496
 8522SOL     OW26464   0.646   6.727   0.066
 8522SOL    HW126465   0.610   6.814   0.101
 8522SOL    HW226466   0.711   6.745   7.013
 8523SOL     OW26467   3.845   2.033   0.508
 8523SOL    HW126468   3.851   2.094   0.587
 8523SOL    HW226469   3.870   2.082   0.425
 8524SOL     OW26470   2.186   5.426   5.562
 8524SOL    HW126471   2.104   5.481   5.551
 8524SOL    HW226472   2.161   5.330   5.574
 8525SOL     OW26473   6.249   3.505   2.080
 8525SOL    HW126474   6.182   3.449   2.030
 8525SOL    HW226475   6.217   3.517   2.174
 8526SOL     OW26476   0.469   4.594   0.127
 8526SOL    HW126477   0.512   4.645   0.202
 8526SOL    HW226478   0.496   4.498   0.132
 8527SOL     OW26479   2.648   1.021   5.878
 8527SOL    HW126480   2.566   1.074   5.856
 8527SOL    HW226481   2.640   0.982   5.970
 8528SOL     OW26482   5.694   0.586   0.762
 8528SOL    HW126483   5.776   0.562   0.711
 8528SOL    HW226484   5.719   0.639   0.843
 8529SOL     OW26485   1.116   6.333   6.767
 8529SOL    HW126486   1.029   6.331   6.717
 8529SOL    HW226487   1.104   6.385   6.852
 8530SOL     OW26488   3.848   3.956   3.120
 8530SOL    HW126489   3.770   3.903   3.087
 8530SOL    HW226490   3.927   3.939   3.061
 8531SOL     OW26491   6.348   5.047   4.065
 8531SOL    HW126492   6.397   5.109   4.125
 8531SOL    HW226493   6.317   5.097   3.984
 8532SOL     OW26494   3.091   5.726   6.710
 8532SOL    HW126495   2.995   5.754   6.705
 8532SOL    HW226496   3.100   5.648   6.772
 8533SOL     OW26497   2.512   6.635   5.211
 8533SOL    HW126498   2.510   6.681   5.123
 8533SOL    HW226499   2.578   6.560   5.208
 8534SOL     OW26500   2.091   2.473   2.784
 8534SOL    HW126501   2.189   2.490   2.772
 8534SOL    HW226502   2.076   2.427   2.872
 8535SOL     OW26503   5.883   0.551   2.022
 8535SOL    HW126504   5.854   0.455   2.033
 8535SOL    HW226505   5.803   0.607   2.001
 8536SOL     OW26506   1.013   1.282   4.314
 8536SOL    HW126507   1.006   1.221   4.235
 8536SOL    HW226508   0.922   1.315   4.338
 8537SOL     OW26509   5.998   1.180   3.024
 8537SOL    HW126510   6.090   1.141   3.025
 8537SOL    HW226511   5.984   1.236   3.106
 8538SOL     OW26512   0.936   2.560   0.232
 8538SOL    HW126513   0.846   2.534   0.199
 8538SOL    HW226514   0.999   2.483   0.223
 8539SOL     OW26515   5.280   2.558   2.246
 8539SOL    HW126516   5.186   2.537   2.275
 8539SOL    HW226517   5.278   2.620   2.168
 8540SOL     OW26518   3.690   0.873   1.305
 8540SOL    HW126519   3.620   0.802   1.301
 8540SOL    HW226520   3.650   0.961   1.280
 8541SOL     OW26521   2.075   2.634   4.016
 8541SOL    HW126522   2.111   2.630   3.923
 8541SOL    HW226523   2.148   2.615   4.081
 8542SOL     OW26524   3.500   4.389   0.568
 8542SOL    HW126525   3.511   4.418   0.473
 8542SOL    HW226526   3.485   4.290   0.572
 8543SOL     OW26527   3.018   2.156   6.620
 8543SOL    HW126528   3.061   2.227   6.565
 8543SOL    HW226529   3.039   2.171   6.717
 8544SOL     OW26530   6.286   2.256   4.333
 8544SOL    HW126531   6.249   2.340   4.373
 8544SOL    HW226532   6.221   2.181   4.345
 8545SOL     OW26533   4.420   6.713   5.156
 8545SOL    HW126534   4.457   6.701   5.248
 8545SOL    HW226535   4.479   6.666   5.090
 8546SOL     OW26536   4.701   2.499   6.978
 8546SOL    HW126537   4.741   2.514   0.048
 8546SOL    HW226538   4.647   2.580   6.951
 8547SOL     OW26539   1.183   4.649   1.969
 8547SOL    HW126540   1.180   4.587   2.047
 8547SOL    HW226541   1.278   4.677   1.952
 8548SOL     OW26542   6.030   1.989   5.534
 8548SOL    HW126543   6.077   1.976   5.446
 8548SOL    HW226544   5.992   1.902   5.565
 8549SOL     OW26545   5.414   3.233   5.500
 8549SOL    HW126546   5.490   3.286   5.538
 8549SOL    HW226547   5.353   3.293   5.448
 8550SOL     OW26548   0.955   4.370   6.091
 8550SOL    HW126549   1.041   4.341   6.134
 8550SOL    HW226550   0.944   4.323   6.004
 8551SOL     OW26551   2.524   4.396   0.880
 8551SOL    HW126552   2.606   4.438   0.918
 8551SOL    HW226553   2.526   4.297   0.897
 8552SOL     OW26554   3.006   6.779   4.484
 8552SOL    HW126555   3.034   6.790   4.388
 8552SOL    HW226556   3.047   6.696   4.521
 8553SOL     OW26557   5.850   5.158   6.962
 8553SOL    HW126558   5.850   5.199   6.871
 8553SOL    HW226559   5.945   5.147   6.993
 8554SOL     OW26560   5.565   3.917   6.764
 8554SOL    HW126561   5.478   3.965   6.766
 8554SOL    HW226562   5.557   3.832   6.816
 8555SOL     OW26563   1.872   6.934   4.532
 8555SOL    HW126564   1.856   6.859   4.467
 8555SOL    HW226565   1.861   6.900   4.626
 8556SOL     OW26566   5.987   6.919   4.220
 8556SOL    HW126567   6.010   6.935   4.124
 8556SOL    HW226568   5.906   6.861   4.226
 8557SOL     OW26569   6.918   0.822   0.369
 8557SOL    HW126570   6.949   0.913   0.397
 8557SOL    HW226571   6.859   0.784   0.440
 8558SOL     OW26572   0.735   5.148   2.307
 8558SOL    HW126573   0.832   5.153   2.330
 8558SOL    HW226574   0.693   5.071   2.355
 8559SOL     OW26575   0.671   1.532   5.692
 8559SOL    HW126576   0.572   1.534   5.706
 8559SOL    HW226577   0.703   1.438   5.693
 8560SOL     OW26578   6.414   2.018   6.607
 8560SOL    HW126579   6.411   1.948   6.678
 8560SOL    HW226580   6.321   2.050   6.587
 8561SOL     OW26581   4.768   5.850   5.504
 8561SOL    HW126582   4.837   5.903   5.454
 8561SOL    HW226583   4.780   5.753   5.485
 8562SOL     OW26584   3.692   6.923   4.367
 8562SOL    HW126585   3.638   6.847   4.332
 8562SOL    HW226586   3.665   6.943   4.461
 8563SOL     OW26587   2.790   3.286   6.798
 8563SOL    HW126588   2.866   3.263   6.858
 8563SOL    HW226589   2.809   3.373   6.752
 8564SOL     OW26590   0.475   5.943   3.148
 8564SOL    HW126591   0.542   5.940   3.223
 8564SOL    HW226592   0.416   6.023   3.160
 8565SOL     OW26593   3.502   0.768   1.567
 8565SOL    HW126594   3.433   0.724   1.624
 8565SOL    HW226595   3.467   0.781   1.474
 8566SOL     OW26596   1.607   4.136   3.434
 8566SOL    HW126597   1.591   4.142   3.533
 8566SOL    HW226598   1.695   4.091   3.417
 8567SOL     OW26599   4.795   5.804   6.944
 8567SOL    HW126600   4.883   5.758   6.931
 8567SOL    HW226601   4.766   5.846   6.858
 8568SOL     OW26602   5.479   0.537   0.231
 8568SOL    HW126603   5.469   0.557   0.133
 8568SOL    HW226604   5.519   0.616   0.277
 8569SOL     OW26605   4.037   0.877   5.325
 8569SOL    HW126606   3.984   0.898   5.243
 8569SOL    HW226607   4.014   0.785   5.357
 8570SOL     OW26608   0.021   3.299   6.270
 8570SOL    HW126609   0.067   3.223   6.315
 8570SOL    HW226610   0.066   3.318   6.183
 8571SOL     OW26611   0.124   4.283   4.932
 8571SOL    HW126612   0.031   4.270   4.897
 8571SOL    HW226613   0.120   4.323   5.024
 8572SOL     OW26614   2.977   4.908   5.355
 8572SOL    HW126615   2.972   4.930   5.452
 8572SOL    HW226616   2.918   4.970   5.304
 8573SOL     OW26617   3.608   6.530   4.206
 8573SOL    HW126618   3.586   6.546   4.303
 8573SOL    HW226619   3.593   6.614   4.154
 8574SOL     OW26620   0.366   4.310   4.021
 8574SOL    HW126621   0.411   4.234   3.974
 8574SOL    HW226622   0.378   4.301   4.119
 8575SOL     OW26623   3.075   3.553   6.567
 8575SOL    HW126624   3.099   3.626   6.503
 8575SOL    HW226625   3.009   3.491   6.524
 8576SOL     OW26626   1.786   0.280   0.792
 8576SOL    HW126627   1.873   0.307   0.751
 8576SOL    HW226628   1.726   0.360   0.798
 8577SOL     OW26629   6.494   5.750   4.416
 8577SOL    HW126630   6.553   5.830   4.427
 8577SOL    HW226631   6.508   5.710   4.325
 8578SOL     OW26632   5.085   0.439   2.722
 8578SOL    HW126633   5.050   0.520   2.673
 8578SOL    HW226634   5.030   0.424   2.803
 8579SOL     OW26635   0.288   5.025   2.854
 8579SOL    HW126636   0.190   5.042   2.854
 8579SOL    HW226637   0.305   4.927   2.849
 8580SOL     OW26638   2.649   4.876   6.145
 8580SOL    HW126639   2.597   4.961   6.151
 8580SOL    HW226640   2.662   4.851   6.049
 8581SOL     OW26641   3.342   2.963   0.214
 8581SOL    HW126642   3.409   2.954   0.141
 8581SOL    HW226643   3.255   2.923   0.185
 8582SOL     OW26644   4.468   4.523   0.702
 8582SOL    HW126645   4.435   4.429   0.712
 8582SOL    HW226646   4.499   4.557   0.791
 8583SOL     OW26647   5.554   6.577   5.448
 8583SOL    HW126648   5.638   6.577   5.392
 8583SOL    HW226649   5.507   6.664   5.438
 8584SOL     OW26650   0.338   5.244   6.951
 8584SOL    HW126651   0.288   5.239   0.017
 8584SOL    HW226652   0.323   5.334   6.910
 8585SOL     OW26653   0.885   1.676   1.033
 8585SOL    HW126654   0.904   1.645   0.940
 8585SOL    HW226655   0.915   1.607   1.099
 8586SOL     OW26656   4.051   5.139   4.461
 8586SOL    HW126657   4.057   5.040   4.469
 8586SOL    HW226658   4.133   5.174   4.416
 8587SOL     OW26659   6.618   2.121   1.798
 8587SOL    HW126660   6.583   2.052   1.862
 8587SOL    HW226661   6.670   2.077   1.726
 8588SOL     OW26662   3.605   1.904   6.868
 8588SOL    HW126663   3.594   1.989   6.816
 8588SOL    HW226664   3.581   1.826   6.809
 8589SOL     OW26665   3.072   1.379   5.157
 8589SOL    HW126666   3.130   1.433   5.217
 8589SOL    HW226667   3.011   1.321   5.212
 8590SOL     OW26668   6.196   5.756   5.329
 8590SOL    HW126669   6.175   5.670   5.376
 8590SOL    HW226670   6.129   5.771   5.256
 8591SOL     OW26671   0.885   2.419   0.646
 8591SOL    HW126672   0.873   2.325   0.615
 8591SOL    HW226673   0.846   2.482   0.579
 8592SOL     OW26674   6.692   5.962   6.412
 8592SOL    HW126675   6.623   5.913   6.465
 8592SOL    HW226676   6.700   6.056   6.445
 8593SOL     OW26677   0.304   5.734   3.098
 8593SOL    HW126678   0.363   5.812   3.121
 8593SOL    HW226679   0.321   5.659   3.162
 8594SOL     OW26680   3.542   3.985   3.336
 8594SOL    HW126681   3.446   3.992   3.364
 8594SOL    HW226682   3.553   4.026   3.246
 8595SOL     OW26683   1.556   3.028   1.628
 8595SOL    HW126684   1.491   3.057   1.698
 8595SOL    HW226685   1.614   3.105   1.602
 8596SOL     OW26686   6.635   4.328   2.430
 8596SOL    HW126687   6.575   4.408   2.419
 8596SOL    HW226688   6.645   4.282   2.342
 8597SOL     OW26689   2.755   2.063   0.316
 8597SOL    HW126690   2.716   2.103   0.233
 8597SOL    HW226691   2.751   2.130   0.390
 8598SOL     OW26692   5.648   3.677   1.959
 8598SOL    HW126693   5.629   3.585   1.924
 8598SOL    HW226694   5.655   3.675   2.058
 8599SOL     OW26695   0.639   3.468   0.822
 8599SOL    HW126696   0.562   3.417   0.786
 8599SOL    HW226697   0.675   3.529   0.752
 8600SOL     OW26698   6.323   2.800   6.255
 8600SOL    HW126699   6.373   2.805   6.342
 8600SOL    HW226700   6.345   2.714   6.209
 8601SOL     OW26701   0.085   0.774   5.311
 8601SOL    HW126702   0.183   0.780   5.331
 8601SOL    HW226703   0.033   0.773   5.397
 8602SOL     OW26704   1.705   6.555   1.742
 8602SOL    HW126705   1.643   6.525   1.814
 8602SOL    HW226706   1.659   6.553   1.654
 8603SOL     OW26707   5.047   3.311   1.566
 8603SOL    HW126708   4.950   3.300   1.586
 8603SOL    HW226709   5.076   3.241   1.500
 8604SOL     OW26710   6.043   2.385   2.960
 8604SOL    HW126711   6.027   2.391   2.862
 8604SOL    HW226712   6.046   2.476   3.000
 8605SOL     OW26713   3.080   5.795   1.945
 8605SOL    HW126714   3.082   5.881   1.896
 8605SOL    HW226715   3.033   5.726   1.890
 8606SOL     OW26716   3.865   5.775   5.255
 8606SOL    HW126717   3.915   5.688   5.252
 8606SOL    HW226718   3.919   5.846   5.211
 8607SOL     OW26719   3.225   5.781   1.197
 8607SOL    HW126720   3.199   5.686   1.185
 8607SOL    HW226721   3.147   5.840   1.177
 8608SOL     OW26722   6.050   6.454   2.066
 8608SOL    HW126723   6.108   6.377   2.093
 8608SOL    HW226724   6.028   6.509   2.147
 8609SOL     OW26725   4.684   0.637   6.242
 8609SOL    HW126726   4.768   0.655   6.191
 8609SOL    HW226727   4.660   0.540   6.234
 8610SOL     OW26728   0.184   6.372   5.536
 8610SOL    HW126729   0.171   6.461   5.491
 8610SOL    HW226730   0.280   6.347   5.533
 8611SOL     OW26731   1.284   1.910   3.328
 8611SOL    HW126732   1.310   1.878   3.419
 8611SOL    HW226733   1.248   2.003   3.334
 8612SOL     OW26734   5.061   2.825   4.979
 8612SOL    HW126735   5.033   2.731   5.002
 8612SOL    HW226736   5.156   2.839   5.007
 8613SOL     OW26737   1.310   0.679   0.246
 8613SOL    HW126738   1.363   0.738   0.307
 8613SOL    HW226739   1.234   0.730   0.206
 8614SOL     OW26740   1.568   1.875   3.470
 8614SOL    HW126741   1.652   1.835   3.507
 8614SOL    HW226742   1.499   1.880   3.542
 8615SOL     OW26743   4.279   2.220   5.286
 8615SOL    HW126744   4.296   2.183   5.377
 8615SOL    HW226745   4.366   2.232   5.238
 8616SOL     OW26746   1.148   3.114   0.248
 8616SOL    HW126747   1.148   3.039   0.182
 8616SOL    HW226748   1.187   3.082   0.334
 8617SOL     OW26749   5.787   2.538   0.711
 8617SOL    HW126750   5.700   2.508   0.673
 8617SOL    HW226751   5.859   2.528   0.642
 8618SOL     OW26752   3.834   0.980   2.860
 8618SOL    HW126753   3.872   0.946   2.946
 8618SOL    HW226754   3.851   1.078   2.853
 8619SOL     OW26755   4.465   6.011   0.838
 8619SOL    HW126756   4.422   5.940   0.783
 8619SOL    HW226757   4.480   5.978   0.931
 8620SOL     OW26758   6.529   5.890   3.494
 8620SOL    HW126759   6.532   5.988   3.474
 8620SOL    HW226760   6.464   5.845   3.434
 8621SOL     OW26761   5.316   0.486   3.676
 8621SOL    HW126762   5.415   0.476   3.679
 8621SOL    HW226763   5.292   0.572   3.631
 8622SOL     OW26764   4.819   5.072   6.982
 8622SOL    HW126765   4.870   5.116   6.909
 8622SOL    HW226766   4.827   4.973   6.973
 8623SOL     OW26767   6.409   2.392   3.843
 8623SOL    HW126768   6.333   2.378   3.906
 8623SOL    HW226769   6.491   2.418   3.894
 8624SOL     OW26770   6.836   3.828   3.734
 8624SOL    HW126771   6.774   3.820   3.812
 8624SOL    HW226772   6.877   3.739   3.713
 8625SOL     OW26773   3.697   0.980   6.502
 8625SOL    HW126774   3.615   1.029   6.532
 8625SOL    HW226775   3.698   0.977   6.402
 8626SOL     OW26776   3.099   3.052   2.432
 8626SOL    HW126777   3.080   2.978   2.367
 8626SOL    HW226778   3.091   3.017   2.525
 8627SOL     OW26779   2.576   0.539   6.873
 8627SOL    HW126780   2.584   0.632   6.910
 8627SOL    HW226781   2.659   0.487   6.896
 8628SOL     OW26782   6.106   1.301   0.674
 8628SOL    HW126783   6.148   1.309   0.583
 8628SOL    HW226784   6.048   1.381   0.690
 8629SOL     OW26785   1.417   5.218   3.509
 8629SOL    HW126786   1.433   5.156   3.585
 8629SOL    HW226787   1.495   5.280   3.500
 8630SOL     OW26788   5.572   4.858   3.919
 8630SOL    HW126789   5.483   4.866   3.873
 8630SOL    HW226790   5.559   4.864   4.018
 8631SOL     OW26791   4.612   6.121   4.121
 8631SOL    HW126792   4.559   6.205   4.116
 8631SOL    HW226793   4.551   6.044   4.139
 8632SOL     OW26794   3.850   0.513   3.481
 8632SOL    HW126795   3.815   0.515   3.574
 8632SOL    HW226796   3.882   0.421   3.460
 8633SOL     OW26797   6.705   6.718   3.153
 8633SOL    HW126798   6.740   6.750   3.241
 8633SOL    HW226799   6.605   6.716   3.157
 8634SOL     OW26800   6.461   5.988   1.714
 8634SOL    HW126801   6.506   5.914   1.665
 8634SOL    HW226802   6.479   6.075   1.668
 8635SOL     OW26803   6.510   3.535   5.581
 8635SOL    HW126804   6.475   3.627   5.569
 8635SOL    HW226805   6.435   3.472   5.600
 8636SOL     OW26806   5.523   5.449   0.782
 8636SOL    HW126807   5.534   5.356   0.815
 8636SOL    HW226808   5.569   5.459   0.693
 8637SOL     OW26809   1.885   0.755   1.302
 8637SOL    HW126810   1.928   0.716   1.384
 8637SOL    HW226811   1.792   0.718   1.292
 8638SOL     OW26812   4.802   5.006   0.871
 8638SOL    HW126813   4.790   4.921   0.820
 8638SOL    HW226814   4.849   5.073   0.812
 8639SOL     OW26815   6.174   2.526   2.083
 8639SOL    HW126816   6.225   2.599   2.037
 8639SOL    HW226817   6.138   2.560   2.170
 8640SOL     OW26818   4.632   6.491   1.400
 8640SOL    HW126819   4.714   6.448   1.361
 8640SOL    HW226820   4.604   6.440   1.482
 8641SOL     OW26821   5.232   4.946   3.189
 8641SOL    HW126822   5.315   4.892   3.202
 8641SOL    HW226823   5.238   4.998   3.103
 8642SOL     OW26824   4.259   1.628   1.734
 8642SOL    HW126825   4.207   1.600   1.653
 8642SOL    HW226826   4.201   1.623   1.815
 8643SOL     OW26827   4.413   0.132   6.901
 8643SOL    HW126828   4.400   0.115   6.803
 8643SOL    HW226829   4.503   0.099   6.928
 8644SOL     OW26830   6.873   3.607   5.434
 8644SOL    HW126831   6.904   3.562   5.351
 8644SOL    HW226832   6.798   3.670   5.412
 8645SOL     OW26833   6.273   4.119   1.825
 8645SOL    HW126834   6.347   4.130   1.891
 8645SOL    HW226835   6.264   4.204   1.772
 8646SOL     OW26836   5.406   6.684   0.948
 8646SOL    HW126837   5.353   6.606   0.915
 8646SOL    HW226838   5.354   6.768   0.932
 8647SOL     OW26839   4.405   4.880   2.079
 8647SOL    HW126840   4.501   4.860   2.099
 8647SOL    HW226841   4.365   4.801   2.031
 8648SOL     OW26842   5.817   1.698   4.480
 8648SOL    HW126843   5.849   1.603   4.486
 8648SOL    HW226844   5.896   1.759   4.469
 8649SOL     OW26845   6.767   4.821   5.938
 8649SOL    HW126846   6.853   4.866   5.915
 8649SOL    HW226847   6.776   4.775   6.026
 8650SOL     OW26848   0.266   5.054   2.065
 8650SOL    HW126849   0.353   5.078   2.021
 8650SOL    HW226850   0.221   4.982   2.013
 8651SOL     OW26851   3.997   3.070   1.155
 8651SOL    HW126852   4.054   3.083   1.074
 8651SOL    HW226853   4.015   3.144   1.220
 8652SOL     OW26854   1.021   3.138   3.721
 8652SOL    HW126855   1.005   3.088   3.636
 8652SOL    HW226856   1.109   3.186   3.716
 8653SOL     OW26857   5.286   3.123   6.652
 8653SOL    HW126858   5.307   3.096   6.558
 8653SOL    HW226859   5.218   3.197   6.651
 8654SOL     OW26860   0.609   5.271   1.843
 8654SOL    HW126861   0.689   5.215   1.822
 8654SOL    HW226862   0.613   5.356   1.791
 8655SOL     OW26863   6.430   6.329   2.794
 8655SOL    HW126864   6.423   6.408   2.855
 8655SOL    HW226865   6.361   6.336   2.722
 8656SOL     OW26866   6.707   2.151   1.140
 8656SOL    HW126867   6.752   2.096   1.210
 8656SOL    HW226868   6.750   2.134   1.051
 8657SOL     OW26869   2.583   4.340   0.256
 8657SOL    HW126870   2.657   4.274   0.264
 8657SOL    HW226871   2.495   4.294   0.269
 8658SOL     OW26872   0.678   5.695   6.291
 8658SOL    HW126873   0.595   5.639   6.298
 8658SOL    HW226874   0.693   5.720   6.195
 8659SOL     OW26875   4.196   0.029   3.800
 8659SOL    HW126876   4.152   0.119   3.801
 8659SOL    HW226877   4.127   6.978   3.788
 8660SOL     OW26878   5.785   4.745   0.292
 8660SOL    HW126879   5.768   4.775   0.198
 8660SOL    HW226880   5.880   4.766   0.317
 8661SOL     OW26881   6.588   3.296   1.848
 8661SOL    HW126882   6.579   3.374   1.909
 8661SOL    HW226883   6.498   3.257   1.829
 8662SOL     OW26884   0.813   0.300   0.534
 8662SOL    HW126885   0.875   0.230   0.568
 8662SOL    HW226886   0.789   0.363   0.608
 8663SOL     OW26887   1.898   5.751   1.038
 8663SOL    HW126888   1.860   5.760   0.946
 8663SOL    HW226889   1.870   5.664   1.078
 8664SOL     OW26890   4.776   5.274   1.815
 8664SOL    HW126891   4.816   5.366   1.821
 8664SOL    HW226892   4.676   5.280   1.819
 8665SOL     OW26893   5.043   5.659   4.738
 8665SOL    HW126894   5.113   5.648   4.809
 8665SOL    HW226895   5.018   5.569   4.702
 8666SOL     OW26896   6.112   4.138   4.239
 8666SOL    HW126897   6.147   4.193   4.315
 8666SOL    HW226898   6.034   4.084   4.271
 8667SOL     OW26899   5.854   2.759   3.231
 8667SOL    HW126900   5.778   2.713   3.278
 8667SOL    HW226901   5.863   2.852   3.266
 8668SOL     OW26902   3.311   0.943   4.181
 8668SOL    HW126903   3.253   0.932   4.262
 8668SOL    HW226904   3.318   1.040   4.158
 8669SOL     OW26905   4.265   6.836   5.609
 8669SOL    HW126906   4.306   6.927   5.616
 8669SOL    HW226907   4.166   6.844   5.604
 8670SOL     OW26908   4.129   4.853   2.961
 8670SOL    HW126909   4.164   4.858   2.867
 8670SOL    HW226910   4.125   4.945   3.000
 8671SOL     OW26911   6.226   6.357   2.598
 8671SOL    HW126912   6.137   6.312   2.600
 8671SOL    HW226913   6.227   6.427   2.526
 8672SOL     OW26914   3.776   5.111   5.490
 8672SOL    HW126915   3.699   5.047   5.492
 8672SOL    HW226916   3.860   5.062   5.466
 8673SOL     OW26917   5.108   2.107   0.239
 8673SOL    HW126918   5.075   2.059   0.158
 8673SOL    HW226919   5.111   2.205   0.220
 8674SOL     OW26920   0.597   6.973   2.822
 8674SOL    HW126921   0.599   0.037   2.874
 8674SOL    HW226922   0.672   6.913   2.851
 8675SOL     OW26923   2.420   2.629   2.515
 8675SOL    HW126924   2.438   2.677   2.429
 8675SOL    HW226925   2.443   2.688   2.592
 8676SOL     OW26926   4.131   0.728   4.138
 8676SOL    HW126927   4.202   0.690   4.079
 8676SOL    HW226928   4.173   0.785   4.209
 8677SOL     OW26929   2.150   4.322   5.453
 8677SOL    HW126930   2.217   4.382   5.497
 8677SOL    HW226931   2.173   4.313   5.356
 8678SOL     OW26932   1.338   0.791   6.526
 8678SOL    HW126933   1.403   0.857   6.563
 8678SOL    HW226934   1.385   0.730   6.462
 8679SOL     OW26935   6.163   1.776   4.618
 8679SOL    HW126936   6.093   1.789   4.548
 8679SOL    HW226937   6.247   1.822   4.590
 8680SOL     OW26938   0.942   4.024   0.745
 8680SOL    HW126939   1.019   3.989   0.692
 8680SOL    HW226940   0.864   3.961   0.737
 8681SOL     OW26941   4.125   3.501   1.226
 8681SOL    HW126942   4.163   3.495   1.318
 8681SOL    HW226943   4.071   3.419   1.206
 8682SOL     OW26944   1.639   5.533   2.693
 8682SOL    HW126945   1.699   5.460   2.724
 8682SOL    HW226946   1.603   5.511   2.602
 8683SOL     OW26947   5.440   3.020   6.423
 8683SOL    HW126948   5.539   3.023   6.410
 8683SOL    HW226949   5.394   3.048   6.339
 8684SOL     OW26950   6.802   2.695   4.180
 8684SOL    HW126951   6.787   2.724   4.086
 8684SOL    HW226952   6.842   2.770   4.232
 8685SOL     OW26953   0.501   1.360   5.226
 8685SOL    HW126954   0.473   1.456   5.227
 8685SOL    HW226955   0.575   1.348   5.159
 8686SOL     OW26956   6.436   1.790   3.689
 8686SOL    HW126957   6.519   1.747   3.655
 8686SOL    HW226958   6.441   1.889   3.675
 8687SOL     OW26959   3.677   0.955   2.642
 8687SOL    HW126960   3.744   0.938   2.714
 8687SOL    HW226961   3.606   1.017   2.675
 8688SOL     OW26962   1.480   0.213   2.071
 8688SOL    HW126963   1.518   0.132   2.025
 8688SOL    HW226964   1.408   0.184   2.134
 8689SOL     OW26965   4.520   5.542   0.722
 8689SOL    HW126966   4.563   5.568   0.636
 8689SOL    HW226967   4.522   5.442   0.732
 8690SOL     OW26968   1.492   0.626   2.793
 8690SOL    HW126969   1.401   0.667   2.797
 8690SOL    HW226970   1.492   0.542   2.848
 8691SOL     OW26971   5.469   1.542   0.759
 8691SOL    HW126972   5.542   1.591   0.711
 8691SOL    HW226973   5.503   1.507   0.846
 8692SOL     OW26974   1.576   1.730   3.879
 8692SOL    HW126975   1.649   1.718   3.812
 8692SOL    HW226976   1.607   1.697   3.968
 8693SOL     OW26977   5.197   2.072   6.805
 8693SOL    HW126978   5.272   2.111   6.858
 8693SOL    HW226979   5.224   2.064   6.709
 8694SOL     OW26980   3.702   6.779   6.988
 8694SOL    HW126981   3.644   6.795   0.047
 8694SOL    HW226982   3.790   6.824   7.001
 8695SOL     OW26983   4.573   4.412   5.180
 8695SOL    HW126984   4.635   4.355   5.126
 8695SOL    HW226985   4.479   4.400   5.147
 8696SOL     OW26986   1.891   5.031   1.007
 8696SOL    HW126987   1.968   5.058   0.948
 8696SOL    HW226988   1.856   5.111   1.054
 8697SOL     OW26989   5.009   5.033   6.486
 8697SOL    HW126990   5.001   4.935   6.502
 8697SOL    HW226991   5.089   5.069   6.534
 8698SOL     OW26992   5.981   6.102   4.540
 8698SOL    HW126993   5.937   6.014   4.528
 8698SOL    HW226994   5.935   6.153   4.613
 8699SOL     OW26995   1.069   1.639   5.181
 8699SOL    HW126996   1.023   1.552   5.198
 8699SOL    HW226997   1.061   1.698   5.262
 8700SOL     OW26998   2.669   2.144   5.597
 8700SOL    HW126999   2.621   2.224   5.560
 8700SOL    HW227000   2.660   2.144   5.697
 8701SOL     OW27001   1.162   2.209   3.783
 8701SOL    HW127002   1.197   2.301   3.765
 8701SOL    HW227003   1.065   2.205   3.759
 8702SOL     OW27004   5.012   5.658   6.930
 8702SOL    HW127005   5.111   5.646   6.933
 8702SOL    HW227006   4.976   5.620   6.845
 8703SOL     OW27007   1.061   5.354   1.056
 8703SOL    HW127008   1.110   5.266   1.055
 8703SOL    HW227009   0.963   5.337   1.051
 8704SOL     OW27010   0.370   4.306   1.999
 8704SOL    HW127011   0.278   4.343   1.995
 8704SOL    HW227012   0.380   4.231   1.933
 8705SOL     OW27013   4.784   6.623   4.617
 8705SOL    HW127014   4.731   6.629   4.532
 8705SOL    HW227015   4.729   6.660   4.693
 8706SOL     OW27016   5.185   1.625   6.057
 8706SOL    HW127017   5.207   1.722   6.068
 8706SOL    HW227018   5.096   1.617   6.011
 8707SOL     OW27019   4.933   2.048   5.823
 8707SOL    HW127020   4.843   2.091   5.814
 8707SOL    HW227021   4.976   2.080   5.908
 8708SOL     OW27022   3.943   1.730   0.617
 8708SOL    HW127023   3.912   1.647   0.664
 8708SOL    HW227024   4.013   1.775   0.672
 8709SOL     OW27025   6.195   3.557   0.727
 8709SOL    HW127026   6.288   3.521   0.730
 8709SOL    HW227027   6.195   3.653   0.756
 8710SOL     OW27028   6.646   3.459   3.768
 8710SOL    HW127029   6.685   3.420   3.685
 8710SOL    HW227030   6.641   3.388   3.838
 8711SOL     OW27031   0.856   1.958   3.913
 8711SOL    HW127032   0.790   1.901   3.962
 8711SOL    HW227033   0.813   1.995   3.830
 8712SOL     OW27034   3.740   0.996   6.234
 8712SOL    HW127035   3.711   1.089   6.213
 8712SOL    HW227036   3.805   0.964   6.165
 8713SOL     OW27037   5.528   4.864   2.626
 8713SOL    HW127038   5.503   4.768   2.610
 8713SOL    HW227039   5.469   4.901   2.697
 8714SOL     OW27040   1.929   1.786   4.618
 8714SOL    HW127041   1.855   1.811   4.556
 8714SOL    HW227042   1.906   1.702   4.666
 8715SOL     OW27043   5.896   1.314   2.109
 8715SOL    HW127044   5.970   1.309   2.042
 8715SOL    HW227045   5.823   1.374   2.075
 8716SOL     OW27046   0.620   1.441   1.904
 8716SOL    HW127047   0.593   1.470   1.996
 8716SOL    HW227048   0.706   1.389   1.909
 8717SOL     OW27049   4.445   3.191   0.480
 8717SOL    HW127050   4.376   3.205   0.409
 8717SOL    HW227051   4.431   3.258   0.554
 8718SOL     OW27052   0.224   2.959   5.864
 8718SOL    HW127053   0.156   2.937   5.935
 8718SOL    HW227054   0.177   2.988   5.781
 8719SOL     OW27055   6.503   0.837   5.565
 8719SOL    HW127056   6.458   0.751   5.543
 8719SOL    HW227057   6.435   0.902   5.600
 8720SOL     OW27058   4.534   3.922   5.935
 8720SOL    HW127059   4.485   3.903   5.850
 8720SOL    HW227060   4.553   3.835   5.982
 8721SOL     OW27061   6.986   1.224   4.579
 8721SOL    HW127062   6.937   1.137   4.574
 8721SOL    HW227063   0.064   1.206   4.588
 8722SOL     OW27064   2.942   2.968   0.914
 8722SOL    HW127065   2.954   2.871   0.891
 8722SOL    HW227066   2.987   2.986   1.002
 8723SOL     OW27067   0.290   5.063   0.352
 8723SOL    HW127068   0.199   5.092   0.383
 8723SOL    HW227069   0.283   4.976   0.304
 8724SOL     OW27070   5.497   6.051   6.350
 8724SOL    HW127071   5.587   6.014   6.376
 8724SOL    HW227072   5.443   6.070   6.432
 8725SOL     OW27073   2.010   5.979   1.343
 8725SOL    HW127074   2.027   6.019   1.433
 8725SOL    HW227075   2.096   5.948   1.303
 8726SOL     OW27076   6.254   0.032   1.095
 8726SOL    HW127077   6.234   0.021   1.193
 8726SOL    HW227078   6.279   0.127   1.077
 8727SOL     OW27079   6.313   6.314   1.290
 8727SOL    HW127080   6.261   6.307   1.205
 8727SOL    HW227081   6.283   6.395   1.341
 8728SOL     OW27082   2.364   6.467   5.360
 8728SOL    HW127083   2.427   6.448   5.436
 8728SOL    HW227084   2.407   6.532   5.297
 8729SOL     OW27085   5.554   6.333   4.654
 8729SOL    HW127086   5.515   6.355   4.564
 8729SOL    HW227087   5.537   6.237   4.675
 8730SOL     OW27088   6.892   6.484   1.047
 8730SOL    HW127089   6.965   6.539   1.087
 8730SOL    HW227090   6.910   6.387   1.065
 8731SOL     OW27091   0.690   1.955   2.493
 8731SOL    HW127092   0.603   1.983   2.452
 8731SOL    HW227093   0.697   1.990   2.586
 8732SOL     OW27094   6.175   5.677   1.925
 8732SOL    HW127095   6.203   5.765   1.885
 8732SOL    HW227096   6.077   5.664   1.912
 8733SOL     OW27097   0.031   6.905   1.664
 8733SOL    HW127098   0.060   6.847   1.740
 8733SOL    HW227099   6.987   6.854   1.607
 8734SOL     OW27100   0.048   5.625   0.436
 8734SOL    HW127101   0.082   5.717   0.454
 8734SOL    HW227102   0.113   5.558   0.471
 8735SOL     OW27103   6.886   2.648   6.423
 8735SOL    HW127104   6.846   2.684   6.507
 8735SOL    HW227105   6.983   2.670   6.420
 8736SOL     OW27106   0.217   4.914   6.024
 8736SOL    HW127107   0.193   4.919   6.121
 8736SOL    HW227108   0.304   4.959   6.009
 8737SOL     OW27109   3.698   6.374   6.811
 8737SOL    HW127110   3.676   6.337   6.721
 8737SOL    HW227111   3.788   6.341   6.839
 8738SOL     OW27112   1.019   3.662   5.245
 8738SOL    HW127113   0.929   3.619   5.243
 8738SOL    HW227114   1.090   3.592   5.232
 8739SOL     OW27115   1.320   3.330   5.459
 8739SOL    HW127116   1.388   3.256   5.458
 8739SOL    HW227117   1.364   3.415   5.487
 8740SOL     OW27118   1.374   6.457   1.360
 8740SOL    HW127119   1.325   6.491   1.440
 8740SOL    HW227120   1.320   6.385   1.316
 8741SOL     OW27121   1.611   3.600   2.007
 8741SOL    HW127122   1.539   3.660   1.971
 8741SOL    HW227123   1.649   3.545   1.932
 8742SOL     OW27124   4.839   6.462   2.058
 8742SOL    HW127125   4.803   6.518   2.133
 8742SOL    HW227126   4.791   6.375   2.055
 8743SOL     OW27127   2.208   5.075   3.251
 8743SOL    HW127128   2.235   4.988   3.210
 8743SOL    HW227129   2.176   5.137   3.179
 8744SOL     OW27130   3.358   3.429   5.677
 8744SOL    HW127131   3.439   3.400   5.626
 8744SOL    HW227132   3.290   3.466   5.614
 8745SOL     OW27133   6.116   1.707   6.958
 8745SOL    HW127134   6.156   1.647   0.006
 8745SOL    HW227135   6.016   1.708   6.969
 8746SOL     OW27136   5.048   4.299   4.978
 8746SOL    HW127137   5.086   4.382   5.017
 8746SOL    HW227138   4.952   4.290   5.005
 8747SOL     OW27139   1.006   2.383   4.168
 8747SOL    HW127140   0.989   2.289   4.137
 8747SOL    HW227141   1.003   2.386   4.268
 8748SOL     OW27142   2.945   6.992   0.139
 8748SOL    HW127143   3.042   6.995   0.117
 8748SOL    HW227144   2.899   6.926   0.080
 8749SOL     OW27145   3.990   1.614   3.902
 8749SOL    HW127146   4.077   1.607   3.852
 8749SOL    HW227147   3.982   1.705   3.943
 8750SOL     OW27148   1.974   0.593   5.221
 8750SOL    HW127149   1.890   0.540   5.207
 8750SOL    HW227150   2.050   0.546   5.177
 8751SOL     OW27151   2.102   0.278   3.175
 8751SOL    HW127152   2.138   0.363   3.213
 8751SOL    HW227153   2.012   0.260   3.214
 8752SOL     OW27154   2.177   1.715   5.963
 8752SOL    HW127155   2.192   1.618   5.984
 8752SOL    HW227156   2.113   1.754   6.030
 8753SOL     OW27157   6.274   1.510   4.686
 8753SOL    HW127158   6.247   1.584   4.624
 8753SOL    HW227159   6.213   1.509   4.765
 8754SOL     OW27160   1.972   0.891   4.980
 8754SOL    HW127161   1.921   0.922   4.900
 8754SOL    HW227162   2.042   0.825   4.951
 8755SOL     OW27163   2.257   1.696   1.131
 8755SOL    HW127164   2.237   1.756   1.209
 8755SOL    HW227165   2.232   1.742   1.046
 8756SOL     OW27166   2.206   3.883   3.951
 8756SOL    HW127167   2.233   3.976   3.923
 8756SOL    HW227168   2.230   3.869   4.047
 8757SOL     OW27169   4.022   6.075   4.350
 8757SOL    HW127170   3.984   6.167   4.340
 8757SOL    HW227171   4.038   6.057   4.447
 8758SOL     OW27172   5.204   6.491   2.118
 8758SOL    HW127173   5.176   6.544   2.038
 8758SOL    HW227174   5.285   6.533   2.159
 8759SOL     OW27175   5.222   1.387   5.484
 8759SOL    HW127176   5.297   1.352   5.428
 8759SOL    HW227177   5.140   1.331   5.469
 8760SOL     OW27178   1.534   3.212   3.761
 8760SOL    HW127179   1.591   3.293   3.747
 8760SOL    HW227180   1.444   3.227   3.721
 8761SOL     OW27181   5.447   6.121   1.176
 8761SOL    HW127182   5.471   6.043   1.233
 8761SOL    HW227183   5.445   6.094   1.080
 8762SOL     OW27184   0.559   3.801   0.225
 8762SOL    HW127185   0.502   3.753   0.159
 8762SOL    HW227186   0.505   3.871   0.272
 8763SOL     OW27187   0.105   6.150   6.251
 8763SOL    HW127188   0.123   6.244   6.222
 8763SOL    HW227189   0.111   6.145   6.351
 8764SOL     OW27190   3.934   1.938   5.373
 8764SOL    HW127191   3.914   1.864   5.438
 8764SOL    HW227192   4.025   1.924   5.335
 8765SOL     OW27193   6.748   0.238   5.097
 8765SOL    HW127194   6.674   0.279   5.045
 8765SOL    HW227195   6.744   0.139   5.089
 8766SOL     OW27196   2.145   4.409   2.258
 8766SOL    HW127197   2.138   4.314   2.227
 8766SOL    HW227198   2.217   4.455   2.207
 8767SOL     OW27199   4.679   1.476   4.837
 8767SOL    HW127200   4.665   1.492   4.740
 8767SOL    HW227201   4.600   1.510   4.889
 8768SOL     OW27202   0.900   3.970   6.971
 8768SOL    HW127203   0.982   3.984   6.916
 8768SOL    HW227204   0.905   4.025   0.033
 8769SOL     OW27205   1.707   0.679   5.359
 8769SOL    HW127206   1.674   0.601   5.412
 8769SOL    HW227207   1.786   0.719   5.404
 8770SOL     OW27208   5.623   1.554   2.888
 8770SOL    HW127209   5.669   1.642   2.886
 8770SOL    HW227210   5.687   1.483   2.915
 8771SOL     OW27211   2.445   2.605   5.456
 8771SOL    HW127212   2.346   2.602   5.464
 8771SOL    HW227213   2.472   2.685   5.402
 8772SOL     OW27214   6.063   6.049   6.349
 8772SOL    HW127215   6.163   6.055   6.348
 8772SOL    HW227216   6.031   6.037   6.443
 8773SOL     OW27217   3.073   1.900   2.728
 8773SOL    HW127218   3.086   1.949   2.815
 8773SOL    HW227219   3.158   1.856   2.701
 8774SOL     OW27220   1.459   0.773   0.521
 8774SOL    HW127221   1.444   0.852   0.461
 8774SOL    HW227222   1.490   0.805   0.611
 8775SOL     OW27223   6.616   6.457   3.898
 8775SOL    HW127224   6.545   6.525   3.917
 8775SOL    HW227225   6.672   6.442   3.980
 8776SOL     OW27226   3.307   3.923   4.459
 8776SOL    HW127227   3.312   3.886   4.366
 8776SOL    HW227228   3.388   3.979   4.477
 8777SOL     OW27229   6.559   5.620   2.314
 8777SOL    HW127230   6.598   5.542   2.266
 8777SOL    HW227231   6.580   5.704   2.264
 8778SOL     OW27232   0.840   2.379   3.020
 8778SOL    HW127233   0.915   2.446   3.019
 8778SOL    HW227234   0.845   2.325   3.104
 8779SOL     OW27235   1.586   4.601   1.152
 8779SOL    HW127236   1.506   4.657   1.174
 8779SOL    HW227237   1.565   4.542   1.074
 8780SOL     OW27238   2.123   6.267   4.491
 8780SOL    HW127239   2.135   6.259   4.392
 8780SOL    HW227240   2.195   6.326   4.528
 8781SOL     OW27241   0.576   2.310   2.965
 8781SOL    HW127242   0.675   2.318   2.955
 8781SOL    HW227243   0.531   2.385   2.917
 8782SOL     OW27244   4.959   1.625   3.303
 8782SOL    HW127245   4.873   1.678   3.298
 8782SOL    HW227246   5.000   1.621   3.212
 8783SOL     OW27247   6.056   2.534   6.407
 8783SOL    HW127248   6.060   2.587   6.322
 8783SOL    HW227249   5.960   2.520   6.431
 8784SOL     OW27250   5.250   4.108   5.975
 8784SOL    HW127251   5.180   4.157   6.027
 8784SOL    HW227252   5.334   4.104   6.029
 8785SOL     OW27253   5.112   4.167   6.367
 8785SOL    HW127254   5.210   4.184   6.354
 8785SOL    HW227255   5.069   4.155   6.277
 8786SOL     OW27256   1.087   6.510   0.519
 8786SOL    HW127257   1.151   6.579   0.555
 8786SOL    HW227258   1.005   6.509   0.577
 8787SOL     OW27259   1.263   2.639   0.162
 8787SOL    HW127260   1.228   2.624   0.070
 8787SOL    HW227261   1.206   2.706   0.210
 8788SOL     OW27262   1.441   1.805   5.161
 8788SOL    HW127263   1.417   1.823   5.257
 8788SOL    HW227264   1.366   1.756   5.117
 8789SOL     OW27265   0.706   0.796   0.218
 8789SOL    HW127266   0.656   0.874   0.256
 8789SOL    HW227267   0.789   0.781   0.272
 8790SOL     OW27268   4.249   1.431   6.955
 8790SOL    HW127269   4.216   1.337   6.945
 8790SOL    HW227270   4.277   1.467   6.866
 8791SOL     OW27271   4.957   5.949   5.334
 8791SOL    HW127272   4.972   5.889   5.256
 8791SOL    HW227273   4.908   6.031   5.305
 8792SOL     OW27274   5.548   6.769   3.001
 8792SOL    HW127275   5.490   6.732   2.929
 8792SOL    HW227276   5.631   6.714   3.009
 8793SOL     OW27277   1.317   4.624   3.180
 8793SOL    HW127278   1.397   4.683   3.172
 8793SOL    HW227279   1.237   4.678   3.207
 8794SOL     OW27280   2.844   5.814   2.938
 8794SOL    HW127281   2.810   5.777   2.852
 8794SOL    HW227282   2.937   5.781   2.955
 8795SOL     OW27283   2.390   5.685   5.201
 8795SOL    HW127284   2.455   5.609   5.196
 8795SOL    HW227285   2.431   5.766   5.160
 8796SOL     OW27286   6.145   2.783   5.758
 8796SOL    HW127287   6.134   2.708   5.823
 8796SOL    HW227288   6.134   2.870   5.805
 8797SOL     OW27289   1.210   6.066   6.746
 8797SOL    HW127290   1.279   6.087   6.815
 8797SOL    HW227291   1.138   6.134   6.749
 8798SOL     OW27292   3.635   3.057   5.807
 8798SOL    HW127293   3.547   3.032   5.765
 8798SOL    HW227294   3.687   3.115   5.744
 8799SOL     OW27295   3.545   0.385   3.298
 8799SOL    HW127296   3.503   0.312   3.244
 8799SOL    HW227297   3.590   0.450   3.237
 8800SOL     OW27298   4.494   5.263   0.740
 8800SOL    HW127299   4.559   5.261   0.664
 8800SOL    HW227300   4.412   5.211   0.715
 8801SOL     OW27301   3.291   6.560   5.621
 8801SOL    HW127302   3.282   6.477   5.566
 8801SOL    HW227303   3.285   6.640   5.562
 8802SOL     OW27304   1.978   6.573   1.909
 8802SOL    HW127305   2.005   6.500   1.846
 8802SOL    HW227306   1.887   6.606   1.884
 8803SOL     OW27307   4.195   6.121   1.204
 8803SOL    HW127308   4.119   6.088   1.149
 8803SOL    HW227309   4.160   6.164   1.287
 8804SOL     OW27310   3.033   1.066   0.975
 8804SOL    HW127311   3.085   1.144   1.011
 8804SOL    HW227312   3.080   1.030   0.894
 8805SOL     OW27313   0.359   0.372   3.127
 8805SOL    HW127314   0.381   0.290   3.075
 8805SOL    HW227315   0.356   0.350   3.225
 8806SOL     OW27316   1.854   4.888   0.424
 8806SOL    HW127317   1.921   4.829   0.468
 8806SOL    HW227318   1.852   4.977   0.471
 8807SOL     OW27319   2.042   6.116   6.553
 8807SOL    HW127320   1.959   6.083   6.600
 8807SOL    HW227321   2.015   6.177   6.478
 8808SOL     OW27322   5.613   1.943   1.003
 8808SOL    HW127323   5.683   2.013   0.999
 8808SOL    HW227324   5.654   1.856   1.032
 8809SOL     OW27325   6.179   4.307   0.917
 8809SOL    HW127326   6.103   4.371   0.931
 8809SOL    HW227327   6.248   4.349   0.858
 8810SOL     OW27328   5.014   1.523   3.994
 8810SOL    HW127329   5.102   1.562   3.966
 8810SOL    HW227330   5.001   1.536   4.092
 8811SOL     OW27331   1.342   1.830   3.614
 8811SOL    HW127332   1.357   1.757   3.681
 8811SOL    HW227333   1.248   1.861   3.618
 8812SOL     OW27334   2.236   1.032   0.286
 8812SOL    HW127335   2.262   0.950   0.336
 8812SOL    HW227336   2.276   1.113   0.330
 8813SOL     OW27337   1.129   6.137   0.794
 8813SOL    HW127338   1.085   6.120   0.706
 8813SOL    HW227339   1.157   6.233   0.800
 8814SOL     OW27340   5.056   6.196   6.592
 8814SOL    HW127341   5.127   6.265   6.606
 8814SOL    HW227342   5.090   6.107   6.623
 8815SOL     OW27343   6.135   5.872   3.194
 8815SOL    HW127344   6.215   5.930   3.210
 8815SOL    HW227345   6.161   5.776   3.209
 8816SOL     OW27346   0.865   5.436   1.809
 8816SOL    HW127347   0.923   5.446   1.890
 8816SOL    HW227348   0.841   5.339   1.797
 8817SOL     OW27349   2.338   4.528   5.527
 8817SOL    HW127350   2.280   4.609   5.530
 8817SOL    HW227351   2.411   4.543   5.460
 8818SOL     OW27352   0.035   4.639   4.992
 8818SOL    HW127353   0.023   4.603   5.085
 8818SOL    HW227354   6.973   4.621   4.938
 8819SOL     OW27355   6.079   0.121   4.329
 8819SOL    HW127356   6.112   0.113   4.423
 8819SOL    HW227357   6.072   0.030   4.288
 8820SOL     OW27358   0.831   3.038   3.885
 8820SOL    HW127359   0.914   3.062   3.835
 8820SOL    HW227360   0.855   2.998   3.973
 8821SOL     OW27361   1.635   6.742   6.174
 8821SOL    HW127362   1.614   6.665   6.234
 8821SOL    HW227363   1.654   6.823   6.230
 8822SOL     OW27364   0.636   2.036   3.301
 8822SOL    HW127365   0.555   1.985   3.332
 8822SOL    HW227366   0.674   1.991   3.220
 8823SOL     OW27367   2.472   4.644   1.683
 8823SOL    HW127368   2.430   4.734   1.698
 8823SOL    HW227369   2.420   4.595   1.613
 8824SOL     OW27370   4.503   4.018   0.953
 8824SOL    HW127371   4.424   3.967   0.987
 8824SOL    HW227372   4.536   4.079   1.024
 8825SOL     OW27373   1.861   2.569   0.851
 8825SOL    HW127374   1.878   2.506   0.926
 8825SOL    HW227375   1.939   2.569   0.789
 8826SOL     OW27376   5.580   0.768   0.380
 8826SOL    HW127377   5.568   0.718   0.466
 8826SOL    HW227378   5.672   0.808   0.378
 8827SOL     OW27379   6.892   1.434   3.203
 8827SOL    HW127380   6.978   1.486   3.211
 8827SOL    HW227381   6.886   1.393   3.113
 8828SOL     OW27382   1.397   6.412   3.083
 8828SOL    HW127383   1.437   6.416   2.991
 8828SOL    HW227384   1.412   6.499   3.130
 8829SOL     OW27385   1.277   1.382   0.712
 8829SOL    HW127386   1.250   1.301   0.659
 8829SOL    HW227387   1.332   1.355   0.790
 8830SOL     OW27388   1.501   1.467   0.266
 8830SOL    HW127389   1.494   1.422   0.355
 8830SOL    HW227390   1.432   1.429   0.204
 8831SOL     OW27391   6.937   1.352   2.001
 8831SOL    HW127392   6.920   1.436   2.052
 8831SOL    HW227393   6.850   1.306   1.982
 8832SOL     OW27394   6.819   0.970   1.960
 8832SOL    HW127395   6.872   1.050   1.986
 8832SOL    HW227396   6.864   0.923   1.884
 8833SOL     OW27397   1.328   4.934   2.590
 8833SOL    HW127398   1.300   4.934   2.686
 8833SOL    HW227399   1.305   5.023   2.549
 8834SOL     OW27400   5.918   4.115   3.767
 8834SOL    HW127401   5.973   4.126   3.850
 8834SOL    HW227402   5.974   4.137   3.687
 8835SOL     OW27403   0.598   0.878   6.999
 8835SOL    HW127404   0.681   0.889   6.945
 8835SOL    HW227405   0.622   0.844   0.070
 8836SOL     OW27406   5.066   1.814   1.862
 8836SOL    HW127407   5.098   1.900   1.822
 8836SOL    HW227408   5.049   1.827   1.960
 8837SOL     OW27409   0.868   2.598   2.067
 8837SOL    HW127410   0.859   2.696   2.086
 8837SOL    HW227411   0.811   2.574   1.989
 8838SOL     OW27412   2.164   6.081   3.239
 8838SOL    HW127413   2.245   6.101   3.294
 8838SOL    HW227414   2.088   6.139   3.269
 8839SOL     OW27415   5.543   6.047   3.944
 8839SOL    HW127416   5.513   6.131   3.989
 8839SOL    HW227417   5.560   5.976   4.013
 8840SOL     OW27418   4.569   0.718   2.099
 8840SOL    HW127419   4.650   0.663   2.075
 8840SOL    HW227420   4.573   0.740   2.197
 8841SOL     OW27421   2.881   0.050   4.212
 8841SOL    HW127422   2.833   0.099   4.139
 8841SOL    HW227423   2.929   6.992   4.173
 8842SOL     OW27424   1.444   2.681   1.923
 8842SOL    HW127425   1.464   2.741   1.845
 8842SOL    HW227426   1.347   2.660   1.924
 8843SOL     OW27427   0.214   3.079   4.517
 8843SOL    HW127428   0.232   3.172   4.550
 8843SOL    HW227429   0.296   3.043   4.473
 8844SOL     OW27430   5.920   1.461   6.181
 8844SOL    HW127431   5.966   1.392   6.126
 8844SOL    HW227432   5.955   1.552   6.156
 8845SOL     OW27433   5.290   3.457   6.644
 8845SOL    HW127434   5.203   3.410   6.630
 8845SOL    HW227435   5.348   3.403   6.705
 8846SOL     OW27436   3.290   4.908   3.273
 8846SOL    HW127437   3.233   4.916   3.355
 8846SOL    HW227438   3.386   4.922   3.298
 8847SOL     OW27439   1.271   0.808   2.820
 8847SOL    HW127440   1.202   0.837   2.754
 8847SOL    HW227441   1.232   0.807   2.912
 8848SOL     OW27442   1.075   1.009   3.401
 8848SOL    HW127443   1.117   1.022   3.491
 8848SOL    HW227444   1.033   0.918   3.398
 8849SOL     OW27445   2.655   6.788   1.464
 8849SOL    HW127446   2.664   6.836   1.377
 8849SOL    HW227447   2.699   6.841   1.536
 8850SOL     OW27448   2.751   2.732   0.162
 8850SOL    HW127449   2.665   2.721   0.112
 8850SOL    HW227450   2.777   2.644   0.203
 8851SOL     OW27451   1.829   3.750   2.112
 8851SOL    HW127452   1.749   3.710   2.067
 8851SOL    HW227453   1.901   3.682   2.119
 8852SOL     OW27454   0.661   2.276   5.188
 8852SOL    HW127455   0.738   2.338   5.204
 8852SOL    HW227456   0.668   2.238   5.096
 8853SOL     OW27457   4.712   0.788   1.740
 8853SOL    HW127458   4.635   0.745   1.692
 8853SOL    HW227459   4.710   0.761   1.836
 8854SOL     OW27460   0.794   2.740   4.660
 8854SOL    HW127461   0.811   2.754   4.562
 8854SOL    HW227462   0.833   2.817   4.711
 8855SOL     OW27463   5.445   4.601   1.673
 8855SOL    HW127464   5.487   4.527   1.620
 8855SOL    HW227465   5.453   4.687   1.623
 8856SOL     OW27466   6.133   0.475   5.851
 8856SOL    HW127467   6.089   0.417   5.782
 8856SOL    HW227468   6.177   0.417   5.919
 8857SOL     OW27469   0.103   1.810   6.468
 8857SOL    HW127470   0.005   1.789   6.472
 8857SOL    HW227471   0.118   1.907   6.486
 8858SOL     OW27472   6.572   5.701   5.067
 8858SOL    HW127473   6.623   5.653   4.995
 8858SOL    HW227474   6.618   5.787   5.089
 8859SOL     OW27475   0.855   5.545   3.036
 8859SOL    HW127476   0.914   5.540   2.956
 8859SOL    HW227477   0.760   5.528   3.009
 8860SOL     OW27478   0.193   3.502   2.423
 8860SOL    HW127479   0.259   3.576   2.437
 8860SOL    HW227480   0.169   3.461   2.511
 8861SOL     OW27481   3.890   2.852   1.738
 8861SOL    HW127482   3.823   2.912   1.693
 8861SOL    HW227483   3.903   2.883   1.833
 8862SOL     OW27484   4.411   4.729   4.721
 8862SOL    HW127485   4.415   4.670   4.802
 8862SOL    HW227486   4.421   4.673   4.639
 8863SOL     OW27487   1.295   4.111   2.479
 8863SOL    HW127488   1.307   4.209   2.467
 8863SOL    HW227489   1.379   4.064   2.453
 8864SOL     OW27490   6.682   1.812   5.189
 8864SOL    HW127491   6.652   1.834   5.096
 8864SOL    HW227492   6.742   1.732   5.186
 8865SOL     OW27493   2.969   2.293   0.705
 8865SOL    HW127494   2.940   2.209   0.752
 8865SOL    HW227495   2.994   2.362   0.774
 8866SOL     OW27496   5.799   6.370   2.025
 8866SOL    HW127497   5.888   6.411   2.044
 8866SOL    HW227498   5.788   6.360   1.926
 8867SOL     OW27499   6.307   3.235   2.918
 8867SOL    HW127500   6.303   3.162   2.849
 8867SOL    HW227501   6.378   3.214   2.985
 8868SOL     OW27502   0.054   3.359   3.851
 8868SOL    HW127503   0.143   3.353   3.806
 8868SOL    HW227504   7.018   3.282   3.823
 8869SOL     OW27505   4.827   0.459   3.653
 8869SOL    HW127506   4.778   0.532   3.606
 8869SOL    HW227507   4.897   0.422   3.592
 8870SOL     OW27508   1.309   1.024   1.665
 8870SOL    HW127509   1.362   0.940   1.677
 8870SOL    HW227510   1.216   1.010   1.698
 8871SOL     OW27511   0.534   0.172   1.385
 8871SOL    HW127512   0.483   0.222   1.315
 8871SOL    HW227513   0.602   0.114   1.342
 8872SOL     OW27514   0.130   4.277   3.411
 8872SOL    HW127515   0.221   4.275   3.451
 8872SOL    HW227516   0.062   4.249   3.479
 8873SOL     OW27517   2.424   1.808   2.864
 8873SOL    HW127518   2.343   1.857   2.898
 8873SOL    HW227519   2.491   1.798   2.937
 8874SOL     OW27520   2.756   6.249   0.869
 8874SOL    HW127521   2.754   6.324   0.935
 8874SOL    HW227522   2.692   6.178   0.897
 8875SOL     OW27523   5.960   3.307   4.996
 8875SOL    HW127524   6.053   3.338   5.016
 8875SOL    HW227525   5.947   3.215   5.032
 8876SOL     OW27526   3.860   0.761   0.538
 8876SOL    HW127527   3.854   0.860   0.547
 8876SOL    HW227528   3.918   0.724   0.611
 8877SOL     OW27529   0.463   5.305   1.313
 8877SOL    HW127530   0.478   5.247   1.393
 8877SOL    HW227531   0.416   5.253   1.242
 8878SOL     OW27532   5.267   3.483   1.972
 8878SOL    HW127533   5.279   3.571   2.018
 8878SOL    HW227534   5.242   3.413   2.040
 8879SOL     OW27535   6.829   4.608   3.516
 8879SOL    HW127536   6.877   4.537   3.568
 8879SOL    HW227537   6.794   4.568   3.431
 8880SOL     OW27538   4.068   2.244   3.125
 8880SOL    HW127539   4.064   2.208   3.032
 8880SOL    HW227540   4.151   2.299   3.136
 8881SOL     OW27541   3.341   4.948   2.569
 8881SOL    HW127542   3.259   4.960   2.625
 8881SOL    HW227543   3.315   4.945   2.473
 8882SOL     OW27544   4.214   0.581   0.325
 8882SOL    HW127545   4.202   0.671   0.368
 8882SOL    HW227546   4.279   0.589   0.250
 8883SOL     OW27547   6.948   6.214   3.050
 8883SOL    HW127548   7.004   6.197   2.969
 8883SOL    HW227549   6.951   6.311   3.073
 8884SOL     OW27550   4.233   2.877   5.615
 8884SOL    HW127551   4.183   2.804   5.568
 8884SOL    HW227552   4.275   2.938   5.547
 8885SOL     OW27553   5.549   5.969   0.671
 8885SOL    HW127554   5.526   5.915   0.753
 8885SOL    HW227555   5.497   5.935   0.593
 8886SOL     OW27556   4.813   6.912   6.760
 8886SOL    HW127557   4.871   6.993   6.752
 8886SOL    HW227558   4.825   6.872   6.851
 8887SOL     OW27559   3.643   0.396   1.542
 8887SOL    HW127560   3.572   0.429   1.480
 8887SOL    HW227561   3.664   0.468   1.609
 8888SOL     OW27562   3.329   2.041   2.391
 8888SOL    HW127563   3.273   1.961   2.369
 8888SOL    HW227564   3.375   2.073   2.308
 8889SOL     OW27565   1.400   4.819   0.614
 8889SOL    HW127566   1.488   4.771   0.611
 8889SOL    HW227567   1.327   4.753   0.629
 8890SOL     OW27568   1.197   5.719   7.015
 8890SOL    HW127569   1.246   5.654   0.053
 8890SOL    HW227570   1.157   5.671   6.937
 8891SOL     OW27571   6.639   3.752   5.314
 8891SOL    HW127572   6.634   3.836   5.261
 8891SOL    HW227573   6.589   3.763   5.400
 8892SOL     OW27574   2.944   5.276   4.902
 8892SOL    HW127575   3.039   5.279   4.872
 8892SOL    HW227576   2.937   5.221   4.985
 8893SOL     OW27577   0.814   4.426   5.669
 8893SOL    HW127578   0.909   4.406   5.645
 8893SOL    HW227579   0.764   4.453   5.587
 8894SOL     OW27580   5.286   1.940   2.071
 8894SOL    HW127581   5.329   1.932   2.161
 8894SOL    HW227582   5.198   1.891   2.072
 8895SOL     OW27583   6.824   3.345   1.066
 8895SOL    HW127584   6.902   3.379   1.118
 8895SOL    HW227585   6.759   3.419   1.049
 8896SOL     OW27586   1.204   1.724   3.160
 8896SOL    HW127587   1.249   1.777   3.232
 8896SOL    HW227588   1.193   1.629   3.190
 8897SOL     OW27589   1.735   5.565   4.101
 8897SOL    HW127590   1.729   5.490   4.035
 8897SOL    HW227591   1.757   5.528   4.191
 8898SOL     OW27592   4.933   3.823   2.500
 8898SOL    HW127593   4.902   3.916   2.481
 8898SOL    HW227594   4.914   3.800   2.596
 8899SOL     OW27595   2.100   3.529   2.635
 8899SOL    HW127596   2.092   3.458   2.705
 8899SOL    HW227597   2.071   3.492   2.547
 8900SOL     OW27598   4.272   1.556   4.500
 8900SOL    HW127599   4.272   1.642   4.549
 8900SOL    HW227600   4.320   1.486   4.554
 8901SOL     OW27601   1.669   5.906   5.075
 8901SOL    HW127602   1.586   5.861   5.109
 8901SOL    HW227603   1.720   5.843   5.017
 8902SOL     OW27604   0.534   4.908   0.149
 8902SOL    HW127605   0.619   4.926   0.197
 8902SOL    HW227606   0.525   4.970   0.071
 8903SOL     OW27607   1.476   0.295   5.072
 8903SOL    HW127608   1.479   0.248   5.160
 8903SOL    HW227609   1.568   0.297   5.032
 8904SOL     OW27610   0.709   0.927   3.372
 8904SOL    HW127611   0.640   0.868   3.331
 8904SOL    HW227612   0.723   0.899   3.467
 8905SOL     OW27613   1.990   4.671   1.666
 8905SOL    HW127614   2.062   4.618   1.711
 8905SOL    HW227615   1.987   4.763   1.705
 8906SOL     OW27616   5.907   0.261   6.390
 8906SOL    HW127617   6.001   0.282   6.364
 8906SOL    HW227618   5.872   0.187   6.332
 8907SOL     OW27619   3.024   3.324   5.273
 8907SOL    HW127620   3.069   3.250   5.223
 8907SOL    HW227621   2.959   3.286   5.338
 8908SOL     OW27622   1.599   4.835   6.394
 8908SOL    HW127623   1.543   4.770   6.446
 8908SOL    HW227624   1.667   4.786   6.340
 8909SOL     OW27625   2.164   5.543   1.539
 8909SOL    HW127626   2.177   5.565   1.442
 8909SOL    HW227627   2.242   5.577   1.592
 8910SOL     OW27628   0.915   1.284   3.541
 8910SOL    HW127629   0.959   1.354   3.598
 8910SOL    HW227630   0.984   1.225   3.501
 8911SOL     OW27631   5.436   2.644   4.851
 8911SOL    HW127632   5.429   2.708   4.775
 8911SOL    HW227633   5.521   2.660   4.902
 8912SOL     OW27634   3.564   3.332   3.586
 8912SOL    HW127635   3.551   3.285   3.673
 8912SOL    HW227636   3.546   3.430   3.599
 8913SOL     OW27637   5.190   5.749   1.235
 8913SOL    HW127638   5.281   5.755   1.194
 8913SOL    HW227639   5.124   5.798   1.179
 8914SOL     OW27640   4.635   5.736   5.164
 8914SOL    HW127641   4.689   5.702   5.241
 8914SOL    HW227642   4.644   5.673   5.086
 8915SOL     OW27643   1.577   1.066   3.831
 8915SOL    HW127644   1.657   1.103   3.785
 8915SOL    HW227645   1.531   1.140   3.882
 8916SOL     OW27646   5.460   1.073   1.869
 8916SOL    HW127647   5.405   1.042   1.946
 8916SOL    HW227648   5.416   1.151   1.825
 8917SOL     OW27649   5.648   1.804   0.327
 8917SOL    HW127650   5.560   1.757   0.334
 8917SOL    HW227651   5.637   1.888   0.274
 8918SOL     OW27652   1.116   3.721   2.444
 8918SOL    HW127653   1.094   3.807   2.398
 8918SOL    HW227654   1.036   3.691   2.497
 8919SOL     OW27655   6.219   3.049   2.542
 8919SOL    HW127656   6.183   3.137   2.572
 8919SOL    HW227657   6.314   3.040   2.572
 8920SOL     OW27658   1.029   1.342   0.144
 8920SOL    HW127659   1.121   1.346   0.107
 8920SOL    HW227660   0.990   1.434   0.149
 8921SOL     OW27661   0.808   3.293   1.957
 8921SOL    HW127662   0.821   3.385   1.994
 8921SOL    HW227663   0.805   3.227   2.032
 8922SOL     OW27664   3.554   4.944   3.409
 8922SOL    HW127665   3.551   4.903   3.500
 8922SOL    HW227666   3.590   5.038   3.416
 8923SOL     OW27667   2.470   0.917   3.896
 8923SOL    HW127668   2.488   0.826   3.932
 8923SOL    HW227669   2.458   0.912   3.797
 8924SOL     OW27670   6.079   5.202   4.880
 8924SOL    HW127671   6.060   5.295   4.913
 8924SOL    HW227672   6.007   5.141   4.912
 8925SOL     OW27673   0.729   6.992   3.576
 8925SOL    HW127674   0.672   0.033   3.630
 8925SOL    HW227675   0.771   0.023   3.501
 8926SOL     OW27676   5.699   1.288   6.983
 8926SOL    HW127677   5.610   1.273   6.939
 8926SOL    HW227678   5.697   1.250   0.055
 8927SOL     OW27679   1.632   0.875   6.771
 8927SOL    HW127680   1.618   0.956   6.714
 8927SOL    HW227681   1.721   0.834   6.749
 8928SOL     OW27682   1.637   6.744   5.674
 8928SOL    HW127683   1.718   6.758   5.618
 8928SOL    HW227684   1.642   6.801   5.756
 8929SOL     OW27685   0.159   1.845   3.830
 8929SOL    HW127686   0.214   1.761   3.829
 8929SOL    HW227687   0.064   1.822   3.811
 8930SOL     OW27688   2.356   5.032   3.787
 8930SOL    HW127689   2.261   5.003   3.784
 8930SOL    HW227690   2.362   5.124   3.826
 8931SOL     OW27691   4.398   3.605   0.283
 8931SOL    HW127692   4.437   3.630   0.372
 8931SOL    HW227693   4.449   3.527   0.246
 8932SOL     OW27694   0.874   3.909   3.443
 8932SOL    HW127695   0.933   3.973   3.394
 8932SOL    HW227696   0.889   3.918   3.542
 8933SOL     OW27697   4.716   1.748   6.238
 8933SOL    HW127698   4.672   1.770   6.325
 8933SOL    HW227699   4.768   1.828   6.207
 8934SOL     OW27700   2.347   5.843   2.823
 8934SOL    HW127701   2.373   5.749   2.800
 8934SOL    HW227702   2.306   5.887   2.743
 8935SOL     OW27703   6.643   4.975   0.024
 8935SOL    HW127704   6.712   4.904   0.009
 8935SOL    HW227705   6.682   5.064   7.020
 8936SOL     OW27706   3.964   2.744   0.653
 8936SOL    HW127707   3.946   2.833   0.612
 8936SOL    HW227708   3.996   2.680   0.582
 8937SOL     OW27709   0.746   0.672   5.873
 8937SOL    HW127710   0.800   0.657   5.956
 8937SOL    HW227711   0.669   0.732   5.894
 8938SOL     OW27712   4.864   6.078   1.632
 8938SOL    HW127713   4.865   6.039   1.540
 8938SOL    HW227714   4.958   6.092   1.663
 8939SOL     OW27715   5.420   2.124   4.870
 8939SOL    HW127716   5.519   2.113   4.873
 8939SOL    HW227717   5.380   2.094   4.957
 8940SOL     OW27718   6.027   6.863   2.563
 8940SOL    HW127719   5.933   6.894   2.576
 8940SOL    HW227720   6.066   6.906   2.481
 8941SOL     OW27721   3.968   1.200   6.443
 8941SOL    HW127722   3.976   1.259   6.523
 8941SOL    HW227723   3.871   1.184   6.424
 8942SOL     OW27724   1.013   2.273   5.233
 8942SOL    HW127725   1.034   2.312   5.143
 8942SOL    HW227726   0.934   2.320   5.272
 8943SOL     OW27727   5.311   3.647   1.222
 8943SOL    HW127728   5.259   3.576   1.176
 8943SOL    HW227729   5.248   3.719   1.253
 8944SOL     OW27730   4.007   5.976   1.480
 8944SOL    HW127731   4.047   5.935   1.398
 8944SOL    HW227732   4.010   5.910   1.555
 8945SOL     OW27733   2.198   1.283   4.158
 8945SOL    HW127734   2.104   1.306   4.183
 8945SOL    HW227735   2.228   1.203   4.211
 8946SOL     OW27736   4.189   0.790   4.616
 8946SOL    HW127737   4.233   0.880   4.611
 8946SOL    HW227738   4.127   0.788   4.695
 8947SOL     OW27739   3.862   3.695   5.235
 8947SOL    HW127740   3.923   3.630   5.190
 8947SOL    HW227741   3.913   3.778   5.258
 8948SOL     OW27742   6.064   4.957   3.081
 8948SOL    HW127743   6.138   4.975   3.146
 8948SOL    HW227744   6.006   4.884   3.117
 8949SOL     OW27745   1.822   5.470   5.935
 8949SOL    HW127746   1.827   5.537   6.010
 8949SOL    HW227747   1.854   5.381   5.967
 8950SOL     OW27748   4.465   2.565   5.091
 8950SOL    HW127749   4.477   2.565   4.992
 8950SOL    HW227750   4.444   2.472   5.122
 8951SOL     OW27751   2.561   1.787   5.824
 8951SOL    HW127752   2.654   1.758   5.845
 8951SOL    HW227753   2.561   1.885   5.803
 8952SOL     OW27754   6.654   6.621   3.539
 8952SOL    HW127755   6.565   6.583   3.511
 8952SOL    HW227756   6.720   6.547   3.550
 8953SOL     OW27757   1.800   5.333   6.309
 8953SOL    HW127758   1.765   5.244   6.336
 8953SOL    HW227759   1.728   5.402   6.321
 8954SOL     OW27760   2.582   6.426   5.516
 8954SOL    HW127761   2.655   6.478   5.472
 8954SOL    HW227762   2.623   6.357   5.577
 8955SOL     OW27763   6.659   3.640   4.278
 8955SOL    HW127764   6.594   3.633   4.203
 8955SOL    HW227765   6.612   3.671   4.360
 8956SOL     OW27766   1.186   0.251   4.867
 8956SOL    HW127767   1.114   0.317   4.847
 8956SOL    HW227768   1.163   0.163   4.824
 8957SOL     OW27769   2.613   5.949   2.053
 8957SOL    HW127770   2.704   5.988   2.041
 8957SOL    HW227771   2.574   5.981   2.139
 8958SOL     OW27772   2.705   0.191   4.062
 8958SOL    HW127773   2.683   0.251   4.140
 8958SOL    HW227774   2.623   0.141   4.034
 8959SOL     OW27775   3.187   5.390   0.588
 8959SOL    HW127776   3.202   5.393   0.687
 8959SOL    HW227777   3.275   5.389   0.541
 8960SOL     OW27778   3.752   5.830   0.992
 8960SOL    HW127779   3.654   5.830   1.012
 8960SOL    HW227780   3.800   5.778   1.062
 8961SOL     OW27781   1.167   2.510   3.789
 8961SOL    HW127782   1.228   2.495   3.868
 8961SOL    HW227783   1.101   2.582   3.811
 8962SOL     OW27784   5.114   0.371   3.519
 8962SOL    HW127785   5.165   0.412   3.595
 8962SOL    HW227786   5.153   0.403   3.433
 8963SOL     OW27787   0.147   1.169   3.573
 8963SOL    HW127788   0.136   1.090   3.633
 8963SOL    HW227789   0.072   1.234   3.589
 8964SOL     OW27790   0.074   3.763   3.133
 8964SOL    HW127791   0.093   3.844   3.190
 8964SOL    HW227792   0.085   3.680   3.188
 8965SOL     OW27793   1.621   5.198   1.751
 8965SOL    HW127794   1.600   5.120   1.810
 8965SOL    HW227795   1.632   5.166   1.657
 8966SOL     OW27796   3.530   2.158   5.242
 8966SOL    HW127797   3.557   2.248   5.275
 8966SOL    HW227798   3.444   2.164   5.192
 8967SOL     OW27799   4.935   6.660   0.744
 8967SOL    HW127800   4.951   6.607   0.827
 8967SOL    HW227801   4.838   6.685   0.738
 8968SOL     OW27802   4.912   4.367   2.985
 8968SOL    HW127803   4.992   4.308   2.994
 8968SOL    HW227804   4.832   4.321   3.026
 8969SOL     OW27805   6.460   0.560   4.550
 8969SOL    HW127806   6.447   0.484   4.486
 8969SOL    HW227807   6.532   0.538   4.615
 8970SOL     OW27808   3.472   2.080   1.425
 8970SOL    HW127809   3.462   2.101   1.328
 8970SOL    HW227810   3.569   2.069   1.447
 8971SOL     OW27811   4.691   6.452   2.476
 8971SOL    HW127812   4.634   6.498   2.544
 8971SOL    HW227813   4.769   6.409   2.522
 8972SOL     OW27814   5.280   6.951   4.801
 8972SOL    HW127815   5.183   6.950   4.823
 8972SOL    HW227816   5.299   6.883   4.730
 8973SOL     OW27817   2.042   5.221   0.000
 8973SOL    HW127818   2.118   5.229   6.957
 8973SOL    HW227819   1.957   5.209   6.970
 8974SOL     OW27820   0.662   3.028   3.619
 8974SOL    HW127821   0.718   2.976   3.684
 8974SOL    HW227822   0.692   3.123   3.617
 8975SOL     OW27823   3.901   0.614   6.589
 8975SOL    HW127824   3.959   0.622   6.670
 8975SOL    HW227825   3.942   0.665   6.513
 8976SOL     OW27826   1.062   5.264   4.239
 8976SOL    HW127827   1.078   5.239   4.335
 8976SOL    HW227828   1.038   5.182   4.187
 8977SOL     OW27829   5.586   1.139   6.427
 8977SOL    HW127830   5.582   1.206   6.501
 8977SOL    HW227831   5.596   1.188   6.340
 8978SOL     OW27832   5.206   4.478   1.044
 8978SOL    HW127833   5.129   4.414   1.042
 8978SOL    HW227834   5.227   4.507   0.951
 8979SOL     OW27835   1.403   4.480   4.803
 8979SOL    HW127836   1.492   4.443   4.828
 8979SOL    HW227837   1.338   4.462   4.877
 8980SOL     OW27838   3.925   3.220   4.692
 8980SOL    HW127839   3.868   3.298   4.665
 8980SOL    HW227840   3.877   3.135   4.670
 8981SOL     OW27841   2.802   1.420   5.841
 8981SOL    HW127842   2.744   1.369   5.777
 8981SOL    HW227843   2.878   1.462   5.791
 8982SOL     OW27844   3.826   4.153   1.019
 8982SOL    HW127845   3.727   4.164   1.016
 8982SOL    HW227846   3.850   4.056   1.013
 8983SOL     OW27847   4.559   4.953   0.975
 8983SOL    HW127848   4.495   4.928   0.902
 8983SOL    HW227849   4.649   4.971   0.935
 8984SOL     OW27850   1.287   6.703   3.673
 8984SOL    HW127851   1.291   6.802   3.684
 8984SOL    HW227852   1.240   6.663   3.751
 8985SOL     OW27853   3.013   3.199   6.073
 8985SOL    HW127854   3.073   3.232   5.999
 8985SOL    HW227855   2.979   3.277   6.125
 8986SOL     OW27856   3.443   6.382   2.727
 8986SOL    HW127857   3.343   6.384   2.738
 8986SOL    HW227858   3.471   6.454   2.663
 8987SOL     OW27859   5.145   6.202   1.695
 8987SOL    HW127860   5.234   6.158   1.708
 8987SOL    HW227861   5.125   6.259   1.775
 8988SOL     OW27862   0.736   4.811   5.162
 8988SOL    HW127863   0.654   4.868   5.174
 8988SOL    HW227864   0.725   4.754   5.080
 8989SOL     OW27865   2.782   2.720   6.802
 8989SOL    HW127866   2.734   2.754   6.721
 8989SOL    HW227867   2.731   2.643   6.840
 8990SOL     OW27868   0.032   5.329   3.232
 8990SOL    HW127869   0.027   5.416   3.281
 8990SOL    HW227870   0.112   5.329   3.171
 8991SOL     OW27871   1.291   2.223   5.035
 8991SOL    HW127872   1.358   2.264   4.974
 8991SOL    HW227873   1.286   2.275   5.121
 8992SOL     OW27874   6.976   2.341   1.345
 8992SOL    HW127875   6.944   2.381   1.431
 8992SOL    HW227876   6.946   2.245   1.340
 8993SOL     OW27877   4.566   2.604   0.870
 8993SOL    HW127878   4.488   2.636   0.924
 8993SOL    HW227879   4.581   2.507   0.887
 8994SOL     OW27880   1.649   5.814   2.925
 8994SOL    HW127881   1.749   5.814   2.937
 8994SOL    HW227882   1.628   5.795   2.829
 8995SOL     OW27883   0.718   0.349   1.537
 8995SOL    HW127884   0.640   0.292   1.509
 8995SOL    HW227885   0.684   0.436   1.572
 8996SOL     OW27886   4.185   6.477   5.899
 8996SOL    HW127887   4.121   6.400   5.895
 8996SOL    HW227888   4.211   6.493   5.994
 8997SOL     OW27889   6.113   0.640   4.569
 8997SOL    HW127890   6.155   0.693   4.495
 8997SOL    HW227891   6.165   0.654   4.654
 8998SOL     OW27892   6.921   3.427   4.511
 8998SOL    HW127893   6.889   3.429   4.417
 8998SOL    HW227894   6.861   3.369   4.566
 8999SOL     OW27895   4.027   6.747   6.137
 8999SOL    HW127896   4.026   6.842   6.169
 8999SOL    HW227897   3.935   6.721   6.108
 9000SOL     OW27898   2.006   3.981   0.951
 9000SOL    HW127899   1.958   3.989   1.038
 9000SOL    HW227900   2.030   4.072   0.917
 9001SOL     OW27901   0.868   5.391   1.507
 9001SOL    HW127902   0.804   5.394   1.584
 9001SOL    HW227903   0.825   5.429   1.426
 9002SOL     OW27904   0.569   4.673   6.100
 9002SOL    HW127905   0.629   4.638   6.029
 9002SOL    HW227906   0.532   4.762   6.073
 9003SOL     OW27907   5.381   0.075   0.802
 9003SOL    HW127908   5.363   0.115   0.712
 9003SOL    HW227909   5.475   0.096   0.829
 9004SOL     OW27910   5.447   4.676   1.273
 9004SOL    HW127911   5.424   4.619   1.195
 9004SOL    HW227912   5.483   4.619   1.347
 9005SOL     OW27913   5.388   0.778   5.439
 9005SOL    HW127914   5.310   0.733   5.483
 9005SOL    HW227915   5.452   0.708   5.407
 9006SOL     OW27916   3.882   5.600   0.376
 9006SOL    HW127917   3.903   5.604   0.474
 9006SOL    HW227918   3.817   5.526   0.359
 9007SOL     OW27919   1.718   1.092   2.801
 9007SOL    HW127920   1.777   1.045   2.867
 9007SOL    HW227921   1.758   1.085   2.710
 9008SOL     OW27922   0.621   5.862   1.951
 9008SOL    HW127923   0.565   5.824   2.024
 9008SOL    HW227924   0.686   5.793   1.919
 9009SOL     OW27925   3.476   6.504   1.813
 9009SOL    HW127926   3.542   6.519   1.739
 9009SOL    HW227927   3.383   6.516   1.777
 9010SOL     OW27928   1.917   6.108   4.633
 9010SOL    HW127929   1.848   6.173   4.665
 9010SOL    HW227930   1.999   6.158   4.604
 9011SOL     OW27931   2.343   2.231   1.963
 9011SOL    HW127932   2.309   2.138   1.952
 9011SOL    HW227933   2.404   2.236   2.042
 9012SOL     OW27934   1.974   6.339   6.822
 9012SOL    HW127935   1.910   6.345   6.746
 9012SOL    HW227936   2.012   6.247   6.826
 9013SOL     OW27937   2.026   0.134   4.477
 9013SOL    HW127938   2.090   0.133   4.553
 9013SOL    HW227939   1.963   0.057   4.484
 9014SOL     OW27940   5.481   2.953   3.912
 9014SOL    HW127941   5.405   2.913   3.862
 9014SOL    HW227942   5.449   2.987   4.001
 9015SOL     OW27943   4.530   0.843   6.284
 9015SOL    HW127944   4.588   0.769   6.251
 9015SOL    HW227945   4.550   0.926   6.232
 9016SOL     OW27946   5.079   5.425   5.697
 9016SOL    HW127947   5.139   5.345   5.693
 9016SOL    HW227948   5.082   5.463   5.790
 9017SOL     OW27949   3.616   0.067   5.345
 9017SOL    HW127950   3.691   0.044   5.283
 9017SOL    HW227951   3.620   0.007   5.425
 9018SOL     OW27952   3.532   4.445   0.120
 9018SOL    HW127953   3.539   4.347   0.140
 9018SOL    HW227954   3.471   4.458   0.042
 9019SOL     OW27955   0.326   3.243   3.773
 9019SOL    HW127956   0.418   3.241   3.812
 9019SOL    HW227957   0.322   3.313   3.702
 9020SOL     OW27958   4.815   4.550   2.806
 9020SOL    HW127959   4.881   4.507   2.866
 9020SOL    HW227960   4.820   4.649   2.816
 9021SOL     OW27961   0.536   1.037   4.353
 9021SOL    HW127962   0.590   1.078   4.427
 9021SOL    HW227963   0.440   1.063   4.363
 9022SOL     OW27964   4.214   3.924   6.543
 9022SOL    HW127965   4.123   3.951   6.510
 9022SOL    HW227966   4.280   3.931   6.469
 9023SOL     OW27967   6.885   4.525   0.567
 9023SOL    HW127968   6.837   4.579   0.498
 9023SOL    HW227969   6.954   4.583   0.611
 9024SOL     OW27970   2.370   5.775   6.376
 9024SOL    HW127971   2.336   5.752   6.285
 9024SOL    HW227972   2.297   5.815   6.431
 9025SOL     OW27973   1.182   5.856   1.083
 9025SOL    HW127974   1.122   5.918   1.033
 9025SOL    HW227975   1.157   5.856   1.180
 9026SOL     OW27976   5.030   1.226   0.785
 9026SOL    HW127977   5.034   1.325   0.799
 9026SOL    HW227978   5.060   1.204   0.693
 9027SOL     OW27979   0.956   4.409   3.354
 9027SOL    HW127980   0.895   4.458   3.290
 9027SOL    HW227981   1.013   4.475   3.402
 9028SOL     OW27982   3.725   4.736   6.552
 9028SOL    HW127983   3.653   4.671   6.575
 9028SOL    HW227984   3.695   4.794   6.476
 9029SOL     OW27985   4.597   6.944   4.052
 9029SOL    HW127986   4.572   0.013   4.015
 9029SOL    HW227987   4.633   6.887   3.978
 9030SOL     OW27988   3.236   1.599   1.982
 9030SOL    HW127989   3.246   1.690   2.023
 9030SOL    HW227990   3.155   1.598   1.923
 9031SOL     OW27991   4.641   6.732   4.858
 9031SOL    HW127992   4.547   6.698   4.865
 9031SOL    HW227993   4.641   6.831   4.870
 9032SOL     OW27994   5.408   2.601   1.767
 9032SOL    HW127995   5.387   2.516   1.816
 9032SOL    HW227996   5.453   2.579   1.680
 9033SOL     OW27997   0.379   6.628   2.868
 9033SOL    HW127998   0.389   6.681   2.953
 9033SOL    HW227999   0.305   6.561   2.879
 9034SOL     OW28000   4.656   6.857   4.293
 9034SOL    HW128001   4.642   6.880   4.197
 9034SOL    HW228002   4.670   6.940   4.346
 9035SOL     OW28003   2.820   5.861   6.653
 9035SOL    HW128004   2.774   5.949   6.669
 9035SOL    HW228005   2.774   5.789   6.706
 9036SOL     OW28006   1.251   4.404   5.016
 9036SOL    HW128007   1.266   4.441   5.108
 9036SOL    HW228008   1.160   4.363   5.012
 9037SOL     OW28009   6.785   0.643   2.073
 9037SOL    HW128010   6.718   0.630   2.146
 9037SOL    HW228011   6.864   0.692   2.108
 9038SOL     OW28012   4.451   3.391   5.526
 9038SOL    HW128013   4.514   3.364   5.454
 9038SOL    HW228014   4.453   3.325   5.600
 9039SOL     OW28015   4.473   6.338   6.137
 9039SOL    HW128016   4.386   6.386   6.128
 9039SOL    HW228017   4.549   6.402   6.123
 9040SOL     OW28018   2.149   1.854   1.333
 9040SOL    HW128019   2.193   1.835   1.420
 9040SOL    HW228020   2.168   1.948   1.306
 9041SOL     OW28021   6.275   2.108   2.718
 9041SOL    HW128022   6.289   2.124   2.816
 9041SOL    HW228023   6.200   2.044   2.705
 9042SOL     OW28024   3.790   5.922   0.725
 9042SOL    HW128025   3.763   5.990   0.793
 9042SOL    HW228026   3.713   5.902   0.666
 9043SOL     OW28027   2.716   2.529   1.123
 9043SOL    HW128028   2.656   2.609   1.124
 9043SOL    HW228029   2.748   2.509   1.215
 9044SOL     OW28030   1.283   0.703   0.755
 9044SOL    HW128031   1.194   0.747   0.767
 9044SOL    HW228032   1.272   0.624   0.694
 9045SOL     OW28033   4.504   1.160   3.492
 9045SOL    HW128034   4.559   1.077   3.481
 9045SOL    HW228035   4.510   1.191   3.587
 9046SOL     OW28036   3.400   2.806   2.087
 9046SOL    HW128037   3.485   2.859   2.098
 9046SOL    HW228038   3.367   2.777   2.176
 9047SOL     OW28039   1.406   4.628   6.324
 9047SOL    HW128040   1.347   4.548   6.322
 9047SOL    HW228041   1.369   4.699   6.264
 9048SOL     OW28042   6.971   1.570   5.748
 9048SOL    HW128043   6.952   1.630   5.670
 9048SOL    HW228044   6.903   1.497   5.750
 9049SOL     OW28045   2.522   6.802   5.479
 9049SOL    HW128046   2.525   6.742   5.399
 9049SOL    HW228047   2.427   6.827   5.498
 9050SOL     OW28048   1.148   4.335   0.748
 9050SOL    HW128049   1.181   4.246   0.719
 9050SOL    HW228050   1.058   4.326   0.790
 9051SOL     OW28051   2.609   1.026   2.077
 9051SOL    HW128052   2.546   1.059   2.007
 9051SOL    HW228053   2.638   1.102   2.135
 9052SOL     OW28054   2.068   2.986   5.883
 9052SOL    HW128055   2.050   2.898   5.839
 9052SOL    HW228056   2.023   2.988   5.972
 9053SOL     OW28057   1.023   0.568   6.633
 9053SOL    HW128058   0.980   0.540   6.719
 9053SOL    HW228059   1.115   0.528   6.628
 9054SOL     OW28060   1.492   5.840   2.636
 9054SOL    HW128061   1.401   5.883   2.635
 9054SOL    HW228062   1.552   5.889   2.573
 9055SOL     OW28063   0.366   2.655   5.377
 9055SOL    HW128064   0.268   2.671   5.389
 9055SOL    HW228065   0.382   2.609   5.290
 9056SOL     OW28066   6.225   2.794   3.713
 9056SOL    HW128067   6.267   2.710   3.678
 9056SOL    HW228068   6.140   2.771   3.760
 9057SOL     OW28069   4.159   1.874   3.966
 9057SOL    HW128070   4.070   1.878   4.010
 9057SOL    HW228071   4.203   1.963   3.973
 9058SOL     OW28072   2.565   0.520   5.789
 9058SOL    HW128073   2.594   0.433   5.827
 9058SOL    HW228074   2.467   0.531   5.799
 9059SOL     OW28075   0.988   2.854   3.210
 9059SOL    HW128076   1.013   2.887   3.301
 9059SOL    HW228077   1.017   2.920   3.141
 9060SOL     OW28078   5.107   3.115   5.580
 9060SOL    HW128079   5.197   3.151   5.554
 9060SOL    HW228080   5.054   3.097   5.498
 9061SOL     OW28081   2.244   5.368   2.730
 9061SOL    HW128082   2.249   5.423   2.814
 9061SOL    HW228083   2.152   5.373   2.692
 9062SOL     OW28084   1.647   6.261   1.686
 9062SOL    HW128085   1.682   6.169   1.667
 9062SOL    HW228086   1.723   6.321   1.712
 9063SOL     OW28087   2.581   2.086   2.072
 9063SOL    HW128088   2.625   2.112   2.158
 9063SOL    HW228089   2.633   2.124   1.995
 9064SOL     OW28090   5.293   4.035   0.211
 9064SOL    HW128091   5.270   4.075   0.300
 9064SOL    HW228092   5.362   3.963   0.224
 9065SOL     OW28093   3.163   0.841   0.513
 9065SOL    HW128094   3.163   0.922   0.453
 9065SOL    HW228095   3.070   0.803   0.517
 9066SOL     OW28096   5.389   6.710   6.973
 9066SOL    HW128097   5.474   6.689   0.000
 9066SOL    HW228098   5.322   6.746   0.018
 9067SOL     OW28099   1.139   0.767   2.046
 9067SOL    HW128100   1.074   0.700   2.010
 9067SOL    HW228101   1.106   0.860   2.029
 9068SOL     OW28102   1.346   5.996   6.407
 9068SOL    HW128103   1.308   5.940   6.481
 9068SOL    HW228104   1.365   5.938   6.328
 9069SOL     OW28105   1.307   1.680   6.415
 9069SOL    HW128106   1.269   1.673   6.507
 9069SOL    HW228107   1.382   1.615   6.404
 9070SOL     OW28108   1.653   4.685   3.642
 9070SOL    HW128109   1.601   4.682   3.557
 9070SOL    HW228110   1.615   4.755   3.702
 9071SOL     OW28111   4.686   6.499   0.123
 9071SOL    HW128112   4.720   6.547   0.042
 9071SOL    HW228113   4.726   6.407   0.127
 9072SOL     OW28114   5.370   4.776   0.270
 9072SOL    HW128115   5.450   4.757   0.326
 9072SOL    HW228116   5.374   4.722   0.186
 9073SOL     OW28117   2.167   0.677   0.951
 9073SOL    HW128118   2.084   0.673   0.896
 9073SOL    HW228119   2.155   0.625   1.035
 9074SOL     OW28120   0.539   0.582   2.616
 9074SOL    HW128121   0.447   0.542   2.620
 9074SOL    HW228122   0.532   0.680   2.598
 9075SOL     OW28123   0.450   0.644   1.809
 9075SOL    HW128124   0.385   0.593   1.865
 9075SOL    HW228125   0.466   0.595   1.724
 9076SOL     OW28126   0.953   1.731   4.923
 9076SOL    HW128127   0.995   1.738   5.014
 9076SOL    HW228128   1.024   1.714   4.855
 9077SOL     OW28129   5.980   5.972   1.768
 9077SOL    HW128130   5.903   5.937   1.821
 9077SOL    HW228131   6.065   5.958   1.819
 9078SOL     OW28132   4.415   2.995   5.398
 9078SOL    HW128133   4.483   2.971   5.467
 9078SOL    HW228134   4.431   2.940   5.315
 9079SOL     OW28135   3.566   0.631   5.017
 9079SOL    HW128136   3.555   0.542   4.972
 9079SOL    HW228137   3.663   0.655   5.018
 9080SOL     OW28138   4.820   1.308   6.499
 9080SOL    HW128139   4.831   1.388   6.557
 9080SOL    HW228140   4.907   1.259   6.493
 9081SOL     OW28141   5.257   6.921   3.643
 9081SOL    HW128142   5.289   7.011   3.614
 9081SOL    HW228143   5.331   6.855   3.634
 9082SOL     OW28144   2.743   0.711   2.453
 9082SOL    HW128145   2.812   0.649   2.491
 9082SOL    HW228146   2.667   0.657   2.416
 9083SOL     OW28147   4.777   4.295   4.269
 9083SOL    HW128148   4.843   4.361   4.234
 9083SOL    HW228149   4.813   4.254   4.353
 9084SOL     OW28150   4.017   3.850   2.913
 9084SOL    HW128151   4.112   3.880   2.911
 9084SOL    HW228152   4.012   3.753   2.892
 9085SOL     OW28153   0.837   2.935   0.464
 9085SOL    HW128154   0.812   3.019   0.416
 9085SOL    HW228155   0.890   2.958   0.545
 9086SOL     OW28156   0.021   3.883   6.949
 9086SOL    HW128157   0.058   3.965   6.906
 9086SOL    HW228158   0.006   3.813   6.879
 9087SOL     OW28159   5.279   2.939   2.209
 9087SOL    HW128160   5.359   2.880   2.222
 9087SOL    HW228161   5.239   2.959   2.299
 9088SOL     OW28162   5.440   5.710   1.442
 9088SOL    HW128163   5.524   5.661   1.420
 9088SOL    HW228164   5.371   5.693   1.372
 9089SOL     OW28165   4.267   0.984   5.448
 9089SOL    HW128166   4.276   0.915   5.519
 9089SOL    HW228167   4.188   0.963   5.390
 9090SOL     OW28168   5.960   1.623   3.138
 9090SOL    HW128169   5.993   1.652   3.228
 9090SOL    HW228170   5.870   1.662   3.121
 9091SOL     OW28171   3.940   2.861   5.842
 9091SOL    HW128172   3.855   2.910   5.824
 9091SOL    HW228173   3.957   2.795   5.769
 9092SOL     OW28174   0.012   3.530   6.417
 9092SOL    HW128175   0.063   3.461   6.364
 9092SOL    HW228176   0.027   3.620   6.375
 9093SOL     OW28177   2.259   6.691   5.029
 9093SOL    HW128178   2.199   6.689   5.109
 9093SOL    HW228179   2.332   6.758   5.044
 9094SOL     OW28180   1.866   3.725   0.935
 9094SOL    HW128181   1.936   3.796   0.925
 9094SOL    HW228182   1.797   3.735   0.863
 9095SOL     OW28183   6.738   6.811   6.462
 9095SOL    HW128184   6.798   6.863   6.401
 9095SOL    HW228185   6.758   6.835   6.557
 9096SOL     OW28186   5.651   5.072   4.436
 9096SOL    HW128187   5.584   5.060   4.509
 9096SOL    HW228188   5.743   5.076   4.474
 9097SOL     OW28189   1.160   2.150   5.829
 9097SOL    HW128190   1.258   2.138   5.845
 9097SOL    HW228191   1.109   2.102   5.900
 9098SOL     OW28192   2.238   4.864   4.112
 9098SOL    HW128193   2.186   4.948   4.102
 9098SOL    HW228194   2.247   4.841   4.209
 9099SOL     OW28195   2.342   1.497   6.952
 9099SOL    HW128196   2.356   1.469   0.026
 9099SOL    HW228197   2.259   1.552   6.945
 9100SOL     OW28198   1.958   4.990   3.963
 9100SOL    HW128199   1.962   5.087   3.984
 9100SOL    HW228200   2.010   4.972   3.879
 9101SOL     OW28201   0.305   2.493   0.144
 9101SOL    HW128202   0.323   2.428   0.071
 9101SOL    HW228203   0.309   2.586   0.108
 9102SOL     OW28204   3.982   0.588   3.103
 9102SOL    HW128205   3.969   0.659   3.171
 9102SOL    HW228206   4.080   0.573   3.087
 9103SOL     OW28207   6.584   0.575   1.301
 9103SOL    HW128208   6.557   0.666   1.334
 9103SOL    HW228209   6.674   0.552   1.338
 9104SOL     OW28210   6.187   1.937   5.885
 9104SOL    HW128211   6.281   1.918   5.859
 9104SOL    HW228212   6.140   1.850   5.903
 9105SOL     OW28213   3.294   0.937   6.658
 9105SOL    HW128214   3.213   0.983   6.621
 9105SOL    HW228215   3.295   0.842   6.625
 9106SOL     OW28216   2.269   2.893   6.628
 9106SOL    HW128217   2.329   2.851   6.696
 9106SOL    HW228218   2.225   2.822   6.574
 9107SOL     OW28219   3.262   1.324   0.694
 9107SOL    HW128220   3.349   1.275   0.689
 9107SOL    HW228221   3.247   1.374   0.609
 9108SOL     OW28222   0.372   6.102   5.885
 9108SOL    HW128223   0.348   6.121   5.790
 9108SOL    HW228224   0.444   6.033   5.888
 9109SOL     OW28225   5.992   4.135   2.715
 9109SOL    HW128226   6.088   4.112   2.696
 9109SOL    HW228227   5.939   4.131   2.630
 9110SOL     OW28228   1.083   6.744   3.148
 9110SOL    HW128229   1.126   6.700   3.070
 9110SOL    HW228230   1.121   6.704   3.233
 9111SOL     OW28231   3.663   2.553   5.725
 9111SOL    HW128232   3.609   2.496   5.663
 9111SOL    HW228233   3.756   2.561   5.690
 9112SOL     OW28234   0.426   5.368   2.364
 9112SOL    HW128235   0.463   5.383   2.272
 9112SOL    HW228236   0.360   5.292   2.361
 9113SOL     OW28237   6.357   0.391   4.353
 9113SOL    HW128238   6.269   0.374   4.308
 9113SOL    HW228239   6.430   0.391   4.284
 9114SOL     OW28240   1.252   0.406   5.940
 9114SOL    HW128241   1.216   0.495   5.967
 9114SOL    HW228242   1.289   0.412   5.848
 9115SOL     OW28243   4.818   4.082   5.303
 9115SOL    HW128244   4.791   3.987   5.291
 9115SOL    HW228245   4.763   4.124   5.375
 9116SOL     OW28246   1.319   6.956   3.727
 9116SOL    HW128247   1.315   6.989   3.821
 9116SOL    HW228248   1.235   6.980   3.679
 9117SOL     OW28249   1.849   6.538   6.960
 9117SOL    HW128250   1.893   6.463   6.911
 9117SOL    HW228251   1.918   6.593   7.007
 9118SOL     OW28252   6.616   4.179   1.639
 9118SOL    HW128253   6.694   4.120   1.616
 9118SOL    HW228254   6.541   4.123   1.673
 9119SOL     OW28255   3.255   1.187   1.123
 9119SOL    HW128256   3.211   1.242   1.193
 9119SOL    HW228257   3.339   1.146   1.160
 9120SOL     OW28258   6.532   3.763   4.529
 9120SOL    HW128259   6.440   3.725   4.540
 9120SOL    HW228260   6.534   3.856   4.567
 9121SOL     OW28261   4.017   1.029   4.258
 9121SOL    HW128262   3.962   1.109   4.230
 9121SOL    HW228263   3.958   0.965   4.308
 9122SOL     OW28264   0.326   2.186   1.955
 9122SOL    HW128265   0.364   2.103   1.914
 9122SOL    HW228266   0.304   2.252   1.882
 9123SOL     OW28267   0.885   6.468   4.340
 9123SOL    HW128268   0.800   6.503   4.300
 9123SOL    HW228269   0.961   6.529   4.318
 9124SOL     OW28270   4.228   6.194   0.878
 9124SOL    HW128271   4.312   6.141   0.865
 9124SOL    HW228272   4.150   6.139   0.849
 9125SOL     OW28273   5.289   6.528   1.524
 9125SOL    HW128274   5.194   6.550   1.547
 9125SOL    HW228275   5.303   6.429   1.535
 9126SOL     OW28276   4.548   4.498   0.990
 9126SOL    HW128277   4.528   4.417   1.045
 9126SOL    HW228278   4.564   4.576   1.050
 9127SOL     OW28279   6.120   4.411   5.431
 9127SOL    HW128280   6.214   4.384   5.410
 9127SOL    HW228281   6.090   4.364   5.515
 9128SOL     OW28282   5.928   3.600   6.215
 9128SOL    HW128283   5.859   3.582   6.285
 9128SOL    HW228284   5.883   3.616   6.127
 9129SOL     OW28285   0.365   2.956   0.725
 9129SOL    HW128286   0.423   3.030   0.760
 9129SOL    HW228287   0.276   2.958   0.770
 9130SOL     OW28288   3.178   3.495   5.488
 9130SOL    HW128289   3.131   3.439   5.421
 9130SOL    HW228290   3.150   3.591   5.478
 9131SOL     OW28291   5.866   2.798   0.217
 9131SOL    HW128292   5.876   2.728   0.147
 9131SOL    HW228293   5.799   2.768   0.285
 9132SOL     OW28294   1.292   4.363   3.629
 9132SOL    HW128295   1.338   4.379   3.541
 9132SOL    HW228296   1.213   4.304   3.614
 9133SOL     OW28297   5.007   0.269   1.404
 9133SOL    HW128298   4.945   0.264   1.482
 9133SOL    HW228299   5.049   0.180   1.388
 9134SOL     OW28300   4.591   4.739   7.000
 9134SOL    HW128301   4.561   4.646   6.978
 9134SOL    HW228302   4.586   4.754   0.078
 9135SOL     OW28303   6.608   5.412   2.156
 9135SOL    HW128304   6.586   5.482   2.088
 9135SOL    HW228305   6.527   5.358   2.176
 9136SOL     OW28306   1.197   5.029   6.966
 9136SOL    HW128307   1.216   4.932   6.973
 9136SOL    HW228308   1.196   5.069   0.037
 9137SOL     OW28309   5.444   5.521   5.571
 9137SOL    HW128310   5.351   5.485   5.570
 9137SOL    HW228311   5.442   5.619   5.552
 9138SOL     OW28312   1.819   4.384   6.364
 9138SOL    HW128313   1.874   4.456   6.406
 9138SOL    HW228314   1.723   4.409   6.365
 9139SOL     OW28315   0.335   0.407   1.653
 9139SOL    HW128316   0.380   0.357   1.728
 9139SOL    HW228317   0.404   0.455   1.600
 9140SOL     OW28318   1.888   3.997   2.036
 9140SOL    HW128319   1.879   3.903   2.070
 9140SOL    HW228320   1.951   4.047   2.095
 9141SOL     OW28321   0.677   5.564   4.653
 9141SOL    HW128322   0.745   5.572   4.580
 9141SOL    HW228323   0.592   5.608   4.624
 9142SOL     OW28324   1.558   4.746   3.385
 9142SOL    HW128325   1.563   4.673   3.317
 9142SOL    HW228326   1.621   4.820   3.359
 9143SOL     OW28327   6.376   3.352   2.627
 9143SOL    HW128328   6.469   3.371   2.596
 9143SOL    HW228329   6.314   3.424   2.597
 9144SOL     OW28330   3.039   4.302   5.569
 9144SOL    HW128331   2.942   4.282   5.560
 9144SOL    HW228332   3.091   4.217   5.579
 9145SOL     OW28333   2.034   6.549   6.086
 9145SOL    HW128334   1.983   6.470   6.120
 9145SOL    HW228335   1.997   6.579   5.999
 9146SOL     OW28336   6.257   2.343   4.071
 9146SOL    HW128337   6.176   2.295   4.036
 9146SOL    HW228338   6.282   2.304   4.160
 9147SOL     OW28339   4.459   1.002   6.025
 9147SOL    HW128340   4.407   1.068   5.970
 9147SOL    HW228341   4.547   0.984   5.981
 9148SOL     OW28342   4.182   5.887   2.285
 9148SOL    HW128343   4.150   5.971   2.241
 9148SOL    HW228344   4.277   5.898   2.313
 9149SOL     OW28345   0.738   4.200   1.328
 9149SOL    HW128346   0.668   4.256   1.372
 9149SOL    HW228347   0.751   4.116   1.380
 9150SOL     OW28348   2.832   4.013   0.066
 9150SOL    HW128349   2.784   3.930   0.038
 9150SOL    HW228350   2.921   4.018   0.019
 9151SOL     OW28351   2.225   2.998   3.650
 9151SOL    HW128352   2.245   3.089   3.613
 9151SOL    HW228353   2.237   2.999   3.749
 9152SOL     OW28354   1.891   4.977   2.199
 9152SOL    HW128355   1.976   5.023   2.225
 9152SOL    HW228356   1.896   4.881   2.226
 9153SOL     OW28357   0.151   3.531   0.515
 9153SOL    HW128358   0.124   3.625   0.496
 9153SOL    HW228359   0.109   3.501   0.601
 9154SOL     OW28360   4.593   5.099   3.486
 9154SOL    HW128361   4.514   5.038   3.479
 9154SOL    HW228362   4.561   5.192   3.506
 9155SOL     OW28363   1.127   6.178   2.761
 9155SOL    HW128364   1.113   6.104   2.695
 9155SOL    HW228365   1.208   6.158   2.816
 9156SOL     OW28366   0.490   4.265   5.548
 9156SOL    HW128367   0.514   4.173   5.577
 9156SOL    HW228368   0.504   4.274   5.449
 9157SOL     OW28369   1.953   4.834   5.242
 9157SOL    HW128370   2.015   4.897   5.196
 9157SOL    HW228371   1.946   4.749   5.190
 9158SOL     OW28372   0.233   3.151   4.915
 9158SOL    HW128373   0.231   3.169   5.014
 9158SOL    HW228374   0.230   3.052   4.899
 9159SOL     OW28375   1.913   1.334   4.227
 9159SOL    HW128376   1.868   1.379   4.304
 9159SOL    HW228377   1.870   1.362   4.142
 9160SOL     OW28378   0.811   3.121   6.604
 9160SOL    HW128379   0.724   3.166   6.625
 9160SOL    HW228380   0.842   3.148   6.513
 9161SOL     OW28381   5.657   2.975   3.088
 9161SOL    HW128382   5.732   3.039   3.105
 9161SOL    HW228383   5.686   2.907   3.020
 9162SOL     OW28384   4.002   2.147   2.023
 9162SOL    HW128385   3.903   2.155   2.015
 9162SOL    HW228386   4.024   2.071   2.084
 9163SOL     OW28387   1.942   3.030   3.695
 9163SOL    HW128388   2.015   3.043   3.627
 9163SOL    HW228389   1.951   2.939   3.736
 9164SOL     OW28390   3.111   6.649   0.330
 9164SOL    HW128391   3.035   6.661   0.266
 9164SOL    HW228392   3.118   6.553   0.355
 9165SOL     OW28393   5.879   1.030   6.551
 9165SOL    HW128394   5.976   1.053   6.554
 9165SOL    HW228395   5.851   1.013   6.457
 9166SOL     OW28396   4.167   6.719   1.674
 9166SOL    HW128397   4.105   6.787   1.635
 9166SOL    HW228398   4.218   6.674   1.600
 9167SOL     OW28399   1.288   2.119   4.242
 9167SOL    HW128400   1.210   2.057   4.254
 9167SOL    HW228401   1.287   2.188   4.314
 9168SOL     OW28402   6.693   5.961   4.967
 9168SOL    HW128403   6.761   6.021   5.010
 9168SOL    HW228404   6.678   5.991   4.873
 9169SOL     OW28405   6.515   5.930   0.003
 9169SOL    HW128406   6.445   5.876   6.979
 9169SOL    HW228407   6.473   6.011   0.045
 9170SOL     OW28408   1.956   1.098   6.100
 9170SOL    HW128409   2.055   1.110   6.097
 9170SOL    HW228410   1.919   1.151   6.176
 9171SOL     OW28411   4.290   5.323   0.360
 9171SOL    HW128412   4.203   5.287   0.326
 9171SOL    HW228413   4.273   5.376   0.442
 9172SOL     OW28414   4.673   1.804   5.255
 9172SOL    HW128415   4.699   1.795   5.351
 9172SOL    HW228416   4.679   1.714   5.211
 9173SOL     OW28417   6.108   4.128   5.237
 9173SOL    HW128418   6.128   4.084   5.325
 9173SOL    HW228419   6.190   4.174   5.203
 9174SOL     OW28420   6.247   4.686   0.423
 9174SOL    HW128421   6.250   4.769   0.479
 9174SOL    HW228422   6.171   4.629   0.453
 9175SOL     OW28423   2.514   1.210   1.501
 9175SOL    HW128424   2.531   1.195   1.403
 9175SOL    HW228425   2.536   1.305   1.524
 9176SOL     OW28426   1.792   1.115   2.533
 9176SOL    HW128427   1.852   1.089   2.457
 9176SOL    HW228428   1.774   1.213   2.529
 9177SOL     OW28429   0.982   5.973   3.542
 9177SOL    HW128430   0.938   5.917   3.471
 9177SOL    HW228431   1.021   5.912   3.612
 9178SOL     OW28432   1.384   3.533   1.149
 9178SOL    HW128433   1.307   3.561   1.092
 9178SOL    HW228434   1.416   3.611   1.202
 9179SOL     OW28435   4.265   5.125   3.054
 9179SOL    HW128436   4.238   5.185   3.129
 9179SOL    HW228437   4.311   5.044   3.091
 9180SOL     OW28438   0.764   0.721   5.172
 9180SOL    HW128439   0.671   0.686   5.183
 9180SOL    HW228440   0.762   0.821   5.173
 9181SOL     OW28441   2.652   1.975   3.611
 9181SOL    HW128442   2.633   1.919   3.692
 9181SOL    HW228443   2.613   2.066   3.624
 9182SOL     OW28444   6.651   1.712   2.697
 9182SOL    HW128445   6.745   1.680   2.714
 9182SOL    HW228446   6.648   1.767   2.614
 9183SOL     OW28447   2.223   1.364   5.659
 9183SOL    HW128448   2.137   1.372   5.711
 9183SOL    HW228449   2.268   1.453   5.655
 9184SOL     OW28450   2.806   4.765   1.403
 9184SOL    HW128451   2.756   4.852   1.405
 9184SOL    HW228452   2.821   4.733   1.497
 9185SOL     OW28453   1.306   1.052   5.433
 9185SOL    HW128454   1.306   1.132   5.373
 9185SOL    HW228455   1.235   1.062   5.503
 9186SOL     OW28456   5.893   6.311   6.375
 9186SOL    HW128457   5.843   6.369   6.311
 9186SOL    HW228458   5.944   6.241   6.325
 9187SOL     OW28459   4.965   2.745   1.113
 9187SOL    HW128460   4.883   2.723   1.165
 9187SOL    HW228461   4.944   2.814   1.044
 9188SOL     OW28462   1.367   0.772   2.165
 9188SOL    HW128463   1.354   0.707   2.241
 9188SOL    HW228464   1.284   0.776   2.110
 9189SOL     OW28465   2.913   0.422   6.214
 9189SOL    HW128466   3.012   0.426   6.198
 9189SOL    HW228467   2.893   0.447   6.308
 9190SOL     OW28468   3.515   0.976   5.641
 9190SOL    HW128469   3.506   0.893   5.585
 9190SOL    HW228470   3.462   0.965   5.725
 9191SOL     OW28471   5.518   6.978   1.539
 9191SOL    HW128472   5.443   7.017   1.485
 9191SOL    HW228473   5.482   6.904   1.596
 9192SOL     OW28474   5.156   4.214   4.733
 9192SOL    HW128475   5.122   4.263   4.814
 9192SOL    HW228476   5.109   4.126   4.725
 9193SOL     OW28477   4.103   3.595   2.862
 9193SOL    HW128478   4.088   3.525   2.932
 9193SOL    HW228479   4.108   3.551   2.772
 9194SOL     OW28480   3.386   5.000   2.827
 9194SOL    HW128481   3.472   5.007   2.878
 9194SOL    HW228482   3.405   4.968   2.734
 9195SOL     OW28483   0.795   3.277   3.642
 9195SOL    HW128484   0.809   3.369   3.605
 9195SOL    HW228485   0.882   3.240   3.675
 9196SOL     OW28486   5.044   5.437   3.350
 9196SOL    HW128487   5.000   5.406   3.435
 9196SOL    HW228488   5.142   5.422   3.357
 9197SOL     OW28489   4.730   2.098   0.279
 9197SOL    HW128490   4.805   2.079   0.343
 9197SOL    HW228491   4.695   2.190   0.296
 9198SOL     OW28492   6.376   2.783   5.385
 9198SOL    HW128493   6.294   2.841   5.388
 9198SOL    HW228494   6.376   2.730   5.300
 9199SOL     OW28495   0.974   3.882   6.583
 9199SOL    HW128496   0.889   3.859   6.630
 9199SOL    HW228497   1.040   3.917   6.650
 9200SOL     OW28498   4.855   6.366   1.638
 9200SOL    HW128499   4.758   6.382   1.659
 9200SOL    HW228500   4.862   6.304   1.560
 9201SOL     OW28501   0.041   2.913   2.122
 9201SOL    HW128502   0.140   2.922   2.126
 9201SOL    HW228503   0.012   2.909   2.026
 9202SOL     OW28504   2.094   6.142   4.212
 9202SOL    HW128505   2.081   6.071   4.282
 9202SOL    HW228506   2.123   6.099   4.127
 9203SOL     OW28507   5.058   1.792   0.989
 9203SOL    HW128508   5.117   1.872   0.982
 9203SOL    HW228509   4.980   1.803   0.928
 9204SOL     OW28510   4.946   4.563   2.546
 9204SOL    HW128511   4.885   4.544   2.623
 9204SOL    HW228512   4.944   4.486   2.482
 9205SOL     OW28513   4.042   2.440   1.594
 9205SOL    HW128514   4.067   2.531   1.629
 9205SOL    HW228515   4.099   2.419   1.514
 9206SOL     OW28516   6.878   6.175   5.041
 9206SOL    HW128517   6.873   6.214   4.949
 9206SOL    HW228518   6.931   6.235   5.101
 9207SOL     OW28519   4.841   6.251   0.148
 9207SOL    HW128520   4.916   6.313   0.129
 9207SOL    HW228521   4.868   6.187   0.220
 9208SOL     OW28522   4.855   4.553   1.696
 9208SOL    HW128523   4.760   4.545   1.724
 9208SOL    HW228524   4.913   4.497   1.755
 9209SOL     OW28525   4.333   0.432   3.913
 9209SOL    HW128526   4.342   0.497   3.989
 9209SOL    HW228527   4.394   0.460   3.839
 9210SOL     OW28528   1.110   6.925   6.935
 9210SOL    HW128529   1.196   6.904   6.981
 9210SOL    HW228530   1.064   6.839   6.909
 9211SOL     OW28531   4.945   1.575   6.623
 9211SOL    HW128532   4.898   1.527   6.697
 9211SOL    HW228533   4.921   1.673   6.626
 9212SOL     OW28534   6.078   3.369   6.255
 9212SOL    HW128535   6.034   3.309   6.322
 9212SOL    HW228536   6.041   3.461   6.263
 9213SOL     OW28537   6.464   5.589   1.973
 9213SOL    HW128538   6.433   5.652   2.044
 9213SOL    HW228539   6.385   5.549   1.927
 9214SOL     OW28540   1.880   1.506   6.578
 9214SOL    HW128541   1.900   1.570   6.505
 9214SOL    HW228542   1.812   1.546   6.640
 9215SOL     OW28543   0.217   4.089   3.789
 9215SOL    HW128544   0.273   4.006   3.793
 9215SOL    HW228545   0.126   4.066   3.753
 9216SOL     OW28546   2.210   0.013   3.818
 9216SOL    HW128547   2.125   6.986   3.839
 9216SOL    HW228548   2.245   7.003   3.730
 9217SOL     OW28549   3.372   2.348   6.737
 9217SOL    HW128550   3.375   2.377   6.833
 9217SOL    HW228551   3.281   2.365   6.699
 9218SOL     OW28552   4.548   6.001   5.460
 9218SOL    HW128553   4.623   5.938   5.479
 9218SOL    HW228554   4.508   5.979   5.371
 9219SOL     OW28555   3.443   2.703   5.735
 9219SOL    HW128556   3.396   2.710   5.823
 9219SOL    HW228557   3.523   2.644   5.744
 9220SOL     OW28558   0.477   6.567   3.582
 9220SOL    HW128559   0.545   6.540   3.650
 9220SOL    HW228560   0.491   6.662   3.556
 9221SOL     OW28561   2.855   1.318   1.585
 9221SOL    HW128562   2.786   1.358   1.645
 9221SOL    HW228563   2.843   1.353   1.492
 9222SOL     OW28564   2.064   5.833   3.184
 9222SOL    HW128565   2.103   5.924   3.203
 9222SOL    HW228566   2.007   5.805   3.260
 9223SOL     OW28567   6.166   2.432   4.832
 9223SOL    HW128568   6.103   2.498   4.789
 9223SOL    HW228569   6.145   2.340   4.798
 9224SOL     OW28570   1.833   5.128   2.562
 9224SOL    HW128571   1.764   5.121   2.490
 9224SOL    HW228572   1.789   5.126   2.652
 9225SOL     OW28573   0.609   5.331   5.963
 9225SOL    HW128574   0.700   5.294   5.979
 9225SOL    HW228575   0.616   5.427   5.938
 9226SOL     OW28576   0.741   0.492   4.830
 9226SOL    HW128577   0.798   0.537   4.898
 9226SOL    HW228578   0.725   0.397   4.858
 9227SOL     OW28579   3.904   3.625   0.308
 9227SOL    HW128580   3.860   3.654   0.393
 9227SOL    HW228581   3.835   3.606   0.239
 9228SOL     OW28582   3.640   3.567   5.101
 9228SOL    HW128583   3.710   3.617   5.152
 9228SOL    HW228584   3.550   3.605   5.122
 9229SOL     OW28585   0.201   5.113   0.725
 9229SOL    HW128586   0.130   5.158   0.671
 9229SOL    HW228587   0.167   5.098   0.818
 9230SOL     OW28588   3.983   0.017   6.206
 9230SOL    HW128589   4.078   0.048   6.211
 9230SOL    HW228590   3.940   0.053   6.123
 9231SOL     OW28591   6.241   6.556   1.764
 9231SOL    HW128592   6.269   6.616   1.840
 9231SOL    HW228593   6.141   6.546   1.766
 9232SOL     OW28594   1.163   5.298   2.141
 9232SOL    HW128595   1.235   5.299   2.210
 9232SOL    HW228596   1.194   5.247   2.061
 9233SOL     OW28597   1.017   0.058   5.732
 9233SOL    HW128598   1.102   0.004   5.734
 9233SOL    HW228599   1.016   0.123   5.808
 9234SOL     OW28600   3.615   4.339   6.448
 9234SOL    HW128601   3.562   4.423   6.461
 9234SOL    HW228602   3.698   4.342   6.503
 9235SOL     OW28603   2.449   2.647   3.083
 9235SOL    HW128604   2.496   2.627   3.169
 9235SOL    HW228605   2.380   2.718   3.098
 9236SOL     OW28606   2.065   3.645   6.177
 9236SOL    HW128607   2.128   3.686   6.244
 9236SOL    HW228608   1.975   3.687   6.186
 9237SOL     OW28609   6.477   5.280   3.792
 9237SOL    HW128610   6.466   5.335   3.875
 9237SOL    HW228611   6.454   5.336   3.712
 9238SOL     OW28612   1.206   2.610   5.052
 9238SOL    HW128613   1.265   2.579   4.977
 9238SOL    HW228614   1.134   2.543   5.068
 9239SOL     OW28615   1.557   5.710   5.793
 9239SOL    HW128616   1.531   5.780   5.727
 9239SOL    HW228617   1.497   5.631   5.783
 9240SOL     OW28618   3.418   1.408   4.359
 9240SOL    HW128619   3.342   1.454   4.313
 9240SOL    HW228620   3.391   1.384   4.452
 9241SOL     OW28621   5.105   6.392   0.173
 9241SOL    HW128622   5.192   6.348   0.194
 9241SOL    HW228623   5.056   6.414   0.258
 9242SOL     OW28624   2.751   2.608   0.554
 9242SOL    HW128625   2.838   2.648   0.527
 9242SOL    HW228626   2.736   2.522   0.504
 9243SOL     OW28627   2.298   0.406   0.264
 9243SOL    HW128628   2.301   0.420   0.363
 9243SOL    HW228629   2.215   0.356   0.240
 9244SOL     OW28630   3.046   6.123   0.009
 9244SOL    HW128631   3.030   6.130   6.931
 9244SOL    HW228632   3.086   6.208   0.043
 9245SOL     OW28633   0.627   4.817   2.928
 9245SOL    HW128634   0.623   4.897   2.869
 9245SOL    HW228635   0.538   4.771   2.928
 9246SOL     OW28636   5.174   6.974   6.891
 9246SOL    HW128637   5.102   6.948   6.956
 9246SOL    HW228638   5.135   0.009   6.818
 9247SOL     OW28639   3.519   6.787   2.758
 9247SOL    HW128640   3.489   6.810   2.665
 9247SOL    HW228641   3.447   6.733   2.803
 9248SOL     OW28642   2.740   0.128   0.237
 9248SOL    HW128643   2.817   0.074   0.203
 9248SOL    HW228644   2.771   0.187   0.311
 9249SOL     OW28645   3.597   0.624   0.532
 9249SOL    HW128646   3.674   0.594   0.476
 9249SOL    HW228647   3.566   0.549   0.590
 9250SOL     OW28648   0.477   3.871   2.905
 9250SOL    HW128649   0.421   3.789   2.890
 9250SOL    HW228650   0.491   3.918   2.819
 9251SOL     OW28651   4.032   1.743   1.284
 9251SOL    HW128652   4.035   1.643   1.279
 9251SOL    HW228653   4.122   1.780   1.258
 9252SOL     OW28654   5.613   1.638   4.832
 9252SOL    HW128655   5.713   1.638   4.843
 9252SOL    HW228656   5.570   1.663   4.918
 9253SOL     OW28657   2.444   4.796   3.926
 9253SOL    HW128658   2.382   4.803   4.004
 9253SOL    HW228659   2.432   4.875   3.866
 9254SOL     OW28660   0.203   5.943   2.420
 9254SOL    HW128661   0.204   6.016   2.352
 9254SOL    HW228662   0.281   5.882   2.406
 9255SOL     OW28663   6.433   3.420   0.705
 9255SOL    HW128664   6.415   3.380   0.615
 9255SOL    HW228665   6.530   3.440   0.715
 9256SOL     OW28666   2.363   6.446   0.894
 9256SOL    HW128667   2.279   6.490   0.863
 9256SOL    HW228668   2.401   6.392   0.819
 9257SOL     OW28669   6.629   6.109   4.746
 9257SOL    HW128670   6.570   6.169   4.694
 9257SOL    HW228671   6.705   6.162   4.785
 9258SOL     OW28672   5.158   4.707   2.635
 9258SOL    HW128673   5.137   4.791   2.586
 9258SOL    HW228674   5.095   4.634   2.607
 9259SOL     OW28675   0.993   2.703   6.782
 9259SOL    HW128676   1.011   2.619   6.730
 9259SOL    HW228677   0.962   2.775   6.719
 9260SOL     OW28678   5.416   4.252   4.742
 9260SOL    HW128679   5.454   4.168   4.702
 9260SOL    HW228680   5.317   4.249   4.737
 9261SOL     OW28681   1.356   3.431   1.710
 9261SOL    HW128682   1.271   3.468   1.749
 9261SOL    HW228683   1.371   3.338   1.745
 9262SOL     OW28684   0.557   6.746   6.329
 9262SOL    HW128685   0.655   6.731   6.341
 9262SOL    HW228686   0.508   6.659   6.334
 9263SOL     OW28687   2.481   4.589   2.892
 9263SOL    HW128688   2.411   4.558   2.828
 9263SOL    HW228689   2.562   4.618   2.841
 9264SOL     OW28690   5.279   3.369   5.895
 9264SOL    HW128691   5.231   3.454   5.875
 9264SOL    HW228692   5.371   3.390   5.929
 9265SOL     OW28693   4.938   0.178   2.092
 9265SOL    HW128694   4.851   0.217   2.062
 9265SOL    HW228695   4.970   0.112   2.025
 9266SOL     OW28696   0.711   5.016   1.086
 9266SOL    HW128697   0.622   5.055   1.109
 9266SOL    HW228698   0.734   5.039   0.992
 9267SOL     OW28699   6.737   1.426   3.736
 9267SOL    HW128700   6.835   1.405   3.742
 9267SOL    HW228701   6.685   1.340   3.738
 9268SOL     OW28702   0.537   0.925   1.375
 9268SOL    HW128703   0.484   0.865   1.316
 9268SOL    HW228704   0.476   0.987   1.425
 9269SOL     OW28705   3.554   0.225   0.952
 9269SOL    HW128706   3.633   0.163   0.948
 9269SOL    HW228707   3.566   0.289   1.028
 9270SOL     OW28708   2.300   0.815   5.275
 9270SOL    HW128709   2.206   0.792   5.302
 9270SOL    HW228710   2.341   0.737   5.227
 9271SOL     OW28711   1.790   4.563   5.895
 9271SOL    HW128712   1.836   4.477   5.914
 9271SOL    HW228713   1.827   4.635   5.954
 9272SOL     OW28714   6.732   6.879   5.222
 9272SOL    HW128715   6.635   6.900   5.231
 9272SOL    HW228716   6.755   6.800   5.279
 9273SOL     OW28717   6.231   3.508   4.236
 9273SOL    HW128718   6.202   3.413   4.250
 9273SOL    HW228719   6.169   3.551   4.170
 9274SOL     OW28720   6.740   3.088   0.307
 9274SOL    HW128721   6.714   3.056   0.216
 9274SOL    HW228722   6.785   3.177   0.301
 9275SOL     OW28723   5.050   1.966   0.027
 9275SOL    HW128724   4.951   1.960   0.015
 9275SOL    HW228725   5.093   1.982   6.959
 9276SOL     OW28726   1.802   3.380   0.127
 9276SOL    HW128727   1.871   3.361   0.057
 9276SOL    HW228728   1.722   3.322   0.111
 9277SOL     OW28729   3.944   5.791   2.423
 9277SOL    HW128730   3.896   5.865   2.469
 9277SOL    HW228731   4.028   5.826   2.381
 9278SOL     OW28732   0.673   0.448   5.715
 9278SOL    HW128733   0.757   0.453   5.661
 9278SOL    HW228734   0.666   0.528   5.774
 9279SOL     OW28735   3.480   6.128   1.719
 9279SOL    HW128736   3.540   6.048   1.713
 9279SOL    HW228737   3.491   6.172   1.808
 9280SOL     OW28738   1.115   5.134   1.692
 9280SOL    HW128739   1.141   5.135   1.595
 9280SOL    HW228740   1.079   5.043   1.715
 9281SOL     OW28741   1.335   5.804   0.861
 9281SOL    HW128742   1.379   5.893   0.874
 9281SOL    HW228743   1.285   5.779   0.944
 9282SOL     OW28744   1.788   0.266   4.525
 9282SOL    HW128745   1.880   0.239   4.496
 9282SOL    HW228746   1.734   0.290   4.445
 9283SOL     OW28747   4.653   5.566   6.967
 9283SOL    HW128748   4.704   5.651   6.957
 9283SOL    HW228749   4.614   5.562   0.038
 9284SOL     OW28750   4.453   6.282   1.093
 9284SOL    HW128751   4.369   6.241   1.127
 9284SOL    HW228752   4.440   6.311   0.998
 9285SOL     OW28753   6.654   5.767   3.701
 9285SOL    HW128754   6.602   5.816   3.630
 9285SOL    HW228755   6.669   5.673   3.673
 9286SOL     OW28756   4.973   6.731   1.455
 9286SOL    HW128757   4.881   6.754   1.486
 9286SOL    HW228758   5.015   6.668   1.520
 9287SOL     OW28759   4.598   4.685   0.542
 9287SOL    HW128760   4.532   4.753   0.511
 9287SOL    HW228761   4.554   4.622   0.606
 9288SOL     OW28762   4.017   1.729   2.477
 9288SOL    HW128763   4.040   1.712   2.573
 9288SOL    HW228764   4.030   1.646   2.424
 9289SOL     OW28765   4.662   5.784   2.504
 9289SOL    HW128766   4.730   5.758   2.436
 9289SOL    HW228767   4.709   5.811   2.588
 9290SOL     OW28768   5.182   1.216   3.653
 9290SOL    HW128769   5.230   1.256   3.731
 9290SOL    HW228770   5.228   1.243   3.568
 9291SOL     OW28771   0.851   4.100   5.704
 9291SOL    HW128772   0.896   4.128   5.619
 9291SOL    HW228773   0.799   4.016   5.688
 9292SOL     OW28774   0.988   1.707   6.872
 9292SOL    HW128775   1.062   1.660   6.920
 9292SOL    HW228776   0.992   1.684   6.775
 9293SOL     OW28777   4.850   1.101   5.141
 9293SOL    HW128778   4.901   1.098   5.055
 9293SOL    HW228779   4.890   1.170   5.201
 9294SOL     OW28780   5.086   6.110   5.995
 9294SOL    HW128781   5.073   6.035   5.930
 9294SOL    HW228782   5.155   6.085   6.062
 9295SOL     OW28783   6.375   0.597   3.029
 9295SOL    HW128784   6.294   0.539   3.030
 9295SOL    HW228785   6.418   0.595   3.120
 9296SOL     OW28786   1.485   4.143   5.407
 9296SOL    HW128787   1.551   4.183   5.344
 9296SOL    HW228788   1.400   4.195   5.404
 9297SOL     OW28789   6.610   5.151   1.934
 9297SOL    HW128790   6.697   5.199   1.950
 9297SOL    HW228791   6.570   5.126   2.023
 9298SOL     OW28792   0.391   4.591   6.275
 9298SOL    HW128793   0.447   4.636   6.206
 9298SOL    HW228794   0.439   4.510   6.310
 9299SOL     OW28795   3.139   1.739   3.930
 9299SOL    HW128796   3.177   1.649   3.911
 9299SOL    HW228797   3.214   1.804   3.947
 9300SOL     OW28798   2.365   5.512   5.765
 9300SOL    HW128799   2.424   5.431   5.756
 9300SOL    HW228800   2.315   5.526   5.680
 9301SOL     OW28801   0.764   3.799   4.303
 9301SOL    HW128802   0.696   3.805   4.376
 9301SOL    HW228803   0.809   3.887   4.292
 9302SOL     OW28804   3.215   5.502   4.040
 9302SOL    HW128805   3.212   5.450   4.126
 9302SOL    HW228806   3.303   5.548   4.033
 9303SOL     OW28807   2.436   4.545   6.880
 9303SOL    HW128808   2.480   4.489   6.810
 9303SOL    HW228809   2.346   4.574   6.848
 9304SOL     OW28810   5.855   5.807   6.253
 9304SOL    HW128811   5.927   5.876   6.255
 9304SOL    HW228812   5.813   5.804   6.162
 9305SOL     OW28813   1.561   1.565   1.078
 9305SOL    HW128814   1.555   1.642   1.141
 9305SOL    HW228815   1.584   1.598   0.987
 9306SOL     OW28816   6.866   6.341   4.322
 9306SOL    HW128817   6.943   6.282   4.297
 9306SOL    HW228818   6.809   6.294   4.390
 9307SOL     OW28819   2.124   3.946   1.323
 9307SOL    HW128820   2.200   3.952   1.259
 9307SOL    HW228821   2.127   4.023   1.387
 9308SOL     OW28822   2.432   3.800   1.428
 9308SOL    HW128823   2.393   3.825   1.340
 9308SOL    HW228824   2.371   3.735   1.474
 9309SOL     OW28825   4.459   5.146   5.794
 9309SOL    HW128826   4.491   5.089   5.870
 9309SOL    HW228827   4.492   5.108   5.708
 9310SOL     OW28828   6.568   6.040   5.908
 9310SOL    HW128829   6.505   6.106   5.949
 9310SOL    HW228830   6.601   6.075   5.820
 9311SOL     OW28831   5.798   4.432   0.577
 9311SOL    HW128832   5.773   4.345   0.619
 9311SOL    HW228833   5.734   4.453   0.503
 9312SOL     OW28834   5.719   3.313   4.230
 9312SOL    HW128835   5.633   3.272   4.260
 9312SOL    HW228836   5.727   3.406   4.266
 9313SOL     OW28837   0.564   0.683   2.214
 9313SOL    HW128838   0.628   0.738   2.268
 9313SOL    HW228839   0.595   0.680   2.119
 9314SOL     OW28840   4.529   4.754   1.144
 9314SOL    HW128841   4.599   4.761   1.216
 9314SOL    HW228842   4.535   4.833   1.084
 9315SOL     OW28843   6.142   5.157   5.724
 9315SOL    HW128844   6.221   5.139   5.782
 9315SOL    HW228845   6.114   5.253   5.734
 9316SOL     OW28846   5.786   6.785   0.738
 9316SOL    HW128847   5.811   6.700   0.690
 9316SOL    HW228848   5.716   6.833   0.685
 9317SOL     OW28849   2.534   6.426   2.999
 9317SOL    HW128850   2.614   6.421   2.938
 9317SOL    HW228851   2.452   6.400   2.948
 9318SOL     OW28852   3.366   6.991   3.513
 9318SOL    HW128853   3.442   6.953   3.566
 9318SOL    HW228854   3.401   0.011   3.429
 9319SOL     OW28855   3.521   1.946   0.126
 9319SOL    HW128856   3.515   1.909   0.033
 9319SOL    HW228857   3.565   2.036   0.123
 9320SOL     OW28858   6.675   6.536   0.001
 9320SOL    HW128859   6.620   6.461   0.037
 9320SOL    HW228860   6.750   6.555   0.063
 9321SOL     OW28861   0.713   2.770   3.990
 9321SOL    HW128862   0.741   2.675   4.007
 9321SOL    HW228863   0.790   2.831   4.008
 9322SOL     OW28864   5.106   2.830   6.864
 9322SOL    HW128865   5.031   2.896   6.858
 9322SOL    HW228866   5.192   2.879   6.878
 9323SOL     OW28867   0.685   2.004   5.526
 9323SOL    HW128868   0.688   2.002   5.426
 9323SOL    HW228869   0.591   2.013   5.557
 9324SOL     OW28870   0.375   4.501   0.887
 9324SOL    HW128871   0.396   4.487   0.984
 9324SOL    HW228872   0.352   4.597   0.871
 9325SOL     OW28873   1.049   4.773   3.199
 9325SOL    HW128874   0.988   4.779   3.120
 9325SOL    HW228875   1.081   4.865   3.224
 9326SOL     OW28876   4.957   4.660   1.465
 9326SOL    HW128877   4.874   4.707   1.436
 9326SOL    HW228878   4.960   4.657   1.565
 9327SOL     OW28879   2.574   1.554   3.267
 9327SOL    HW128880   2.559   1.460   3.234
 9327SOL    HW228881   2.641   1.553   3.341
 9328SOL     OW28882   1.090   6.995   3.323
 9328SOL    HW128883   1.098   6.920   3.257
 9328SOL    HW228884   1.142   0.053   3.290
 9329SOL     OW28885   1.927   5.050   6.319
 9329SOL    HW128886   1.951   4.972   6.377
 9329SOL    HW228887   1.930   5.134   6.374
 9330SOL     OW28888   0.302   6.367   0.889
 9330SOL    HW128889   0.268   6.440   0.830
 9330SOL    HW228890   0.226   6.313   0.925
 9331SOL     OW28891   2.024   5.029   4.440
 9331SOL    HW128892   2.100   4.973   4.473
 9331SOL    HW228893   1.940   4.977   4.444
 9332SOL     OW28894   6.477   5.204   0.330
 9332SOL    HW128895   6.429   5.238   0.249
 9332SOL    HW228896   6.575   5.219   0.319
 9333SOL     OW28897   2.010   4.790   1.068
 9333SOL    HW128898   2.103   4.801   1.031
 9333SOL    HW228899   1.956   4.872   1.048
 9334SOL     OW28900   6.770   5.215   6.981
 9334SOL    HW128901   6.834   5.147   6.945
 9334SOL    HW228902   6.812   5.306   6.976
 9335SOL     OW28903   0.231   3.405   1.026
 9335SOL    HW128904   0.326   3.418   1.054
 9335SOL    HW228905   0.172   3.464   1.082
 9336SOL     OW28906   4.207   5.909   5.460
 9336SOL    HW128907   4.248   5.947   5.544
 9336SOL    HW228908   4.109   5.928   5.459
 9337SOL     OW28909   3.011   1.496   4.921
 9337SOL    HW128910   3.039   1.453   5.007
 9337SOL    HW228911   2.966   1.583   4.941
 9338SOL     OW28912   4.949   6.272   0.867
 9338SOL    HW128913   4.984   6.178   0.877
 9338SOL    HW228914   4.850   6.269   0.851
 9339SOL     OW28915   6.646   3.492   5.191
 9339SOL    HW128916   6.645   3.587   5.225
 9339SOL    HW228917   6.568   3.478   5.130
 9340SOL     OW28918   2.471   4.797   2.390
 9340SOL    HW128919   2.531   4.877   2.390
 9340SOL    HW228920   2.500   4.732   2.320
 9341SOL     OW28921   5.729   5.469   0.124
 9341SOL    HW128922   5.823   5.490   0.097
 9341SOL    HW228923   5.724   5.376   0.160
 9342SOL     OW28924   2.839   0.257   5.182
 9342SOL    HW128925   2.900   0.257   5.262
 9342SOL    HW228926   2.748   0.229   5.210
 9343SOL     OW28927   5.212   3.514   1.496
 9343SOL    HW128928   5.273   3.534   1.573
 9343SOL    HW228929   5.150   3.440   1.522
 9344SOL     OW28930   5.683   7.009   5.172
 9344SOL    HW128931   5.683   6.911   5.152
 9344SOL    HW228932   5.652   0.039   5.091
 9345SOL     OW28933   6.939   4.720   6.639
 9345SOL    HW128934   7.015   4.753   6.695
 9345SOL    HW228935   6.966   4.636   6.593
 9346SOL     OW28936   5.358   0.291   2.023
 9346SOL    HW128937   5.310   0.370   1.985
 9346SOL    HW228938   5.323   0.272   2.115
 9347SOL     OW28939   4.890   6.762   1.842
 9347SOL    HW128940   4.800   6.730   1.813
 9347SOL    HW228941   4.887   6.860   1.860
 9348SOL     OW28942   2.450   5.177   2.251
 9348SOL    HW128943   2.530   5.131   2.290
 9348SOL    HW228944   2.473   5.272   2.231
 9349SOL     OW28945   6.213   6.028   0.645
 9349SOL    HW128946   6.274   6.045   0.722
 9349SOL    HW228947   6.225   5.934   0.613
 9350SOL     OW28948   6.332   0.278   0.059
 9350SOL    HW128949   6.268   0.222   0.007
 9350SOL    HW228950   6.286   0.315   0.140
 9351SOL     OW28951   4.785   3.699   6.323
 9351SOL    HW128952   4.800   3.717   6.421
 9351SOL    HW228953   4.694   3.730   6.297
 9352SOL     OW28954   2.354   2.128   0.001
 9352SOL    HW128955   2.313   2.208   0.043
 9352SOL    HW228956   2.403   2.156   6.939
 9353SOL     OW28957   1.095   3.204   2.037
 9353SOL    HW128958   1.033   3.257   2.094
 9353SOL    HW228959   1.043   3.133   1.989
 9354SOL     OW28960   5.571   2.284   2.530
 9354SOL    HW128961   5.666   2.293   2.498
 9354SOL    HW228962   5.572   2.266   2.629
 9355SOL     OW28963   0.102   1.549   2.336
 9355SOL    HW128964   0.139   1.527   2.246
 9355SOL    HW228965   0.108   1.468   2.395
 9356SOL     OW28966   4.962   2.643   2.594
 9356SOL    HW128967   4.897   2.705   2.638
 9356SOL    HW228968   4.914   2.561   2.563
 9357SOL     OW28969   2.403   4.827   0.173
 9357SOL    HW128970   2.461   4.746   0.165
 9357SOL    HW228971   2.309   4.799   0.193
 9358SOL     OW28972   5.206   3.322   2.268
 9358SOL    HW128973   5.232   3.254   2.199
 9358SOL    HW228974   5.116   3.300   2.304
 9359SOL     OW28975   4.866   5.737   6.140
 9359SOL    HW128976   4.926   5.716   6.217
 9359SOL    HW228977   4.905   5.698   6.056
 9360SOL     OW28978   1.470   1.211   5.246
 9360SOL    HW128979   1.558   1.229   5.290
 9360SOL    HW228980   1.485   1.154   5.165
 9361SOL     OW28981   2.188   1.425   2.724
 9361SOL    HW128982   2.160   1.340   2.681
 9361SOL    HW228983   2.118   1.495   2.707
 9362SOL     OW28984   2.115   1.503   3.116
 9362SOL    HW128985   2.196   1.561   3.131
 9362SOL    HW228986   2.093   1.501   3.019
 9363SOL     OW28987   1.175   6.624   2.176
 9363SOL    HW128988   1.122   6.688   2.231
 9363SOL    HW228989   1.150   6.634   2.079
 9364SOL     OW28990   5.354   4.046   1.011
 9364SOL    HW128991   5.413   3.989   1.069
 9364SOL    HW228992   5.401   4.131   0.989
 9365SOL     OW28993   1.765   1.388   3.997
 9365SOL    HW128994   1.707   1.468   4.013
 9365SOL    HW228995   1.760   1.362   3.901
 9366SOL     OW28996   3.062   1.446   2.205
 9366SOL    HW128997   3.152   1.460   2.163
 9366SOL    HW228998   2.995   1.426   2.134
 9367SOL     OW28999   6.214   6.563   3.865
 9367SOL    HW129000   6.129   6.520   3.894
 9367SOL    HW229001   6.199   6.609   3.777
 9368SOL     OW29002   5.062   2.822   0.691
 9368SOL    HW129003   5.037   2.886   0.618
 9368SOL    HW229004   5.150   2.849   0.730
 9369SOL     OW29005   0.447   1.957   5.055
 9369SOL    HW129006   0.415   2.043   5.015
 9369SOL    HW229007   0.534   1.973   5.102
 9370SOL     OW29008   5.576   5.501   3.140
 9370SOL    HW129009   5.675   5.507   3.147
 9370SOL    HW229010   5.548   5.507   3.044
 9371SOL     OW29011   1.069   0.129   0.386
 9371SOL    HW129012   1.161   0.090   0.377
 9371SOL    HW229013   1.009   0.090   0.316
 9372SOL     OW29014   5.802   5.968   6.885
 9372SOL    HW129015   5.739   6.046   6.882
 9372SOL    HW229016   5.751   5.884   6.902
 9373SOL     OW29017   5.503   2.409   4.238
 9373SOL    HW129018   5.508   2.475   4.163
 9373SOL    HW229019   5.534   2.453   4.323
 9374SOL     OW29020   4.934   4.129   0.125
 9374SOL    HW129021   4.835   4.145   0.131
 9374SOL    HW229022   4.951   4.031   0.114
 9375SOL     OW29023   6.547   0.775   4.385
 9375SOL    HW129024   6.528   0.857   4.438
 9375SOL    HW229025   6.527   0.694   4.440
 9376SOL     OW29026   2.039   3.034   1.426
 9376SOL    HW129027   1.963   3.012   1.487
 9376SOL    HW229028   2.022   2.994   1.336
 9377SOL     OW29029   5.932   5.157   2.934
 9377SOL    HW129030   6.004   5.101   2.974
 9377SOL    HW229031   5.855   5.098   2.909
 9378SOL     OW29032   3.393   6.269   1.108
 9378SOL    HW129033   3.414   6.311   1.019
 9378SOL    HW229034   3.472   6.215   1.138
 9379SOL     OW29035   5.349   4.913   5.176
 9379SOL    HW129036   5.388   4.826   5.148
 9379SOL    HW229037   5.272   4.936   5.117
 9380SOL     OW29038   6.272   6.055   6.009
 9380SOL    HW129039   6.204   6.038   5.938
 9380SOL    HW229040   6.273   6.152   6.033
 9381SOL     OW29041   1.436   0.470   6.933
 9381SOL    HW129042   1.502   0.428   6.995
 9381SOL    HW229043   1.404   0.557   6.972
 9382SOL     OW29044   5.686   1.875   2.920
 9382SOL    HW129045   5.600   1.869   2.870
 9382SOL    HW229046   5.759   1.834   2.865
 9383SOL     OW29047   6.530   5.563   5.980
 9383SOL    HW129048   6.506   5.477   5.935
 9383SOL    HW229049   6.483   5.639   5.936
 9384SOL     OW29050   3.970   6.380   3.183
 9384SOL    HW129051   3.887   6.429   3.210
 9384SOL    HW229052   4.040   6.391   3.253
 9385SOL     OW29053   3.754   0.913   4.423
 9385SOL    HW129054   3.782   0.881   4.513
 9385SOL    HW229055   3.708   1.001   4.432
 9386SOL     OW29056   4.288   0.701   5.556
 9386SOL    HW129057   4.353   0.659   5.493
 9386SOL    HW229058   4.289   0.650   5.643
 9387SOL     OW29059   4.289   5.827   0.731
 9387SOL    HW129060   4.348   5.781   0.665
 9387SOL    HW229061   4.281   5.771   0.814
 9388SOL     OW29062   6.665   6.811   2.212
 9388SOL    HW129063   6.587   6.832   2.271
 9388SOL    HW229064   6.668   6.713   2.195
 9389SOL     OW29065   3.101   1.783   6.633
 9389SOL    HW129066   3.077   1.851   6.564
 9389SOL    HW229067   3.128   1.698   6.588
 9390SOL     OW29068   3.180   5.516   1.219
 9390SOL    HW129069   3.120   5.480   1.291
 9390SOL    HW229070   3.187   5.449   1.146
 9391SOL     OW29071   6.588   1.496   5.007
 9391SOL    HW129072   6.678   1.538   5.024
 9391SOL    HW229073   6.588   1.453   4.917
 9392SOL     OW29074   0.724   6.621   4.636
 9392SOL    HW129075   0.761   6.565   4.709
 9392SOL    HW229076   0.748   6.580   4.547
 9393SOL     OW29077   4.045   1.855   4.761
 9393SOL    HW129078   4.006   1.763   4.757
 9393SOL    HW229079   4.133   1.856   4.713
 9394SOL     OW29080   6.229   2.578   1.589
 9394SOL    HW129081   6.153   2.566   1.525
 9394SOL    HW229082   6.289   2.651   1.556
 9395SOL     OW29083   1.817   2.950   6.033
 9395SOL    HW129084   1.851   2.906   6.117
 9395SOL    HW229085   1.804   3.048   6.050
 9396SOL     OW29086   0.139   1.196   6.268
 9396SOL    HW129087   0.081   1.275   6.286
 9396SOL    HW229088   0.117   1.158   6.178
 9397SOL     OW29089   2.323   2.343   0.682
 9397SOL    HW129090   2.348   2.265   0.738
 9397SOL    HW229091   2.376   2.423   0.710
 9398SOL     OW29092   2.507   1.601   0.963
 9398SOL    HW129093   2.444   1.660   1.013
 9398SOL    HW229094   2.600   1.614   0.997
 9399SOL     OW29095   0.351   0.383   5.787
 9399SOL    HW129096   0.424   0.330   5.743
 9399SOL    HW229097   0.384   0.476   5.805
 9400SOL     OW29098   4.159   1.520   3.138
 9400SOL    HW129099   4.059   1.521   3.146
 9400SOL    HW229100   4.199   1.536   3.228
 9401SOL     OW29101   4.786   6.467   4.176
 9401SOL    HW129102   4.874   6.494   4.137
 9401SOL    HW229103   4.713   6.490   4.111
 9402SOL     OW29104   2.474   5.208   7.016
 9402SOL    HW129105   2.546   5.246   0.054
 9402SOL    HW229106   2.510   5.197   6.923
 9403SOL     OW29107   5.532   0.015   4.520
 9403SOL    HW129108   5.523   0.049   4.426
 9403SOL    HW229109   5.502   6.940   4.524
 9404SOL     OW29110   1.161   4.015   5.574
 9404SOL    HW129111   1.187   3.919   5.569
 9404SOL    HW229112   1.104   4.030   5.655
 9405SOL     OW29113   0.544   0.216   0.755
 9405SOL    HW129114   0.623   0.163   0.785
 9405SOL    HW229115   0.516   0.186   0.664
 9406SOL     OW29116   6.598   1.120   5.029
 9406SOL    HW129117   6.565   1.167   5.111
 9406SOL    HW229118   6.523   1.113   4.963
 9407SOL     OW29119   4.136   5.279   3.276
 9407SOL    HW129120   4.069   5.244   3.341
 9407SOL    HW229121   4.213   5.320   3.325
 9408SOL     OW29122   4.105   1.867   7.016
 9408SOL    HW129123   4.152   1.956   0.004
 9408SOL    HW229124   4.167   1.795   0.026
 9409SOL     OW29125   6.113   3.603   3.648
 9409SOL    HW129126   6.031   3.659   3.662
 9409SOL    HW229127   6.088   3.507   3.644
 9410SOL     OW29128   4.070   6.974   1.604
 9410SOL    HW129129   3.993   0.000   1.649
 9410SOL    HW229130   4.098   0.005   1.524
 9411SOL     OW29131   4.837   5.497   1.597
 9411SOL    HW129132   4.902   5.566   1.565
 9411SOL    HW229133   4.800   5.526   1.685
 9412SOL     OW29134   6.053   3.144   3.236
 9412SOL    HW129135   5.997   3.092   3.302
 9412SOL    HW229136   6.024   3.121   3.143
 9413SOL     OW29137   3.536   5.191   3.897
 9413SOL    HW129138   3.536   5.208   3.798
 9413SOL    HW229139   3.608   5.126   3.920
 9414SOL     OW29140   2.350   0.899   2.394
 9414SOL    HW129141   2.276   0.917   2.330
 9414SOL    HW229142   2.438   0.912   2.347
 9415SOL     OW29143   2.323   1.299   2.437
 9415SOL    HW129144   2.397   1.253   2.486
 9415SOL    HW229145   2.323   1.396   2.460
 9416SOL     OW29146   1.595   2.505   1.491
 9416SOL    HW129147   1.506   2.489   1.534
 9416SOL    HW229148   1.665   2.516   1.561
 9417SOL     OW29149   1.725   0.162   5.012
 9417SOL    HW129150   1.755   0.096   5.080
 9417SOL    HW229151   1.688   0.113   4.932
 9418SOL     OW29152   4.441   3.949   1.404
 9418SOL    HW129153   4.514   3.894   1.363
 9418SOL    HW229154   4.417   4.024   1.343
 9419SOL     OW29155   2.923   5.197   4.242
 9419SOL    HW129156   2.854   5.238   4.302
 9419SOL    HW229157   2.879   5.158   4.161
 9420SOL     OW29158   1.578   1.457   4.377
 9420SOL    HW129159   1.499   1.414   4.333
 9420SOL    HW229160   1.618   1.394   4.444
 9421SOL     OW29161   1.774   5.406   4.335
 9421SOL    HW129162   1.730   5.326   4.375
 9421SOL    HW229163   1.863   5.421   4.379
 9422SOL     OW29164   4.222   1.340   2.570
 9422SOL    HW129165   4.265   1.251   2.557
 9422SOL    HW229166   4.205   1.356   2.667
 9423SOL     OW29167   4.830   0.010   4.413
 9423SOL    HW129168   4.858   7.015   4.319
 9423SOL    HW229169   4.841   0.107   4.436
 9424SOL     OW29170   3.293   6.104   4.004
 9424SOL    HW129171   3.328   6.149   4.087
 9424SOL    HW229172   3.239   6.168   3.951
 9425SOL     OW29173   1.164   5.282   3.406
 9425SOL    HW129174   1.124   5.279   3.498
 9425SOL    HW229175   1.263   5.280   3.413
 9426SOL     OW29176   3.452   5.616   0.969
 9426SOL    HW129177   3.447   5.716   0.973
 9426SOL    HW229178   3.376   5.581   0.915
 9427SOL     OW29179   2.764   5.181   4.032
 9427SOL    HW129180   2.815   5.253   3.985
 9427SOL    HW229181   2.729   5.115   3.964
 9428SOL     OW29182   5.168   6.341   2.367
 9428SOL    HW129183   5.111   6.419   2.394
 9428SOL    HW229184   5.201   6.355   2.274
 9429SOL     OW29185   0.280   3.247   3.058
 9429SOL    HW129186   0.358   3.298   3.021
 9429SOL    HW229187   0.260   3.279   3.151
 9430SOL     OW29188   5.719   6.980   1.925
 9430SOL    HW129189   5.648   0.020   1.890
 9430SOL    HW229190   5.809   7.014   1.897
 9431SOL     OW29191   6.553   4.204   0.128
 9431SOL    HW129192   6.474   4.149   0.155
 9431SOL    HW229193   6.597   4.162   0.049
 9432SOL     OW29194   6.697   6.692   4.127
 9432SOL    HW129195   6.643   6.701   4.043
 9432SOL    HW229196   6.790   6.661   4.104
 9433SOL     OW29197   2.737   5.269   4.450
 9433SOL    HW129198   2.761   5.220   4.533
 9433SOL    HW229199   2.713   5.364   4.473
 9434SOL     OW29200   5.287   4.109   2.868
 9434SOL    HW129201   5.345   4.113   2.948
 9434SOL    HW229202   5.314   4.179   2.802
 9435SOL     OW29203   1.714   2.428   4.946
 9435SOL    HW129204   1.700   2.437   5.045
 9435SOL    HW229205   1.744   2.334   4.926
 9436SOL     OW29206   2.869   1.927   5.543
 9436SOL    HW129207   2.841   1.889   5.455
 9436SOL    HW229208   2.813   2.007   5.564
 9437SOL     OW29209   0.484   5.255   4.075
 9437SOL    HW129210   0.499   5.170   4.025
 9437SOL    HW229211   0.391   5.287   4.059
 9438SOL     OW29212   0.537   6.437   2.386
 9438SOL    HW129213   0.556   6.478   2.297
 9438SOL    HW229214   0.546   6.507   2.457
 9439SOL     OW29215   1.110   3.592   1.353
 9439SOL    HW129216   1.133   3.500   1.386
 9439SOL    HW229217   1.044   3.585   1.279
 9440SOL     OW29218   3.747   5.618   4.756
 9440SOL    HW129219   3.819   5.550   4.770
 9440SOL    HW229220   3.710   5.608   4.663
 9441SOL     OW29221   1.714   5.923   5.441
 9441SOL    HW129222   1.757   5.967   5.363
 9441SOL    HW229223   1.778   5.860   5.485
 9442SOL     OW29224   0.651   3.722   1.170
 9442SOL    HW129225   0.660   3.718   1.269
 9442SOL    HW229226   0.602   3.806   1.145
 9443SOL     OW29227   1.316   3.158   1.271
 9443SOL    HW129228   1.374   3.086   1.235
 9443SOL    HW229229   1.371   3.223   1.324
 9444SOL     OW29230   1.433   4.409   5.756
 9444SOL    HW129231   1.479   4.328   5.720
 9444SOL    HW229232   1.335   4.391   5.763
 9445SOL     OW29233   6.364   3.177   1.827
 9445SOL    HW129234   6.371   3.080   1.804
 9445SOL    HW229235   6.350   3.230   1.744
 9446SOL     OW29236   6.055   4.511   0.521
 9446SOL    HW129237   6.119   4.435   0.528
 9446SOL    HW229238   5.961   4.476   0.526
 9447SOL     OW29239   6.037   1.675   1.883
 9447SOL    HW129240   5.962   1.738   1.902
 9447SOL    HW229241   6.115   1.696   1.942
 9448SOL     OW29242   5.830   5.908   0.537
 9448SOL    HW129243   5.755   5.942   0.594
 9448SOL    HW229244   5.852   5.814   0.563
 9449SOL     OW29245   6.423   4.847   5.408
 9449SOL    HW129246   6.503   4.796   5.439
 9449SOL    HW229247   6.385   4.899   5.485
 9450SOL     OW29248   2.853   6.209   4.077
 9450SOL    HW129249   2.863   6.153   3.994
 9450SOL    HW229250   2.812   6.297   4.052
 9451SOL     OW29251   4.074   3.875   5.967
 9451SOL    HW129252   4.141   3.840   5.901
 9451SOL    HW229253   3.999   3.919   5.918
 9452SOL     OW29254   3.250   4.193   1.118
 9452SOL    HW129255   3.169   4.209   1.060
 9452SOL    HW229256   3.327   4.245   1.082
 9453SOL     OW29257   3.065   5.292   1.360
 9453SOL    HW129258   3.062   5.197   1.332
 9453SOL    HW229259   3.030   5.301   1.453
 9454SOL     OW29260   2.072   1.924   5.420
 9454SOL    HW129261   2.073   1.889   5.327
 9454SOL    HW229262   2.115   1.857   5.481
 9455SOL     OW29263   1.960   1.990   2.543
 9455SOL    HW129264   2.048   2.006   2.499
 9455SOL    HW229265   1.887   2.017   2.480
 9456SOL     OW29266   1.144   3.352   0.845
 9456SOL    HW129267   1.200   3.360   0.927
 9456SOL    HW229268   1.196   3.384   0.766
 9457SOL     OW29269   6.429   3.644   6.984
 9457SOL    HW129270   6.425   3.550   6.950
 9457SOL    HW229271   6.441   3.706   6.907
 9458SOL     OW29272   0.997   6.014   4.574
 9458SOL    HW129273   1.047   6.076   4.514
 9458SOL    HW229274   0.917   5.978   4.524
 9459SOL     OW29275   4.342   6.027   1.936
 9459SOL    HW129276   4.263   5.967   1.949
 9459SOL    HW229277   4.312   6.122   1.929
 9460SOL     OW29278   0.945   2.669   5.691
 9460SOL    HW129279   0.873   2.735   5.670
 9460SOL    HW229280   0.919   2.617   5.772
 9461SOL     OW29281   1.759   0.666   2.299
 9461SOL    HW129282   1.776   0.585   2.355
 9461SOL    HW229283   1.721   0.738   2.357
 9462SOL     OW29284   0.400   3.003   3.220
 9462SOL    HW129285   0.370   3.091   3.183
 9462SOL    HW229286   0.440   3.018   3.311
 9463SOL     OW29287   5.758   1.897   6.710
 9463SOL    HW129288   5.849   1.935   6.694
 9463SOL    HW229289   5.766   1.813   6.764
 9464SOL     OW29290   4.336   6.712   5.829
 9464SOL    HW129291   4.319   6.747   5.737
 9464SOL    HW229292   4.278   6.632   5.846
 9465SOL     OW29293   5.381   6.450   4.457
 9465SOL    HW129294   5.437   6.525   4.493
 9465SOL    HW229295   5.312   6.486   4.395
 9466SOL     OW29296   2.737   1.587   0.045
 9466SOL    HW129297   2.776   1.672   0.012
 9466SOL    HW229298   2.656   1.564   7.012
 9467SOL     OW29299   2.076   3.287   2.011
 9467SOL    HW129300   2.103   3.384   2.016
 9467SOL    HW229301   1.981   3.280   1.981
 9468SOL     OW29302   0.484   2.699   6.232
 9468SOL    HW129303   0.503   2.706   6.330
 9468SOL    HW229304   0.448   2.787   6.199
 9469SOL     OW29305   6.918   4.446   2.800
 9469SOL    HW129306   6.918   4.449   2.700
 9469SOL    HW229307   7.011   4.432   2.833
 9470SOL     OW29308   6.240   3.280   1.598
 9470SOL    HW129309   6.249   3.345   1.523
 9470SOL    HW229310   6.224   3.188   1.562
 9471SOL     OW29311   0.311   2.925   6.183
 9471SOL    HW129312   0.350   2.983   6.112
 9471SOL    HW229313   0.224   2.886   6.151
 9472SOL     OW29314   6.497   2.409   4.520
 9472SOL    HW129315   6.491   2.503   4.487
 9472SOL    HW229316   6.414   2.387   4.571
 9473SOL     OW29317   3.394   5.803   5.279
 9473SOL    HW129318   3.416   5.744   5.201
 9473SOL    HW229319   3.316   5.860   5.257
 9474SOL     OW29320   3.244   5.289   3.493
 9474SOL    HW129321   3.195   5.371   3.522
 9474SOL    HW229322   3.197   5.247   3.416
 9475SOL     OW29323   1.776   3.181   1.524
 9475SOL    HW129324   1.771   3.229   1.436
 9475SOL    HW229325   1.838   3.230   1.585
 9476SOL     OW29326   2.957   3.755   5.607
 9476SOL    HW129327   2.983   3.736   5.512
 9476SOL    HW229328   2.989   3.847   5.632
 9477SOL     OW29329   0.555   2.086   1.169
 9477SOL    HW129330   0.623   2.123   1.232
 9477SOL    HW229331   0.517   2.160   1.114
 9478SOL     OW29332   5.303   4.039   5.471
 9478SOL    HW129333   5.250   4.072   5.393
 9478SOL    HW229334   5.245   4.040   5.553
 9479SOL     OW29335   6.011   5.748   5.127
 9479SOL    HW129336   6.040   5.778   5.036
 9479SOL    HW229337   5.918   5.711   5.122
 9480SOL     OW29338   5.685   3.882   6.320
 9480SOL    HW129339   5.632   3.829   6.254
 9480SOL    HW229340   5.704   3.825   6.400
 9481SOL     OW29341   6.938   3.531   2.456
 9481SOL    HW129342   0.012   3.533   2.425
 9481SOL    HW229343   6.925   3.598   2.530
 9482SOL     OW29344   4.227   0.130   2.429
 9482SOL    HW129345   4.172   0.108   2.510
 9482SOL    HW229346   4.323   0.110   2.448
 9483SOL     OW29347   1.777   1.833   0.591
 9483SOL    HW129348   1.864   1.828   0.542
 9483SOL    HW229349   1.767   1.924   0.632
 9484SOL     OW29350   5.969   0.737   2.862
 9484SOL    HW129351   5.924   0.697   2.942
 9484SOL    HW229352   5.995   0.665   2.798
 9485SOL     OW29353   1.053   6.826   2.718
 9485SOL    HW129354   1.139   6.856   2.759
 9485SOL    HW229355   1.003   6.905   2.682
 9486SOL     OW29356   2.910   6.256   2.637
 9486SOL    HW129357   2.967   6.215   2.566
 9486SOL    HW229358   2.842   6.190   2.669
 9487SOL     OW29359   2.869   3.621   3.390
 9487SOL    HW129360   2.864   3.710   3.436
 9487SOL    HW229361   2.868   3.635   3.291
 9488SOL     OW29362   1.121   1.323   1.444
 9488SOL    HW129363   1.125   1.340   1.345
 9488SOL    HW229364   1.030   1.346   1.478
 9489SOL     OW29365   2.830   4.192   0.826
 9489SOL    HW129366   2.787   4.267   0.776
 9489SOL    HW229367   2.881   4.134   0.763
 9490SOL     OW29368   5.065   1.652   6.967
 9490SOL    HW129369   4.971   1.669   6.998
 9490SOL    HW229370   5.112   1.594   0.013
 9491SOL     OW29371   6.835   5.187   5.569
 9491SOL    HW129372   6.848   5.286   5.565
 9491SOL    HW229373   6.775   5.164   5.646
 9492SOL     OW29374   2.708   4.307   1.422
 9492SOL    HW129375   2.798   4.327   1.382
 9492SOL    HW229376   2.639   4.365   1.381
 9493SOL     OW29377   5.660   6.327   2.659
 9493SOL    HW129378   5.662   6.295   2.564
 9493SOL    HW229379   5.569   6.361   2.681
 9494SOL     OW29380   3.326   2.820   5.946
 9494SOL    HW129381   3.404   2.861   5.993
 9494SOL    HW229382   3.267   2.892   5.909
 9495SOL     OW29383   5.699   2.231   4.599
 9495SOL    HW129384   5.706   2.139   4.637
 9495SOL    HW229385   5.605   2.246   4.568
 9496SOL     OW29386   6.153   3.908   0.164
 9496SOL    HW129387   6.061   3.921   0.200
 9496SOL    HW229388   6.150   3.904   0.064
 9497SOL     OW29389   0.867   5.815   5.964
 9497SOL    HW129390   0.933   5.811   6.039
 9497SOL    HW229391   0.800   5.887   5.982
 9498SOL     OW29392   3.653   0.674   6.722
 9498SOL    HW129393   3.735   0.694   6.669
 9498SOL    HW229394   3.672   0.598   6.785
 9499SOL     OW29395   4.166   4.568   6.236
 9499SOL    HW129396   4.246   4.523   6.275
 9499SOL    HW229397   4.191   4.657   6.198
 9500SOL     OW29398   5.466   5.821   1.698
 9500SOL    HW129399   5.446   5.778   1.610
 9500SOL    HW229400   5.527   5.763   1.751
 9501SOL     OW29401   2.972   1.832   4.946
 9501SOL    HW129402   2.982   1.839   4.847
 9501SOL    HW229403   2.880   1.801   4.968
 9502SOL     OW29404   4.042   3.252   5.933
 9502SOL    HW129405   3.978   3.317   5.892
 9502SOL    HW229406   4.077   3.191   5.862
 9503SOL     OW29407   1.523   6.859   1.556
 9503SOL    HW129408   1.518   6.833   1.653
 9503SOL    HW229409   1.548   6.955   1.548
 9504SOL     OW29410   0.723   3.245   6.956
 9504SOL    HW129411   0.663   3.171   6.987
 9504SOL    HW229412   0.813   3.209   6.935
 9505SOL     OW29413   4.769   2.956   3.415
 9505SOL    HW129414   4.807   2.865   3.424
 9505SOL    HW229415   4.672   2.954   3.439
 9506SOL     OW29416   0.141   2.153   1.013
 9506SOL    HW129417   0.059   2.126   1.064
 9506SOL    HW229418   0.120   2.156   0.915
 9507SOL     OW29419   1.199   2.217   4.656
 9507SOL    HW129420   1.229   2.281   4.586
 9507SOL    HW229421   1.273   2.153   4.677
 9508SOL     OW29422   4.884   1.514   6.150
 9508SOL    HW129423   4.833   1.588   6.195
 9508SOL    HW229424   4.969   1.497   6.200
 9509SOL     OW29425   3.209   6.490   6.180
 9509SOL    HW129426   3.112   6.479   6.161
 9509SOL    HW229427   3.239   6.582   6.155
 9510SOL     OW29428   6.731   4.382   3.007
 9510SOL    HW129429   6.773   4.419   2.924
 9510SOL    HW229430   6.756   4.285   3.016
 9511SOL     OW29431   2.117   1.154   1.413
 9511SOL    HW129432   2.181   1.223   1.447
 9511SOL    HW229433   2.168   1.083   1.363
 9512SOL     OW29434   1.462   3.148   4.970
 9512SOL    HW129435   1.526   3.122   5.043
 9512SOL    HW229436   1.483   3.240   4.937
 9513SOL     OW29437   2.279   4.438   4.205
 9513SOL    HW129438   2.184   4.449   4.233
 9513SOL    HW229439   2.339   4.456   4.284
 9514SOL     OW29440   2.715   2.813   6.200
 9514SOL    HW129441   2.737   2.896   6.149
 9514SOL    HW229442   2.620   2.787   6.183
 9515SOL     OW29443   2.509   5.274   5.738
 9515SOL    HW129444   2.502   5.211   5.660
 9515SOL    HW229445   2.545   5.224   5.817
 9516SOL     OW29446   5.406   4.335   5.577
 9516SOL    HW129447   5.355   4.263   5.530
 9516SOL    HW229448   5.348   4.375   5.648
 9517SOL     OW29449   0.818   5.683   1.897
 9517SOL    HW129450   0.812   5.607   1.831
 9517SOL    HW229451   0.830   5.646   1.989
 9518SOL     OW29452   0.745   3.181   5.288
 9518SOL    HW129453   0.702   3.116   5.350
 9518SOL    HW229454   0.685   3.197   5.210
 9519SOL     OW29455   3.521   2.862   3.322
 9519SOL    HW129456   3.450   2.905   3.378
 9519SOL    HW229457   3.608   2.910   3.338
 9520SOL     OW29458   5.183   0.540   6.316
 9520SOL    HW129459   5.114   0.489   6.266
 9520SOL    HW229460   5.266   0.485   6.327
 9521SOL     OW29461   3.477   1.453   1.409
 9521SOL    HW129462   3.550   1.506   1.367
 9521SOL    HW229463   3.449   1.496   1.495
 9522SOL     OW29464   3.325   6.396   1.350
 9522SOL    HW129465   3.400   6.369   1.409
 9522SOL    HW229466   3.343   6.364   1.257
 9523SOL     OW29467   2.638   4.934   4.247
 9523SOL    HW129468   2.671   5.023   4.217
 9523SOL    HW229469   2.697   4.862   4.209
 9524SOL     OW29470   2.047   4.085   0.210
 9524SOL    HW129471   2.102   4.127   0.283
 9524SOL    HW229472   2.093   4.099   0.122
 9525SOL     OW29473   2.359   3.013   5.911
 9525SOL    HW129474   2.362   2.930   5.855
 9525SOL    HW229475   2.285   3.072   5.878
 9526SOL     OW29476   5.236   5.447   6.934
 9526SOL    HW129477   5.333   5.466   6.944
 9526SOL    HW229478   5.210   5.450   6.837
 9527SOL     OW29479   4.155   0.015   4.965
 9527SOL    HW129480   4.188   6.950   4.926
 9527SOL    HW229481   4.138   0.003   5.063
 9528SOL     OW29482   5.180   2.558   0.372
 9528SOL    HW129483   5.131   2.521   0.293
 9528SOL    HW229484   5.157   2.504   0.454
 9529SOL     OW29485   5.537   0.899   1.703
 9529SOL    HW129486   5.617   0.929   1.651
 9529SOL    HW229487   5.501   0.975   1.757
 9530SOL     OW29488   1.101   5.570   3.645
 9530SOL    HW129489   1.133   5.501   3.709
 9530SOL    HW229490   1.008   5.547   3.616
 9531SOL     OW29491   3.279   5.462   2.343
 9531SOL    HW129492   3.375   5.440   2.324
 9531SOL    HW229493   3.247   5.530   2.276
 9532SOL     OW29494   6.169   4.819   3.818
 9532SOL    HW129495   6.217   4.897   3.778
 9532SOL    HW229496   6.086   4.850   3.864
 9533SOL     OW29497   1.685   4.002   3.126
 9533SOL    HW129498   1.609   3.987   3.062
 9533SOL    HW229499   1.659   3.966   3.216
 9534SOL     OW29500   5.203   5.224   4.456
 9534SOL    HW129501   5.238   5.318   4.458
 9534SOL    HW229502   5.253   5.168   4.522
 9535SOL     OW29503   0.266   1.652   4.124
 9535SOL    HW129504   0.175   1.651   4.082
 9535SOL    HW229505   0.257   1.635   4.222
 9536SOL     OW29506   3.171   4.090   4.636
 9536SOL    HW129507   3.227   4.036   4.573
 9536SOL    HW229508   3.087   4.118   4.590
 9537SOL     OW29509   6.612   1.302   4.227
 9537SOL    HW129510   6.598   1.213   4.185
 9537SOL    HW229511   6.651   1.365   4.159
 9538SOL     OW29512   5.163   6.655   5.047
 9538SOL    HW129513   5.075   6.648   4.999
 9538SOL    HW229514   5.173   6.748   5.083
 9539SOL     OW29515   3.122   4.000   2.641
 9539SOL    HW129516   3.148   4.077   2.700
 9539SOL    HW229517   3.204   3.949   2.615
 9540SOL     OW29518   4.335   4.648   3.308
 9540SOL    HW129519   4.374   4.605   3.389
 9540SOL    HW229520   4.247   4.689   3.331
 9541SOL     OW29521   1.916   5.380   5.316
 9541SOL    HW129522   1.901   5.345   5.409
 9541SOL    HW229523   1.973   5.462   5.321
 9542SOL     OW29524   6.092   4.142   3.256
 9542SOL    HW129525   6.181   4.100   3.238
 9542SOL    HW229526   6.105   4.237   3.284
 9543SOL     OW29527   2.207   0.365   5.926
 9543SOL    HW129528   2.280   0.331   5.986
 9543SOL    HW229529   2.235   0.451   5.885
 9544SOL     OW29530   6.102   3.645   4.778
 9544SOL    HW129531   6.135   3.551   4.773
 9544SOL    HW229532   6.004   3.646   4.757
 9545SOL     OW29533   6.663   4.488   2.106
 9545SOL    HW129534   6.572   4.447   2.102
 9545SOL    HW229535   6.660   4.581   2.069
 9546SOL     OW29536   2.738   2.910   1.414
 9546SOL    HW129537   2.777   2.827   1.376
 9546SOL    HW229538   2.689   2.960   1.342
 9547SOL     OW29539   4.419   0.080   3.449
 9547SOL    HW129540   4.327   0.118   3.446
 9547SOL    HW229541   4.485   0.152   3.469
 9548SOL     OW29542   0.609   4.864   6.565
 9548SOL    HW129543   0.670   4.911   6.501
 9548SOL    HW229544   0.536   4.927   6.593
 9549SOL     OW29545   4.119   2.186   1.282
 9549SOL    HW129546   4.203   2.173   1.229
 9549SOL    HW229547   4.116   2.119   1.357
 9550SOL     OW29548   6.277   3.076   2.089
 9550SOL    HW129549   6.231   2.987   2.079
 9550SOL    HW229550   6.287   3.119   1.999
 9551SOL     OW29551   5.854   2.815   6.655
 9551SOL    HW129552   5.759   2.823   6.624
 9551SOL    HW229553   5.870   2.723   6.689
 9552SOL     OW29554   3.160   1.847   0.897
 9552SOL    HW129555   3.129   1.842   0.802
 9552SOL    HW229556   3.196   1.939   0.915
 9553SOL     OW29557   5.574   1.360   6.565
 9553SOL    HW129558   5.636   1.367   6.643
 9553SOL    HW229559   5.590   1.437   6.502
 9554SOL     OW29560   3.001   0.772   3.538
 9554SOL    HW129561   3.086   0.741   3.579
 9554SOL    HW229562   2.991   0.870   3.553
 9555SOL     OW29563   0.060   0.203   3.365
 9555SOL    HW129564   0.055   0.250   3.453
 9555SOL    HW229565   6.993   0.211   3.317
 9556SOL     OW29566   2.135   4.868   6.826
 9556SOL    HW129567   2.223   4.914   6.844
 9556SOL    HW229568   2.151   4.771   6.810
 9557SOL     OW29569   5.777   0.654   1.026
 9557SOL    HW129570   5.719   0.604   1.089
 9557SOL    HW229571   5.852   0.595   0.996
 9558SOL     OW29572   4.939   6.385   6.393
 9558SOL    HW129573   4.960   6.314   6.461
 9558SOL    HW229574   4.914   6.342   6.306
 9559SOL     OW29575   1.816   4.566   0.024
 9559SOL    HW129576   1.748   4.540   6.976
 9559SOL    HW229577   1.800   4.661   0.053
 9560SOL     OW29578   2.850   0.138   2.335
 9560SOL    HW129579   2.770   0.129   2.395
 9560SOL    HW229580   2.858   0.057   2.278
 9561SOL     OW29581   0.939   0.762   0.358
 9561SOL    HW129582   0.973   0.681   0.407
 9561SOL    HW229583   0.952   0.843   0.416
 9562SOL     OW29584   2.340   6.221   2.628
 9562SOL    HW129585   2.372   6.187   2.716
 9562SOL    HW229586   2.407   6.286   2.591
 9563SOL     OW29587   0.767   5.885   6.453
 9563SOL    HW129588   0.798   5.955   6.389
 9563SOL    HW229589   0.727   5.809   6.402
 9564SOL     OW29590   1.916   1.058   0.704
 9564SOL    HW129591   1.866   1.051   0.618
 9564SOL    HW229592   2.012   1.078   0.685
 9565SOL     OW29593   2.722   1.679   4.528
 9565SOL    HW129594   2.774   1.760   4.500
 9565SOL    HW229595   2.782   1.618   4.579
 9566SOL     OW29596   3.543   0.133   0.137
 9566SOL    HW129597   3.463   0.151   0.193
 9566SOL    HW229598   3.532   0.176   0.048
 9567SOL     OW29599   7.021   4.108   1.077
 9567SOL    HW129600   0.023   4.069   0.988
 9567SOL    HW229601   0.069   4.176   1.102
 9568SOL     OW29602   4.337   1.523   6.702
 9568SOL    HW129603   4.422   1.558   6.742
 9568SOL    HW229604   4.283   1.599   6.666
 9569SOL     OW29605   5.916   0.227   2.052
 9569SOL    HW129606   5.836   0.242   2.110
 9569SOL    HW229607   5.994   0.200   2.109
 9570SOL     OW29608   0.636   3.236   1.755
 9570SOL    HW129609   0.705   3.259   1.823
 9570SOL    HW229610   0.629   3.137   1.745
 9571SOL     OW29611   1.629   1.380   6.930
 9571SOL    HW129612   1.639   1.341   6.838
 9571SOL    HW229613   1.590   1.312   6.991
 9572SOL     OW29614   2.402   4.535   4.412
 9572SOL    HW129615   2.468   4.600   4.450
 9572SOL    HW229616   2.395   4.456   4.473
 9573SOL     OW29617   6.557   0.195   4.538
 9573SOL    HW129618   6.468   0.200   4.494
 9573SOL    HW229619   6.545   0.173   4.635
 9574SOL     OW29620   4.050   3.297   0.968
 9574SOL    HW129621   3.986   3.245   0.912
 9574SOL    HW229622   4.044   3.394   0.946
 9575SOL     OW29623   5.409   6.498   1.879
 9575SOL    HW129624   5.356   6.493   1.963
 9575SOL    HW229625   5.379   6.577   1.825
 9576SOL     OW29626   0.818   0.473   6.451
 9576SOL    HW129627   0.893   0.451   6.388
 9576SOL    HW229628   0.856   0.496   6.540
 9577SOL     OW29629   6.610   5.403   2.597
 9577SOL    HW129630   6.539   5.472   2.588
 9577SOL    HW229631   6.587   5.323   2.542
 9578SOL     OW29632   1.765   3.769   2.398
 9578SOL    HW129633   1.782   3.699   2.468
 9578SOL    HW229634   1.786   3.732   2.308
 9579SOL     OW29635   5.892   6.094   2.349
 9579SOL    HW129636   5.849   6.006   2.369
 9579SOL    HW229637   5.964   6.082   2.282
 9580SOL     OW29638   5.136   3.890   3.312
 9580SOL    HW129639   5.214   3.832   3.289
 9580SOL    HW229640   5.151   3.982   3.276
 9581SOL     OW29641   5.728   1.496   0.255
 9581SOL    HW129642   5.719   1.455   0.346
 9581SOL    HW229643   5.778   1.434   0.195
 9582SOL     OW29644   5.506   6.236   5.192
 9582SOL    HW129645   5.527   6.323   5.147
 9582SOL    HW229646   5.499   6.164   5.124
 9583SOL     OW29647   3.469   4.961   1.834
 9583SOL    HW129648   3.495   4.889   1.897
 9583SOL    HW229649   3.431   5.039   1.885
 9584SOL     OW29650   2.498   5.573   3.909
 9584SOL    HW129651   2.564   5.645   3.887
 9584SOL    HW229652   2.458   5.591   3.999
 9585SOL     OW29653   4.393   5.960   1.110
 9585SOL    HW129654   4.333   6.037   1.131
 9585SOL    HW229655   4.464   5.953   1.180
 9586SOL     OW29656   4.142   5.387   2.937
 9586SOL    HW129657   4.173   5.428   3.023
 9586SOL    HW229658   4.187   5.298   2.926
 9587SOL     OW29659   3.405   5.894   0.983
 9587SOL    HW129660   3.337   5.920   0.915
 9587SOL    HW229661   3.361   5.881   1.072
 9588SOL     OW29662   6.820   5.792   0.304
 9588SOL    HW129663   6.750   5.838   0.360
 9588SOL    HW229664   6.794   5.697   0.290
 9589SOL     OW29665   2.118   3.093   6.467
 9589SOL    HW129666   2.170   3.020   6.511
 9589SOL    HW229667   2.031   3.106   6.515
 9590SOL     OW29668   6.333   0.489   1.118
 9590SOL    HW129669   6.377   0.466   1.032
 9590SOL    HW229670   6.402   0.499   1.190
 9591SOL     OW29671   4.509   0.736   0.267
 9591SOL    HW129672   4.498   0.789   0.351
 9591SOL    HW229673   4.447   0.771   0.197
 9592SOL     OW29674   2.483   6.649   5.892
 9592SOL    HW129675   2.455   6.555   5.910
 9592SOL    HW229676   2.545   6.651   5.814
 9593SOL     OW29677   1.795   2.348   3.457
 9593SOL    HW129678   1.869   2.413   3.474
 9593SOL    HW229679   1.736   2.343   3.537
 9594SOL     OW29680   0.251   6.484   3.706
 9594SOL    HW129681   0.252   6.387   3.727
 9594SOL    HW229682   0.341   6.513   3.675
 9595SOL     OW29683   0.623   3.184   3.385
 9595SOL    HW129684   0.600   3.108   3.446
 9595SOL    HW229685   0.718   3.176   3.356
 9596SOL     OW29686   0.860   6.438   0.738
 9596SOL    HW129687   0.863   6.353   0.687
 9596SOL    HW229688   0.941   6.444   0.797
 9597SOL     OW29689   1.250   3.546   2.147
 9597SOL    HW129690   1.301   3.611   2.203
 9597SOL    HW229691   1.264   3.568   2.050
 9598SOL     OW29692   2.355   4.400   3.947
 9598SOL    HW129693   2.339   4.423   4.043
 9598SOL    HW229694   2.305   4.317   3.924
 9599SOL     OW29695   4.274   6.503   4.353
 9599SOL    HW129696   4.191   6.506   4.408
 9599SOL    HW229697   4.280   6.584   4.295
 9600SOL     OW29698   3.805   1.333   1.345
 9600SOL    HW129699   3.826   1.255   1.285
 9600SOL    HW229700   3.799   1.301   1.440
 9601SOL     OW29701   1.002   3.649   0.712
 9601SOL    HW129702   0.971   3.738   0.678
 9601SOL    HW229703   1.059   3.605   0.642
 9602SOL     OW29704   4.295   5.316   5.225
 9602SOL    HW129705   4.289   5.308   5.324
 9602SOL    HW229706   4.230   5.254   5.181
 9603SOL     OW29707   5.137   6.671   5.459
 9603SOL    HW129708   5.053   6.678   5.405
 9603SOL    HW229709   5.134   6.589   5.516
 9604SOL     OW29710   5.381   6.743   0.243
 9604SOL    HW129711   5.297   6.698   0.210
 9604SOL    HW229712   5.357   6.808   0.315
 9605SOL     OW29713   5.890   5.465   2.078
 9605SOL    HW129714   5.834   5.538   2.118
 9605SOL    HW229715   5.839   5.379   2.081
 9606SOL     OW29716   1.957   1.114   6.955
 9606SOL    HW129717   1.901   1.127   6.873
 9606SOL    HW229718   2.007   1.197   6.975
 9607SOL     OW29719   2.377   2.484   6.011
 9607SOL    HW129720   2.381   2.463   5.913
 9607SOL    HW229721   2.444   2.555   6.033
 9608SOL     OW29722   5.965   3.158   4.429
 9608SOL    HW129723   5.942   3.182   4.335
 9608SOL    HW229724   5.955   3.239   4.487
 9609SOL     OW29725   3.975   2.849   6.646
 9609SOL    HW129726   4.028   2.831   6.729
 9609SOL    HW229727   3.967   2.765   6.593
 9610SOL     OW29728   0.646   5.154   3.082
 9610SOL    HW129729   0.681   5.230   3.136
 9610SOL    HW229730   0.574   5.188   3.021
 9611SOL     OW29731   2.065   0.548   0.514
 9611SOL    HW129732   2.164   0.535   0.502
 9611SOL    HW229733   2.048   0.645   0.535
 9612SOL     OW29734   0.002   2.894   4.016
 9612SOL    HW129735   6.983   2.981   4.043
 9612SOL    HW229736   0.099   2.892   4.039
 9613SOL     OW29737   5.915   5.387   2.794
 9613SOL    HW129738   5.914   5.299   2.841
 9613SOL    HW229739   6.002   5.399   2.747
 9614SOL     OW29740   4.592   2.557   3.777
 9614SOL    HW129741   4.580   2.616   3.697
 9614SOL    HW229742   4.504   2.514   3.799
 9615SOL     OW29743   2.462   4.213   1.154
 9615SOL    HW129744   2.449   4.171   1.244
 9615SOL    HW229745   2.515   4.152   1.096
 9616SOL     OW29746   4.035   3.372   0.030
 9616SOL    HW129747   4.056   3.438   6.978
 9616SOL    HW229748   3.945   3.332   0.014
 9617SOL     OW29749   1.776   2.431   2.944
 9617SOL    HW129750   1.715   2.383   3.008
 9617SOL    HW229751   1.757   2.400   2.851
 9618SOL     OW29752   2.290   1.407   1.219
 9618SOL    HW129753   2.293   1.505   1.199
 9618SOL    HW229754   2.197   1.382   1.247
 9619SOL     OW29755   2.830   0.552   5.831
 9619SOL    HW129756   2.883   0.620   5.781
 9619SOL    HW229757   2.740   0.541   5.788
 9620SOL     OW29758   5.935   1.219   5.193
 9620SOL    HW129759   5.912   1.143   5.132
 9620SOL    HW229760   5.937   1.187   5.287
 9621SOL     OW29761   1.767   3.283   3.522
 9621SOL    HW129762   1.772   3.194   3.567
 9621SOL    HW229763   1.856   3.329   3.530
 9622SOL     OW29764   5.238   6.893   0.889
 9622SOL    HW129765   5.196   6.837   0.817
 9622SOL    HW229766   5.278   6.975   0.849
 9623SOL     OW29767   2.677   3.358   6.250
 9623SOL    HW129768   2.688   3.443   6.199
 9623SOL    HW229769   2.641   3.287   6.189
 9624SOL     OW29770   6.419   2.993   4.325
 9624SOL    HW129771   6.517   3.002   4.345
 9624SOL    HW229772   6.404   2.916   4.264
 9625SOL     OW29773   6.016   5.983   1.103
 9625SOL    HW129774   5.932   6.001   1.154
 9625SOL    HW229775   5.993   5.952   1.010
 9626SOL     OW29776   3.417   6.413   0.161
 9626SOL    HW129777   3.396   6.511   0.163
 9626SOL    HW229778   3.480   6.390   0.235
 9627SOL     OW29779   1.384   6.436   6.752
 9627SOL    HW129780   1.374   6.535   6.748
 9627SOL    HW229781   1.293   6.393   6.752
 9628SOL     OW29782   3.249   6.734   2.356
 9628SOL    HW129783   3.151   6.750   2.345
 9628SOL    HW229784   3.266   6.636   2.363
 9629SOL     OW29785   2.472   6.971   1.019
 9629SOL    HW129786   2.426   7.019   0.944
 9629SOL    HW229787   2.474   6.873   0.999
 9630SOL     OW29788   6.607   1.574   6.441
 9630SOL    HW129789   6.571   1.562   6.534
 9630SOL    HW229790   6.538   1.620   6.385
 9631SOL     OW29791   5.990   5.876   0.052
 9631SOL    HW129792   5.957   5.908   6.984
 9631SOL    HW229793   5.946   5.930   0.125
 9632SOL     OW29794   1.058   6.003   1.638
 9632SOL    HW129795   1.130   5.935   1.651
 9632SOL    HW229796   0.985   5.988   1.705
 9633SOL     OW29797   6.960   5.070   6.107
 9633SOL    HW129798   0.014   5.046   6.169
 9633SOL    HW229799   6.967   5.014   6.024
 9634SOL     OW29800   1.476   6.166   5.808
 9634SOL    HW129801   1.506   6.071   5.818
 9634SOL    HW229802   1.381   6.168   5.775
 9635SOL     OW29803   1.209   5.929   5.601
 9635SOL    HW129804   1.140   5.879   5.653
 9635SOL    HW229805   1.223   5.885   5.513
 9636SOL     OW29806   4.003   1.310   6.688
 9636SOL    HW129807   3.925   1.373   6.686
 9636SOL    HW229808   4.018   1.279   6.782
 9637SOL     OW29809   2.117   1.342   0.195
 9637SOL    HW129810   2.211   1.371   0.210
 9637SOL    HW229811   2.099   1.335   0.097
 9638SOL     OW29812   6.661   2.095   6.483
 9638SOL    HW129813   6.572   2.081   6.527
 9638SOL    HW229814   6.663   2.185   6.440
 9639SOL     OW29815   4.000   0.862   2.126
 9639SOL    HW129816   4.099   0.846   2.132
 9639SOL    HW229817   3.952   0.774   2.121
 9640SOL     OW29818   1.656   2.029   2.513
 9640SOL    HW129819   1.696   2.102   2.458
 9640SOL    HW229820   1.566   2.005   2.476
 9641SOL     OW29821   5.493   5.514   6.991
 9641SOL    HW129822   5.526   5.504   0.064
 9641SOL    HW229823   5.547   5.456   6.930
 9642SOL     OW29824   3.639   0.617   3.671
 9642SOL    HW129825   3.674   0.655   3.585
 9642SOL    HW229826   3.598   0.690   3.725
 9643SOL     OW29827   3.989   4.779   3.198
 9643SOL    HW129828   4.027   4.781   3.106
 9643SOL    HW229829   4.061   4.756   3.264
 9644SOL     OW29830   2.850   2.489   0.280
 9644SOL    HW129831   2.918   2.468   0.350
 9644SOL    HW229832   2.828   2.406   0.229
 9645SOL     OW29833   3.494   5.209   5.482
 9645SOL    HW129834   3.483   5.121   5.435
 9645SOL    HW229835   3.567   5.262   5.438
 9646SOL     OW29836   4.010   5.209   4.080
 9646SOL    HW129837   4.093   5.154   4.085
 9646SOL    HW229838   3.998   5.259   4.166
 9647SOL     OW29839   6.682   3.108   6.381
 9647SOL    HW129840   6.607   3.138   6.321
 9647SOL    HW229841   6.735   3.187   6.411
 9648SOL     OW29842   4.112   3.848   0.903
 9648SOL    HW129843   4.013   3.862   0.906
 9648SOL    HW229844   4.132   3.754   0.877
 9649SOL     OW29845   2.027   5.992   1.796
 9649SOL    HW129846   2.046   6.062   1.864
 9649SOL    HW229847   2.061   5.904   1.828
 9650SOL     OW29848   0.388   6.665   0.759
 9650SOL    HW129849   0.314   6.653   0.824
 9650SOL    HW229850   0.441   6.746   0.784
 9651SOL     OW29851   0.574   1.633   6.532
 9651SOL    HW129852   0.539   1.716   6.489
 9651SOL    HW229853   0.522   1.613   6.615
 9652SOL     OW29854   0.505   5.057   2.447
 9652SOL    HW129855   0.508   5.107   2.360
 9652SOL    HW229856   0.422   5.082   2.497
 9653SOL     OW29857   6.597   6.280   4.462
 9653SOL    HW129858   6.498   6.290   4.454
 9653SOL    HW229859   6.635   6.358   4.512
 9654SOL     OW29860   2.168   3.190   2.625
 9654SOL    HW129861   2.196   3.096   2.646
 9654SOL    HW229862   2.191   3.250   2.702
 9655SOL     OW29863   6.092   1.667   6.660
 9655SOL    HW129864   6.086   1.699   6.754
 9655SOL    HW229865   6.024   1.715   6.604
 9656SOL     OW29866   3.184   1.421   2.875
 9656SOL    HW129867   3.283   1.411   2.884
 9656SOL    HW229868   3.163   1.471   2.791
 9657SOL     OW29869   0.114   0.148   5.135
 9657SOL    HW129870   0.064   0.064   5.115
 9657SOL    HW229871   0.075   0.191   5.216
 9658SOL     OW29872   5.651   2.123   3.032
 9658SOL    HW129873   5.729   2.161   3.081
 9658SOL    HW229874   5.670   2.028   3.006
 9659SOL     OW29875   1.210   4.731   6.950
 9659SOL    HW129876   1.224   4.698   6.857
 9659SOL    HW229877   1.214   4.654   7.014
 9660SOL     OW29878   0.784   5.151   0.830
 9660SOL    HW129879   0.723   5.117   0.758
 9660SOL    HW229880   0.863   5.196   0.788
 9661SOL     OW29881   4.157   6.842   1.181
 9661SOL    HW129882   4.136   6.917   1.244
 9661SOL    HW229883   4.252   6.814   1.193
 9662SOL     OW29884   4.640   0.995   4.348
 9662SOL    HW129885   4.703   1.070   4.367
 9662SOL    HW229886   4.620   0.992   4.250
 9663SOL     OW29887   2.161   6.452   3.007
 9663SOL    HW129888   2.142   6.482   2.914
 9663SOL    HW229889   2.220   6.519   3.053
 9664SOL     OW29890   2.223   5.732   1.893
 9664SOL    HW129891   2.274   5.815   1.917
 9664SOL    HW229892   2.283   5.652   1.902
 9665SOL     OW29893   5.131   4.281   3.863
 9665SOL    HW129894   5.117   4.267   3.961
 9665SOL    HW229895   5.141   4.192   3.818
 9666SOL     OW29896   5.227   4.572   4.748
 9666SOL    HW129897   5.185   4.565   4.839
 9666SOL    HW229898   5.181   4.508   4.686
 9667SOL     OW29899   3.277   3.305   3.526
 9667SOL    HW129900   3.372   3.274   3.521
 9667SOL    HW229901   3.217   3.226   3.533
 9668SOL     OW29902   0.688   1.380   5.028
 9668SOL    HW129903   0.694   1.375   4.928
 9668SOL    HW229904   0.686   1.476   5.057
 9669SOL     OW29905   1.361   6.298   0.027
 9669SOL    HW129906   1.416   6.307   0.110
 9669SOL    HW229907   1.394   6.362   6.979
 9670SOL     OW29908   5.455   4.600   6.386
 9670SOL    HW129909   5.395   4.593   6.307
 9670SOL    HW229910   5.525   4.670   6.370
 9671SOL     OW29911   0.148   0.252   0.015
 9671SOL    HW129912   0.229   0.196   0.033
 9671SOL    HW229913   0.109   0.284   0.101
 9672SOL     OW29914   1.577   6.386   5.363
 9672SOL    HW129915   1.533   6.323   5.297
 9672SOL    HW229916   1.610   6.334   5.441
 9673SOL     OW29917   2.191   2.642   5.744
 9673SOL    HW129918   2.246   2.560   5.756
 9673SOL    HW229919   2.249   2.723   5.756
 9674SOL     OW29920   2.707   6.901   2.246
 9674SOL    HW129921   2.729   6.804   2.258
 9674SOL    HW229922   2.618   6.921   2.288
 9675SOL     OW29923   0.453   2.189   2.323
 9675SOL    HW129924   0.415   2.153   2.408
 9675SOL    HW229925   0.528   2.251   2.345
 9676SOL     OW29926   0.243   2.893   4.746
 9676SOL    HW129927   0.202   2.948   4.673
 9676SOL    HW229928   0.189   2.811   4.761
 9677SOL     OW29929   1.710   3.568   5.452
 9677SOL    HW129930   1.646   3.515   5.397
 9677SOL    HW229931   1.797   3.577   5.404
 9678SOL     OW29932   3.650   3.376   2.861
 9678SOL    HW129933   3.716   3.401   2.790
 9678SOL    HW229934   3.558   3.371   2.822
 9679SOL     OW29935   0.302   3.638   1.495
 9679SOL    HW129936   0.338   3.574   1.427
 9679SOL    HW229937   0.375   3.664   1.558
 9680SOL     OW29938   4.851   4.787   3.361
 9680SOL    HW129939   4.949   4.772   3.367
 9680SOL    HW229940   4.815   4.743   3.278
 9681SOL     OW29941   0.581   0.516   4.343
 9681SOL    HW129942   0.624   0.603   4.319
 9681SOL    HW229943   0.483   0.521   4.325
 9682SOL     OW29944   0.434   5.237   2.907
 9682SOL    HW129945   0.432   5.271   2.813
 9682SOL    HW229946   0.386   5.149   2.912
 9683SOL     OW29947   5.155   6.597   6.195
 9683SOL    HW129948   5.118   6.607   6.288
 9683SOL    HW229949   5.254   6.587   6.200
 9684SOL     OW29950   1.065   4.654   3.433
 9684SOL    HW129951   1.157   4.687   3.452
 9684SOL    HW229952   1.032   4.695   3.348
 9685SOL     OW29953   2.035   2.351   6.840
 9685SOL    HW129954   2.002   2.295   6.764
 9685SOL    HW229955   1.979   2.332   6.921
 9686SOL     OW29956   5.430   1.694   1.612
 9686SOL    HW129957   5.367   1.680   1.688
 9686SOL    HW229958   5.430   1.613   1.553
 9687SOL     OW29959   3.711   1.454   4.478
 9687SOL    HW129960   3.751   1.544   4.464
 9687SOL    HW229961   3.617   1.453   4.443
 9688SOL     OW29962   6.342   2.084   3.909
 9688SOL    HW129963   6.366   2.070   3.814
 9688SOL    HW229964   6.259   2.141   3.915
 9689SOL     OW29965   2.169   5.951   5.844
 9689SOL    HW129966   2.107   5.873   5.837
 9689SOL    HW229967   2.157   6.010   5.765
 9690SOL     OW29968   5.848   3.673   0.552
 9690SOL    HW129969   5.864   3.575   0.547
 9690SOL    HW229970   5.895   3.711   0.631
 9691SOL     OW29971   1.522   4.478   0.938
 9691SOL    HW129972   1.428   4.474   0.973
 9691SOL    HW229973   1.522   4.457   0.840
 9692SOL     OW29974   2.735   5.716   1.055
 9692SOL    HW129975   2.787   5.681   0.977
 9692SOL    HW229976   2.641   5.735   1.027
 9693SOL     OW29977   6.117   5.648   1.571
 9693SOL    HW129978   6.031   5.671   1.617
 9693SOL    HW229979   6.169   5.732   1.556
 9694SOL     OW29980   1.154   2.048   0.462
 9694SOL    HW129981   1.226   2.092   0.515
 9694SOL    HW229982   1.065   2.076   0.497
 9695SOL     OW29983   6.621   4.432   0.572
 9695SOL    HW129984   6.711   4.395   0.594
 9695SOL    HW229985   6.622   4.470   0.480
 9696SOL     OW29986   3.790   4.438   0.625
 9696SOL    HW129987   3.697   4.443   0.589
 9696SOL    HW229988   3.793   4.482   0.715
 9697SOL     OW29989   0.561   5.889   5.861
 9697SOL    HW129990   0.607   5.884   5.772
 9697SOL    HW229991   0.526   5.798   5.885
 9698SOL     OW29992   4.978   1.277   5.324
 9698SOL    HW129993   4.948   1.370   5.305
 9698SOL    HW229994   4.957   1.254   5.419
 9699SOL     OW29995   2.158   2.855   6.948
 9699SOL    HW129996   2.133   2.934   6.892
 9699SOL    HW229997   2.126   2.771   6.904
 9700SOL     OW29998   3.636   4.152   3.546
 9700SOL    HW129999   3.608   4.234   3.495
 9700SOL    HW230000   3.637   4.073   3.485
 9701SOL     OW30001   4.745   4.279   4.820
 9701SOL    HW130002   4.671   4.339   4.789
 9701SOL    HW230003   4.741   4.193   4.769
 9702SOL     OW30004   5.114   0.246   0.816
 9702SOL    HW130005   5.024   0.287   0.828
 9702SOL    HW230006   5.106   0.146   0.816
 9703SOL     OW30007   2.939   5.921   3.937
 9703SOL    HW130008   3.021   5.863   3.936
 9703SOL    HW230009   2.870   5.879   3.996
 9704SOL     OW30010   2.839   1.319   3.595
 9704SOL    HW130011   2.791   1.244   3.550
 9704SOL    HW230012   2.776   1.367   3.657
 9705SOL     OW30013   3.843   3.901   0.945
 9705SOL    HW130014   3.804   3.897   0.853
 9705SOL    HW230015   3.772   3.878   1.012
 9706SOL     OW30016   6.482   2.877   3.588
 9706SOL    HW130017   6.550   2.813   3.552
 9706SOL    HW230018   6.413   2.896   3.517
 9707SOL     OW30019   2.320   5.478   2.975
 9707SOL    HW130020   2.406   5.525   2.999
 9707SOL    HW230021   2.245   5.543   2.979
 9708SOL     OW30022   1.577   1.872   2.058
 9708SOL    HW130023   1.504   1.812   2.025
 9708SOL    HW230024   1.666   1.836   2.030
 9709SOL     OW30025   1.783   5.249   2.812
 9709SOL    HW130026   1.812   5.228   2.906
 9709SOL    HW230027   1.685   5.235   2.804
 9710SOL     OW30028   0.460   0.439   3.997
 9710SOL    HW130029   0.521   0.518   3.998
 9710SOL    HW230030   0.424   0.424   4.090
 9711SOL     OW30031   1.726   3.266   6.330
 9711SOL    HW130032   1.790   3.340   6.350
 9711SOL    HW230033   1.742   3.191   6.394
 9712SOL     OW30034   4.890   3.302   4.552
 9712SOL    HW130035   4.913   3.308   4.455
 9712SOL    HW230036   4.838   3.218   4.569
 9713SOL     OW30037   6.970   5.116   2.245
 9713SOL    HW130038   7.015   5.094   2.331
 9713SOL    HW230039   0.018   5.120   2.172
 9714SOL     OW30040   1.781   2.233   2.369
 9714SOL    HW130041   1.694   2.222   2.321
 9714SOL    HW230042   1.856   2.228   2.302
 9715SOL     OW30043   6.018   5.389   5.748
 9715SOL    HW130044   6.086   5.460   5.764
 9715SOL    HW230045   5.945   5.426   5.690
 9716SOL     OW30046   3.751   1.627   5.708
 9716SOL    HW130047   3.798   1.707   5.745
 9716SOL    HW230048   3.815   1.552   5.697
 9717SOL     OW30049   5.945   5.571   3.546
 9717SOL    HW130050   5.942   5.662   3.587
 9717SOL    HW230051   5.855   5.550   3.506
 9718SOL     OW30052   4.815   3.181   1.706
 9718SOL    HW130053   4.751   3.141   1.771
 9718SOL    HW230054   4.775   3.181   1.615
 9719SOL     OW30055   0.363   1.645   0.498
 9719SOL    HW130056   0.434   1.701   0.455
 9719SOL    HW230057   0.315   1.699   0.567
 9720SOL     OW30058   0.998   0.121   0.642
 9720SOL    HW130059   1.020   0.109   0.545
 9720SOL    HW230060   1.059   0.188   0.683
 9721SOL     OW30061   0.019   2.537   3.230
 9721SOL    HW130062   6.974   2.481   3.281
 9721SOL    HW230063   0.033   2.498   3.139
 9722SOL     OW30064   6.789   0.251   4.211
 9722SOL    HW130065   6.789   0.284   4.306
 9722SOL    HW230066   6.751   0.158   4.208
 9723SOL     OW30067   6.567   1.264   3.513
 9723SOL    HW130068   6.654   1.265   3.464
 9723SOL    HW230069   6.525   1.174   3.506
 9724SOL     OW30070   3.845   2.845   0.927
 9724SOL    HW130071   3.824   2.758   0.970
 9724SOL    HW230072   3.943   2.849   0.905
 9725SOL     OW30073   3.906   3.466   5.736
 9725SOL    HW130074   3.954   3.534   5.680
 9725SOL    HW230075   3.849   3.513   5.803
 9726SOL     OW30076   5.948   5.863   4.354
 9726SOL    HW130077   5.955   5.765   4.371
 9726SOL    HW230078   6.020   5.891   4.290
 9727SOL     OW30079   1.670   0.845   0.309
 9727SOL    HW130080   1.702   0.925   0.259
 9727SOL    HW230081   1.698   0.761   0.261
 9728SOL     OW30082   3.363   5.435   0.200
 9728SOL    HW130083   3.321   5.520   0.231
 9728SOL    HW230084   3.309   5.397   0.125
 9729SOL     OW30085   2.900   5.100   2.226
 9729SOL    HW130086   2.925   5.098   2.130
 9729SOL    HW230087   2.965   5.157   2.277
 9730SOL     OW30088   5.764   3.319   3.131
 9730SOL    HW130089   5.799   3.260   3.059
 9730SOL    HW230090   5.669   3.344   3.111
 9731SOL     OW30091   5.024   5.499   1.203
 9731SOL    HW130092   5.003   5.529   1.296
 9731SOL    HW230093   5.079   5.569   1.157
 9732SOL     OW30094   5.929   6.021   4.030
 9732SOL    HW130095   6.013   5.992   4.076
 9732SOL    HW230096   5.864   6.057   4.098
 9733SOL     OW30097   5.698   4.681   6.119
 9733SOL    HW130098   5.684   4.780   6.113
 9733SOL    HW230099   5.661   4.637   6.037
 9734SOL     OW30100   5.681   2.042   5.646
 9734SOL    HW130101   5.745   2.098   5.698
 9734SOL    HW230102   5.595   2.091   5.634
 9735SOL     OW30103   3.100   4.176   0.546
 9735SOL    HW130104   3.179   4.146   0.598
 9735SOL    HW230105   3.091   4.121   0.463
 9736SOL     OW30106   3.610   1.793   1.769
 9736SOL    HW130107   3.710   1.792   1.774
 9736SOL    HW230108   3.578   1.888   1.767
 9737SOL     OW30109   4.211   2.239   4.853
 9737SOL    HW130110   4.185   2.312   4.916
 9737SOL    HW230111   4.203   2.151   4.899
 9738SOL     OW30112   2.484   0.770   2.090
 9738SOL    HW130113   2.551   0.707   2.051
 9738SOL    HW230114   2.483   0.855   2.037
 9739SOL     OW30115   5.811   4.312   1.662
 9739SOL    HW130116   5.821   4.368   1.744
 9739SOL    HW230117   5.721   4.269   1.662
 9740SOL     OW30118   6.654   3.829   3.136
 9740SOL    HW130119   6.716   3.785   3.071
 9740SOL    HW230120   6.569   3.777   3.142
 9741SOL     OW30121   4.102   1.627   1.971
 9741SOL    HW130122   4.043   1.693   2.019
 9741SOL    HW230123   4.180   1.604   2.030
 9742SOL     OW30124   4.472   1.517   3.559
 9742SOL    HW130125   4.435   1.447   3.620
 9742SOL    HW230126   4.572   1.518   3.567
 9743SOL     OW30127   1.296   1.655   5.495
 9743SOL    HW130128   1.201   1.678   5.475
 9743SOL    HW230129   1.309   1.556   5.489
 9744SOL     OW30130   2.236   0.386   1.667
 9744SOL    HW130131   2.194   0.439   1.742
 9744SOL    HW230132   2.329   0.361   1.693
 9745SOL     OW30133   1.015   0.989   4.954
 9745SOL    HW130134   1.074   0.955   5.028
 9745SOL    HW230135   1.023   0.929   4.875
 9746SOL     OW30136   6.319   0.861   4.077
 9746SOL    HW130137   6.261   0.890   4.001
 9746SOL    HW230138   6.383   0.935   4.100
 9747SOL     OW30139   0.520   0.331   6.701
 9747SOL    HW130140   0.527   0.400   6.629
 9747SOL    HW230141   0.500   0.376   6.788
 9748SOL     OW30142   0.871   4.740   3.954
 9748SOL    HW130143   0.864   4.655   3.901
 9748SOL    HW230144   0.910   4.720   4.043
 9749SOL     OW30145   0.462   5.003   4.363
 9749SOL    HW130146   0.524   4.993   4.285
 9749SOL    HW230147   0.513   5.030   4.444
 9750SOL     OW30148   3.102   5.405   2.754
 9750SOL    HW130149   3.033   5.352   2.705
 9750SOL    HW230150   3.164   5.342   2.801
 9751SOL     OW30151   1.828   2.846   0.933
 9751SOL    HW130152   1.820   2.750   0.908
 9751SOL    HW230153   1.838   2.902   0.851
 9752SOL     OW30154   4.089   0.975   5.805
 9752SOL    HW130155   4.140   1.061   5.798
 9752SOL    HW230156   4.136   0.913   5.868
 9753SOL     OW30157   0.103   6.458   6.485
 9753SOL    HW130158   0.172   6.530   6.488
 9753SOL    HW230159   0.115   6.397   6.563
 9754SOL     OW30160   0.196   3.122   6.386
 9754SOL    HW130161   0.180   3.116   6.484
 9754SOL    HW230162   0.215   3.031   6.349
 9755SOL     OW30163   3.592   5.457   5.686
 9755SOL    HW130164   3.549   5.464   5.776
 9755SOL    HW230165   3.625   5.547   5.657
 9756SOL     OW30166   5.213   2.602   5.745
 9756SOL    HW130167   5.176   2.527   5.690
 9756SOL    HW230168   5.299   2.574   5.787
 9757SOL     OW30169   6.448   0.997   3.476
 9757SOL    HW130170   6.363   1.050   3.477
 9757SOL    HW230171   6.443   0.927   3.405
 9758SOL     OW30172   3.059   0.745   7.010
 9758SOL    HW130173   3.072   0.648   0.012
 9758SOL    HW230174   3.047   0.797   0.074
 9759SOL     OW30175   3.314   5.950   1.420
 9759SOL    HW130176   3.262   5.911   1.344
 9759SOL    HW230177   3.390   5.889   1.444
 9760SOL     OW30178   5.864   4.475   6.148
 9760SOL    HW130179   5.815   4.559   6.126
 9760SOL    HW230180   5.927   4.492   6.224
 9761SOL     OW30181   5.382   5.245   2.835
 9761SOL    HW130182   5.454   5.178   2.851
 9761SOL    HW230183   5.318   5.243   2.912
 9762SOL     OW30184   3.159   1.007   3.302
 9762SOL    HW130185   3.168   0.911   3.278
 9762SOL    HW230186   3.220   1.062   3.244
 9763SOL     OW30187   2.004   1.594   2.153
 9763SOL    HW130188   1.932   1.650   2.113
 9763SOL    HW230189   1.964   1.520   2.206
 9764SOL     OW30190   1.235   2.426   2.332
 9764SOL    HW130191   1.201   2.493   2.398
 9764SOL    HW230192   1.166   2.411   2.262
 9765SOL     OW30193   0.543   1.166   5.411
 9765SOL    HW130194   0.451   1.130   5.427
 9765SOL    HW230195   0.537   1.249   5.356
 9766SOL     OW30196   2.164   0.509   2.969
 9766SOL    HW130197   2.250   0.484   3.014
 9766SOL    HW230198   2.111   0.569   3.029
 9767SOL     OW30199   5.242   0.263   5.380
 9767SOL    HW130200   5.162   0.203   5.387
 9767SOL    HW230201   5.285   0.271   5.470
 9768SOL     OW30202   5.029   2.637   4.206
 9768SOL    HW130203   5.077   2.610   4.122
 9768SOL    HW230204   5.050   2.733   4.226
 9769SOL     OW30205   0.182   1.482   1.318
 9769SOL    HW130206   0.277   1.473   1.347
 9769SOL    HW230207   0.173   1.560   1.256
 9770SOL     OW30208   0.170   3.049   5.605
 9770SOL    HW130209   0.079   3.079   5.577
 9770SOL    HW230210   0.215   3.001   5.529
 9771SOL     OW30211   2.828   5.352   3.636
 9771SOL    HW130212   2.867   5.268   3.672
 9771SOL    HW230213   2.729   5.353   3.652
 9772SOL     OW30214   5.988   6.510   1.074
 9772SOL    HW130215   6.028   6.602   1.083
 9772SOL    HW230216   5.891   6.517   1.053
 9773SOL     OW30217   4.935   4.964   3.861
 9773SOL    HW130218   4.841   4.947   3.833
 9773SOL    HW230219   4.936   4.986   3.959
 9774SOL     OW30220   0.046   5.144   4.300
 9774SOL    HW130221   0.035   5.204   4.380
 9774SOL    HW230222   0.047   5.049   4.330
 9775SOL     OW30223   2.755   2.311   4.573
 9775SOL    HW130224   2.819   2.296   4.648
 9775SOL    HW230225   2.690   2.382   4.598
 9776SOL     OW30226   0.448   4.807   4.017
 9776SOL    HW130227   0.468   4.903   3.996
 9776SOL    HW230228   0.379   4.802   4.088
 9777SOL     OW30229   5.647   5.209   6.276
 9777SOL    HW130230   5.563   5.167   6.243
 9777SOL    HW230231   5.637   5.309   6.275
 9778SOL     OW30232   3.691   0.466   4.633
 9778SOL    HW130233   3.737   0.477   4.545
 9778SOL    HW230234   3.658   0.555   4.665
 9779SOL     OW30235   3.100   2.195   6.870
 9779SOL    HW130236   3.035   2.244   6.928
 9779SOL    HW230237   3.189   2.189   6.915
 9780SOL     OW30238   2.753   4.141   0.287
 9780SOL    HW130239   2.813   4.175   0.359
 9780SOL    HW230240   2.808   4.100   0.214
 9781SOL     OW30241   1.569   6.611   4.363
 9781SOL    HW130242   1.592   6.517   4.338
 9781SOL    HW230243   1.478   6.614   4.403
 9782SOL     OW30244   5.773   0.139   0.274
 9782SOL    HW130245   5.787   0.224   0.224
 9782SOL    HW230246   5.775   0.157   0.372
 9783SOL     OW30247   5.854   0.314   3.216
 9783SOL    HW130248   5.914   0.384   3.177
 9783SOL    HW230249   5.850   0.326   3.316
 9784SOL     OW30250   5.656   0.657   4.413
 9784SOL    HW130251   5.738   0.645   4.357
 9784SOL    HW230252   5.582   0.601   4.376
 9785SOL     OW30253   0.417   2.931   1.334
 9785SOL    HW130254   0.383   3.004   1.393
 9785SOL    HW230255   0.340   2.881   1.295
 9786SOL     OW30256   2.711   6.987   4.567
 9786SOL    HW130257   2.731   0.053   4.522
 9786SOL    HW230258   2.618   6.990   4.605
 9787SOL     OW30259   6.208   4.192   1.376
 9787SOL    HW130260   6.293   4.142   1.395
 9787SOL    HW230261   6.138   4.165   1.442
 9788SOL     OW30262   6.659   1.004   5.420
 9788SOL    HW130263   6.609   0.936   5.474
 9788SOL    HW230264   6.746   0.964   5.389
 9789SOL     OW30265   1.888   5.323   4.839
 9789SOL    HW130266   1.904   5.225   4.833
 9789SOL    HW230267   1.947   5.370   4.773
 9790SOL     OW30268   6.785   1.216   3.372
 9790SOL    HW130269   6.746   1.144   3.315
 9790SOL    HW230270   6.839   1.278   3.316
 9791SOL     OW30271   1.337   2.273   1.091
 9791SOL    HW130272   1.273   2.200   1.115
 9791SOL    HW230273   1.405   2.282   1.164
 9792SOL     OW30274   3.447   5.928   2.311
 9792SOL    HW130275   3.498   5.930   2.225
 9792SOL    HW230276   3.399   5.841   2.319
 9793SOL     OW30277   5.454   5.996   2.486
 9793SOL    HW130278   5.421   6.090   2.478
 9793SOL    HW230279   5.553   5.995   2.492
 9794SOL     OW30280   3.218   3.464   6.802
 9794SOL    HW130281   3.161   3.427   6.876
 9794SOL    HW230282   3.160   3.509   6.734
 9795SOL     OW30283   2.164   5.281   3.470
 9795SOL    HW130284   2.073   5.316   3.494
 9795SOL    HW230285   2.154   5.190   3.429
 9796SOL     OW30286   3.599   4.924   0.643
 9796SOL    HW130287   3.662   4.883   0.576
 9796SOL    HW230288   3.642   4.923   0.733
 9797SOL     OW30289   5.291   2.960   4.746
 9797SOL    HW130290   5.240   2.924   4.824
 9797SOL    HW230291   5.347   3.037   4.775
 9798SOL     OW30292   2.714   1.832   1.738
 9798SOL    HW130293   2.709   1.929   1.713
 9798SOL    HW230294   2.675   1.820   1.830
 9799SOL     OW30295   3.016   3.949   2.372
 9799SOL    HW130296   2.950   3.877   2.353
 9799SOL    HW230297   3.014   3.970   2.470
 9800SOL     OW30298   3.928   5.133   0.580
 9800SOL    HW130299   3.844   5.138   0.525
 9800SOL    HW230300   3.936   5.215   0.636
 9801SOL     OW30301   5.178   5.423   0.826
 9801SOL    HW130302   5.218   5.414   0.734
 9801SOL    HW230303   5.214   5.351   0.885
 9802SOL     OW30304   0.617   5.455   1.646
 9802SOL    HW130305   0.548   5.437   1.576
 9802SOL    HW230306   0.654   5.548   1.635
 9803SOL     OW30307   5.004   0.286   6.267
 9803SOL    HW130308   5.045   0.300   6.177
 9803SOL    HW230309   4.969   0.192   6.273
 9804SOL     OW30310   4.908   5.493   4.365
 9804SOL    HW130311   4.994   5.485   4.314
 9804SOL    HW230312   4.832   5.497   4.301
 9805SOL     OW30313   3.640   3.848   1.097
 9805SOL    HW130314   3.645   3.853   1.196
 9805SOL    HW230315   3.577   3.775   1.071
 9806SOL     OW30316   6.928   1.669   2.689
 9806SOL    HW130317   6.961   1.743   2.630
 9806SOL    HW230318   6.977   1.585   2.668
 9807SOL     OW30319   2.202   3.469   0.730
 9807SOL    HW130320   2.288   3.433   0.764
 9807SOL    HW230321   2.133   3.466   0.802
 9808SOL     OW30322   1.810   2.028   4.181
 9808SOL    HW130323   1.730   2.039   4.240
 9808SOL    HW230324   1.869   2.108   4.190
 9809SOL     OW30325   0.691   0.738   4.264
 9809SOL    HW130326   0.778   0.773   4.228
 9809SOL    HW230327   0.666   0.789   4.346
 9810SOL     OW30328   4.403   1.900   2.394
 9810SOL    HW130329   4.339   1.900   2.317
 9810SOL    HW230330   4.358   1.941   2.474
 9811SOL     OW30331   1.331   0.137   2.715
 9811SOL    HW130332   1.297   0.231   2.712
 9811SOL    HW230333   1.301   0.093   2.800
 9812SOL     OW30334   5.861   3.193   6.029
 9812SOL    HW130335   5.849   3.250   6.111
 9812SOL    HW230336   5.884   3.251   5.951
 9813SOL     OW30337   6.459   4.064   0.521
 9813SOL    HW130338   6.394   4.115   0.464
 9813SOL    HW230339   6.491   4.123   0.595
 9814SOL     OW30340   6.762   0.852   5.722
 9814SOL    HW130341   6.749   0.849   5.821
 9814SOL    HW230342   6.678   0.881   5.677
 9815SOL     OW30343   6.660   4.316   2.685
 9815SOL    HW130344   6.664   4.312   2.585
 9815SOL    HW230345   6.747   4.351   2.720
 9816SOL     OW30346   6.084   1.236   5.494
 9816SOL    HW130347   6.106   1.250   5.590
 9816SOL    HW230348   6.024   1.157   5.485
 9817SOL     OW30349   2.556   1.082   0.515
 9817SOL    HW130350   2.592   1.036   0.433
 9817SOL    HW230351   2.545   1.015   0.588
 9818SOL     OW30352   0.371   6.672   2.246
 9818SOL    HW130353   0.403   6.747   2.303
 9818SOL    HW230354   0.447   6.609   2.227
 9819SOL     OW30355   6.360   2.148   4.589
 9819SOL    HW130356   6.453   2.145   4.624
 9819SOL    HW230357   6.360   2.183   4.495
 9820SOL     OW30358   4.091   1.153   6.205
 9820SOL    HW130359   4.047   1.156   6.295
 9820SOL    HW230360   4.190   1.158   6.216
 9821SOL     OW30361   4.554   3.399   0.164
 9821SOL    HW130362   4.477   3.384   0.102
 9821SOL    HW230363   4.638   3.365   0.121
 9822SOL     OW30364   3.425   4.954   4.337
 9822SOL    HW130365   3.387   4.911   4.255
 9822SOL    HW230366   3.354   5.005   4.385
 9823SOL     OW30367   4.170   6.417   3.370
 9823SOL    HW130368   4.194   6.338   3.426
 9823SOL    HW230369   4.247   6.440   3.310
 9824SOL     OW30370   1.405   5.829   5.087
 9824SOL    HW130371   1.324   5.831   5.029
 9824SOL    HW230372   1.402   5.747   5.145
 9825SOL     OW30373   0.516   6.383   4.890
 9825SOL    HW130374   0.440   6.366   4.952
 9825SOL    HW230375   0.573   6.301   4.884
 9826SOL     OW30376   1.867   5.666   6.522
 9826SOL    HW130377   1.920   5.690   6.604
 9826SOL    HW230378   1.930   5.649   6.446
 9827SOL     OW30379   1.941   4.796   1.419
 9827SOL    HW130380   1.950   4.746   1.505
 9827SOL    HW230381   1.845   4.798   1.392
 9828SOL     OW30382   4.685   2.215   4.847
 9828SOL    HW130383   4.690   2.206   4.946
 9828SOL    HW230384   4.756   2.279   4.816
 9829SOL     OW30385   5.277   4.415   5.806
 9829SOL    HW130386   5.337   4.429   5.885
 9829SOL    HW230387   5.241   4.503   5.775
 9830SOL     OW30388   6.241   1.294   3.399
 9830SOL    HW130389   6.271   1.371   3.456
 9830SOL    HW230390   6.212   1.219   3.458
 9831SOL     OW30391   0.285   4.647   1.916
 9831SOL    HW130392   0.284   4.744   1.941
 9831SOL    HW230393   0.217   4.598   1.971
 9832SOL     OW30394   4.895   5.619   4.993
 9832SOL    HW130395   4.951   5.666   5.061
 9832SOL    HW230396   4.901   5.668   4.906
 9833SOL     OW30397   3.620   3.310   5.030
 9833SOL    HW130398   3.712   3.272   5.022
 9833SOL    HW230399   3.627   3.408   5.053
 9834SOL     OW30400   3.113   5.798   5.984
 9834SOL    HW130401   3.206   5.809   6.020
 9834SOL    HW230402   3.091   5.874   5.924
 9835SOL     OW30403   3.656   3.240   3.901
 9835SOL    HW130404   3.676   3.334   3.873
 9835SOL    HW230405   3.741   3.193   3.924
 9836SOL     OW30406   6.609   3.341   5.415
 9836SOL    HW130407   6.577   3.415   5.475
 9836SOL    HW230408   6.615   3.376   5.321
 9837SOL     OW30409   6.402   0.836   3.282
 9837SOL    HW130410   6.477   0.821   3.218
 9837SOL    HW230411   6.315   0.841   3.232
 9838SOL     OW30412   0.385   5.563   0.755
 9838SOL    HW130413   0.321   5.630   0.791
 9838SOL    HW230414   0.427   5.513   0.831
 9839SOL     OW30415   4.544   6.186   3.290
 9839SOL    HW130416   4.487   6.239   3.227
 9839SOL    HW230417   4.533   6.222   3.383
 9840SOL     OW30418   6.328   1.904   6.856
 9840SOL    HW130419   6.248   1.878   6.910
 9840SOL    HW230420   6.391   1.955   6.913
 9841SOL     OW30421   0.172   6.105   2.223
 9841SOL    HW130422   0.083   6.146   2.204
 9841SOL    HW230423   0.220   6.089   2.136
 9842SOL     OW30424   3.887   0.591   0.325
 9842SOL    HW130425   3.938   0.514   0.364
 9842SOL    HW230426   3.881   0.664   0.393
 9843SOL     OW30427   0.372   0.458   0.608
 9843SOL    HW130428   0.445   0.451   0.541
 9843SOL    HW230429   0.297   0.512   0.571
 9844SOL     OW30430   5.097   0.250   4.933
 9844SOL    HW130431   5.151   0.235   4.851
 9844SOL    HW230432   5.155   0.289   5.005
 9845SOL     OW30433   1.081   3.997   2.311
 9845SOL    HW130434   1.059   4.044   2.226
 9845SOL    HW230435   1.138   4.055   2.368
 9846SOL     OW30436   5.267   2.148   2.708
 9846SOL    HW130437   5.314   2.086   2.646
 9846SOL    HW230438   5.329   2.176   2.781
 9847SOL     OW30439   3.774   4.138   6.872
 9847SOL    HW130440   3.683   4.158   6.833
 9847SOL    HW230441   3.770   4.146   6.971
 9848SOL     OW30442   3.007   4.579   5.572
 9848SOL    HW130443   3.037   4.483   5.576
 9848SOL    HW230444   2.999   4.606   5.476
 9849SOL     OW30445   2.383   2.357   3.261
 9849SOL    HW130446   2.417   2.450   3.275
 9849SOL    HW230447   2.373   2.339   3.163
 9850SOL     OW30448   0.831   0.025   4.357
 9850SOL    HW130449   0.795   0.117   4.376
 9850SOL    HW230450   0.796   6.982   4.425
 9851SOL     OW30451   3.420   5.530   3.744
 9851SOL    HW130452   3.339   5.585   3.724
 9851SOL    HW230453   3.450   5.548   3.838
 9852SOL     OW30454   2.011   6.651   0.218
 9852SOL    HW130455   2.057   6.649   0.306
 9852SOL    HW230456   2.001   6.745   0.187
 9853SOL     OW30457   0.090   4.300   3.907
 9853SOL    HW130458   0.125   4.241   3.834
 9853SOL    HW230459   0.163   4.319   3.972
 9854SOL     OW30460   6.515   3.556   6.701
 9854SOL    HW130461   6.417   3.562   6.720
 9854SOL    HW230462   6.541   3.460   6.691
 9855SOL     OW30463   1.106   5.809   6.730
 9855SOL    HW130464   1.159   5.891   6.752
 9855SOL    HW230465   1.168   5.731   6.718
 9856SOL     OW30466   5.377   3.776   3.244
 9856SOL    HW130467   5.440   3.845   3.207
 9856SOL    HW230468   5.423   3.722   3.314
 9857SOL     OW30469   5.080   0.259   6.008
 9857SOL    HW130470   5.160   0.210   6.042
 9857SOL    HW230471   5.013   0.193   5.972
 9858SOL     OW30472   6.722   5.204   2.312
 9858SOL    HW130473   6.816   5.172   2.295
 9858SOL    HW230474   6.711   5.296   2.274
 9859SOL     OW30475   1.033   5.047   2.399
 9859SOL    HW130476   1.123   5.088   2.414
 9859SOL    HW230477   1.034   4.993   2.315
 9860SOL     OW30478   1.621   3.588   4.054
 9860SOL    HW130479   1.616   3.688   4.050
 9860SOL    HW230480   1.655   3.553   3.968
 9861SOL     OW30481   3.499   1.700   3.645
 9861SOL    HW130482   3.460   1.609   3.631
 9861SOL    HW230483   3.569   1.695   3.716
 9862SOL     OW30484   1.841   3.143   6.573
 9862SOL    HW130485   1.799   3.055   6.554
 9862SOL    HW230486   1.856   3.153   6.671
 9863SOL     OW30487   4.096   6.742   2.024
 9863SOL    HW130488   4.109   6.644   2.043
 9863SOL    HW230489   4.072   6.789   2.109
 9864SOL     OW30490   3.147   6.341   5.523
 9864SOL    HW130491   3.163   6.330   5.425
 9864SOL    HW230492   3.063   6.392   5.538
 9865SOL     OW30493   2.409   6.417   5.992
 9865SOL    HW130494   2.417   6.424   6.091
 9865SOL    HW230495   2.494   6.382   5.954
 9866SOL     OW30496   6.869   5.370   6.492
 9866SOL    HW130497   6.812   5.443   6.455
 9866SOL    HW230498   6.952   5.362   6.438
 9867SOL     OW30499   4.953   1.213   2.064
 9867SOL    HW130500   4.917   1.127   2.027
 9867SOL    HW230501   4.892   1.288   2.038
 9868SOL     OW30502   2.647   4.649   3.572
 9868SOL    HW130503   2.584   4.694   3.509
 9868SOL    HW230504   2.596   4.608   3.648
 9869SOL     OW30505   6.537   2.749   2.899
 9869SOL    HW130506   6.468   2.687   2.862
 9869SOL    HW230507   6.608   2.697   2.946
 9870SOL     OW30508   2.036   2.363   3.032
 9870SOL    HW130509   2.040   2.274   3.078
 9870SOL    HW230510   1.942   2.384   3.007
 9871SOL     OW30511   5.820   6.085   3.104
 9871SOL    HW130512   5.812   6.102   3.202
 9871SOL    HW230513   5.824   5.986   3.088
 9872SOL     OW30514   0.807   6.269   5.875
 9872SOL    HW130515   0.793   6.323   5.957
 9872SOL    HW230516   0.833   6.330   5.799
 9873SOL     OW30517   0.617   1.020   5.145
 9873SOL    HW130518   0.562   0.988   5.069
 9873SOL    HW230519   0.559   1.031   5.226
 9874SOL     OW30520   0.234   2.079   3.699
 9874SOL    HW130521   0.190   2.016   3.764
 9874SOL    HW230522   0.178   2.085   3.616
 9875SOL     OW30523   6.514   6.375   1.013
 9875SOL    HW130524   6.555   6.349   0.925
 9875SOL    HW230525   6.468   6.295   1.052
 9876SOL     OW30526   0.273   6.872   3.717
 9876SOL    HW130527   0.177   6.844   3.713
 9876SOL    HW230528   0.308   6.857   3.809
 9877SOL     OW30529   1.332   6.228   5.256
 9877SOL    HW130530   1.376   6.140   5.273
 9877SOL    HW230531   1.267   6.248   5.329
 9878SOL     OW30532   3.949   2.244   6.958
 9878SOL    HW130533   3.930   2.146   6.965
 9878SOL    HW230534   3.908   2.280   6.875
 9879SOL     OW30535   5.709   6.001   4.257
 9879SOL    HW130536   5.783   5.942   4.290
 9879SOL    HW230537   5.640   5.944   4.211
 9880SOL     OW30538   3.749   1.313   0.937
 9880SOL    HW130539   3.687   1.368   0.992
 9880SOL    HW230540   3.839   1.310   0.981
 9881SOL     OW30541   6.088   0.139   3.385
 9881SOL    HW130542   6.024   0.207   3.420
 9881SOL    HW230543   6.154   0.182   3.324
 9882SOL     OW30544   3.598   3.211   4.748
 9882SOL    HW130545   3.662   3.264   4.692
 9882SOL    HW230546   3.601   3.244   4.842
 9883SOL     OW30547   1.824   6.177   2.565
 9883SOL    HW130548   1.812   6.099   2.504
 9883SOL    HW230549   1.919   6.207   2.563
 9884SOL     OW30550   3.144   2.572   5.356
 9884SOL    HW130551   3.184   2.488   5.320
 9884SOL    HW230552   3.050   2.554   5.385
 9885SOL     OW30553   4.723   2.489   5.691
 9885SOL    HW130554   4.813   2.518   5.661
 9885SOL    HW230555   4.655   2.557   5.663
 9886SOL     OW30556   2.478   6.240   1.394
 9886SOL    HW130557   2.477   6.277   1.302
 9886SOL    HW230558   2.551   6.172   1.403
 9887SOL     OW30559   3.416   1.088   0.026
 9887SOL    HW130560   3.396   0.996   7.013
 9887SOL    HW230561   3.487   1.083   0.097
 9888SOL     OW30562   6.866   6.450   3.729
 9888SOL    HW130563   6.851   6.421   3.635
 9888SOL    HW230564   6.789   6.508   3.758
 9889SOL     OW30565   6.240   5.826   2.550
 9889SOL    HW130566   6.265   5.896   2.617
 9889SOL    HW230567   6.186   5.868   2.477
 9890SOL     OW30568   1.719   3.032   2.651
 9890SOL    HW130569   1.665   2.949   2.667
 9890SOL    HW230570   1.810   3.007   2.620
 9891SOL     OW30571   4.421   6.883   1.674
 9891SOL    HW130572   4.353   6.862   1.745
 9891SOL    HW230573   4.379   6.938   1.602
 9892SOL     OW30574   1.850   6.219   3.268
 9892SOL    HW130575   1.875   6.215   3.365
 9892SOL    HW230576   1.758   6.255   3.259
 9893SOL     OW30577   5.780   4.480   5.665
 9893SOL    HW130578   5.869   4.441   5.688
 9893SOL    HW230579   5.746   4.439   5.580
 9894SOL     OW30580   4.130   4.042   5.467
 9894SOL    HW130581   4.035   4.044   5.498
 9894SOL    HW230582   4.143   4.110   5.395
 9895SOL     OW30583   5.288   2.169   6.314
 9895SOL    HW130584   5.212   2.216   6.269
 9895SOL    HW230585   5.371   2.180   6.260
 9896SOL     OW30586   4.015   3.822   0.175
 9896SOL    HW130587   3.982   3.907   0.217
 9896SOL    HW230588   3.977   3.744   0.225
 9897SOL     OW30589   0.736   1.651   2.830
 9897SOL    HW130590   0.671   1.620   2.760
 9897SOL    HW230591   0.786   1.573   2.866
 9898SOL     OW30592   0.737   4.922   0.401
 9898SOL    HW130593   0.744   4.845   0.339
 9898SOL    HW230594   0.828   4.963   0.414
 9899SOL     OW30595   4.210   5.619   2.382
 9899SOL    HW130596   4.197   5.704   2.332
 9899SOL    HW230597   4.134   5.557   2.360
 9900SOL     OW30598   2.389   5.111   4.315
 9900SOL    HW130599   2.301   5.124   4.268
 9900SOL    HW230600   2.431   5.026   4.282
 9901SOL     OW30601   2.539   1.706   6.088
 9901SOL    HW130602   2.632   1.735   6.108
 9901SOL    HW230603   2.516   1.728   5.993
 9902SOL     OW30604   4.018   3.954   6.923
 9902SOL    HW130605   3.923   3.980   6.908
 9902SOL    HW230606   4.026   3.898   7.005
 9903SOL     OW30607   3.075   1.574   1.260
 9903SOL    HW130608   3.120   1.493   1.297
 9903SOL    HW230609   3.024   1.550   1.177
 9904SOL     OW30610   6.592   6.149   2.345
 9904SOL    HW130611   6.657   6.211   2.389
 9904SOL    HW230612   6.634   6.059   2.331
 9905SOL     OW30613   2.239   0.073   6.256
 9905SOL    HW130614   2.293   0.067   6.171
 9905SOL    HW230615   2.168   0.003   6.255
 9906SOL     OW30616   3.421   4.555   5.942
 9906SOL    HW130617   3.474   4.640   5.946
 9906SOL    HW230618   3.480   4.478   5.966
 9907SOL     OW30619   0.843   6.469   3.066
 9907SOL    HW130620   0.869   6.501   2.975
 9907SOL    HW230621   0.867   6.372   3.076
 9908SOL     OW30622   6.641   2.856   5.334
 9908SOL    HW130623   6.713   2.876   5.399
 9908SOL    HW230624   6.558   2.830   5.383
 9909SOL     OW30625   2.888   7.005   2.601
 9909SOL    HW130626   2.792   7.013   2.627
 9909SOL    HW230627   2.946   7.006   2.683
 9910SOL     OW30628   1.016   5.768   0.455
 9910SOL    HW130629   1.000   5.867   0.461
 9910SOL    HW230630   1.026   5.731   0.547
 9911SOL     OW30631   3.638   4.849   2.502
 9911SOL    HW130632   3.609   4.864   2.408
 9911SOL    HW230633   3.560   4.858   2.563
 9912SOL     OW30634   5.566   6.499   0.316
 9912SOL    HW130635   5.594   6.552   0.235
 9912SOL    HW230636   5.496   6.434   0.290
 9913SOL     OW30637   5.357   2.159   3.288
 9913SOL    HW130638   5.359   2.063   3.316
 9913SOL    HW230639   5.351   2.165   3.188
 9914SOL     OW30640   2.437   5.633   4.187
 9914SOL    HW130641   2.471   5.539   4.188
 9914SOL    HW230642   2.466   5.680   4.271
 9915SOL     OW30643   5.936   4.045   4.629
 9915SOL    HW130644   5.878   4.126   4.641
 9915SOL    HW230645   6.027   4.064   4.665
 9916SOL     OW30646   2.418   3.623   0.543
 9916SOL    HW130647   2.333   3.610   0.596
 9916SOL    HW230648   2.468   3.536   0.540
 9917SOL     OW30649   2.206   3.061   4.621
 9917SOL    HW130650   2.193   2.994   4.548
 9917SOL    HW230651   2.254   3.018   4.697
 9918SOL     OW30652   2.380   0.779   4.781
 9918SOL    HW130653   2.296   0.764   4.833
 9918SOL    HW230654   2.357   0.806   4.688
 9919SOL     OW30655   0.837   5.139   1.786
 9919SOL    HW130656   0.855   5.074   1.860
 9919SOL    HW230657   0.924   5.168   1.746
 9920SOL     OW30658   3.886   0.319   3.049
 9920SOL    HW130659   3.878   0.276   3.139
 9920SOL    HW230660   3.930   0.408   3.058
 9921SOL     OW30661   4.767   0.979   2.447
 9921SOL    HW130662   4.849   0.983   2.390
 9921SOL    HW230663   4.783   1.029   2.532
 9922SOL     OW30664   5.244   2.604   2.548
 9922SOL    HW130665   5.237   2.505   2.562
 9922SOL    HW230666   5.153   2.645   2.547
 9923SOL     OW30667   6.346   0.486   6.572
 9923SOL    HW130668   6.246   0.487   6.573
 9923SOL    HW230669   6.380   0.403   6.616
 9924SOL     OW30670   5.289   1.363   3.857
 9924SOL    HW130671   5.299   1.462   3.856
 9924SOL    HW230672   5.287   1.331   3.952
 9925SOL     OW30673   3.848   2.038   4.667
 9925SOL    HW130674   3.917   1.981   4.711
 9925SOL    HW230675   3.758   1.995   4.676
 9926SOL     OW30676   2.345   0.987   5.677
 9926SOL    HW130677   2.376   0.992   5.582
 9926SOL    HW230678   2.363   1.074   5.723
 9927SOL     OW30679   1.105   3.687   3.630
 9927SOL    HW130680   1.166   3.749   3.679
 9927SOL    HW230681   1.100   3.714   3.534
 9928SOL     OW30682   0.026   2.780   2.360
 9928SOL    HW130683   0.076   2.699   2.330
 9928SOL    HW230684   0.033   2.852   2.291
 9929SOL     OW30685   1.304   5.200   5.778
 9929SOL    HW130686   1.262   5.112   5.756
 9929SOL    HW230687   1.389   5.185   5.828
 9930SOL     OW30688   6.417   5.466   6.450
 9930SOL    HW130689   6.365   5.402   6.507
 9930SOL    HW230690   6.388   5.456   6.355
 9931SOL     OW30691   2.192   4.602   6.764
 9931SOL    HW130692   2.215   4.527   6.701
 9931SOL    HW230693   2.151   4.565   6.847
 9932SOL     OW30694   2.012   2.660   1.270
 9932SOL    HW130695   2.021   2.758   1.253
 9932SOL    HW230696   2.050   2.637   1.360
 9933SOL     OW30697   0.733   1.633   3.308
 9933SOL    HW130698   0.734   1.535   3.290
 9933SOL    HW230699   0.647   1.672   3.278
 9934SOL     OW30700   5.413   0.689   6.224
 9934SOL    HW130701   5.472   0.630   6.168
 9934SOL    HW230702   5.335   0.636   6.257
 9935SOL     OW30703   2.711   3.476   0.864
 9935SOL    HW130704   2.750   3.386   0.845
 9935SOL    HW230705   2.782   3.546   0.857
 9936SOL     OW30706   5.059   6.145   6.939
 9936SOL    HW130707   5.132   6.213   6.931
 9936SOL    HW230708   5.062   6.104   0.010
 9937SOL     OW30709   1.732   6.982   4.200
 9937SOL    HW130710   1.687   6.958   4.114
 9937SOL    HW230711   1.752   6.899   4.252
 9938SOL     OW30712   6.931   1.307   2.972
 9938SOL    HW130713   6.947   1.225   3.027
 9938SOL    HW230714   6.850   1.294   2.915
 9939SOL     OW30715   2.682   3.863   1.356
 9939SOL    HW130716   2.600   3.811   1.378
 9939SOL    HW230717   2.759   3.829   1.411
 9940SOL     OW30718   0.461   1.090   3.063
 9940SOL    HW130719   0.491   1.025   3.134
 9940SOL    HW230720   0.507   1.177   3.076
 9941SOL     OW30721   6.225   3.352   0.536
 9941SOL    HW130722   6.174   3.396   0.610
 9941SOL    HW230723   6.197   3.391   0.448
 9942SOL     OW30724   6.032   5.523   2.445
 9942SOL    HW130725   6.094   5.562   2.377
 9942SOL    HW230726   6.032   5.580   2.527
 9943SOL     OW30727   1.250   4.272   5.440
 9943SOL    HW130728   1.219   4.295   5.532
 9943SOL    HW230729   1.190   4.203   5.401
 9944SOL     OW30730   2.448   5.534   6.953
 9944SOL    HW130731   2.503   5.460   6.914
 9944SOL    HW230732   2.463   5.537   0.032
 9945SOL     OW30733   6.662   3.559   6.412
 9945SOL    HW130734   6.570   3.521   6.414
 9945SOL    HW230735   6.676   3.619   6.490
 9946SOL     OW30736   5.417   2.056   1.869
 9946SOL    HW130737   5.402   2.150   1.897
 9946SOL    HW230738   5.364   1.995   1.928
 9947SOL     OW30739   1.083   0.516   3.050
 9947SOL    HW130740   1.008   0.455   3.024
 9947SOL    HW230741   1.046   0.594   3.101
 9948SOL     OW30742   5.874   0.880   5.167
 9948SOL    HW130743   5.835   0.870   5.075
 9948SOL    HW230744   5.905   0.791   5.200
 9949SOL     OW30745   0.003   3.503   2.859
 9949SOL    HW130746   0.082   3.470   2.807
 9949SOL    HW230747   6.975   3.425   2.899
 9950SOL     OW30748   4.687   5.557   6.080
 9950SOL    HW130749   4.743   5.624   6.130
 9950SOL    HW230750   4.670   5.591   5.987
 9951SOL     OW30751   6.988   2.072   2.809
 9951SOL    HW130752   6.977   2.031   2.718
 9951SOL    HW230753   6.969   2.003   2.879
 9952SOL     OW30754   1.311   4.603   1.232
 9952SOL    HW130755   1.374   4.579   1.306
 9952SOL    HW230756   1.244   4.530   1.219
 9953SOL     OW30757   5.886   4.530   4.684
 9953SOL    HW130758   5.879   4.444   4.634
 9953SOL    HW230759   5.894   4.606   4.619
 9954SOL     OW30760   4.567   1.276   1.622
 9954SOL    HW130761   4.503   1.200   1.624
 9954SOL    HW230762   4.538   1.343   1.554
 9955SOL     OW30763   6.112   4.922   0.763
 9955SOL    HW130764   6.115   5.007   0.815
 9955SOL    HW230765   6.206   4.890   0.747
 9956SOL     OW30766   1.331   4.062   3.364
 9956SOL    HW130767   1.337   3.990   3.295
 9956SOL    HW230768   1.422   4.097   3.384
 9957SOL     OW30769   5.351   6.972   0.405
 9957SOL    HW130770   5.330   0.028   0.465
 9957SOL    HW230771   5.413   7.002   0.333
 9958SOL     OW30772   5.910   6.277   5.944
 9958SOL    HW130773   5.845   6.250   5.873
 9958SOL    HW230774   5.995   6.308   5.901
 9959SOL     OW30775   5.668   4.996   6.869
 9959SOL    HW130776   5.736   5.060   6.905
 9959SOL    HW230777   5.708   4.945   6.793
 9960SOL     OW30778   6.886   0.454   6.764
 9960SOL    HW130779   6.913   0.368   6.808
 9960SOL    HW230780   6.809   0.436   6.702
 9961SOL     OW30781   3.199   6.933   0.377
 9961SOL    HW130782   3.296   6.957   0.380
 9961SOL    HW230783   3.189   6.834   0.385
 9962SOL     OW30784   3.402   0.466   1.373
 9962SOL    HW130785   3.339   0.479   1.450
 9962SOL    HW230786   3.385   0.377   1.331
 9963SOL     OW30787   1.313   0.478   6.680
 9963SOL    HW130788   1.324   0.464   6.778
 9963SOL    HW230789   1.396   0.520   6.643
 9964SOL     OW30790   4.775   5.614   5.377
 9964SOL    HW130791   4.691   5.561   5.390
 9964SOL    HW230792   4.851   5.568   5.424
 9965SOL     OW30793   2.145   5.110   4.220
 9965SOL    HW130794   2.101   5.101   4.309
 9965SOL    HW230795   2.085   5.161   4.158
 9966SOL     OW30796   2.610   5.789   2.477
 9966SOL    HW130797   2.535   5.781   2.543
 9966SOL    HW230798   2.640   5.697   2.451
 9967SOL     OW30799   0.296   0.384   2.686
 9967SOL    HW130800   0.234   0.455   2.718
 9967SOL    HW230801   0.260   0.344   2.602
 9968SOL     OW30802   4.838   6.593   6.884
 9968SOL    HW130803   4.854   6.496   6.863
 9968SOL    HW230804   4.740   6.612   6.879
 9969SOL     OW30805   0.290   5.622   2.833
 9969SOL    HW130806   0.219   5.554   2.816
 9969SOL    HW230807   0.297   5.638   2.932
 9970SOL     OW30808   0.461   3.132   2.008
 9970SOL    HW130809   0.531   3.063   1.990
 9970SOL    HW230810   0.504   3.222   2.015
 9971SOL     OW30811   6.905   5.298   5.014
 9971SOL    HW130812   6.839   5.341   4.953
 9971SOL    HW230813   6.857   5.249   5.086
 9972SOL     OW30814   3.037   4.719   5.882
 9972SOL    HW130815   3.072   4.647   5.822
 9972SOL    HW230816   2.975   4.679   5.950
 9973SOL     OW30817   2.899   2.294   2.912
 9973SOL    HW130818   2.830   2.334   2.852
 9973SOL    HW230819   2.865   2.294   3.006
 9974SOL     OW30820   0.910   2.707   2.882
 9974SOL    HW130821   0.852   2.700   2.963
 9974SOL    HW230822   0.984   2.772   2.899
 9975SOL     OW30823   1.853   3.701   6.440
 9975SOL    HW130824   1.812   3.673   6.353
 9975SOL    HW230825   1.861   3.801   6.442
 9976SOL     OW30826   3.771   6.327   5.654
 9976SOL    HW130827   3.695   6.371   5.606
 9976SOL    HW230828   3.756   6.334   5.753
 9977SOL     OW30829   4.457   0.308   5.760
 9977SOL    HW130830   4.522   0.303   5.685
 9977SOL    HW230831   4.411   0.397   5.759
 9978SOL     OW30832   6.754   2.896   0.489
 9978SOL    HW130833   6.676   2.833   0.490
 9978SOL    HW230834   6.750   2.953   0.407
 9979SOL     OW30835   3.842   3.569   4.068
 9979SOL    HW130836   3.868   3.665   4.057
 9979SOL    HW230837   3.779   3.543   3.995
 9980SOL     OW30838   0.587   0.187   0.123
 9980SOL    HW130839   0.650   0.152   0.192
 9980SOL    HW230840   0.525   0.253   0.164
 9981SOL     OW30841   5.777   0.990   0.230
 9981SOL    HW130842   5.817   0.952   0.314
 9981SOL    HW230843   5.708   1.058   0.254
 9982SOL     OW30844   2.682   2.400   4.323
 9982SOL    HW130845   2.738   2.358   4.252
 9982SOL    HW230846   2.699   2.353   4.410
 9983SOL     OW30847   0.170   2.540   2.322
 9983SOL    HW130848   0.215   2.499   2.242
 9983SOL    HW230849   0.197   2.491   2.404
 9984SOL     OW30850   0.653   4.584   0.963
 9984SOL    HW130851   0.704   4.647   1.022
 9984SOL    HW230852   0.616   4.510   1.018
 9985SOL     OW30853   4.963   4.720   0.303
 9985SOL    HW130854   5.025   4.657   0.351
 9985SOL    HW230855   4.873   4.679   0.294
 9986SOL     OW30856   5.131   4.857   6.839
 9986SOL    HW130857   5.202   4.872   6.908
 9986SOL    HW230858   5.115   4.758   6.830
 9987SOL     OW30859   4.654   2.562   1.277
 9987SOL    HW130860   4.565   2.606   1.267
 9987SOL    HW230861   4.658   2.515   1.366
 9988SOL     OW30862   6.199   6.723   3.636
 9988SOL    HW130863   6.103   6.709   3.611
 9988SOL    HW230864   6.235   6.801   3.584
 9989SOL     OW30865   5.924   5.600   1.843
 9989SOL    HW130866   5.871   5.568   1.764
 9989SOL    HW230867   5.896   5.550   1.925
 9990SOL     OW30868   0.874   5.866   3.032
 9990SOL    HW130869   0.847   5.772   3.050
 9990SOL    HW230870   0.973   5.870   3.016
 9991SOL     OW30871   1.875   4.142   1.698
 9991SOL    HW130872   1.818   4.060   1.699
 9991SOL    HW230873   1.970   4.116   1.720
 9992SOL     OW30874   2.858   5.098   0.035
 9992SOL    HW130875   2.874   5.057   0.125
 9992SOL    HW230876   2.850   5.026   6.987
 9993SOL     OW30877   3.797   0.005   5.144
 9993SOL    HW130878   3.890   0.043   5.138
 9993SOL    HW230879   3.745   0.032   5.063
 9994SOL     OW30880   5.702   5.296   4.698
 9994SOL    HW130881   5.697   5.350   4.614
 9994SOL    HW230882   5.679   5.353   4.776
 9995SOL     OW30883   4.369   1.203   6.300
 9995SOL    HW130884   4.346   1.264   6.376
 9995SOL    HW230885   4.468   1.185   6.302
 9996SOL     OW30886   2.684   4.956   0.651
 9996SOL    HW130887   2.617   4.967   0.725
 9996SOL    HW230888   2.681   5.036   0.591
 9997SOL     OW30889   6.119   0.900   3.123
 9997SOL    HW130890   6.143   0.990   3.158
 9997SOL    HW230891   6.175   0.879   3.042
 9998SOL     OW30892   5.250   3.595   2.231
 9998SOL    HW130893   5.339   3.623   2.269
 9998SOL    HW230894   5.222   3.509   2.273
 9999SOL     OW30895   0.551   6.986   4.811
 9999SOL    HW130896   0.515   6.924   4.881
 9999SOL    HW230897   0.479   0.026   4.779
10000SOL     OW30898   4.769   2.825   1.506
10000SOL    HW130899   4.751   2.801   1.602
10000SOL    HW230900   4.683   2.848   1.461
10001SOL     OW30901   3.696   6.636   1.560
10001SOL    HW130902   3.690   6.609   1.464
10001SOL    HW230903   3.740   6.564   1.613
10002SOL     OW30904   2.182   6.860   2.464
10002SOL    HW130905   2.131   6.894   2.543
10002SOL    HW230906   2.196   6.762   2.473
10003SOL     OW30907   1.188   0.940   2.342
10003SOL    HW130908   1.261   0.964   2.278
10003SOL    HW230909   1.109   0.997   2.325
10004SOL     OW30910   0.097   3.651   3.625
10004SOL    HW130911   0.154   3.576   3.592
10004SOL    HW230912   0.039   3.618   3.700
10005SOL     OW30913   2.708   5.515   2.885
10005SOL    HW130914   2.752   5.432   2.921
10005SOL    HW230915   2.641   5.548   2.951
10006SOL     OW30916   5.333   1.843   5.554
10006SOL    HW130917   5.389   1.831   5.636
10006SOL    HW230918   5.242   1.873   5.579
10007SOL     OW30919   1.587   5.438   3.606
10007SOL    HW130920   1.540   5.408   3.688
10007SOL    HW230921   1.681   5.402   3.606
10008SOL     OW30922   4.372   1.198   5.593
10008SOL    HW130923   4.464   1.189   5.555
10008SOL    HW230924   4.309   1.138   5.544
10009SOL     OW30925   0.692   4.832   2.267
10009SOL    HW130926   0.612   4.818   2.325
10009SOL    HW230927   0.766   4.772   2.298
10010SOL     OW30928   1.999   4.525   0.765
10010SOL    HW130929   1.913   4.556   0.804
10010SOL    HW230930   2.003   4.425   0.770
10011SOL     OW30931   3.166   3.491   0.325
10011SOL    HW130932   3.132   3.466   0.416
10011SOL    HW230933   3.263   3.516   0.332
10012SOL     OW30934   5.339   1.999   4.054
10012SOL    HW130935   5.278   1.960   3.985
10012SOL    HW230936   5.305   1.976   4.145
10013SOL     OW30937   0.868   6.279   4.553
10013SOL    HW130938   0.909   6.190   4.568
10013SOL    HW230939   0.914   6.324   4.476
10014SOL     OW30940   1.188   1.265   3.369
10014SOL    HW130941   1.274   1.282   3.416
10014SOL    HW230942   1.167   1.168   3.372
10015SOL     OW30943   4.345   6.994   6.258
10015SOL    HW130944   4.301   0.061   6.277
10015SOL    HW230945   4.357   6.983   6.159
10016SOL     OW30946   2.911   0.876   4.299
10016SOL    HW130947   2.857   0.841   4.375
10016SOL    HW230948   2.997   0.914   4.334
10017SOL     OW30949   3.339   1.795   2.668
10017SOL    HW130950   3.416   1.824   2.612
10017SOL    HW230951   3.369   1.782   2.763
10018SOL     OW30952   0.065   4.716   5.313
10018SOL    HW130953   0.075   4.619   5.333
10018SOL    HW230954   0.149   4.764   5.338
10019SOL     OW30955   6.829   2.063   2.395
10019SOL    HW130956   6.856   2.039   2.302
10019SOL    HW230957   6.784   2.152   2.395
10020SOL     OW30958   6.114   0.714   2.253
10020SOL    HW130959   6.064   0.749   2.174
10020SOL    HW230960   6.173   0.638   2.225
10021SOL     OW30961   0.922   3.584   1.748
10021SOL    HW130962   0.986   3.638   1.693
10021SOL    HW230963   0.871   3.522   1.688
10022SOL     OW30964   1.567   6.383   5.970
10022SOL    HW130965   1.519   6.369   6.056
10022SOL    HW230966   1.543   6.308   5.907
10023SOL     OW30967   0.536   1.783   5.712
10023SOL    HW130968   0.483   1.779   5.627
10023SOL    HW230969   0.579   1.695   5.729
10024SOL     OW30970   2.228   4.797   3.209
10024SOL    HW130971   2.164   4.733   3.166
10024SOL    HW230972   2.317   4.790   3.166
10025SOL     OW30973   0.858   2.656   1.257
10025SOL    HW130974   0.800   2.688   1.332
10025SOL    HW230975   0.947   2.629   1.293
10026SOL     OW30976   5.812   1.121   4.826
10026SOL    HW130977   5.843   1.211   4.857
10026SOL    HW230978   5.887   1.076   4.776
10027SOL     OW30979   3.723   1.366   5.183
10027SOL    HW130980   3.664   1.333   5.257
10027SOL    HW230981   3.795   1.299   5.166
10028SOL     OW30982   3.936   6.905   2.195
10028SOL    HW130983   3.959   7.002   2.204
10028SOL    HW230984   3.838   6.896   2.177
10029SOL     OW30985   6.917   4.390   3.673
10029SOL    HW130986   6.872   4.327   3.611
10029SOL    HW230987   6.933   4.345   3.761
10030SOL     OW30988   2.182   6.935   4.633
10030SOL    HW130989   2.117   6.944   4.709
10030SOL    HW230990   2.165   6.850   4.584
10031SOL     OW30991   1.961   6.256   3.495
10031SOL    HW130992   1.940   6.353   3.509
10031SOL    HW230993   1.950   6.206   3.581
10032SOL     OW30994   3.207   5.867   3.910
10032SOL    HW130995   3.233   5.953   3.955
10032SOL    HW230996   3.284   5.803   3.914
10033SOL     OW30997   3.148   1.221   5.415
10033SOL    HW130998   3.084   1.145   5.406
10033SOL    HW230999   3.103   1.296   5.464
10034SOL     OW31000   2.562   1.252   2.563
10034SOL    HW131001   2.591   1.280   2.471
10034SOL    HW231002   2.596   1.160   2.581
10035SOL     OW31003   6.795   2.941   2.928
10035SOL    HW131004   6.707   2.939   2.881
10035SOL    HW231005   6.856   2.873   2.887
10036SOL     OW31006   0.976   0.737   6.909
10036SOL    HW131007   0.883   0.768   6.893
10036SOL    HW231008   1.040   0.796   6.860
10037SOL     OW31009   5.725   6.832   6.472
10037SOL    HW131010   5.686   6.741   6.461
10037SOL    HW231011   5.823   6.829   6.453
10038SOL     OW31012   4.898   6.333   6.807
10038SOL    HW131013   4.903   6.277   6.724
10038SOL    HW231014   4.938   6.282   6.883
10039SOL     OW31015   0.265   5.689   1.888
10039SOL    HW131016   0.189   5.736   1.934
10039SOL    HW231017   0.252   5.696   1.789
10040SOL     OW31018   2.313   6.725   0.181
10040SOL    HW131019   2.217   6.736   0.204
10040SOL    HW231020   2.347   6.809   0.138
10041SOL     OW31021   5.773   5.540   5.216
10041SOL    HW131022   5.831   5.602   5.270
10041SOL    HW231023   5.810   5.447   5.222
10042SOL     OW31024   6.693   0.786   5.030
10042SOL    HW131025   6.717   0.866   5.086
10042SOL    HW231026   6.683   0.706   5.089
10043SOL     OW31027   0.721   0.623   2.955
10043SOL    HW131028   0.674   0.704   2.989
10043SOL    HW231029   0.733   0.630   2.856
10044SOL     OW31030   3.164   2.190   0.208
10044SOL    HW131031   3.088   2.234   0.160
10044SOL    HW231032   3.175   2.096   0.176
10045SOL     OW31033   3.481   6.511   4.749
10045SOL    HW131034   3.490   6.497   4.847
10045SOL    HW231035   3.476   6.423   4.703
10046SOL     OW31036   6.758   2.300   2.001
10046SOL    HW131037   6.695   2.260   1.935
10046SOL    HW231038   6.805   2.227   2.051
10047SOL     OW31039   0.632   2.531   3.236
10047SOL    HW131040   0.561   2.468   3.205
10047SOL    HW231041   0.716   2.480   3.254
10048SOL     OW31042   3.717   2.537   1.641
10048SOL    HW131043   3.815   2.551   1.627
10048SOL    HW231044   3.703   2.453   1.694
10049SOL     OW31045   1.812   6.754   4.338
10049SOL    HW131046   1.733   6.704   4.374
10049SOL    HW231047   1.872   6.690   4.291
10050SOL     OW31048   5.616   0.950   4.766
10050SOL    HW131049   5.569   0.978   4.682
10050SOL    HW231050   5.689   1.015   4.787
10051SOL     OW31051   6.184   2.512   0.335
10051SOL    HW131052   6.283   2.517   0.327
10051SOL    HW231053   6.144   2.498   0.245
10052SOL     OW31054   1.492   4.550   1.458
10052SOL    HW131055   1.422   4.504   1.512
10052SOL    HW231056   1.550   4.482   1.414
10053SOL     OW31057   3.158   6.823   3.464
10053SOL    HW131058   3.207   6.796   3.381
10053SOL    HW231059   3.207   6.897   3.509
10054SOL     OW31060   4.269   5.711   4.010
10054SOL    HW131061   4.172   5.735   4.004
10054SOL    HW231062   4.281   5.613   3.996
10055SOL     OW31063   6.290   3.017   6.606
10055SOL    HW131064   6.250   2.971   6.685
10055SOL    HW231065   6.257   2.973   6.522
10056SOL     OW31066   6.150   4.664   2.293
10056SOL    HW131067   6.243   4.700   2.300
10056SOL    HW231068   6.091   4.732   2.250
10057SOL     OW31069   2.511   2.222   3.667
10057SOL    HW131070   2.472   2.220   3.759
10057SOL    HW231071   2.438   2.218   3.599
10058SOL     OW31072   1.007   4.932   3.577
10058SOL    HW131073   1.060   4.873   3.516
10058SOL    HW231074   0.914   4.940   3.542
10059SOL     OW31075   5.824   0.080   1.547
10059SOL    HW131076   5.735   0.035   1.542
10059SOL    HW231077   5.835   0.123   1.636
10060SOL     OW31078   2.379   2.686   2.216
10060SOL    HW131079   2.322   2.762   2.247
10060SOL    HW231080   2.344   2.652   2.128
10061SOL     OW31081   6.030   1.869   4.833
10061SOL    HW131082   6.090   1.837   4.759
10061SOL    HW231083   6.052   1.820   4.917
10062SOL     OW31084   5.458   5.520   2.896
10062SOL    HW131085   5.394   5.449   2.865
10062SOL    HW231086   5.407   5.593   2.941
10063SOL     OW31087   0.750   2.582   2.439
10063SOL    HW131088   0.720   2.637   2.361
10063SOL    HW231089   0.748   2.638   2.522
10064SOL     OW31090   5.643   5.964   5.415
10064SOL    HW131091   5.654   6.008   5.326
10064SOL    HW231092   5.591   6.024   5.476
10065SOL     OW31093   0.501   6.389   3.365
10065SOL    HW131094   0.493   6.455   3.440
10065SOL    HW231095   0.563   6.425   3.295
10066SOL     OW31096   0.550   0.315   3.529
10066SOL    HW131097   0.575   0.262   3.448
10066SOL    HW231098   0.622   0.307   3.597
10067SOL     OW31099   5.053   6.597   3.625
10067SOL    HW131100   5.110   6.613   3.545
10067SOL    HW231101   4.962   6.568   3.597
10068SOL     OW31102   4.922   3.837   5.456
10068SOL    HW131103   4.870   3.902   5.511
10068SOL    HW231104   4.874   3.820   5.370
10069SOL     OW31105   4.884   1.012   3.849
10069SOL    HW131106   4.942   0.976   3.923
10069SOL    HW231107   4.879   1.111   3.856
10070SOL     OW31108   1.384   6.931   4.666
10070SOL    HW131109   1.397   6.833   4.650
10070SOL    HW231110   1.289   6.949   4.692
10071SOL     OW31111   5.133   5.019   5.067
10071SOL    HW131112   5.170   4.986   4.981
10071SOL    HW231113   5.132   5.119   5.067
10072SOL     OW31114   1.089   6.975   3.590
10072SOL    HW131115   1.021   6.906   3.611
10072SOL    HW231116   1.095   6.988   3.491
10073SOL     OW31117   0.003   5.657   6.266
10073SOL    HW131118   7.014   5.740   6.321
10073SOL    HW231119   6.965   5.663   6.185
10074SOL     OW31120   2.617   0.009   5.797
10074SOL    HW131121   2.594   6.980   5.880
10074SOL    HW231122   2.713   7.015   5.775
10075SOL     OW31123   1.297   2.628   3.591
10075SOL    HW131124   1.268   2.583   3.676
10075SOL    HW231125   1.392   2.659   3.600
10076SOL     OW31126   5.569   0.145   4.191
10076SOL    HW131127   5.570   0.238   4.152
10076SOL    HW231128   5.655   0.128   4.239
10077SOL     OW31129   2.610   1.116   6.853
10077SOL    HW131130   2.527   1.063   6.837
10077SOL    HW231131   2.683   1.085   6.791
10078SOL     OW31132   5.529   6.154   5.588
10078SOL    HW131133   5.484   6.133   5.675
10078SOL    HW231134   5.479   6.228   5.542
10079SOL     OW31135   6.759   2.617   6.165
10079SOL    HW131136   6.810   2.651   6.245
10079SOL    HW231137   6.757   2.518   6.168
10080SOL     OW31138   1.090   2.377   5.723
10080SOL    HW131139   1.145   2.407   5.644
10080SOL    HW231140   1.130   2.294   5.761
10081SOL     OW31141   0.306   1.330   0.202
10081SOL    HW131142   0.234   1.262   0.212
10081SOL    HW231143   0.371   1.301   0.132
10082SOL     OW31144   0.061   0.484   0.838
10082SOL    HW131145   0.066   0.538   0.753
10082SOL    HW231146   0.067   0.545   0.917
10083SOL     OW31147   5.154   1.120   4.510
10083SOL    HW131148   5.128   1.159   4.422
10083SOL    HW231149   5.098   1.039   4.528
10084SOL     OW31150   2.248   0.981   6.516
10084SOL    HW131151   2.264   0.893   6.472
10084SOL    HW231152   2.198   1.042   6.454
10085SOL     OW31153   0.793   5.461   2.265
10085SOL    HW131154   0.863   5.409   2.313
10085SOL    HW231155   0.822   5.557   2.257
10086SOL     OW31156   6.744   3.781   2.351
10086SOL    HW131157   6.723   3.691   2.312
10086SOL    HW231158   6.830   3.815   2.312
10087SOL     OW31159   1.257   0.021   3.994
10087SOL    HW131160   1.159   0.008   3.980
10087SOL    HW231161   1.275   0.114   4.025
10088SOL     OW31162   6.651   0.482   4.725
10088SOL    HW131163   6.709   0.406   4.754
10088SOL    HW231164   6.706   0.566   4.720
10089SOL     OW31165   1.477   2.938   2.440
10089SOL    HW131166   1.504   2.911   2.348
10089SOL    HW231167   1.539   2.895   2.506
10090SOL     OW31168   0.094   4.280   1.893
10090SOL    HW131169   0.004   4.249   1.862
10090SOL    HW231170   0.162   4.209   1.872
10091SOL     OW31171   0.444   2.217   3.968
10091SOL    HW131172   0.485   2.186   3.882
10091SOL    HW231173   0.414   2.137   4.021
10092SOL     OW31174   1.903   2.954   5.045
10092SOL    HW131175   1.989   3.004   5.049
10092SOL    HW231176   1.922   2.856   5.034
10093SOL     OW31177   0.316   5.705   6.766
10093SOL    HW131178   0.338   5.751   6.680
10093SOL    HW231179   0.244   5.637   6.750
10094SOL     OW31180   1.390   1.179   1.871
10094SOL    HW131181   1.469   1.239   1.863
10094SOL    HW231182   1.361   1.150   1.780
10095SOL     OW31183   0.391   1.351   6.068
10095SOL    HW131184   0.361   1.344   6.164
10095SOL    HW231185   0.326   1.406   6.017
10096SOL     OW31186   6.886   5.243   1.952
10096SOL    HW131187   6.911   5.149   1.975
10096SOL    HW231188   6.959   5.304   1.982
10097SOL     OW31189   1.284   2.273   6.083
10097SOL    HW131190   1.208   2.232   6.132
10097SOL    HW231191   1.249   2.327   6.006
10098SOL     OW31192   3.395   5.484   6.596
10098SOL    HW131193   3.357   5.560   6.542
10098SOL    HW231194   3.493   5.500   6.610
10099SOL     OW31195   6.653   4.592   4.477
10099SOL    HW131196   6.690   4.628   4.563
10099SOL    HW231197   6.724   4.541   4.428
10100SOL     OW31198   5.402   1.035   5.465
10100SOL    HW131199   5.343   1.088   5.403
10100SOL    HW231200   5.370   0.940   5.467
10101SOL     OW31201   6.941   4.707   2.219
10101SOL    HW131202   6.858   4.679   2.267
10101SOL    HW231203   7.013   4.725   2.285
10102SOL     OW31204   3.820   1.039   3.685
10102SOL    HW131205   3.872   1.118   3.654
10102SOL    HW231206   3.751   1.016   3.617
10103SOL     OW31207   1.641   1.977   0.142
10103SOL    HW131208   1.728   2.018   0.170
10103SOL    HW231209   1.616   1.905   0.208
10104SOL     OW31210   1.932   5.771   5.531
10104SOL    HW131211   1.905   5.675   5.524
10104SOL    HW231212   2.027   5.782   5.500
10105SOL     OW31213   3.131   0.252   6.892
10105SOL    HW131214   3.151   0.211   6.981
10105SOL    HW231215   3.049   0.209   6.853
10106SOL     OW31216   5.422   5.790   1.119
10106SOL    HW131217   5.517   5.815   1.136
10106SOL    HW231218   5.418   5.715   1.052
10107SOL     OW31219   5.633   1.046   5.589
10107SOL    HW131220   5.560   1.038   5.521
10107SOL    HW231221   5.595   1.034   5.680
10108SOL     OW31222   5.886   6.356   6.789
10108SOL    HW131223   5.827   6.341   6.709
10108SOL    HW231224   5.916   6.267   6.824
10109SOL     OW31225   4.680   5.545   3.768
10109SOL    HW131226   4.776   5.566   3.786
10109SOL    HW231227   4.622   5.601   3.827
10110SOL     OW31228   3.474   1.312   5.991
10110SOL    HW131229   3.505   1.401   5.957
10110SOL    HW231230   3.414   1.269   5.924
10111SOL     OW31231   0.163   2.550   2.638
10111SOL    HW131232   0.213   2.490   2.701
10111SOL    HW231233   0.202   2.642   2.643
10112SOL     OW31234   4.242   4.235   6.252
10112SOL    HW131235   4.258   4.172   6.176
10112SOL    HW231236   4.318   4.300   6.259
10113SOL     OW31237   4.154   6.334   0.614
10113SOL    HW131238   4.207   6.309   0.695
10113SOL    HW231239   4.200   6.299   0.533
10114SOL     OW31240   3.949   1.834   1.510
10114SOL    HW131241   4.001   1.914   1.540
10114SOL    HW231242   3.982   1.805   1.420
10115SOL     OW31243   1.166   1.949   3.867
10115SOL    HW131244   1.098   1.979   3.933
10115SOL    HW231245   1.207   2.029   3.823
10116SOL     OW31246   1.058   0.834   0.833
10116SOL    HW131247   1.098   0.884   0.910
10116SOL    HW231248   0.984   0.776   0.865
10117SOL     OW31249   5.129   0.529   6.016
10117SOL    HW131250   5.052   0.593   6.025
10117SOL    HW231251   5.095   0.440   5.985
10118SOL     OW31252   6.364   4.786   2.399
10118SOL    HW131253   6.276   4.811   2.438
10118SOL    HW231254   6.437   4.813   2.462
10119SOL     OW31255   2.530   0.409   5.469
10119SOL    HW131256   2.487   0.409   5.559
10119SOL    HW231257   2.534   0.315   5.434
10120SOL     OW31258   5.630   3.141   3.774
10120SOL    HW131259   5.675   3.211   3.831
10120SOL    HW231260   5.562   3.093   3.829
10121SOL     OW31261   5.555   4.906   4.237
10121SOL    HW131262   5.603   4.824   4.270
10121SOL    HW231263   5.594   4.987   4.282
10122SOL     OW31264   5.520   3.659   6.896
10122SOL    HW131265   5.461   3.614   6.963
10122SOL    HW231266   5.612   3.670   6.933
10123SOL     OW31267   0.001   0.158   0.495
10123SOL    HW131268   6.954   0.093   0.460
10123SOL    HW231269   6.986   0.201   0.578
10124SOL     OW31270   3.076   4.496   0.663
10124SOL    HW131271   3.171   4.527   0.662
10124SOL    HW231272   3.042   4.490   0.569
10125SOL     OW31273   1.832   0.124   0.993
10125SOL    HW131274   1.776   0.153   1.071
10125SOL    HW231275   1.822   0.190   0.919
10126SOL     OW31276   5.349   4.903   0.000
10126SOL    HW131277   5.397   4.958   0.069
10126SOL    HW231278   5.395   4.814   7.012
10127SOL     OW31279   3.661   4.235   5.263
10127SOL    HW131280   3.635   4.177   5.340
10127SOL    HW231281   3.621   4.200   5.178
10128SOL     OW31282   0.195   1.703   1.160
10128SOL    HW131283   0.238   1.789   1.131
10128SOL    HW231284   0.182   1.644   1.080
10129SOL     OW31285   5.079   2.674   3.699
10129SOL    HW131286   4.993   2.689   3.748
10129SOL    HW231287   5.066   2.692   3.601
10130SOL     OW31288   6.248   5.876   1.481
10130SOL    HW131289   6.312   5.855   1.407
10130SOL    HW231290   6.298   5.920   1.556
10131SOL     OW31291   6.465   0.409   0.913
10131SOL    HW131292   6.416   0.323   0.898
10131SOL    HW231293   6.500   0.443   0.826
10132SOL     OW31294   2.568   0.152   2.841
10132SOL    HW131295   2.576   0.170   2.939
10132SOL    HW231296   2.476   0.178   2.810
10133SOL     OW31297   5.593   4.516   2.780
10133SOL    HW131298   5.564   4.610   2.800
10133SOL    HW231299   5.570   4.457   2.857
10134SOL     OW31300   0.311   1.376   2.402
10134SOL    HW131301   0.387   1.314   2.421
10134SOL    HW231302   0.227   1.340   2.442
10135SOL     OW31303   2.992   5.987   2.666
10135SOL    HW131304   3.088   6.002   2.646
10135SOL    HW231305   2.969   5.891   2.652
10136SOL     OW31306   6.859   0.458   2.268
10136SOL    HW131307   6.917   0.453   2.187
10136SOL    HW231308   6.763   0.447   2.241
10137SOL     OW31309   5.451   5.203   4.294
10137SOL    HW131310   5.377   5.247   4.345
10137SOL    HW231311   5.510   5.153   4.357
10138SOL     OW31312   5.444   2.372   6.762
10138SOL    HW131313   5.357   2.420   6.753
10138SOL    HW231314   5.439   2.309   6.839
10139SOL     OW31315   3.843   3.181   3.277
10139SOL    HW131316   3.746   3.196   3.296
10139SOL    HW231317   3.861   3.194   3.179
10140SOL     OW31318   0.881   4.928   4.877
10140SOL    HW131319   0.786   4.915   4.851
10140SOL    HW231320   0.890   5.012   4.930
10141SOL     OW31321   2.247   0.694   3.788
10141SOL    HW131322   2.298   0.622   3.835
10141SOL    HW231323   2.222   0.765   3.853
10142SOL     OW31324   4.788   5.948   4.331
10142SOL    HW131325   4.812   5.912   4.420
10142SOL    HW231326   4.818   6.043   4.324
10143SOL     OW31327   4.813   5.895   1.378
10143SOL    HW131328   4.866   5.896   1.293
10143SOL    HW231329   4.865   5.847   1.449
10144SOL     OW31330   2.492   5.084   3.280
10144SOL    HW131331   2.501   4.995   3.236
10144SOL    HW231332   2.404   5.124   3.258
10145SOL     OW31333   2.929   6.462   5.599
10145SOL    HW131334   2.872   6.398   5.650
10145SOL    HW231335   2.965   6.532   5.661
10146SOL     OW31336   5.298   4.798   4.546
10146SOL    HW131337   5.304   4.698   4.555
10146SOL    HW231338   5.280   4.821   4.450
10147SOL     OW31339   4.741   5.610   4.575
10147SOL    HW131340   4.769   5.706   4.570
10147SOL    HW231341   4.814   5.553   4.537
10148SOL     OW31342   5.943   5.286   0.310
10148SOL    HW131343   6.014   5.226   0.274
10148SOL    HW231344   5.857   5.267   0.263
10149SOL     OW31345   4.378   3.441   0.631
10149SOL    HW131346   4.279   3.448   0.617
10149SOL    HW231347   4.398   3.440   0.729
10150SOL     OW31348   5.557   3.918   1.128
10150SOL    HW131349   5.624   3.988   1.101
10150SOL    HW231350   5.605   3.840   1.168
10151SOL     OW31351   1.177   6.594   5.700
10151SOL    HW131352   1.209   6.576   5.606
10151SOL    HW231353   1.252   6.577   5.764
10152SOL     OW31354   0.213   5.346   3.968
10152SOL    HW131355   0.256   5.361   3.879
10152SOL    HW231356   0.173   5.254   3.971
10153SOL     OW31357   5.902   6.664   3.852
10153SOL    HW131358   5.950   6.608   3.784
10153SOL    HW231359   5.804   6.664   3.833
10154SOL     OW31360   6.576   5.373   5.518
10154SOL    HW131361   6.585   5.414   5.427
10154SOL    HW231362   6.667   5.359   5.558
10155SOL     OW31363   3.622   1.428   6.457
10155SOL    HW131364   3.579   1.341   6.432
10155SOL    HW231365   3.553   1.501   6.453
10156SOL     OW31366   5.810   0.108   2.345
10156SOL    HW131367   5.848   0.044   2.280
10156SOL    HW231368   5.754   0.176   2.297
10157SOL     OW31369   4.861   0.954   4.779
10157SOL    HW131370   4.881   0.921   4.872
10157SOL    HW231371   4.828   1.048   4.784
10158SOL     OW31372   4.296   3.877   6.284
10158SOL    HW131373   4.270   3.940   6.211
10158SOL    HW231374   4.225   3.808   6.296
10159SOL     OW31375   1.364   1.107   6.375
10159SOL    HW131376   1.314   1.045   6.436
10159SOL    HW231377   1.339   1.087   6.280
10160SOL     OW31378   0.920   5.912   3.299
10160SOL    HW131379   0.915   5.983   3.229
10160SOL    HW231380   1.008   5.866   3.295
10161SOL     OW31381   2.041   6.211   6.055
10161SOL    HW131382   2.084   6.273   5.988
10161SOL    HW231383   1.975   6.153   6.008
10162SOL     OW31384   3.387   2.163   6.994
10162SOL    HW131385   3.465   2.139   6.937
10162SOL    HW231386   3.418   2.183   0.066
10163SOL     OW31387   6.681   2.604   5.658
10163SOL    HW131388   6.671   2.674   5.729
10163SOL    HW231389   6.590   2.576   5.627
10164SOL     OW31390   0.638   2.702   5.136
10164SOL    HW131391   0.561   2.644   5.108
10164SOL    HW231392   0.646   2.702   5.235
10165SOL     OW31393   6.856   2.324   3.294
10165SOL    HW131394   6.901   2.287   3.376
10165SOL    HW231395   6.853   2.254   3.223
10166SOL     OW31396   0.490   1.116   2.429
10166SOL    HW131397   0.545   1.143   2.350
10166SOL    HW231398   0.414   1.058   2.398
10167SOL     OW31399   4.692   0.144   0.729
10167SOL    HW131400   4.751   0.122   0.651
10167SOL    HW231401   4.716   0.235   0.762
10168SOL     OW31402   6.481   4.042   4.544
10168SOL    HW131403   6.531   4.123   4.577
10168SOL    HW231404   6.390   4.040   4.585
10169SOL     OW31405   6.518   4.041   4.262
10169SOL    HW131406   6.455   3.981   4.212
10169SOL    HW231407   6.486   4.052   4.356
10170SOL     OW31408   1.433   3.728   4.787
10170SOL    HW131409   1.425   3.778   4.873
10170SOL    HW231410   1.400   3.785   4.712
10171SOL     OW31411   6.617   3.099   5.788
10171SOL    HW131412   6.569   3.179   5.753
10171SOL    HW231413   6.551   3.028   5.813
10172SOL     OW31414   4.508   1.022   3.994
10172SOL    HW131415   4.558   0.946   4.036
10172SOL    HW231416   4.413   1.021   4.026
10173SOL     OW31417   2.186   2.035   2.424
10173SOL    HW131418   2.176   2.119   2.371
10173SOL    HW231419   2.273   1.991   2.402
10174SOL     OW31420   5.972   4.686   0.789
10174SOL    HW131421   5.991   4.649   0.698
10174SOL    HW231422   5.967   4.786   0.785
10175SOL     OW31423   6.131   2.179   6.200
10175SOL    HW131424   6.168   2.269   6.222
10175SOL    HW231425   6.061   2.155   6.267
10176SOL     OW31426   2.284   3.766   0.133
10176SOL    HW131427   2.237   3.780   0.220
10176SOL    HW231428   2.375   3.728   0.149
10177SOL     OW31429   2.013   0.223   5.769
10177SOL    HW131430   1.994   0.309   5.721
10177SOL    HW231431   2.080   0.240   5.841
10178SOL     OW31432   5.746   2.754   5.164
10178SOL    HW131433   5.763   2.656   5.152
10178SOL    HW231434   5.706   2.770   5.254
10179SOL     OW31435   0.876   3.160   6.341
10179SOL    HW131436   0.972   3.131   6.335
10179SOL    HW231437   0.826   3.127   6.261
10180SOL     OW31438   2.706   6.724   5.665
10180SOL    HW131439   2.798   6.759   5.644
10180SOL    HW231440   2.646   6.741   5.587
10181SOL     OW31441   5.861   3.028   1.841
10181SOL    HW131442   5.859   3.070   1.932
10181SOL    HW231443   5.873   3.099   1.772
10182SOL     OW31444   5.192   1.822   0.485
10182SOL    HW131445   5.171   1.913   0.520
10182SOL    HW231446   5.208   1.760   0.561
10183SOL     OW31447   1.615   1.687   6.546
10183SOL    HW131448   1.544   1.732   6.601
10183SOL    HW231449   1.683   1.647   6.607
10184SOL     OW31450   4.702   0.358   6.312
10184SOL    HW131451   4.692   0.259   6.312
10184SOL    HW231452   4.715   0.390   6.405
10185SOL     OW31453   4.882   1.211   6.799
10185SOL    HW131454   4.884   1.311   6.807
10185SOL    HW231455   4.888   1.169   6.889
10186SOL     OW31456   4.236   1.844   3.139
10186SOL    HW131457   4.286   1.759   3.124
10186SOL    HW231458   4.194   1.874   3.054
10187SOL     OW31459   0.998   2.367   2.145
10187SOL    HW131460   0.909   2.325   2.162
10187SOL    HW231461   0.988   2.467   2.146
10188SOL     OW31462   3.585   4.846   1.104
10188SOL    HW131463   3.496   4.869   1.145
10188SOL    HW231464   3.653   4.838   1.176
10189SOL     OW31465   1.347   6.533   5.461
10189SOL    HW131466   1.373   6.628   5.448
10189SOL    HW231467   1.426   6.474   5.446
10190SOL     OW31468   5.116   2.353   0.174
10190SOL    HW131469   5.212   2.382   0.167
10190SOL    HW231470   5.057   2.421   0.130
10191SOL     OW31471   6.792   4.523   6.771
10191SOL    HW131472   6.714   4.511   6.710
10191SOL    HW231473   6.841   4.607   6.746
10192SOL     OW31474   3.137   1.097   0.078
10192SOL    HW131475   3.129   1.197   0.069
10192SOL    HW231476   3.214   1.065   0.023
10193SOL     OW31477   4.084   3.716   0.578
10193SOL    HW131478   4.109   3.761   0.493
10193SOL    HW231479   4.118   3.622   0.578
10194SOL     OW31480   4.876   3.581   5.608
10194SOL    HW131481   4.906   3.676   5.616
10194SOL    HW231482   4.890   3.549   5.514
10195SOL     OW31483   6.287   4.379   1.709
10195SOL    HW131484   6.268   4.401   1.613
10195SOL    HW231485   6.315   4.461   1.757
10196SOL     OW31486   0.571   1.642   4.484
10196SOL    HW131487   0.588   1.568   4.420
10196SOL    HW231488   0.483   1.626   4.531
10197SOL     OW31489   5.781   0.714   6.837
10197SOL    HW131490   5.736   0.802   6.823
10197SOL    HW231491   5.772   0.658   6.755
10198SOL     OW31492   4.446   6.851   3.342
10198SOL    HW131493   4.436   6.942   3.383
10198SOL    HW231494   4.377   6.790   3.380
10199SOL     OW31495   0.929   2.109   5.537
10199SOL    HW131496   0.925   2.152   5.627
10199SOL    HW231497   0.842   2.064   5.518
10200SOL     OW31498   5.251   1.582   1.785
10200SOL    HW131499   5.212   1.550   1.871
10200SOL    HW231500   5.193   1.653   1.746
10201SOL     OW31501   0.866   3.938   0.434
10201SOL    HW131502   0.821   3.906   0.517
10201SOL    HW231503   0.841   3.880   0.357
10202SOL     OW31504   4.355   0.683   4.009
10202SOL    HW131505   4.305   0.753   3.959
10202SOL    HW231506   4.451   0.711   4.020
10203SOL     OW31507   6.671   2.698   4.755
10203SOL    HW131508   6.670   2.713   4.854
10203SOL    HW231509   6.578   2.681   4.723
10204SOL     OW31510   5.662   4.931   6.360
10204SOL    HW131511   5.611   4.894   6.282
10204SOL    HW231512   5.690   5.025   6.340
10205SOL     OW31513   1.063   0.657   6.174
10205SOL    HW131514   1.124   0.672   6.097
10205SOL    HW231515   1.086   0.720   6.248
10206SOL     OW31516   1.770   0.689   4.651
10206SOL    HW131517   1.734   0.725   4.565
10206SOL    HW231518   1.713   0.613   4.681
10207SOL     OW31519   2.295   1.910   4.944
10207SOL    HW131520   2.265   1.907   5.039
10207SOL    HW231521   2.382   1.960   4.938
10208SOL     OW31522   6.837   6.143   5.464
10208SOL    HW131523   6.858   6.048   5.441
10208SOL    HW231524   6.742   6.163   5.440
10209SOL     OW31525   0.110   7.009   5.969
10209SOL    HW131526   0.095   6.952   6.050
10209SOL    HW231527   0.198   6.985   5.928
10210SOL     OW31528   3.029   0.048   1.294
10210SOL    HW131529   2.965   0.116   1.257
10210SOL    HW231530   3.048   0.070   1.390
10211SOL     OW31531   5.225   5.825   5.977
10211SOL    HW131532   5.286   5.867   6.044
10211SOL    HW231533   5.275   5.806   5.893
10212SOL     OW31534   0.601   0.773   6.258
10212SOL    HW131535   0.641   0.756   6.349
10212SOL    HW231536   0.675   0.789   6.193
10213SOL     OW31537   6.459   2.221   0.993
10213SOL    HW131538   6.393   2.265   1.055
10213SOL    HW231539   6.542   2.198   1.044
10214SOL     OW31540   1.314   2.391   6.714
10214SOL    HW131541   1.220   2.422   6.699
10214SOL    HW231542   1.344   2.337   6.636
10215SOL     OW31543   2.834   3.352   2.140
10215SOL    HW131544   2.897   3.429   2.140
10215SOL    HW231545   2.766   3.364   2.212
10216SOL     OW31546   0.618   6.541   2.152
10216SOL    HW131547   0.625   6.549   2.052
10216SOL    HW231548   0.691   6.594   2.194
10217SOL     OW31549   3.209   1.293   4.843
10217SOL    HW131550   3.111   1.305   4.859
10217SOL    HW231551   3.260   1.352   4.906
10218SOL     OW31552   0.923   3.289   2.442
10218SOL    HW131553   0.916   3.197   2.481
10218SOL    HW231554   1.016   3.305   2.411
10219SOL     OW31555   6.887   5.925   3.290
10219SOL    HW131556   6.834   5.858   3.342
10219SOL    HW231557   6.948   5.878   3.227
10220SOL     OW31558   3.700   3.191   0.431
10220SOL    HW131559   3.680   3.141   0.515
10220SOL    HW231560   3.640   3.158   0.358
10221SOL     OW31561   0.808   5.485   3.980
10221SOL    HW131562   0.753   5.527   4.052
10221SOL    HW231563   0.794   5.386   3.981
10222SOL     OW31564   3.359   3.548   3.810
10222SOL    HW131565   3.434   3.608   3.780
10222SOL    HW231566   3.294   3.537   3.735
10223SOL     OW31567   2.119   6.152   0.713
10223SOL    HW131568   2.027   6.166   0.677
10223SOL    HW231569   2.115   6.132   0.811
10224SOL     OW31570   6.368   4.033   3.175
10224SOL    HW131571   6.451   4.047   3.229
10224SOL    HW231572   6.385   4.062   3.080
10225SOL     OW31573   2.126   4.066   5.928
10225SOL    HW131574   2.121   4.066   5.828
10225SOL    HW231575   2.076   3.987   5.963
10226SOL     OW31576   5.238   3.765   0.591
10226SOL    HW131577   5.275   3.702   0.524
10226SOL    HW231578   5.293   3.849   0.592
10227SOL     OW31579   5.731   3.146   1.421
10227SOL    HW131580   5.793   3.070   1.405
10227SOL    HW231581   5.644   3.111   1.455
10228SOL     OW31582   5.219   0.812   0.527
10228SOL    HW131583   5.139   0.816   0.467
10228SOL    HW231584   5.244   0.904   0.556
10229SOL     OW31585   0.179   2.825   5.156
10229SOL    HW131586   0.259   2.814   5.098
10229SOL    HW231587   0.126   2.740   5.157
10230SOL     OW31588   6.747   6.015   1.511
10230SOL    HW131589   6.785   6.058   1.593
10230SOL    HW231590   6.684   5.942   1.537
10231SOL     OW31591   0.648   5.021   2.704
10231SOL    HW131592   0.589   5.060   2.634
10231SOL    HW231593   0.742   5.015   2.670
10232SOL     OW31594   4.723   4.638   3.151
10232SOL    HW131595   4.719   4.540   3.131
10232SOL    HW231596   4.651   4.685   3.099
10233SOL     OW31597   2.783   4.221   5.560
10233SOL    HW131598   2.737   4.261   5.481
10233SOL    HW231599   2.715   4.184   5.623
10234SOL     OW31600   0.610   1.238   2.212
10234SOL    HW131601   0.700   1.215   2.176
10234SOL    HW231602   0.609   1.333   2.243
10235SOL     OW31603   1.454   1.051   2.800
10235SOL    HW131604   1.554   1.056   2.807
10235SOL    HW231605   1.426   0.955   2.797
10236SOL     OW31606   1.774   6.837   2.509
10236SOL    HW131607   1.718   6.876   2.582
10236SOL    HW231608   1.767   6.896   2.428
10237SOL     OW31609   0.403   3.668   4.654
10237SOL    HW131610   0.342   3.642   4.579
10237SOL    HW231611   0.349   3.708   4.728
10238SOL     OW31612   2.671   0.109   1.425
10238SOL    HW131613   2.692   0.063   1.338
10238SOL    HW231614   2.633   0.200   1.405
10239SOL     OW31615   0.731   1.798   4.639
10239SOL    HW131616   0.675   1.853   4.702
10239SOL    HW231617   0.671   1.738   4.586
10240SOL     OW31618   1.852   6.170   0.637
10240SOL    HW131619   1.788   6.133   0.704
10240SOL    HW231620   1.805   6.240   0.582
10241SOL     OW31621   4.495   2.934   1.138
10241SOL    HW131622   4.506   2.946   1.237
10241SOL    HW231623   4.460   3.019   1.098
10242SOL     OW31624   6.900   3.053   6.677
10242SOL    HW131625   6.884   3.087   6.770
10242SOL    HW231626   6.971   3.108   6.633
10243SOL     OW31627   2.983   6.402   1.973
10243SOL    HW131628   2.928   6.386   1.891
10243SOL    HW231629   2.974   6.497   2.002
10244SOL     OW31630   2.721   5.431   1.961
10244SOL    HW131631   2.658   5.365   1.920
10244SOL    HW231632   2.680   5.470   2.043
10245SOL     OW31633   5.020   4.226   0.921
10245SOL    HW131634   4.924   4.235   0.898
10245SOL    HW231635   5.031   4.212   1.020
10246SOL     OW31636   3.393   2.948   4.290
10246SOL    HW131637   3.441   3.011   4.229
10246SOL    HW231638   3.301   2.983   4.308
10247SOL     OW31639   0.806   3.158   4.522
10247SOL    HW131640   0.881   3.095   4.543
10247SOL    HW231641   0.818   3.194   4.429
10248SOL     OW31642   1.010   1.368   4.641
10248SOL    HW131643   1.057   1.311   4.574
10248SOL    HW231644   0.930   1.410   4.598
10249SOL     OW31645   2.614   5.192   5.973
10249SOL    HW131646   2.579   5.253   6.043
10249SOL    HW231647   2.714   5.194   5.972
10250SOL     OW31648   3.617   2.435   0.748
10250SOL    HW131649   3.684   2.507   0.767
10250SOL    HW231650   3.525   2.476   0.746
10251SOL     OW31651   1.470   0.641   4.318
10251SOL    HW131652   1.461   0.542   4.305
10251SOL    HW231653   1.412   0.670   4.394
10252SOL     OW31654   5.285   4.725   5.760
10252SOL    HW131655   5.208   4.780   5.727
10252SOL    HW231656   5.311   4.756   5.851
10253SOL     OW31657   3.879   5.858   6.377
10253SOL    HW131658   3.917   5.923   6.443
10253SOL    HW231659   3.940   5.851   6.298
10254SOL     OW31660   6.657   2.129   5.606
10254SOL    HW131661   6.562   2.159   5.608
10254SOL    HW231662   6.669   2.053   5.671
10255SOL     OW31663   3.916   4.392   1.612
10255SOL    HW131664   4.012   4.389   1.640
10255SOL    HW231665   3.861   4.334   1.672
10256SOL     OW31666   3.642   1.195   4.415
10256SOL    HW131667   3.670   1.283   4.455
10256SOL    HW231668   3.551   1.204   4.375
10257SOL     OW31669   4.181   5.835   3.071
10257SOL    HW131670   4.095   5.832   3.019
10257SOL    HW231671   4.161   5.821   3.168
10258SOL     OW31672   2.548   1.447   2.280
10258SOL    HW131673   2.461   1.478   2.319
10258SOL    HW231674   2.623   1.474   2.341
10259SOL     OW31675   2.007   4.177   3.914
10259SOL    HW131676   1.975   4.225   3.833
10259SOL    HW231677   1.935   4.115   3.947
10260SOL     OW31678   0.413   0.013   3.131
10260SOL    HW131679   0.321   7.015   3.167
10260SOL    HW231680   0.406   0.051   3.040
10261SOL     OW31681   0.345   4.069   0.871
10261SOL    HW131682   0.274   4.089   0.803
10261SOL    HW231683   0.415   4.140   0.868
10262SOL     OW31684   3.651   1.096   0.198
10262SOL    HW131685   3.736   1.146   0.216
10262SOL    HW231686   3.668   0.998   0.204
10263SOL     OW31687   5.493   0.412   2.536
10263SOL    HW131688   5.454   0.470   2.608
10263SOL    HW231689   5.513   0.322   2.572
10264SOL     OW31690   6.624   0.575   6.412
10264SOL    HW131691   6.582   0.661   6.440
10264SOL    HW231692   6.610   0.507   6.484
10265SOL     OW31693   1.777   1.940   1.177
10265SOL    HW131694   1.779   1.896   1.267
10265SOL    HW231695   1.750   2.036   1.187
10266SOL     OW31696   2.578   3.432   1.718
10266SOL    HW131697   2.624   3.520   1.704
10266SOL    HW231698   2.490   3.447   1.763
10267SOL     OW31699   6.152   0.220   0.599
10267SOL    HW131700   6.154   0.315   0.570
10267SOL    HW231701   6.065   0.202   0.646
10268SOL     OW31702   3.872   6.509   2.334
10268SOL    HW131703   3.828   6.549   2.253
10268SOL    HW231704   3.883   6.580   2.404
10269SOL     OW31705   2.182   2.154   0.955
10269SOL    HW131706   2.120   2.101   0.897
10269SOL    HW231707   2.156   2.250   0.952
10270SOL     OW31708   3.236   0.736   3.216
10270SOL    HW131709   3.149   0.706   3.178
10270SOL    HW231710   3.303   0.747   3.141
10271SOL     OW31711   1.682   1.289   6.677
10271SOL    HW131712   1.743   1.212   6.694
10271SOL    HW231713   1.715   1.342   6.598
10272SOL     OW31714   6.334   6.975   4.530
10272SOL    HW131715   6.285   0.032   4.569
10272SOL    HW231716   6.431   6.982   4.552
10273SOL     OW31717   2.491   5.886   3.619
10273SOL    HW131718   2.491   5.850   3.526
10273SOL    HW231719   2.398   5.892   3.653
10274SOL     OW31720   0.946   4.505   4.816
10274SOL    HW131721   0.938   4.449   4.733
10274SOL    HW231722   0.966   4.446   4.894
10275SOL     OW31723   6.575   0.599   1.849
10275SOL    HW131724   6.635   0.589   1.769
10275SOL    HW231725   6.626   0.579   1.932
10276SOL     OW31726   3.126   5.562   5.486
10276SOL    HW131727   3.208   5.510   5.462
10276SOL    HW231728   3.146   5.623   5.563
10277SOL     OW31729   1.019   5.872   4.290
10277SOL    HW131730   0.938   5.915   4.330
10277SOL    HW231731   1.022   5.893   4.192
10278SOL     OW31732   6.758   0.017   4.867
10278SOL    HW131733   6.820   0.036   4.791
10278SOL    HW231734   6.783   6.950   4.909
10279SOL     OW31735   1.231   6.090   3.884
10279SOL    HW131736   1.172   6.037   3.944
10279SOL    HW231737   1.267   6.031   3.812
10280SOL     OW31738   6.730   4.665   0.400
10280SOL    HW131739   6.700   4.597   0.334
10280SOL    HW231740   6.683   4.752   0.381
10281SOL     OW31741   6.146   1.084   3.547
10281SOL    HW131742   6.080   1.139   3.598
10281SOL    HW231743   6.131   0.987   3.568
10282SOL     OW31744   4.932   3.025   3.933
10282SOL    HW131745   5.021   2.980   3.923
10282SOL    HW231746   4.898   3.051   3.842
10283SOL     OW31747   0.877   2.933   0.766
10283SOL    HW131748   0.914   2.909   0.856
10283SOL    HW231749   0.790   2.886   0.751
10284SOL     OW31750   6.816   4.243   3.960
10284SOL    HW131751   6.758   4.169   3.992
10284SOL    HW231752   6.912   4.218   3.974
10285SOL     OW31753   6.415   6.378   5.617
10285SOL    HW131754   6.495   6.437   5.628
10285SOL    HW231755   6.362   6.379   5.702
10286SOL     OW31756   2.593   1.744   3.060
10286SOL    HW131757   2.566   1.684   3.136
10286SOL    HW231758   2.692   1.741   3.050
10287SOL     OW31759   1.201   5.697   2.717
10287SOL    HW131760   1.193   5.664   2.623
10287SOL    HW231761   1.283   5.658   2.758
10288SOL     OW31762   3.783   6.160   5.441
10288SOL    HW131763   3.785   6.230   5.512
10288SOL    HW231764   3.839   6.082   5.470
10289SOL     OW31765   3.690   6.012   0.083
10289SOL    HW131766   3.734   6.068   0.153
10289SOL    HW231767   3.752   5.939   0.056
10290SOL     OW31768   3.692   3.083   1.845
10290SOL    HW131769   3.677   3.072   1.747
10290SOL    HW231770   3.643   3.164   1.877
10291SOL     OW31771   2.269   1.773   2.231
10291SOL    HW131772   2.282   1.837   2.156
10291SOL    HW231773   2.194   1.710   2.209
10292SOL     OW31774   0.015   6.876   6.191
10292SOL    HW131775   6.991   6.948   6.244
10292SOL    HW231776   6.999   6.787   6.219
10293SOL     OW31777   1.280   4.084   4.907
10293SOL    HW131778   1.347   4.132   4.850
10293SOL    HW231779   1.324   4.004   4.949
10294SOL     OW31780   3.504   0.692   2.528
10294SOL    HW131781   3.572   0.662   2.461
10294SOL    HW231782   3.517   0.789   2.547
10295SOL     OW31783   1.247   1.352   6.289
10295SOL    HW131784   1.288   1.285   6.351
10295SOL    HW231785   1.318   1.409   6.249
10296SOL     OW31786   6.099   1.515   5.696
10296SOL    HW131787   6.196   1.501   5.677
10296SOL    HW231788   6.045   1.466   5.628
10297SOL     OW31789   3.442   1.463   0.405
10297SOL    HW131790   3.493   1.547   0.419
10297SOL    HW231791   3.344   1.482   0.412
10298SOL     OW31792   0.312   2.365   2.172
10298SOL    HW131793   0.330   2.326   2.082
10298SOL    HW231794   0.357   2.309   2.242
10299SOL     OW31795   4.617   6.998   2.801
10299SOL    HW131796   4.644   6.970   2.709
10299SOL    HW231797   4.530   0.026   2.797
10300SOL     OW31798   1.333   3.956   1.521
10300SOL    HW131799   1.351   3.859   1.541
10300SOL    HW231800   1.418   4.000   1.491
10301SOL     OW31801   3.708   0.846   0.293
10301SOL    HW131802   3.675   0.751   0.299
10301SOL    HW231803   3.776   0.862   0.363
10302SOL     OW31804   2.609   6.343   5.239
10302SOL    HW131805   2.598   6.262   5.297
10302SOL    HW231806   2.676   6.405   5.281
10303SOL     OW31807   0.637   4.854   4.785
10303SOL    HW131808   0.589   4.939   4.808
10303SOL    HW231809   0.625   4.835   4.688
10304SOL     OW31810   6.154   6.353   0.795
10304SOL    HW131811   6.135   6.418   0.869
10304SOL    HW231812   6.164   6.403   0.709
10305SOL     OW31813   2.919   4.025   6.194
10305SOL    HW131814   2.966   4.109   6.167
10305SOL    HW231815   2.964   3.947   6.151
10306SOL     OW31816   4.088   0.701   1.181
10306SOL    HW131817   4.132   0.616   1.149
10306SOL    HW231818   4.038   0.743   1.105
10307SOL     OW31819   1.679   0.300   5.669
10307SOL    HW131820   1.720   0.378   5.717
10307SOL    HW231821   1.629   0.243   5.734
10308SOL     OW31822   3.038   4.751   1.812
10308SOL    HW131823   3.112   4.697   1.772
10308SOL    HW231824   2.963   4.690   1.840
10309SOL     OW31825   0.136   1.006   5.540
10309SOL    HW131826   0.128   1.058   5.455
10309SOL    HW231827   0.232   0.982   5.555
10310SOL     OW31828   2.590   4.001   5.589
10310SOL    HW131829   2.681   3.993   5.548
10310SOL    HW231830   2.572   3.921   5.646
10311SOL     OW31831   5.091   5.133   6.839
10311SOL    HW131832   5.098   5.033   6.839
10311SOL    HW231833   5.181   5.173   6.855
10312SOL     OW31834   3.639   6.808   2.116
10312SOL    HW131835   3.693   6.724   2.107
10312SOL    HW231836   3.670   6.875   2.049
10313SOL     OW31837   5.422   6.396   2.764
10313SOL    HW131838   5.453   6.331   2.833
10313SOL    HW231839   5.411   6.487   2.806
10314SOL     OW31840   0.352   0.407   0.933
10314SOL    HW131841   0.282   0.437   0.869
10314SOL    HW231842   0.421   0.352   0.885
10315SOL     OW31843   5.696   5.441   3.529
10315SOL    HW131844   5.690   5.459   3.628
10315SOL    HW231845   5.622   5.381   3.502
10316SOL     OW31846   0.680   1.652   0.117
10316SOL    HW131847   0.724   1.740   0.102
10316SOL    HW231848   0.697   1.592   0.039
10317SOL     OW31849   3.004   6.020   5.039
10317SOL    HW131850   3.037   6.111   5.015
10317SOL    HW231851   2.951   5.982   4.963
10318SOL     OW31852   6.601   0.328   0.040
10318SOL    HW131853   6.622   0.290   6.971
10318SOL    HW231854   6.507   0.306   0.065
10319SOL     OW31855   0.712   4.328   4.072
10319SOL    HW131856   0.724   4.273   3.990
10319SOL    HW231857   0.619   4.364   4.076
10320SOL     OW31858   0.559   6.826   3.228
10320SOL    HW131859   0.647   6.859   3.194
10320SOL    HW231860   0.488   6.895   3.212
10321SOL     OW31861   5.567   2.803   2.177
10321SOL    HW131862   5.663   2.803   2.208
10321SOL    HW231863   5.507   2.796   2.256
10322SOL     OW31864   4.549   4.461   4.723
10322SOL    HW131865   4.481   4.483   4.653
10322SOL    HW231866   4.503   4.440   4.809
10323SOL     OW31867   1.016   4.171   5.880
10323SOL    HW131868   0.999   4.096   5.945
10323SOL    HW231869   0.954   4.162   5.803
10324SOL     OW31870   3.228   3.060   2.126
10324SOL    HW131871   3.246   2.982   2.065
10324SOL    HW231872   3.130   3.080   2.126
10325SOL     OW31873   6.233   5.527   4.149
10325SOL    HW131874   6.136   5.515   4.171
10325SOL    HW231875   6.248   5.619   4.115
10326SOL     OW31876   5.436   3.686   6.545
10326SOL    HW131877   5.387   3.628   6.610
10326SOL    HW231878   5.516   3.725   6.590
10327SOL     OW31879   2.342   5.085   0.228
10327SOL    HW131880   2.373   4.991   0.216
10327SOL    HW231881   2.378   5.142   0.155
10328SOL     OW31882   5.754   2.578   2.652
10328SOL    HW131883   5.712   2.637   2.721
10328SOL    HW231884   5.723   2.605   2.561
10329SOL     OW31885   3.446   2.082   2.891
10329SOL    HW131886   3.391   2.128   2.822
10329SOL    HW231887   3.543   2.090   2.868
10330SOL     OW31888   5.240   0.469   1.741
10330SOL    HW131889   5.313   0.537   1.739
10330SOL    HW231890   5.265   0.391   1.684
10331SOL     OW31891   6.185   6.049   5.731
10331SOL    HW131892   6.280   6.081   5.728
10331SOL    HW231893   6.123   6.127   5.719
10332SOL     OW31894   1.585   1.303   6.364
10332SOL    HW131895   1.507   1.248   6.394
10332SOL    HW231896   1.553   1.380   6.310
10333SOL     OW31897   1.444   3.783   4.270
10333SOL    HW131898   1.371   3.722   4.240
10333SOL    HW231899   1.526   3.730   4.290
10334SOL     OW31900   3.226   1.506   4.168
10334SOL    HW131901   3.138   1.554   4.161
10334SOL    HW231902   3.300   1.571   4.151
10335SOL     OW31903   1.046   2.371   4.982
10335SOL    HW131904   1.014   2.428   4.906
10335SOL    HW231905   1.103   2.297   4.946
10336SOL     OW31906   5.564   6.712   3.379
10336SOL    HW131907   5.615   6.627   3.391
10336SOL    HW231908   5.503   6.703   3.300
10337SOL     OW31909   6.743   5.743   6.750
10337SOL    HW131910   6.770   5.797   6.829
10337SOL    HW231911   6.810   5.671   6.734
10338SOL     OW31912   1.334   6.611   1.807
10338SOL    HW131913   1.416   6.664   1.826
10338SOL    HW231914   1.359   6.526   1.760
10339SOL     OW31915   6.158   2.585   5.922
10339SOL    HW131916   6.145   2.486   5.915
10339SOL    HW231917   6.155   2.612   6.019
10340SOL     OW31918   2.451   3.674   6.189
10340SOL    HW131919   2.365   3.643   6.230
10340SOL    HW231920   2.497   3.737   6.252
10341SOL     OW31921   2.184   4.003   3.282
10341SOL    HW131922   2.205   4.007   3.184
10341SOL    HW231923   2.091   3.969   3.295
10342SOL     OW31924   0.411   1.036   3.464
10342SOL    HW131925   0.399   0.977   3.544
10342SOL    HW231926   0.433   0.980   3.384
10343SOL     OW31927   3.707   5.666   1.778
10343SOL    HW131928   3.690   5.619   1.691
10343SOL    HW231929   3.746   5.601   1.844
10344SOL     OW31930   4.710   6.684   6.596
10344SOL    HW131931   4.749   6.770   6.629
10344SOL    HW231932   4.755   6.607   6.641
10345SOL     OW31933   1.971   3.616   4.267
10345SOL    HW131934   2.021   3.557   4.203
10345SOL    HW231935   1.970   3.573   4.357
10346SOL     OW31936   0.144   6.030   0.111
10346SOL    HW131937   0.181   6.072   0.028
10346SOL    HW231938   0.214   5.970   0.151
10347SOL     OW31939   5.164   2.200   5.234
10347SOL    HW131940   5.223   2.280   5.225
10347SOL    HW231941   5.083   2.212   5.176
10348SOL     OW31942   6.734   4.697   1.267
10348SOL    HW131943   6.698   4.639   1.194
10348SOL    HW231944   6.759   4.640   1.346
10349SOL     OW31945   0.441   0.158   6.033
10349SOL    HW131946   0.514   0.090   6.025
10349SOL    HW231947   0.462   0.236   5.974
10350SOL     OW31948   2.794   0.726   6.485
10350SOL    HW131949   2.872   0.760   6.434
10350SOL    HW231950   2.804   0.627   6.500
10351SOL     OW31951   3.888   5.322   6.518
10351SOL    HW131952   3.870   5.316   6.616
10351SOL    HW231953   3.903   5.417   6.492
10352SOL     OW31954   3.538   4.275   6.162
10352SOL    HW131955   3.449   4.321   6.163
10352SOL    HW231956   3.590   4.301   6.244
10353SOL     OW31957   0.992   3.152   4.917
10353SOL    HW131958   1.068   3.209   4.948
10353SOL    HW231959   0.908   3.206   4.917
10354SOL     OW31960   5.336   1.803   1.291
10354SOL    HW131961   5.362   1.722   1.343
10354SOL    HW231962   5.411   1.869   1.293
10355SOL     OW31963   1.237   4.991   2.842
10355SOL    HW131964   1.146   5.019   2.810
10355SOL    HW231965   1.241   4.999   2.941
10356SOL     OW31966   0.511   2.517   4.531
10356SOL    HW131967   0.413   2.531   4.521
10356SOL    HW231968   0.554   2.516   4.440
10357SOL     OW31969   3.412   2.506   6.956
10357SOL    HW131970   3.360   2.591   6.948
10357SOL    HW231971   3.401   2.469   0.027
10358SOL     OW31972   6.791   1.300   2.296
10358SOL    HW131973   6.825   1.378   2.244
10358SOL    HW231974   6.697   1.318   2.325
10359SOL     OW31975   0.605   1.198   0.980
10359SOL    HW131976   0.634   1.224   1.072
10359SOL    HW231977   0.551   1.273   0.940
10360SOL     OW31978   6.857   5.160   3.238
10360SOL    HW131979   6.932   5.224   3.248
10360SOL    HW231980   6.883   5.087   3.175
10361SOL     OW31981   1.917   5.196   1.540
10361SOL    HW131982   1.991   5.230   1.598
10361SOL    HW231983   1.879   5.113   1.581
10362SOL     OW31984   1.763   4.649   4.655
10362SOL    HW131985   1.766   4.692   4.745
10362SOL    HW231986   1.668   4.627   4.632
10363SOL     OW31987   5.632   0.193   3.781
10363SOL    HW131988   5.541   0.178   3.819
10363SOL    HW231989   5.664   0.109   3.739
10364SOL     OW31990   1.882   4.329   0.950
10364SOL    HW131991   1.839   4.416   0.925
10364SOL    HW231992   1.970   4.346   0.993
10365SOL     OW31993   4.730   5.837   0.196
10365SOL    HW131994   4.662   5.765   0.201
10365SOL    HW231995   4.757   5.851   0.100
10366SOL     OW31996   3.968   6.538   3.984
10366SOL    HW131997   3.952   6.464   4.049
10366SOL    HW231998   3.925   6.515   3.896
10367SOL     OW31999   6.338   1.642   3.476
10367SOL    HW132000   6.340   1.681   3.568
10367SOL    HW232001   6.402   1.566   3.470
10368SOL     OW32002   2.401   0.369   0.974
10368SOL    HW132003   2.361   0.363   1.065
10368SOL    HW232004   2.467   0.294   0.962
10369SOL     OW32005   4.533   2.691   6.894
10369SOL    HW132006   4.468   2.731   6.828
10369SOL    HW232007   4.494   2.697   6.986
10370SOL     OW32008   4.245   0.328   5.138
10370SOL    HW132009   4.256   0.269   5.218
10370SOL    HW232010   4.156   0.373   5.141
10371SOL     OW32011   5.162   6.382   5.523
10371SOL    HW132012   5.247   6.363   5.474
10371SOL    HW232013   5.136   6.302   5.578
10372SOL     OW32014   1.431   0.861   3.208
10372SOL    HW132015   1.377   0.938   3.175
10372SOL    HW232016   1.495   0.892   3.279
10373SOL     OW32017   1.597   5.081   5.098
10373SOL    HW132018   1.598   5.163   5.039
10373SOL    HW232019   1.514   5.082   5.153
10374SOL     OW32020   2.955   1.914   4.660
10374SOL    HW132021   2.969   1.890   4.564
10374SOL    HW232022   2.873   1.972   4.668
10375SOL     OW32023   0.225   1.988   0.557
10375SOL    HW132024   0.255   1.982   0.653
10375SOL    HW232025   0.300   2.021   0.500
10376SOL     OW32026   6.322   0.677   3.511
10376SOL    HW132027   6.330   0.587   3.469
10376SOL    HW232028   6.348   0.747   3.444
10377SOL     OW32029   0.430   6.466   4.321
10377SOL    HW132030   0.336   6.447   4.350
10377SOL    HW232031   0.488   6.388   4.343
10378SOL     OW32032   6.093   6.999   5.875
10378SOL    HW132033   6.122   6.940   5.800
10378SOL    HW232034   6.006   6.966   5.911
10379SOL     OW32035   4.652   1.815   4.446
10379SOL    HW132036   4.670   1.856   4.536
10379SOL    HW232037   4.738   1.790   4.402
10380SOL     OW32038   4.263   1.118   3.736
10380SOL    HW132039   4.342   1.179   3.748
10380SOL    HW232040   4.255   1.094   3.639
10381SOL     OW32041   4.212   5.830   4.732
10381SOL    HW132042   4.265   5.862   4.654
10381SOL    HW232043   4.273   5.792   4.801
10382SOL     OW32044   1.393   6.124   0.384
10382SOL    HW132045   1.352   6.212   0.360
10382SOL    HW232046   1.465   6.102   0.319
10383SOL     OW32047   5.383   2.423   0.080
10383SOL    HW132048   5.368   2.507   0.028
10383SOL    HW232049   5.389   2.345   0.018
10384SOL     OW32050   6.131   1.147   6.610
10384SOL    HW132051   6.154   1.222   6.548
10384SOL    HW232052   6.088   1.184   6.692
10385SOL     OW32053   6.270   2.384   6.639
10385SOL    HW132054   6.344   2.348   6.697
10385SOL    HW232055   6.282   2.482   6.628
10386SOL     OW32056   6.381   1.706   6.314
10386SOL    HW132057   6.394   1.799   6.279
10386SOL    HW232058   6.348   1.646   6.241
10387SOL     OW32059   1.514   3.911   2.375
10387SOL    HW132060   1.606   3.875   2.358
10387SOL    HW232061   1.449   3.836   2.375
10388SOL     OW32062   1.676   5.074   2.344
10388SOL    HW132063   1.758   5.040   2.298
10388SOL    HW232064   1.606   5.002   2.344
10389SOL     OW32065   0.622   5.662   3.546
10389SOL    HW132066   0.608   5.600   3.624
10389SOL    HW232067   0.641   5.754   3.579
10390SOL     OW32068   1.843   3.983   3.430
10390SOL    HW132069   1.878   3.901   3.385
10390SOL    HW232070   1.902   4.006   3.507
10391SOL     OW32071   3.383   6.324   4.580
10391SOL    HW132072   3.307   6.282   4.531
10391SOL    HW232073   3.405   6.269   4.661
10392SOL     OW32074   6.443   5.368   6.858
10392SOL    HW132075   6.370   5.344   6.794
10392SOL    HW232076   6.514   5.297   6.855
10393SOL     OW32077   0.444   0.964   4.100
10393SOL    HW132078   0.362   0.925   4.142
10393SOL    HW232079   0.510   0.986   4.172
10394SOL     OW32080   2.856   6.467   1.035
10394SOL    HW132081   2.811   6.555   1.021
10394SOL    HW232082   2.954   6.477   1.017
10395SOL     OW32083   1.546   1.771   4.879
10395SOL    HW132084   1.636   1.767   4.921
10395SOL    HW232085   1.476   1.775   4.951
10396SOL     OW32086   0.599   6.963   5.197
10396SOL    HW132087   0.692   7.000   5.204
10396SOL    HW232088   0.543   0.001   5.140
10397SOL     OW32089   4.422   1.809   2.781
10397SOL    HW132090   4.409   1.775   2.687
10397SOL    HW232091   4.441   1.732   2.842
10398SOL     OW32092   6.815   3.526   2.218
10398SOL    HW132093   6.744   3.457   2.214
10398SOL    HW232094   6.849   3.535   2.312
10399SOL     OW32095   5.960   2.819   5.549
10399SOL    HW132096   5.942   2.728   5.511
10399SOL    HW232097   6.030   2.812   5.620
10400SOL     OW32098   1.433   4.866   1.676
10400SOL    HW132099   1.475   4.792   1.729
10400SOL    HW232100   1.349   4.896   1.720
10401SOL     OW32101   1.311   5.454   0.974
10401SOL    HW132102   1.223   5.407   0.981
10401SOL    HW232103   1.319   5.522   1.046
10402SOL     OW32104   1.016   2.062   4.777
10402SOL    HW132105   1.082   2.123   4.734
10402SOL    HW232106   1.060   2.011   4.851
10403SOL     OW32107   5.367   0.938   2.117
10403SOL    HW132108   5.445   0.981   2.163
10403SOL    HW232109   5.391   0.845   2.090
10404SOL     OW32110   7.006   0.379   4.114
10404SOL    HW132111   0.044   0.299   4.099
10404SOL    HW232112   6.921   0.349   4.157
10405SOL     OW32113   2.385   6.482   6.787
10405SOL    HW132114   2.441   6.489   6.704
10405SOL    HW232115   2.381   6.387   6.817
10406SOL     OW32116   1.917   6.131   5.543
10406SOL    HW132117   1.929   6.045   5.495
10406SOL    HW232118   2.001   6.185   5.536
10407SOL     OW32119   1.832   1.238   6.279
10407SOL    HW132120   1.864   1.332   6.281
10407SOL    HW232121   1.733   1.236   6.293
10408SOL     OW32122   4.499   6.653   2.645
10408SOL    HW132123   4.547   6.717   2.584
10408SOL    HW232124   4.516   6.679   2.740
10409SOL     OW32125   6.789   4.902   2.468
10409SOL    HW132126   6.760   4.827   2.409
10409SOL    HW232127   6.844   4.967   2.415
10410SOL     OW32128   5.365   6.353   0.839
10410SOL    HW132129   5.299   6.325   0.770
10410SOL    HW232130   5.458   6.333   0.807
10411SOL     OW32131   1.519   4.719   1.903
10411SOL    HW132132   1.535   4.667   1.987
10411SOL    HW232133   1.555   4.669   1.825
10412SOL     OW32134   0.279   2.227   6.355
10412SOL    HW132135   0.316   2.314   6.387
10412SOL    HW232136   0.269   2.230   6.255
10413SOL     OW32137   0.225   1.636   5.275
10413SOL    HW132138   0.321   1.609   5.284
10413SOL    HW232139   0.219   1.734   5.260
10414SOL     OW32140   5.938   6.149   5.333
10414SOL    HW132141   5.872   6.210   5.376
10414SOL    HW232142   6.004   6.118   5.401
10415SOL     OW32143   6.652   5.486   3.154
10415SOL    HW132144   6.723   5.456   3.090
10415SOL    HW232145   6.570   5.431   3.141
10416SOL     OW32146   4.887   0.375   0.234
10416SOL    HW132147   4.825   0.454   0.240
10416SOL    HW232148   4.886   0.327   0.322
10417SOL     OW32149   4.373   4.564   4.112
10417SOL    HW132150   4.443   4.494   4.104
10417SOL    HW232151   4.415   4.652   4.133
10418SOL     OW32152   6.178   3.866   6.909
10418SOL    HW132153   6.256   3.886   6.849
10418SOL    HW232154   6.127   3.788   6.872
10419SOL     OW32155   1.869   0.543   4.368
10419SOL    HW132156   1.809   0.463   4.378
10419SOL    HW232157   1.813   0.626   4.368
10420SOL     OW32158   6.271   3.807   4.623
10420SOL    HW132159   6.223   3.732   4.667
10420SOL    HW232160   6.259   3.891   4.676
10421SOL     OW32161   1.140   3.910   4.321
10421SOL    HW132162   1.087   3.942   4.400
10421SOL    HW232163   1.182   3.823   4.343
10422SOL     OW32164   6.168   3.333   5.996
10422SOL    HW132165   6.133   3.413   5.947
10422SOL    HW232166   6.138   3.336   6.092
10423SOL     OW32167   2.799   5.258   2.950
10423SOL    HW132168   2.861   5.181   2.967
10423SOL    HW232169   2.705   5.227   2.961
10424SOL     OW32170   4.280   1.072   1.896
10424SOL    HW132171   4.189   1.034   1.877
10424SOL    HW232172   4.272   1.144   1.965
10425SOL     OW32173   1.133   3.865   0.167
10425SOL    HW132174   1.196   3.844   0.242
10425SOL    HW232175   1.039   3.842   0.195
10426SOL     OW32176   6.472   2.246   6.805
10426SOL    HW132177   6.452   2.235   6.903
10426SOL    HW232178   6.458   2.160   6.758
10427SOL     OW32179   5.905   0.859   3.892
10427SOL    HW132180   5.943   0.790   3.830
10427SOL    HW232181   5.816   0.889   3.857
10428SOL     OW32182   1.470   6.678   4.734
10428SOL    HW132183   1.446   6.585   4.707
10428SOL    HW232184   1.459   6.688   4.833
10429SOL     OW32185   2.171   4.332   1.702
10429SOL    HW132186   2.270   4.328   1.686
10429SOL    HW232187   2.139   4.243   1.734
10430SOL     OW32188   3.675   6.949   4.705
10430SOL    HW132189   3.674   0.026   4.684
10430SOL    HW232190   3.625   6.933   4.791
10431SOL     OW32191   3.973   1.815   4.359
10431SOL    HW132192   3.963   1.909   4.326
10431SOL    HW232193   4.063   1.780   4.336
10432SOL     OW32194   0.980   4.932   0.498
10432SOL    HW132195   1.043   4.961   0.571
10432SOL    HW232196   1.008   4.842   0.464
10433SOL     OW32197   3.505   6.590   4.464
10433SOL    HW132198   3.512   6.664   4.531
10433SOL    HW232199   3.497   6.503   4.512
10434SOL     OW32200   4.104   0.818   6.817
10434SOL    HW132201   4.182   0.879   6.822
10434SOL    HW232202   4.026   0.866   6.776
10435SOL     OW32203   2.537   1.521   1.325
10435SOL    HW132204   2.511   1.604   1.373
10435SOL    HW232205   2.458   1.459   1.320
10436SOL     OW32206   1.154   3.668   4.920
10436SOL    HW132207   1.244   3.709   4.911
10436SOL    HW232208   1.153   3.605   4.997
10437SOL     OW32209   7.008   6.145   4.561
10437SOL    HW132210   6.988   6.075   4.493
10437SOL    HW232211   0.081   6.177   4.550
10438SOL     OW32212   6.955   5.883   6.433
10438SOL    HW132213   7.003   5.963   6.468
10438SOL    HW232214   6.857   5.893   6.453
10439SOL     OW32215   6.089   5.546   4.534
10439SOL    HW132216   6.080   5.450   4.559
10439SOL    HW232217   6.180   5.578   4.559
10440SOL     OW32218   5.820   2.617   1.214
10440SOL    HW132219   5.861   2.618   1.122
10440SOL    HW232220   5.744   2.682   1.217
10441SOL     OW32221   4.558   1.892   6.843
10441SOL    HW132222   4.534   1.816   6.783
10441SOL    HW232223   4.550   1.862   6.939
10442SOL     OW32224   2.769   0.960   5.143
10442SOL    HW132225   2.820   0.955   5.057
10442SOL    HW232226   2.691   1.022   5.132
10443SOL     OW32227   0.961   0.454   6.929
10443SOL    HW132228   0.946   0.552   6.918
10443SOL    HW232229   0.938   0.427   0.002
10444SOL     OW32230   4.294   5.207   3.849
10444SOL    HW132231   4.260   5.130   3.903
10444SOL    HW232232   4.266   5.196   3.753
10445SOL     OW32233   0.943   3.593   3.843
10445SOL    HW132234   0.983   3.525   3.781
10445SOL    HW232235   0.913   3.673   3.790
10446SOL     OW32236   2.413   4.967   4.705
10446SOL    HW132237   2.422   4.920   4.793
10446SOL    HW232238   2.351   5.045   4.715
10447SOL     OW32239   0.937   1.839   2.793
10447SOL    HW132240   0.892   1.760   2.835
10447SOL    HW232241   0.873   1.917   2.793
10448SOL     OW32242   1.205   5.965   2.550
10448SOL    HW132243   1.164   5.886   2.594
10448SOL    HW232244   1.186   5.962   2.452
10449SOL     OW32245   3.914   4.960   4.859
10449SOL    HW132246   3.984   4.911   4.807
10449SOL    HW232247   3.827   4.958   4.810
10450SOL     OW32248   0.900   2.333   3.697
10450SOL    HW132249   0.951   2.406   3.652
10450SOL    HW232250   0.873   2.265   3.629
10451SOL     OW32251   3.215   2.057   4.125
10451SOL    HW132252   3.239   2.086   4.217
10451SOL    HW232253   3.289   2.001   4.086
10452SOL     OW32254   6.870   2.921   4.759
10452SOL    HW132255   6.782   2.885   4.727
10452SOL    HW232256   6.925   2.951   4.681
10453SOL     OW32257   3.696   4.959   4.307
10453SOL    HW132258   3.727   5.009   4.387
10453SOL    HW232259   3.598   4.942   4.313
10454SOL     OW32260   6.372   0.969   6.690
10454SOL    HW132261   6.340   0.895   6.749
10454SOL    HW232262   6.315   1.050   6.704
10455SOL     OW32263   0.486   5.990   2.645
10455SOL    HW132264   0.571   5.978   2.697
10455SOL    HW232265   0.477   6.086   2.619
10456SOL     OW32266   1.601   5.505   6.332
10456SOL    HW132267   1.601   5.599   6.366
10456SOL    HW232268   1.516   5.460   6.358
10457SOL     OW32269   4.089   1.362   0.252
10457SOL    HW132270   4.137   1.445   0.280
10457SOL    HW232271   4.156   1.294   0.221
10458SOL     OW32272   1.158   6.126   0.053
10458SOL    HW132273   1.090   6.157   7.007
10458SOL    HW232274   1.235   6.190   0.053
10459SOL     OW32275   6.118   6.273   1.096
10459SOL    HW132276   6.081   6.181   1.102
10459SOL    HW232277   6.043   6.340   1.098
10460SOL     OW32278   6.088   0.577   0.064
10460SOL    HW132279   6.090   0.481   0.039
10460SOL    HW232280   5.994   0.604   0.086
10461SOL     OW32281   0.193   4.117   5.975
10461SOL    HW132282   0.225   4.024   5.957
10461SOL    HW232283   0.103   4.130   5.933
10462SOL     OW32284   3.732   3.944   6.638
10462SOL    HW132285   3.808   3.982   6.585
10462SOL    HW232286   3.730   3.845   6.628
10463SOL     OW32287   4.844   2.701   6.225
10463SOL    HW132288   4.849   2.801   6.228
10463SOL    HW232289   4.920   2.662   6.277
10464SOL     OW32290   6.531   4.112   1.923
10464SOL    HW132291   6.594   4.080   1.994
10464SOL    HW232292   6.503   4.206   1.943
10465SOL     OW32293   5.774   4.365   1.923
10465SOL    HW132294   5.846   4.353   1.991
10465SOL    HW232295   5.687   4.383   1.968
10466SOL     OW32296   5.726   3.595   5.291
10466SOL    HW132297   5.673   3.662   5.240
10466SOL    HW232298   5.701   3.502   5.261
10467SOL     OW32299   0.297   2.537   6.852
10467SOL    HW132300   0.334   2.447   6.827
10467SOL    HW232301   0.211   2.524   6.901
10468SOL     OW32302   1.747   4.105   3.978
10468SOL    HW132303   1.749   4.200   4.010
10468SOL    HW232304   1.674   4.056   4.025
10469SOL     OW32305   1.069   1.859   3.591
10469SOL    HW132306   1.051   1.856   3.689
10469SOL    HW232307   0.995   1.812   3.542
10470SOL     OW32308   2.239   3.954   2.017
10470SOL    HW132309   2.325   4.003   2.007
10470SOL    HW232310   2.242   3.869   1.964
10471SOL     OW32311   2.686   4.831   0.069
10471SOL    HW132312   2.675   4.836   6.990
10471SOL    HW232313   2.631   4.756   0.105
10472SOL     OW32314   4.256   5.279   6.211
10472SOL    HW132315   4.214   5.347   6.151
10472SOL    HW232316   4.228   5.297   6.306
10473SOL     OW32317   6.453   5.002   6.837
10473SOL    HW132318   6.518   4.994   6.913
10473SOL    HW232319   6.493   5.058   6.765
10474SOL     OW32320   6.462   6.565   5.224
10474SOL    HW132321   6.397   6.511   5.278
10474SOL    HW232322   6.432   6.660   5.221
10475SOL     OW32323   0.542   5.173   1.545
10475SOL    HW132324   0.551   5.220   1.633
10475SOL    HW232325   0.603   5.094   1.543
10476SOL     OW32326   5.277   6.696   1.297
10476SOL    HW132327   5.233   6.761   1.236
10476SOL    HW232328   5.209   6.634   1.335
10477SOL     OW32329   6.791   5.552   3.529
10477SOL    HW132330   6.849   5.562   3.610
10477SOL    HW232331   6.752   5.460   3.526
10478SOL     OW32332   0.150   1.028   6.467
10478SOL    HW132333   0.144   0.937   6.425
10478SOL    HW232334   0.124   1.097   6.400
10479SOL     OW32335   0.700   3.713   1.802
10479SOL    HW132336   0.680   3.689   1.897
10479SOL    HW232337   0.783   3.665   1.772
10480SOL     OW32338   2.413   0.698   3.163
10480SOL    HW132339   2.338   0.750   3.121
10480SOL    HW232340   2.433   0.617   3.108
10481SOL     OW32341   6.483   1.434   1.139
10481SOL    HW132342   6.451   1.413   1.231
10481SOL    HW232343   6.578   1.403   1.129
10482SOL     OW32344   5.098   3.732   4.372
10482SOL    HW132345   5.018   3.673   4.369
10482SOL    HW232346   5.114   3.763   4.466
10483SOL     OW32347   6.089   6.984   6.644
10483SOL    HW132348   6.013   6.927   6.677
10483SOL    HW232349   6.054   0.054   6.620
10484SOL     OW32350   6.371   0.716   1.972
10484SOL    HW132351   6.287   0.667   1.947
10484SOL    HW232352   6.448   0.678   1.921
10485SOL     OW32353   5.683   3.165   4.973
10485SOL    HW132354   5.692   3.213   5.061
10485SOL    HW232355   5.603   3.201   4.924
10486SOL     OW32356   5.431   2.619   2.774
10486SOL    HW132357   5.469   2.699   2.728
10486SOL    HW232358   5.358   2.580   2.718
10487SOL     OW32359   4.596   6.925   2.324
10487SOL    HW132360   4.672   6.946   2.261
10487SOL    HW232361   4.525   6.876   2.275
10488SOL     OW32362   3.566   4.154   6.679
10488SOL    HW132363   3.613   4.068   6.659
10488SOL    HW232364   3.541   4.199   6.593
10489SOL     OW32365   1.611   5.291   4.936
10489SOL    HW132366   1.707   5.285   4.908
10489SOL    HW232367   1.580   5.386   4.930
10490SOL     OW32368   6.061   0.262   4.123
10490SOL    HW132369   6.053   0.207   4.206
10490SOL    HW232370   5.981   0.246   4.064
10491SOL     OW32371   0.299   5.024   5.098
10491SOL    HW132372   0.212   4.974   5.096
10491SOL    HW232373   0.304   5.085   5.019
10492SOL     OW32374   4.309   4.425   5.637
10492SOL    HW132375   4.307   4.384   5.728
10492SOL    HW232376   4.219   4.465   5.616
10493SOL     OW32377   3.768   1.556   0.728
10493SOL    HW132378   3.737   1.512   0.813
10493SOL    HW232379   3.734   1.650   0.725
10494SOL     OW32380   5.377   1.478   5.949
10494SOL    HW132381   5.307   1.516   6.010
10494SOL    HW232382   5.340   1.470   5.857
10495SOL     OW32383   1.690   6.927   6.365
10495SOL    HW132384   1.768   6.940   6.427
10495SOL    HW232385   1.634   7.010   6.365
10496SOL     OW32386   6.248   0.171   5.603
10496SOL    HW132387   6.152   0.187   5.625
10496SOL    HW232388   6.306   0.222   5.667
10497SOL     OW32389   1.401   1.378   6.628
10497SOL    HW132390   1.475   1.371   6.561
10497SOL    HW232391   1.402   1.297   6.687
10498SOL     OW32392   3.240   4.882   6.021
10498SOL    HW132393   3.169   4.952   6.025
10498SOL    HW232394   3.213   4.810   5.957
10499SOL     OW32395   3.053   6.090   2.965
10499SOL    HW132396   3.007   6.069   2.879
10499SOL    HW232397   3.023   6.180   2.998
10500SOL     OW32398   2.483   2.274   6.795
10500SOL    HW132399   2.481   2.201   6.727
10500SOL    HW232400   2.398   2.327   6.790
10501SOL     OW32401   1.218   3.643   2.967
10501SOL    HW132402   1.238   3.677   3.059
10501SOL    HW232403   1.296   3.592   2.932
10502SOL     OW32404   3.209   5.511   5.008
10502SOL    HW132405   3.269   5.434   4.990
10502SOL    HW232406   3.254   5.596   4.981
10503SOL     OW32407   2.566   2.994   5.669
10503SOL    HW132408   2.634   2.988   5.596
10503SOL    HW232409   2.514   3.079   5.660
10504SOL     OW32410   2.215   3.514   1.121
10504SOL    HW132411   2.130   3.506   1.071
10504SOL    HW232412   2.197   3.547   1.214
10505SOL     OW32413   0.359   6.486   0.538
10505SOL    HW132414   0.388   6.536   0.620
10505SOL    HW232415   0.352   6.389   0.559
10506SOL     OW32416   0.363   4.026   5.204
10506SOL    HW132417   0.348   4.036   5.106
10506SOL    HW232418   0.314   4.098   5.253
10507SOL     OW32419   1.817   0.410   3.502
10507SOL    HW132420   1.899   0.356   3.481
10507SOL    HW232421   1.808   0.420   3.601
10508SOL     OW32422   5.751   3.612   2.606
10508SOL    HW132423   5.800   3.683   2.556
10508SOL    HW232424   5.658   3.643   2.626
10509SOL     OW32425   2.249   0.819   6.145
10509SOL    HW132426   2.315   0.751   6.114
10509SOL    HW232427   2.297   0.896   6.186
10510SOL     OW32428   5.873   6.840   6.765
10510SOL    HW132429   5.836   6.795   6.684
10510SOL    HW232430   5.798   6.872   6.823
10511SOL     OW32431   0.405   2.294   1.024
10511SOL    HW132432   0.331   2.327   0.965
10511SOL    HW232433   0.486   2.351   1.010
10512SOL     OW32434   2.539   0.380   6.342
10512SOL    HW132435   2.592   0.335   6.413
10512SOL    HW232436   2.591   0.457   6.305
10513SOL     OW32437   0.645   1.978   0.176
10513SOL    HW132438   0.599   2.038   0.110
10513SOL    HW232439   0.721   1.931   0.131
10514SOL     OW32440   0.606   2.760   1.479
10514SOL    HW132441   0.542   2.823   1.436
10514SOL    HW232442   0.693   2.807   1.495
10515SOL     OW32443   6.209   3.052   4.540
10515SOL    HW132444   6.120   3.080   4.504
10515SOL    HW232445   6.270   3.031   4.463
10516SOL     OW32446   2.505   6.376   0.674
10516SOL    HW132447   2.571   6.309   0.707
10516SOL    HW232448   2.552   6.443   0.616
10517SOL     OW32449   0.274   2.397   2.829
10517SOL    HW132450   0.248   2.361   2.918
10517SOL    HW232451   0.365   2.439   2.835
10518SOL     OW32452   0.557   6.226   2.580
10518SOL    HW132453   0.546   6.292   2.506
10518SOL    HW232454   0.598   6.271   2.659
10519SOL     OW32455   3.512   3.918   5.667
10519SOL    HW132456   3.483   3.999   5.717
10519SOL    HW232457   3.433   3.872   5.627
10520SOL     OW32458   3.470   4.788   6.957
10520SOL    HW132459   3.507   4.872   6.997
10520SOL    HW232460   3.541   4.718   6.954
10521SOL     OW32461   6.096   5.296   1.770
10521SOL    HW132462   6.032   5.346   1.828
10521SOL    HW232463   6.045   5.230   1.714
10522SOL     OW32464   6.870   6.994   2.181
10522SOL    HW132465   6.872   0.014   2.090
10522SOL    HW232466   6.801   6.921   2.183
10523SOL     OW32467   6.882   5.976   5.736
10523SOL    HW132468   6.905   6.011   5.827
10523SOL    HW232469   6.831   5.891   5.745
10524SOL     OW32470   4.804   0.499   4.373
10524SOL    HW132471   4.810   0.401   4.351
10524SOL    HW232472   4.723   0.538   4.329
10525SOL     OW32473   2.888   6.283   4.557
10525SOL    HW132474   2.928   6.334   4.481
10525SOL    HW232475   2.790   6.274   4.543
10526SOL     OW32476   5.410   6.683   2.501
10526SOL    HW132477   5.506   6.702   2.521
10526SOL    HW232478   5.358   6.768   2.497
10527SOL     OW32479   1.480   2.990   4.602
10527SOL    HW132480   1.473   2.923   4.676
10527SOL    HW232481   1.489   3.082   4.641
10528SOL     OW32482   5.949   5.176   5.486
10528SOL    HW132483   5.963   5.082   5.454
10528SOL    HW232484   6.012   5.195   5.562
10529SOL     OW32485   6.965   5.937   4.348
10529SOL    HW132486   7.009   5.860   4.393
10529SOL    HW232487   6.892   5.903   4.289
10530SOL     OW32488   1.714   1.416   5.446
10530SOL    HW132489   1.715   1.437   5.544
10530SOL    HW232490   1.710   1.500   5.393
10531SOL     OW32491   1.713   2.081   5.040
10531SOL    HW132492   1.685   2.036   5.125
10531SOL    HW232493   1.703   2.017   4.964
10532SOL     OW32494   3.119   3.116   5.123
10532SOL    HW132495   3.172   3.058   5.063
10532SOL    HW232496   3.044   3.159   5.072
10533SOL     OW32497   3.093   1.019   6.489
10533SOL    HW132498   2.999   0.988   6.474
10533SOL    HW232499   3.142   1.022   6.402
10534SOL     OW32500   5.592   5.073   1.102
10534SOL    HW132501   5.516   5.100   1.161
10534SOL    HW232502   5.557   5.017   1.027
10535SOL     OW32503   0.024   1.098   1.350
10535SOL    HW132504   7.014   1.082   1.256
10535SOL    HW232505   7.020   1.191   1.378
10536SOL     OW32506   5.406   5.735   3.213
10536SOL    HW132507   5.447   5.807   3.269
10536SOL    HW232508   5.472   5.661   3.201
10537SOL     OW32509   6.479   5.281   0.855
10537SOL    HW132510   6.435   5.348   0.914
10537SOL    HW232511   6.441   5.289   0.762
10538SOL     OW32512   4.330   3.669   6.953
10538SOL    HW132513   4.326   3.727   0.014
10538SOL    HW232514   4.359   3.725   6.875
10539SOL     OW32515   1.036   3.225   5.270
10539SOL    HW132516   1.081   3.249   5.184
10539SOL    HW232517   0.938   3.211   5.253
10540SOL     OW32518   3.320   0.683   0.386
10540SOL    HW132519   3.393   0.645   0.443
10540SOL    HW232520   3.257   0.736   0.443
10541SOL     OW32521   4.201   2.618   0.706
10541SOL    HW132522   4.131   2.669   0.756
10541SOL    HW232523   4.262   2.682   0.659
10542SOL     OW32524   1.418   2.286   6.950
10542SOL    HW132525   1.358   2.304   0.007
10542SOL    HW232526   1.388   2.339   6.872
10543SOL     OW32527   2.868   0.536   5.099
10543SOL    HW132528   2.951   0.566   5.147
10543SOL    HW232529   2.837   0.449   5.137
10544SOL     OW32530   6.873   2.361   1.594
10544SOL    HW132531   6.776   2.377   1.610
10544SOL    HW232532   6.907   2.295   1.662
10545SOL     OW32533   4.677   1.399   2.561
10545SOL    HW132534   4.748   1.380   2.494
10545SOL    HW232535   4.693   1.489   2.603
10546SOL     OW32536   4.269   1.455   5.265
10546SOL    HW132537   4.236   1.483   5.175
10546SOL    HW232538   4.196   1.409   5.315
10547SOL     OW32539   4.594   6.948   1.331
10547SOL    HW132540   4.667   7.011   1.305
10547SOL    HW232541   4.632   6.876   1.389
10548SOL     OW32542   4.661   4.716   5.341
10548SOL    HW132543   4.573   4.673   5.360
10548SOL    HW232544   4.698   4.753   5.426
10549SOL     OW32545   0.870   1.414   1.470
10549SOL    HW132546   0.858   1.468   1.554
10549SOL    HW232547   0.787   1.363   1.450
10550SOL     OW32548   5.280   6.092   4.758
10550SOL    HW132549   5.254   6.146   4.838
10550SOL    HW232550   5.238   6.132   4.676
10551SOL     OW32551   0.926   2.471   5.910
10551SOL    HW132552   0.847   2.427   5.951
10551SOL    HW232553   0.968   2.410   5.844
10552SOL     OW32554   2.907   2.243   4.797
10552SOL    HW132555   2.962   2.264   4.878
10552SOL    HW232556   2.840   2.171   4.820
10553SOL     OW32557   3.108   5.101   5.886
10553SOL    HW132558   3.176   5.170   5.861
10553SOL    HW232559   3.066   5.064   5.803
10554SOL     OW32560   6.717   4.135   6.144
10554SOL    HW132561   6.668   4.048   6.148
10554SOL    HW232562   6.814   4.117   6.131
10555SOL     OW32563   3.719   2.864   1.289
10555SOL    HW132564   3.709   2.777   1.337
10555SOL    HW232565   3.703   2.850   1.191
10556SOL     OW32566   1.483   3.742   3.702
10556SOL    HW132567   1.543   3.748   3.781
10556SOL    HW232568   1.447   3.648   3.695
10557SOL     OW32569   5.411   1.288   3.507
10557SOL    HW132570   5.431   1.197   3.471
10557SOL    HW232571   5.453   1.357   3.448
10558SOL     OW32572   5.169   5.852   4.883
10558SOL    HW132573   5.140   5.947   4.869
10558SOL    HW232574   5.141   5.797   4.804
10559SOL     OW32575   4.465   2.503   0.624
10559SOL    HW132576   4.371   2.468   0.619
10559SOL    HW232577   4.480   2.543   0.715
10560SOL     OW32578   0.181   2.650   4.242
10560SOL    HW132579   0.124   2.573   4.212
10560SOL    HW232580   0.228   2.689   4.164
10561SOL     OW32581   2.229   3.968   6.335
10561SOL    HW132582   2.173   4.044   6.368
10561SOL    HW232583   2.284   3.999   6.257
10562SOL     OW32584   3.410   2.000   0.365
10562SOL    HW132585   3.325   1.955   0.392
10562SOL    HW232586   3.437   1.967   0.275
10563SOL     OW32587   1.548   2.338   2.824
10563SOL    HW132588   1.595   2.331   2.737
10563SOL    HW232589   1.549   2.250   2.871
10564SOL     OW32590   6.922   2.109   2.138
10564SOL    HW132591   6.970   2.180   2.190
10564SOL    HW232592   6.987   2.038   2.111
10565SOL     OW32593   5.256   1.522   4.660
10565SOL    HW132594   5.205   1.592   4.710
10565SOL    HW232595   5.323   1.479   4.721
10566SOL     OW32596   4.460   5.122   6.813
10566SOL    HW132597   4.514   5.203   6.789
10566SOL    HW232598   4.369   5.130   6.774
10567SOL     OW32599   2.374   5.272   3.886
10567SOL    HW132600   2.286   5.320   3.878
10567SOL    HW232601   2.445   5.337   3.911
10568SOL     OW32602   3.671   1.793   2.834
10568SOL    HW132603   3.573   1.809   2.847
10568SOL    HW232604   3.717   1.881   2.823
10569SOL     OW32605   6.233   2.971   3.485
10569SOL    HW132606   6.254   2.962   3.582
10569SOL    HW232607   6.180   2.891   3.455
10570SOL     OW32608   1.025   4.074   1.012
10570SOL    HW132609   1.087   4.148   1.038
10570SOL    HW232610   1.025   4.063   0.913
10571SOL     OW32611   6.314   6.575   4.774
10571SOL    HW132612   6.319   6.660   4.827
10571SOL    HW232613   6.380   6.509   4.811
10572SOL     OW32614   6.778   3.303   1.646
10572SOL    HW132615   6.719   3.361   1.590
10572SOL    HW232616   6.726   3.272   1.726
10573SOL     OW32617   6.081   4.303   6.003
10573SOL    HW132618   6.006   4.334   6.061
10573SOL    HW232619   6.165   4.300   6.056
10574SOL     OW32620   0.465   2.290   3.337
10574SOL    HW132621   0.514   2.208   3.307
10574SOL    HW232622   0.494   2.313   3.430
10575SOL     OW32623   1.061   7.002   6.065
10575SOL    HW132624   1.037   0.078   6.056
10575SOL    HW232625   0.982   6.946   6.041
10576SOL     OW32626   1.164   5.786   3.204
10576SOL    HW132627   1.117   5.699   3.218
10576SOL    HW232628   1.182   5.798   3.106
10577SOL     OW32629   0.430   2.456   5.860
10577SOL    HW132630   0.373   2.527   5.817
10577SOL    HW232631   0.401   2.366   5.826
10578SOL     OW32632   5.577   1.016   5.201
10578SOL    HW132633   5.647   0.960   5.158
10578SOL    HW232634   5.533   0.964   5.274
10579SOL     OW32635   5.633   6.895   0.548
10579SOL    HW132636   5.537   6.890   0.523
10579SOL    HW232637   5.690   6.864   0.471
10580SOL     OW32638   0.241   5.944   0.501
10580SOL    HW132639   0.311   5.994   0.450
10580SOL    HW232640   0.270   5.849   0.512
10581SOL     OW32641   4.780   2.420   4.085
10581SOL    HW132642   4.795   2.327   4.051
10581SOL    HW232643   4.867   2.458   4.118
10582SOL     OW32644   3.149   4.817   0.183
10582SOL    HW132645   3.150   4.882   0.107
10582SOL    HW232646   3.231   4.759   0.177
10583SOL     OW32647   4.725   0.912   1.453
10583SOL    HW132648   4.706   0.983   1.386
10583SOL    HW232649   4.780   0.949   1.527
10584SOL     OW32650   6.137   6.765   1.103
10584SOL    HW132651   6.148   6.832   1.177
10584SOL    HW232652   6.201   6.690   1.117
10585SOL     OW32653   2.378   4.564   6.523
10585SOL    HW132654   2.371   4.634   6.451
10585SOL    HW232655   2.423   4.603   6.603
10586SOL     OW32656   4.831   1.769   0.838
10586SOL    HW132657   4.853   1.780   0.741
10586SOL    HW232658   4.735   1.789   0.853
10587SOL     OW32659   5.872   3.070   0.195
10587SOL    HW132660   5.878   2.971   0.213
10587SOL    HW232661   5.841   3.116   0.278
10588SOL     OW32662   1.284   5.072   3.097
10588SOL    HW132663   1.285   5.157   3.044
10588SOL    HW232664   1.376   5.033   3.100
10589SOL     OW32665   5.484   1.594   4.205
10589SOL    HW132666   5.550   1.656   4.248
10589SOL    HW232667   5.518   1.501   4.209
10590SOL     OW32668   1.227   0.069   5.072
10590SOL    HW132669   1.185   0.130   5.004
10590SOL    HW232670   1.326   0.079   5.068
10591SOL     OW32671   1.827   2.498   1.623
10591SOL    HW132672   1.891   2.574   1.612
10591SOL    HW232673   1.786   2.502   1.714
10592SOL     OW32674   6.053   1.436   6.764
10592SOL    HW132675   6.112   1.465   6.840
10592SOL    HW232676   6.039   1.514   6.702
10593SOL     OW32677   1.143   4.666   1.548
10593SOL    HW132678   1.143   4.731   1.472
10593SOL    HW232679   1.060   4.611   1.545
10594SOL     OW32680   1.317   1.646   4.222
10594SOL    HW132681   1.391   1.583   4.247
10594SOL    HW232682   1.335   1.684   4.131
10595SOL     OW32683   2.424   5.989   4.786
10595SOL    HW132684   2.426   5.918   4.715
10595SOL    HW232685   2.329   6.014   4.806
10596SOL     OW32686   3.294   0.963   2.010
10596SOL    HW132687   3.371   0.978   1.949
10596SOL    HW232688   3.230   1.040   2.002
10597SOL     OW32689   1.235   1.137   4.101
10597SOL    HW132690   1.277   1.052   4.132
10597SOL    HW232691   1.136   1.126   4.097
10598SOL     OW32692   1.825   1.286   0.296
10598SOL    HW132693   1.918   1.298   0.260
10598SOL    HW232694   1.779   1.213   0.246
10599SOL     OW32695   5.215   0.829   6.608
10599SOL    HW132696   5.197   0.918   6.650
10599SOL    HW232697   5.177   0.828   6.516
10600SOL     OW32698   1.478   2.832   5.416
10600SOL    HW132699   1.407   2.807   5.351
10600SOL    HW232700   1.565   2.792   5.386
10601SOL     OW32701   3.037   6.248   5.239
10601SOL    HW132702   3.081   6.180   5.180
10601SOL    HW232703   3.001   6.322   5.184
10602SOL     OW32704   4.522   1.414   1.406
10602SOL    HW132705   4.563   1.503   1.428
10602SOL    HW232706   4.492   1.415   1.310
10603SOL     OW32707   0.996   5.497   4.989
10603SOL    HW132708   0.965   5.437   5.063
10603SOL    HW232709   1.095   5.487   4.976
10604SOL     OW32710   0.516   4.012   5.703
10604SOL    HW132711   0.534   3.915   5.715
10604SOL    HW232712   0.508   4.056   5.792
10605SOL     OW32713   1.805   5.143   6.653
10605SOL    HW132714   1.852   5.226   6.624
10605SOL    HW232715   1.733   5.120   6.588
10606SOL     OW32716   7.006   1.163   2.209
10606SOL    HW132717   7.010   1.199   2.115
10606SOL    HW232718   6.929   1.204   2.257
10607SOL     OW32719   5.490   4.781   6.685
10607SOL    HW132720   5.580   4.824   6.677
10607SOL    HW232721   5.467   4.735   6.600
10608SOL     OW32722   5.433   0.251   3.003
10608SOL    HW132723   5.342   0.209   3.012
10608SOL    HW232724   5.502   0.179   2.997
10609SOL     OW32725   3.607   7.005   2.886
10609SOL    HW132726   3.593   6.910   2.855
10609SOL    HW232727   3.633   0.041   2.808
10610SOL     OW32728   2.013   4.637   4.538
10610SOL    HW132729   2.076   4.709   4.566
10610SOL    HW232730   1.926   4.649   4.585
10611SOL     OW32731   4.938   2.433   6.401
10611SOL    HW132732   4.924   2.513   6.459
10611SOL    HW232733   4.910   2.351   6.451
10612SOL     OW32734   1.679   0.378   1.173
10612SOL    HW132735   1.751   0.445   1.154
10612SOL    HW232736   1.600   0.397   1.115
10613SOL     OW32737   0.643   6.472   6.920
10613SOL    HW132738   0.615   6.544   6.983
10613SOL    HW232739   0.667   6.512   6.832
10614SOL     OW32740   6.801   0.427   2.916
10614SOL    HW132741   6.865   0.354   2.892
10614SOL    HW232742   6.738   0.395   2.987
10615SOL     OW32743   0.012   6.491   5.115
10615SOL    HW132744   0.097   6.452   5.079
10615SOL    HW232745   7.001   6.436   5.193
10616SOL     OW32746   2.736   5.857   1.279
10616SOL    HW132747   2.748   5.829   1.184
10616SOL    HW232748   2.816   5.827   1.332
10617SOL     OW32749   0.393   1.613   0.160
10617SOL    HW132750   0.491   1.614   0.141
10617SOL    HW232751   0.366   1.523   0.193
10618SOL     OW32752   6.229   3.843   0.838
10618SOL    HW132753   6.306   3.828   0.776
10618SOL    HW232754   6.255   3.816   0.930
10619SOL     OW32755   0.786   3.991   3.144
10619SOL    HW132756   0.851   4.066   3.147
10619SOL    HW232757   0.812   3.927   3.072
10620SOL     OW32758   1.400   5.300   4.290
10620SOL    HW132759   1.482   5.246   4.305
10620SOL    HW232760   1.323   5.240   4.270
10621SOL     OW32761   3.218   6.167   0.594
10621SOL    HW132762   3.206   6.089   0.534
10621SOL    HW232763   3.147   6.165   0.665
10622SOL     OW32764   4.423   2.128   0.889
10622SOL    HW132765   4.375   2.134   0.977
10622SOL    HW232766   4.359   2.100   0.818
10623SOL     OW32767   6.992   1.014   4.357
10623SOL    HW132768   0.057   0.984   4.400
10623SOL    HW232769   6.918   1.012   4.424
10624SOL     OW32770   2.955   1.021   3.677
10624SOL    HW132771   2.975   0.989   3.770
10624SOL    HW232772   3.030   1.080   3.645
10625SOL     OW32773   0.645   2.863   0.192
10625SOL    HW132774   0.740   2.832   0.184
10625SOL    HW232775   0.639   2.933   0.263
10626SOL     OW32776   5.944   2.325   2.263
10626SOL    HW132777   5.899   2.414   2.267
10626SOL    HW232778   5.935   2.287   2.171
10627SOL     OW32779   5.600   6.051   4.650
10627SOL    HW132780   5.539   5.982   4.687
10627SOL    HW232781   5.692   6.013   4.639
10628SOL     OW32782   0.116   5.872   5.698
10628SOL    HW132783   0.023   5.909   5.703
10628SOL    HW232784   0.147   5.847   5.790
10629SOL     OW32785   2.169   4.312   6.642
10629SOL    HW132786   2.108   4.271   6.575
10629SOL    HW232787   2.263   4.280   6.627
10630SOL     OW32788   6.129   0.595   1.896
10630SOL    HW132789   6.197   0.523   1.890
10630SOL    HW232790   6.052   0.564   1.952
10631SOL     OW32791   1.200   6.504   4.920
10631SOL    HW132792   1.209   6.569   4.995
10631SOL    HW232793   1.244   6.418   4.945
10632SOL     OW32794   6.827   3.383   6.101
10632SOL    HW132795   6.756   3.312   6.093
10632SOL    HW232796   6.884   3.364   6.181
10633SOL     OW32797   1.020   5.252   0.290
10633SOL    HW132798   0.939   5.283   0.241
10633SOL    HW232799   0.996   5.173   0.347
10634SOL     OW32800   3.352   6.451   2.333
10634SOL    HW132801   3.323   6.358   2.353
10634SOL    HW232802   3.349   6.467   2.235
10635SOL     OW32803   1.623   1.359   1.275
10635SOL    HW132804   1.580   1.286   1.222
10635SOL    HW232805   1.606   1.447   1.230
10636SOL     OW32806   5.143   1.481   1.115
10636SOL    HW132807   5.145   1.465   1.213
10636SOL    HW232808   5.197   1.562   1.093
10637SOL     OW32809   2.865   4.616   6.070
10637SOL    HW132810   2.789   4.680   6.060
10637SOL    HW232811   2.927   4.648   6.142
10638SOL     OW32812   6.923   6.743   5.872
10638SOL    HW132813   6.905   6.841   5.881
10638SOL    HW232814   6.967   6.710   5.956
10639SOL     OW32815   3.312   2.104   5.126
10639SOL    HW132816   3.281   2.194   5.095
10639SOL    HW232817   3.290   2.035   5.058
10640SOL     OW32818   4.710   6.231   1.062
10640SOL    HW132819   4.616   6.263   1.068
10640SOL    HW232820   4.765   6.273   1.134
10641SOL     OW32821   3.449   0.464   6.434
10641SOL    HW132822   3.396   0.420   6.506
10641SOL    HW232823   3.545   0.469   6.462
10642SOL     OW32824   6.975   4.839   0.423
10642SOL    HW132825   7.021   4.921   0.388
10642SOL    HW232826   6.877   4.845   0.404
10643SOL     OW32827   4.244   3.186   5.449
10643SOL    HW132828   4.290   3.272   5.427
10643SOL    HW232829   4.302   3.109   5.422
10644SOL     OW32830   3.946   1.181   5.208
10644SOL    HW132831   4.022   1.246   5.201
10644SOL    HW232832   3.915   1.177   5.303
10645SOL     OW32833   2.058   6.954   4.866
10645SOL    HW132834   2.010   0.020   4.852
10645SOL    HW232835   2.105   6.956   4.954
10646SOL     OW32836   0.560   4.606   6.843
10646SOL    HW132837   0.564   4.539   6.769
10646SOL    HW232838   0.529   4.560   6.927
10647SOL     OW32839   0.544   5.887   0.779
10647SOL    HW132840   0.527   5.969   0.834
10647SOL    HW232841   0.474   5.818   0.798
10648SOL     OW32842   4.850   5.189   6.328
10648SOL    HW132843   4.754   5.174   6.304
10648SOL    HW232844   4.876   5.127   6.401
10649SOL     OW32845   0.233   4.350   6.131
10649SOL    HW132846   0.239   4.253   6.108
10649SOL    HW232847   0.316   4.379   6.177
10650SOL     OW32848   3.022   0.730   5.691
10650SOL    HW132849   3.026   0.766   5.784
10650SOL    HW232850   3.047   0.801   5.626
10651SOL     OW32851   2.613   0.739   5.160
10651SOL    HW132852   2.692   0.721   5.218
10651SOL    HW232853   2.634   0.811   5.094
10652SOL     OW32854   3.858   1.600   0.343
10652SOL    HW132855   3.938   1.547   0.370
10652SOL    HW232856   3.786   1.539   0.308
10653SOL     OW32857   6.327   3.886   4.133
10653SOL    HW132858   6.293   3.836   4.212
10653SOL    HW232859   6.271   3.865   4.053
10654SOL     OW32860   4.485   0.673   1.664
10654SOL    HW132861   4.444   0.722   1.742
10654SOL    HW232862   4.478   0.574   1.680
10655SOL     OW32863   2.535   5.358   1.691
10655SOL    HW132864   2.535   5.288   1.762
10655SOL    HW232865   2.483   5.326   1.612
10656SOL     OW32866   6.584   2.560   6.560
10656SOL    HW132867   6.609   2.622   6.634
10656SOL    HW232868   6.587   2.466   6.593
10657SOL     OW32869   6.861   0.326   1.296
10657SOL    HW132870   6.886   0.324   1.393
10657SOL    HW232871   6.871   0.235   1.257
10658SOL     OW32872   0.047   6.181   4.213
10658SOL    HW132873   0.010   6.092   4.240
10658SOL    HW232874   0.084   6.174   4.121
10659SOL     OW32875   4.744   1.296   1.130
10659SOL    HW132876   4.697   1.242   1.200
10659SOL    HW232877   4.773   1.236   1.056
10660SOL     OW32878   5.680   5.689   5.983
10660SOL    HW132879   5.627   5.724   5.906
10660SOL    HW232880   5.775   5.717   5.972
10661SOL     OW32881   0.299   0.747   2.139
10661SOL    HW132882   0.235   0.804   2.190
10661SOL    HW232883   0.386   0.743   2.187
10662SOL     OW32884   6.734   1.775   0.118
10662SOL    HW132885   6.705   1.861   0.160
10662SOL    HW232886   6.752   1.707   0.189
10663SOL     OW32887   0.693   2.279   0.217
10663SOL    HW132888   0.669   2.269   0.121
10663SOL    HW232889   0.688   2.189   0.262
10664SOL     OW32890   2.422   5.109   6.192
10664SOL    HW132891   2.407   5.197   6.147
10664SOL    HW232892   2.335   5.059   6.197
10665SOL     OW32893   5.840   1.672   6.846
10665SOL    HW132894   5.828   1.686   6.944
10665SOL    HW232895   5.814   1.578   6.823
10666SOL     OW32896   0.669   0.027   0.318
10666SOL    HW132897   0.594   7.001   0.271
10666SOL    HW232898   0.660   0.013   0.416
10667SOL     OW32899   2.640   2.574   5.738
10667SOL    HW132900   2.695   2.575   5.654
10667SOL    HW232901   2.701   2.568   5.817
10668SOL     OW32902   2.208   1.336   6.420
10668SOL    HW132903   2.234   1.350   6.324
10668SOL    HW232904   2.280   1.371   6.479
10669SOL     OW32905   1.470   6.352   6.214
10669SOL    HW132906   1.371   6.356   6.207
10669SOL    HW232907   1.497   6.294   6.291
10670SOL     OW32908   6.186   4.061   4.717
10670SOL    HW132909   6.227   4.151   4.731
10670SOL    HW232910   6.196   4.006   4.801
10671SOL     OW32911   2.034   2.847   2.796
10671SOL    HW132912   2.039   2.905   2.877
10671SOL    HW232913   2.078   2.759   2.814
10672SOL     OW32914   6.985   2.602   0.611
10672SOL    HW132915   6.947   2.594   0.519
10672SOL    HW232916   0.059   2.570   0.611
10673SOL     OW32917   3.181   3.687   4.094
10673SOL    HW132918   3.250   3.749   4.130
10673SOL    HW232919   3.208   3.655   4.003
10674SOL     OW32920   4.081   1.464   2.375
10674SOL    HW132921   4.136   1.424   2.448
10674SOL    HW232922   4.002   1.405   2.357
10675SOL     OW32923   1.082   1.360   5.441
10675SOL    HW132924   1.010   1.329   5.380
10675SOL    HW232925   1.042   1.398   5.525
10676SOL     OW32926   6.860   0.707   6.653
10676SOL    HW132927   6.878   0.687   6.556
10676SOL    HW232928   6.865   0.622   6.706
10677SOL     OW32929   5.940   1.028   1.017
10677SOL    HW132930   5.854   0.984   0.993
10677SOL    HW232931   5.921   1.120   1.053
10678SOL     OW32932   1.655   5.256   3.172
10678SOL    HW132933   1.638   5.353   3.156
10678SOL    HW232934   1.752   5.236   3.155
10679SOL     OW32935   5.198   4.678   3.587
10679SOL    HW132936   5.188   4.647   3.682
10679SOL    HW232937   5.270   4.624   3.543
10680SOL     OW32938   0.425   2.713   3.432
10680SOL    HW132939   0.331   2.681   3.437
10680SOL    HW232940   0.468   2.677   3.349
10681SOL     OW32941   0.530   2.668   6.790
10681SOL    HW132942   0.444   2.627   6.821
10681SOL    HW232943   0.600   2.653   6.859
10682SOL     OW32944   6.546   1.723   3.106
10682SOL    HW132945   6.555   1.799   3.171
10682SOL    HW232946   6.510   1.758   3.020
10683SOL     OW32947   0.926   0.444   4.320
10683SOL    HW132948   0.863   0.435   4.242
10683SOL    HW232949   0.874   0.463   4.403
10684SOL     OW32950   5.005   5.740   0.662
10684SOL    HW132951   4.943   5.724   0.585
10684SOL    HW232952   4.987   5.673   0.734
10685SOL     OW32953   6.070   2.814   2.531
10685SOL    HW132954   6.053   2.780   2.623
10685SOL    HW232955   6.113   2.904   2.537
10686SOL     OW32956   4.412   4.365   1.292
10686SOL    HW132957   4.318   4.354   1.259
10686SOL    HW232958   4.424   4.457   1.329
10687SOL     OW32959   6.534   5.315   1.294
10687SOL    HW132960   6.491   5.238   1.248
10687SOL    HW232961   6.565   5.286   1.385
10688SOL     OW32962   0.587   4.779   1.371
10688SOL    HW132963   0.598   4.874   1.400
10688SOL    HW232964   0.629   4.718   1.439
10689SOL     OW32965   1.240   0.421   0.689
10689SOL    HW132966   1.142   0.420   0.670
10689SOL    HW232967   1.264   0.343   0.747
10690SOL     OW32968   4.421   6.650   3.122
10690SOL    HW132969   4.464   6.717   3.182
10690SOL    HW232970   4.349   6.694   3.068
10691SOL     OW32971   5.756   0.989   1.560
10691SOL    HW132972   5.823   1.048   1.605
10691SOL    HW232973   5.801   0.938   1.487
10692SOL     OW32974   6.451   6.670   3.967
10692SOL    HW132975   6.376   6.605   3.983
10692SOL    HW232976   6.424   6.760   3.999
10693SOL     OW32977   4.800   3.023   4.579
10693SOL    HW132978   4.815   2.928   4.551
10693SOL    HW232979   4.816   3.032   4.677
10694SOL     OW32980   2.310   5.892   0.279
10694SOL    HW132981   2.216   5.915   0.256
10694SOL    HW232982   2.361   5.975   0.301
10695SOL     OW32983   5.641   3.431   5.628
10695SOL    HW132984   5.710   3.482   5.577
10695SOL    HW232985   5.553   3.477   5.620
10696SOL     OW32986   6.434   6.855   1.083
10696SOL    HW132987   6.418   6.817   1.174
10696SOL    HW232988   6.382   6.940   1.073
10697SOL     OW32989   1.866   6.220   2.967
10697SOL    HW132990   1.859   6.213   3.066
10697SOL    HW232991   1.943   6.164   2.935
10698SOL     OW32992   2.976   0.502   4.724
10698SOL    HW132993   2.994   0.532   4.631
10698SOL    HW232994   2.942   0.408   4.723
10699SOL     OW32995   1.534   2.730   3.654
10699SOL    HW132996   1.508   2.775   3.739
10699SOL    HW232997   1.610   2.779   3.612
10700SOL     OW32998   0.993   2.993   2.572
10700SOL    HW132999   1.068   2.963   2.632
10700SOL    HW233000   1.020   2.983   2.476
10701SOL     OW33001   2.745   0.293   1.073
10701SOL    HW133002   2.699   0.230   1.010
10701SOL    HW233003   2.683   0.316   1.149
10702SOL     OW33004   5.070   2.348   0.612
10702SOL    HW133005   5.131   2.419   0.647
10702SOL    HW233006   4.975   2.378   0.619
10703SOL     OW33007   3.751   3.022   4.619
10703SOL    HW133008   3.700   2.968   4.551
10703SOL    HW233009   3.686   3.065   4.682
10704SOL     OW33010   5.765   5.601   2.482
10704SOL    HW133011   5.723   5.566   2.566
10704SOL    HW233012   5.849   5.550   2.463
10705SOL     OW33013   1.540   3.320   6.678
10705SOL    HW133014   1.565   3.409   6.638
10705SOL    HW233015   1.455   3.288   6.637
10706SOL     OW33016   3.663   3.400   1.008
10706SOL    HW133017   3.700   3.318   1.052
10706SOL    HW233018   3.735   3.469   0.999
10707SOL     OW33019   5.978   6.801   6.461
10707SOL    HW133020   6.048   6.873   6.461
10707SOL    HW233021   6.012   6.722   6.512
10708SOL     OW33022   4.836   1.680   1.639
10708SOL    HW133023   4.819   1.760   1.698
10708SOL    HW233024   4.751   1.652   1.596
10709SOL     OW33025   0.715   0.094   5.961
10709SOL    HW133026   0.762   0.160   6.020
10709SOL    HW233027   0.723   0.003   6.001
10710SOL     OW33028   0.369   6.146   3.440
10710SOL    HW133029   0.298   6.118   3.375
10710SOL    HW233030   0.400   6.238   3.418
10711SOL     OW33031   2.172   4.715   5.588
10711SOL    HW133032   2.130   4.762   5.665
10711SOL    HW233033   2.102   4.695   5.519
10712SOL     OW33034   3.407   1.613   6.488
10712SOL    HW133035   3.366   1.550   6.553
10712SOL    HW233036   3.345   1.690   6.472
10713SOL     OW33037   2.031   6.924   0.221
10713SOL    HW133038   2.041   6.976   0.306
10713SOL    HW233039   2.085   6.968   0.149
10714SOL     OW33040   5.368   5.442   4.441
10714SOL    HW133041   5.359   5.526   4.387
10714SOL    HW233042   5.461   5.406   4.432
10715SOL     OW33043   6.029   0.483   2.723
10715SOL    HW133044   6.116   0.482   2.674
10715SOL    HW233045   5.965   0.421   2.678
10716SOL     OW33046   6.968   0.793   1.609
10716SOL    HW133047   7.018   0.772   1.694
10716SOL    HW233048   0.013   0.811   1.536
10717SOL     OW33049   0.569   6.578   1.881
10717SOL    HW133050   0.595   6.586   1.785
10717SOL    HW233051   0.495   6.510   1.890
10718SOL     OW33052   0.815   4.517   5.407
10718SOL    HW133053   0.749   4.489   5.337
10718SOL    HW233054   0.895   4.558   5.362
10719SOL     OW33055   3.870   6.318   2.705
10719SOL    HW133056   3.781   6.282   2.733
10719SOL    HW233057   3.865   6.418   2.700
10720SOL     OW33058   0.476   3.007   5.962
10720SOL    HW133059   0.384   2.997   5.924
10720SOL    HW233060   0.528   3.070   5.905
10721SOL     OW33061   5.301   1.951   4.324
10721SOL    HW133062   5.231   1.992   4.383
10721SOL    HW233063   5.338   1.869   4.368
10722SOL     OW33064   0.590   5.325   0.597
10722SOL    HW133065   0.605   5.260   0.522
10722SOL    HW233066   0.598   5.418   0.563
10723SOL     OW33067   6.787   3.974   6.397
10723SOL    HW133068   6.784   4.074   6.395
10723SOL    HW233069   6.868   3.942   6.346
10724SOL     OW33070   3.525   0.078   5.852
10724SOL    HW133071   3.482   0.032   5.929
10724SOL    HW233072   3.478   0.164   5.834
10725SOL     OW33073   0.149   6.906   5.346
10725SOL    HW133074   0.070   6.923   5.288
10725SOL    HW233075   0.119   6.888   5.439
10726SOL     OW33076   0.112   0.279   3.100
10726SOL    HW133077   0.203   0.319   3.088
10726SOL    HW233078   0.083   0.289   3.195
10727SOL     OW33079   4.660   6.634   6.285
10727SOL    HW133080   4.694   6.631   6.379
10727SOL    HW233081   4.675   6.546   6.240
10728SOL     OW33082   5.974   5.503   3.807
10728SOL    HW133083   5.936   5.480   3.718
10728SOL    HW233084   5.953   5.598   3.830
10729SOL     OW33085   6.961   2.838   4.358
10729SOL    HW133086   6.927   2.765   4.417
10729SOL    HW233087   0.007   2.801   4.294
10730SOL     OW33088   1.658   6.380   4.288
10730SOL    HW133089   1.576   6.382   4.231
10730SOL    HW233090   1.690   6.286   4.297
10731SOL     OW33091   4.938   4.731   6.091
10731SOL    HW133092   4.944   4.723   5.992
10731SOL    HW233093   4.985   4.653   6.133
10732SOL     OW33094   6.346   5.923   2.218
10732SOL    HW133095   6.352   5.991   2.290
10732SOL    HW233096   6.258   5.876   2.223
10733SOL     OW33097   0.286   1.650   5.975
10733SOL    HW133098   0.212   1.588   6.002
10733SOL    HW233099   0.356   1.652   6.047
10734SOL     OW33100   0.639   0.822   4.519
10734SOL    HW133101   0.595   0.902   4.479
10734SOL    HW233102   0.574   0.776   4.580
10735SOL     OW33103   6.804   0.528   1.663
10735SOL    HW133104   6.890   0.568   1.633
10735SOL    HW233105   6.796   0.435   1.628
10736SOL     OW33106   5.849   5.808   3.884
10736SOL    HW133107   5.876   5.894   3.926
10736SOL    HW233108   5.793   5.755   3.948
10737SOL     OW33109   0.012   0.803   1.181
10737SOL    HW133110   7.008   0.719   1.133
10737SOL    HW233111   6.973   0.815   1.260
10738SOL     OW33112   1.525   6.829   1.824
10738SOL    HW133113   1.456   6.845   1.895
10738SOL    HW233114   1.615   6.821   1.866
10739SOL     OW33115   4.849   2.773   4.493
10739SOL    HW133116   4.756   2.775   4.458
10739SOL    HW233117   4.899   2.697   4.452
10740SOL     OW33118   2.717   0.580   6.075
10740SOL    HW133119   2.728   0.583   5.975
10740SOL    HW233120   2.791   0.527   6.115
10741SOL     OW33121   1.363   2.684   4.054
10741SOL    HW133122   1.313   2.607   4.015
10741SOL    HW233123   1.303   2.734   4.117
10742SOL     OW33124   0.356   0.353   2.155
10742SOL    HW133125   0.337   0.256   2.172
10742SOL    HW233126   0.439   0.379   2.206
10743SOL     OW33127   3.577   2.029   5.769
10743SOL    HW133128   3.568   2.103   5.702
10743SOL    HW233129   3.626   1.952   5.727
10744SOL     OW33130   2.225   2.112   1.242
10744SOL    HW133131   2.320   2.137   1.262
10744SOL    HW233132   2.195   2.159   1.159
10745SOL     OW33133   3.034   5.665   1.582
10745SOL    HW133134   2.990   5.620   1.504
10745SOL    HW233135   2.976   5.655   1.663
10746SOL     OW33136   2.472   5.373   6.138
10746SOL    HW133137   2.391   5.405   6.188
10746SOL    HW233138   2.548   5.436   6.153
10747SOL     OW33139   6.906   0.113   4.648
10747SOL    HW133140   6.856   0.101   4.562
10747SOL    HW233141   6.999   0.143   4.627
10748SOL     OW33142   3.010   6.664   2.563
10748SOL    HW133143   2.939   6.666   2.633
10748SOL    HW233144   2.998   6.741   2.501
10749SOL     OW33145   4.987   3.613   1.906
10749SOL    HW133146   4.919   3.673   1.948
10749SOL    HW233147   5.077   3.656   1.912
10750SOL     OW33148   3.902   1.876   4.023
10750SOL    HW133149   3.858   1.962   3.995
10750SOL    HW233150   3.862   1.844   4.108
10751SOL     OW33151   6.545   6.269   3.718
10751SOL    HW133152   6.590   6.347   3.761
10751SOL    HW233153   6.448   6.289   3.706
10752SOL     OW33154   0.489   6.006   6.577
10752SOL    HW133155   0.490   6.042   6.670
10752SOL    HW233156   0.500   5.906   6.579
10753SOL     OW33157   5.423   6.599   5.131
10753SOL    HW133158   5.437   6.626   5.226
10753SOL    HW233159   5.333   6.630   5.100
10754SOL     OW33160   0.422   5.759   2.124
10754SOL    HW133161   0.376   5.731   2.039
10754SOL    HW233162   0.364   5.737   2.202
10755SOL     OW33163   0.088   1.938   1.717
10755SOL    HW133164   0.186   1.923   1.732
10755SOL    HW233165   0.060   1.895   1.631
10756SOL     OW33166   1.298   0.025   5.944
10756SOL    HW133167   1.282   7.000   5.857
10756SOL    HW233168   1.220   0.009   6.005
10757SOL     OW33169   6.983   2.975   1.840
10757SOL    HW133170   6.994   2.974   1.740
10757SOL    HW233171   6.918   3.047   1.865
10758SOL     OW33172   1.196   1.672   0.776
10758SOL    HW133173   1.146   1.691   0.692
10758SOL    HW233174   1.262   1.599   0.761
10759SOL     OW33175   3.968   3.987   4.996
10759SOL    HW133176   3.968   4.087   4.994
10759SOL    HW233177   4.011   3.956   5.081
10760SOL     OW33178   0.970   4.932   6.762
10760SOL    HW133179   0.915   4.851   6.780
10760SOL    HW233180   0.911   5.012   6.759
10761SOL     OW33181   1.421   1.128   6.780
10761SOL    HW133182   1.330   1.086   6.775
10761SOL    HW233183   1.475   1.099   6.701
10762SOL     OW33184   1.893   6.581   0.531
10762SOL    HW133185   1.986   6.609   0.509
10762SOL    HW233186   1.887   6.559   0.628
10763SOL     OW33187   5.023   1.078   2.382
10763SOL    HW133188   5.085   1.008   2.345
10763SOL    HW233189   5.018   1.155   2.318
10764SOL     OW33190   5.107   6.255   5.226
10764SOL    HW133191   5.109   6.271   5.325
10764SOL    HW233192   5.037   6.187   5.205
10765SOL     OW33193   0.311   2.703   0.885
10765SOL    HW133194   0.211   2.705   0.886
10765SOL    HW233195   0.346   2.788   0.924
10766SOL     OW33196   2.687   4.815   6.829
10766SOL    HW133197   2.595   4.842   6.802
10766SOL    HW233198   2.712   4.730   6.781
10767SOL     OW33199   1.841   4.958   6.847
10767SOL    HW133200   1.925   4.918   6.812
10767SOL    HW233201   1.818   5.039   6.793
10768SOL     OW33202   5.345   6.080   6.553
10768SOL    HW133203   5.276   6.018   6.589
10768SOL    HW233204   5.324   6.173   6.584
10769SOL     OW33205   2.957   3.810   4.672
10769SOL    HW133206   2.928   3.822   4.577
10769SOL    HW233207   3.052   3.840   4.682
10770SOL     OW33208   4.667   6.910   3.627
10770SOL    HW133209   4.684   6.868   3.717
10770SOL    HW233210   4.662   7.009   3.638
10771SOL     OW33211   4.410   5.719   5.995
10771SOL    HW133212   4.404   5.631   6.042
10771SOL    HW233213   4.452   5.787   6.055
10772SOL     OW33214   4.691   4.209   3.128
10772SOL    HW133215   4.694   4.191   3.227
10772SOL    HW233216   4.625   4.281   3.110
10773SOL     OW33217   0.606   4.170   0.594
10773SOL    HW133218   0.569   4.224   0.518
10773SOL    HW233219   0.584   4.216   0.681
10774SOL     OW33220   0.370   3.273   0.830
10774SOL    HW133221   0.310   3.324   0.891
10774SOL    HW233222   0.338   3.282   0.736
10775SOL     OW33223   2.173   4.682   0.160
10775SOL    HW133224   2.118   4.667   0.243
10775SOL    HW233225   2.130   4.635   0.083
10776SOL     OW33226   0.668   3.415   3.233
10776SOL    HW133227   0.645   3.346   3.302
10776SOL    HW233228   0.659   3.506   3.272
10777SOL     OW33229   1.662   0.118   1.594
10777SOL    HW133230   1.751   0.082   1.568
10777SOL    HW233231   1.626   0.176   1.522
10778SOL     OW33232   4.566   0.352   3.508
10778SOL    HW133233   4.550   0.419   3.581
10778SOL    HW233234   4.664   0.342   3.492
10779SOL     OW33235   6.033   2.688   6.183
10779SOL    HW133236   6.037   2.788   6.183
10779SOL    HW233237   5.940   2.658   6.161
10780SOL     OW33238   1.221   4.777   5.138
10780SOL    HW133239   1.196   4.754   5.044
10780SOL    HW233240   1.319   4.792   5.143
10781SOL     OW33241   6.209   2.318   5.917
10781SOL    HW133242   6.217   2.251   5.843
10781SOL    HW233243   6.218   2.272   6.005
10782SOL     OW33244   1.061   3.257   5.552
10782SOL    HW133245   1.161   3.263   5.552
10782SOL    HW233246   1.030   3.226   5.462
10783SOL     OW33247   1.593   4.142   3.717
10783SOL    HW133248   1.670   4.135   3.780
10783SOL    HW233249   1.515   4.185   3.764
10784SOL     OW33250   4.722   5.378   4.040
10784SOL    HW133251   4.695   5.370   3.944
10784SOL    HW233252   4.798   5.316   4.058
10785SOL     OW33253   1.560   5.482   1.735
10785SOL    HW133254   1.486   5.482   1.801
10785SOL    HW233255   1.597   5.390   1.725
10786SOL     OW33256   5.121   1.342   2.633
10786SOL    HW133257   5.164   1.315   2.719
10786SOL    HW233258   5.181   1.318   2.556
10787SOL     OW33259   3.671   1.425   3.628
10787SOL    HW133260   3.693   1.473   3.543
10787SOL    HW233261   3.693   1.483   3.706
10788SOL     OW33262   1.604   2.923   6.858
10788SOL    HW133263   1.619   3.020   6.878
10788SOL    HW233264   1.505   2.906   6.852
10789SOL     OW33265   6.171   1.762   2.512
10789SOL    HW133266   6.201   1.825   2.441
10789SOL    HW233267   6.110   1.809   2.576
10790SOL     OW33268   0.074   2.113   5.356
10790SOL    HW133269   0.085   2.149   5.449
10790SOL    HW233270   7.003   2.132   5.323
10791SOL     OW33271   1.996   3.424   3.637
10791SOL    HW133272   2.025   3.519   3.636
10791SOL    HW233273   2.003   3.388   3.730
10792SOL     OW33274   3.887   1.309   2.268
10792SOL    HW133275   3.808   1.360   2.235
10792SOL    HW233276   3.857   1.221   2.306
10793SOL     OW33277   3.607   1.970   4.768
10793SOL    HW133278   3.513   1.997   4.748
10793SOL    HW233279   3.613   1.939   4.863
10794SOL     OW33280   4.801   2.929   6.454
10794SOL    HW133281   4.780   2.968   6.364
10794SOL    HW233282   4.897   2.946   6.476
10795SOL     OW33283   6.045   3.163   3.535
10795SOL    HW133284   6.109   3.101   3.490
10795SOL    HW233285   6.081   3.189   3.624
10796SOL     OW33286   0.526   1.627   6.795
10796SOL    HW133287   0.456   1.561   6.822
10796SOL    HW233288   0.501   1.718   6.828
10797SOL     OW33289   5.329   4.999   6.577
10797SOL    HW133290   5.284   4.971   6.492
10797SOL    HW233291   5.381   4.922   6.614
10798SOL     OW33292   1.844   5.868   0.326
10798SOL    HW133293   1.928   5.911   0.361
10798SOL    HW233294   1.774   5.938   0.313
10799SOL     OW33295   2.160   0.558   2.676
10799SOL    HW133296   2.214   0.642   2.671
10799SOL    HW233297   2.151   0.529   2.771
10800SOL     OW33298   2.141   0.513   4.475
10800SOL    HW133299   2.076   0.491   4.402
10800SOL    HW233300   2.203   0.585   4.443
10801SOL     OW33301   2.762   6.335   6.654
10801SOL    HW133302   2.759   6.238   6.677
10801SOL    HW233303   2.806   6.348   6.565
10802SOL     OW33304   1.070   4.897   3.872
10802SOL    HW133305   1.058   4.915   3.774
10802SOL    HW233306   0.985   4.858   3.908
10803SOL     OW33307   6.684   4.254   4.368
10803SOL    HW133308   6.658   4.185   4.300
10803SOL    HW233309   6.757   4.311   4.332
10804SOL     OW33310   4.029   4.673   0.525
10804SOL    HW133311   4.081   4.669   0.610
10804SOL    HW233312   4.006   4.580   0.495
10805SOL     OW33313   4.642   6.200   0.495
10805SOL    HW133314   4.579   6.222   0.570
10805SOL    HW233315   4.718   6.264   0.496
10806SOL     OW33316   5.334   3.067   6.168
10806SOL    HW133317   5.392   3.043   6.091
10806SOL    HW233318   5.238   3.051   6.145
10807SOL     OW33319   4.605   2.201   5.473
10807SOL    HW133320   4.538   2.208   5.548
10807SOL    HW233321   4.631   2.293   5.443
10808SOL     OW33322   0.619   2.233   6.987
10808SOL    HW133323   0.623   2.141   6.950
10808SOL    HW233324   0.563   2.291   6.927
10809SOL     OW33325   1.272   0.621   2.391
10809SOL    HW133326   1.226   0.704   2.421
10809SOL    HW233327   1.355   0.607   2.445
10810SOL     OW33328   1.795   0.865   6.088
10810SOL    HW133329   1.696   0.877   6.097
10810SOL    HW233330   1.840   0.953   6.094
10811SOL     OW33331   4.057   6.247   6.525
10811SOL    HW133332   4.134   6.253   6.462
10811SOL    HW233333   4.028   6.152   6.534
10812SOL     OW33334   6.623   3.060   3.314
10812SOL    HW133335   6.696   3.016   3.366
10812SOL    HW233336   6.564   3.112   3.375
10813SOL     OW33337   3.027   5.881   2.301
10813SOL    HW133338   2.985   5.964   2.336
10813SOL    HW233339   3.043   5.817   2.377
10814SOL     OW33340   1.937   6.461   4.649
10814SOL    HW133341   1.999   6.382   4.656
10814SOL    HW233342   1.844   6.429   4.630
10815SOL     OW33343   5.238   1.513   5.719
10815SOL    HW133344   5.164   1.580   5.727
10815SOL    HW233345   5.230   1.465   5.632
10816SOL     OW33346   2.489   1.722   1.513
10816SOL    HW133347   2.390   1.710   1.516
10816SOL    HW233348   2.512   1.817   1.533
10817SOL     OW33349   3.462   1.825   2.250
10817SOL    HW133350   3.465   1.775   2.163
10817SOL    HW233351   3.453   1.923   2.231
10818SOL     OW33352   4.703   3.652   5.962
10818SOL    HW133353   4.777   3.705   6.003
10818SOL    HW233354   4.741   3.575   5.912
10819SOL     OW33355   2.062   3.879   5.022
10819SOL    HW133356   2.154   3.917   5.012
10819SOL    HW233357   2.026   3.900   5.113
10820SOL     OW33358   0.843   5.824   5.292
10820SOL    HW133359   0.860   5.743   5.236
10820SOL    HW233360   0.854   5.801   5.388
10821SOL     OW33361   0.467   0.436   6.940
10821SOL    HW133362   0.437   0.529   6.920
10821SOL    HW233363   0.454   0.417   0.017
10822SOL     OW33364   0.753   4.542   6.266
10822SOL    HW133365   0.720   4.625   6.220
10822SOL    HW233366   0.813   4.492   6.204
10823SOL     OW33367   1.682   2.368   0.477
10823SOL    HW133368   1.606   2.334   0.422
10823SOL    HW233369   1.756   2.301   0.476
10824SOL     OW33370   5.506   1.131   4.404
10824SOL    HW133371   5.515   1.032   4.410
10824SOL    HW233372   5.465   1.166   4.489
10825SOL     OW33373   2.949   1.293   2.419
10825SOL    HW133374   2.960   1.333   2.510
10825SOL    HW233375   3.014   1.335   2.356
10826SOL     OW33376   6.591   3.584   1.318
10826SOL    HW133377   6.618   3.617   1.227
10826SOL    HW233378   6.619   3.489   1.328
10827SOL     OW33379   0.845   2.723   4.382
10827SOL    HW133380   0.785   2.644   4.375
10827SOL    HW233381   0.838   2.778   4.298
10828SOL     OW33382   2.529   4.595   0.113
10828SOL    HW133383   2.565   4.514   0.159
10828SOL    HW233384   2.488   4.569   0.026
10829SOL     OW33385   2.370   4.226   1.934
10829SOL    HW133386   2.369   4.292   2.010
10829SOL    HW233387   2.433   4.258   1.863
10830SOL     OW33388   6.125   0.821   3.609
10830SOL    HW133389   6.033   0.785   3.601
10830SOL    HW233390   6.191   0.755   3.573
10831SOL     OW33391   5.365   2.206   2.107
10831SOL    HW133392   5.353   2.110   2.081
10831SOL    HW233393   5.369   2.213   2.207
10832SOL     OW33394   0.736   2.948   2.404
10832SOL    HW133395   0.721   2.858   2.363
10832SOL    HW233396   0.790   2.938   2.488
10833SOL     OW33397   3.056   0.217   4.381
10833SOL    HW133398   2.975   0.188   4.331
10833SOL    HW233399   3.063   0.165   4.467
10834SOL     OW33400   0.067   1.463   5.999
10834SOL    HW133401   0.018   1.519   5.931
10834SOL    HW233402   0.012   1.456   6.082
10835SOL     OW33403   0.901   2.133   0.560
10835SOL    HW133404   0.921   2.094   0.650
10835SOL    HW233405   0.810   2.105   0.531
10836SOL     OW33406   0.751   2.544   0.982
10836SOL    HW133407   0.720   2.618   0.922
10836SOL    HW233408   0.771   2.581   1.073
10837SOL     OW33409   1.100   5.640   0.675
10837SOL    HW133410   1.194   5.607   0.675
10837SOL    HW233411   1.041   5.571   0.631
10838SOL     OW33412   6.511   6.118   0.491
10838SOL    HW133413   6.422   6.094   0.452
10838SOL    HW233414   6.551   6.037   0.534
10839SOL     OW33415   2.302   1.717   6.765
10839SOL    HW133416   2.213   1.730   6.807
10839SOL    HW233417   2.372   1.712   6.836
10840SOL     OW33418   2.034   0.225   2.888
10840SOL    HW133419   1.967   0.289   2.851
10840SOL    HW233420   2.116   0.275   2.915
10841SOL     OW33421   4.626   4.007   0.699
10841SOL    HW133422   4.700   4.073   0.684
10841SOL    HW233423   4.591   4.017   0.793
10842SOL     OW33424   6.319   1.937   1.718
10842SOL    HW133425   6.381   1.914   1.793
10842SOL    HW233426   6.237   1.981   1.754
10843SOL     OW33427   1.104   2.447   1.081
10843SOL    HW133428   1.021   2.410   1.039
10843SOL    HW233429   1.176   2.378   1.080
10844SOL     OW33430   5.158   6.911   4.197
10844SOL    HW133431   5.134   6.832   4.254
10844SOL    HW233432   5.249   6.898   4.158
10845SOL     OW33433   2.326   3.266   1.086
10845SOL    HW133434   2.339   3.221   1.174
10845SOL    HW233435   2.285   3.356   1.100
10846SOL     OW33436   3.658   2.911   2.074
10846SOL    HW133437   3.743   2.873   2.109
10846SOL    HW233438   3.678   2.976   2.000
10847SOL     OW33439   4.709   1.953   5.502
10847SOL    HW133440   4.691   2.051   5.493
10847SOL    HW233441   4.807   1.939   5.519
10848SOL     OW33442   1.443   0.786   6.961
10848SOL    HW133443   1.511   0.797   6.888
10848SOL    HW233444   1.486   0.746   0.021
10849SOL     OW33445   1.471   4.570   4.322
10849SOL    HW133446   1.495   4.478   4.353
10849SOL    HW233447   1.550   4.613   4.280
10850SOL     OW33448   5.688   0.841   2.543
10850SOL    HW133449   5.598   0.876   2.517
10850SOL    HW233450   5.729   0.795   2.465
10851SOL     OW33451   4.976   2.610   6.856
10851SOL    HW133452   5.025   2.697   6.864
10851SOL    HW233453   4.941   2.600   6.763
10852SOL     OW33454   5.758   0.868   5.912
10852SOL    HW133455   5.713   0.835   5.994
10852SOL    HW233456   5.848   0.826   5.903
10853SOL     OW33457   3.105   0.645   5.180
10853SOL    HW133458   3.198   0.615   5.201
10853SOL    HW233459   3.106   0.704   5.099
10854SOL     OW33460   6.157   7.005   0.464
10854SOL    HW133461   6.185   0.069   0.509
10854SOL    HW233462   6.088   6.959   0.520
10855SOL     OW33463   0.436   5.693   1.423
10855SOL    HW133464   0.391   5.627   1.484
10855SOL    HW233465   0.525   5.718   1.461
10856SOL     OW33466   5.311   6.346   6.649
10856SOL    HW133467   5.267   6.368   6.736
10856SOL    HW233468   5.366   6.424   6.620
10857SOL     OW33469   6.557   6.589   4.613
10857SOL    HW133470   6.472   6.594   4.665
10857SOL    HW233471   6.539   6.611   4.517
10858SOL     OW33472   1.445   2.370   0.302
10858SOL    HW133473   1.400   2.432   0.367
10858SOL    HW233474   1.390   2.287   0.292
10859SOL     OW33475   2.331   5.539   2.325
10859SOL    HW133476   2.378   5.610   2.271
10859SOL    HW233477   2.250   5.509   2.276
10860SOL     OW33478   6.009   1.505   1.337
10860SOL    HW133479   6.053   1.481   1.424
10860SOL    HW233480   6.079   1.513   1.265
10861SOL     OW33481   1.874   3.947   1.176
10861SOL    HW133482   1.814   3.911   1.248
10861SOL    HW233483   1.962   3.973   1.216
10862SOL     OW33484   3.622   4.036   5.448
10862SOL    HW133485   3.643   3.959   5.388
10862SOL    HW233486   3.560   4.005   5.521
10863SOL     OW33487   1.313   0.165   3.296
10863SOL    HW133488   1.305   0.223   3.377
10863SOL    HW233489   1.285   0.216   3.215
10864SOL     OW33490   3.041   3.943   1.990
10864SOL    HW133491   3.085   3.987   2.068
10864SOL    HW233492   3.038   4.005   1.913
10865SOL     OW33493   2.693   2.076   2.826
10865SOL    HW133494   2.732   2.035   2.744
10865SOL    HW233495   2.750   2.054   2.906
10866SOL     OW33496   0.833   3.585   4.119
10866SOL    HW133497   0.888   3.614   4.040
10866SOL    HW233498   0.883   3.605   4.203
10867SOL     OW33499   4.998   2.948   0.071
10867SOL    HW133500   5.054   2.911   0.145
10867SOL    HW233501   4.902   2.928   0.087
10868SOL     OW33502   0.893   6.827   5.218
10868SOL    HW133503   0.878   6.924   5.203
10868SOL    HW233504   0.954   6.791   5.147
10869NA      NA33505   0.023   1.123   6.668
10870NA      NA33506   4.744   4.821   4.930
10871NA      NA33507   0.710   4.908   3.164
10872NA      NA33508   6.297   3.726   3.541
10873NA      NA33509   4.060   2.299   5.221
10874NA      NA33510   2.286   3.887   6.926
10875NA      NA33511   1.575   5.487   0.639
10876NA      NA33512   4.230   4.992   2.209
10877NA      NA33513   5.391   3.425   1.342
10878NA      NA33514   3.808   1.805   0.442
10879NA      NA33515   5.471   6.593   1.334
10880NA      NA33516   2.797   6.775   4.619
10881NA      NA33517   4.015   5.531   2.797
10882NA      NA33518   4.014   5.021   6.745
   7.02072   7.02072   7.02072
