Generated by trjconv : CNT in water t= 425.00000
33518
    1C        C    1   2.847   2.770   4.747
    1C        C    2   2.900   2.720   4.868
    1C        C    3   2.842   2.768   4.986
    1C        C    4   2.857   2.775   4.263
    1C        C    5   2.905   2.721   4.384
    1C        C    6   2.849   2.767   4.506
    1C        C    7   3.015   2.635   4.627
    1C        C    8   2.899   2.716   4.628
    1C        C    9   3.077   2.604   4.750
    1C        C   10   3.008   2.629   4.871
    1C        C   11   3.185   2.496   4.981
    1C        C   12   3.057   2.553   4.978
    1C        C   13   2.852   2.769   3.769
    1C        C   14   2.905   2.722   3.892
    1C        C   15   2.853   2.772   4.014
    1C        C   16   3.017   2.643   4.136
    1C        C   17   2.905   2.730   4.138
    1C        C   18   3.079   2.609   4.258
    1C        C   19   3.020   2.640   4.383
    1C        C   20   3.207   2.544   4.505
    1C        C   21   3.077   2.598   4.506
    1C        C   22   3.278   2.531   4.627
    1C        C   23   3.209   2.551   4.748
    1C        C   24   3.413   2.485   4.867
    1C        C   25   3.272   2.505   4.867
    1C        C   26   3.490   2.480   4.984
    1C        C   27   2.851   2.769   3.281
    1C        C   28   2.901   2.718   3.402
    1C        C   29   2.851   2.767   3.525
    1C        C   30   3.017   2.635   3.648
    1C        C   31   2.905   2.722   3.647
    1C        C   32   3.080   2.603   3.771
    1C        C   33   3.019   2.639   3.893
    1C        C   34   3.207   2.545   4.016
    1C        C   35   3.079   2.603   4.016
    1C        C   36   3.277   2.530   4.138
    1C        C   37   3.210   2.557   4.259
    1C        C   38   3.412   2.501   4.381
    1C        C   39   3.273   2.525   4.382
    1C        C   40   3.485   2.502   4.502
    1C        C   41   3.415   2.500   4.625
    1C        C   42   3.629   2.482   4.746
    1C        C   43   3.487   2.485   4.746
    1C        C   44   3.704   2.484   4.866
    1C        C   45   3.628   2.486   4.984
    1C        C   46   2.833   2.747   2.793
    1C        C   47   2.891   2.701   2.913
    1C        C   48   2.845   2.759   3.034
    1C        C   49   3.014   2.638   3.159
    1C        C   50   2.897   2.718   3.158
    1C        C   51   3.076   2.603   3.280
    1C        C   52   3.014   2.632   3.404
    1C        C   53   3.208   2.546   3.526
    1C        C   54   3.077   2.598   3.525
    1C        C   55   3.275   2.525   3.648
    1C        C   56   3.210   2.549   3.772
    1C        C   57   3.415   2.502   3.893
    1C        C   58   3.275   2.521   3.894
    1C        C   59   3.486   2.498   4.015
    1C        C   60   3.416   2.505   4.137
    1C        C   61   3.626   2.503   4.259
    1C        C   62   3.485   2.496   4.260
    1C        C   63   3.698   2.508   4.380
    1C        C   64   3.627   2.500   4.502
    1C        C   65   3.833   2.543   4.621
    1C        C   66   3.698   2.503   4.624
    1C        C   67   3.902   2.564   4.742
    1C        C   68   3.839   2.523   4.862
    1C        C   69   4.054   2.580   4.976
    1C        C   70   3.924   2.526   4.973
    1C        C   71   2.824   2.731   2.310
    1C        C   72   2.883   2.689   2.431
    1C        C   73   2.831   2.744   2.550
    1C        C   74   3.008   2.627   2.674
    1C        C   75   2.889   2.702   2.671
    1C        C   76   3.072   2.589   2.795
    1C        C   77   3.007   2.621   2.916
    1C        C   78   3.203   2.537   3.038
    1C        C   79   3.074   2.595   3.038
    1C        C   80   3.275   2.526   3.159
    1C        C   81   3.207   2.548   3.281
    1C        C   82   3.413   2.497   3.404
    1C        C   83   3.274   2.522   3.403
    1C        C   84   3.482   2.492   3.527
    1C        C   85   3.414   2.499   3.650
    1C        C   86   3.628   2.499   3.768
    1C        C   87   3.486   2.496   3.771
    1C        C   88   3.696   2.509   3.891
    1C        C   89   3.628   2.497   4.014
    1C        C   90   3.833   2.544   4.135
    1C        C   91   3.698   2.502   4.137
    1C        C   92   3.901   2.571   4.256
    1C        C   93   3.833   2.549   4.377
    1C        C   94   4.024   2.637   4.499
    1C        C   95   3.901   2.568   4.500
    1C        C   96   4.087   2.676   4.620
    1C        C   97   4.027   2.631   4.740
    1C        C   98   4.194   2.760   4.861
    1C        C   99   4.098   2.653   4.861
    1C        C  100   4.214   2.838   4.976
    1C        C  101   2.817   2.723   2.072
    1C        C  102   2.987   2.585   2.190
    1C        C  103   2.875   2.675   2.190
    1C        C  104   3.060   2.564   2.311
    1C        C  105   2.998   2.607   2.430
    1C        C  106   3.195   2.528   2.551
    1C        C  107   3.066   2.585   2.552
    1C        C  108   3.268   2.509   2.671
    1C        C  109   3.200   2.530   2.793
    1C        C  110   3.409   2.496   2.913
    1C        C  111   3.268   2.512   2.915
    1C        C  112   3.480   2.495   3.035
    1C        C  113   3.414   2.502   3.160
    1C        C  114   3.625   2.500   3.280
    1C        C  115   3.484   2.492   3.282
    1C        C  116   3.696   2.507   3.402
    1C        C  117   3.624   2.496   3.523
    1C        C  118   3.832   2.545   3.648
    1C        C  119   3.696   2.506   3.644
    1C        C  120   3.896   2.575   3.770
    1C        C  121   3.832   2.547   3.893
    1C        C  122   4.024   2.640   4.013
    1C        C  123   3.901   2.571   4.014
    1C        C  124   4.086   2.674   4.135
    1C        C  125   4.026   2.637   4.257
    1C        C  126   4.194   2.768   4.377
    1C        C  127   4.082   2.681   4.379
    1C        C  128   4.244   2.819   4.499
    1C        C  129   4.192   2.770   4.620
    1C        C  130   4.333   2.929   4.741
    1C        C  131   4.245   2.818   4.742
    1C        C  132   4.363   2.999   4.860
    1C        C  133   4.286   2.956   4.970
    1C        C  134   3.172   2.470   2.080
    1C        C  135   3.037   2.506   2.081
    1C        C  136   3.260   2.478   2.188
    1C        C  137   3.191   2.509   2.307
    1C        C  138   3.401   2.479   2.427
    1C        C  139   3.261   2.498   2.430
    1C        C  140   3.477   2.484   2.546
    1C        C  141   3.407   2.487   2.669
    1C        C  142   3.620   2.498   2.795
    1C        C  143   3.479   2.487   2.791
    1C        C  144   3.693   2.504   2.915
    1C        C  145   3.621   2.499   3.037
    1C        C  146   3.832   2.537   3.157
    1C        C  147   3.695   2.504   3.157
    1C        C  148   3.898   2.565   3.279
    1C        C  149   3.833   2.542   3.402
    1C        C  150   4.026   2.623   3.523
    1C        C  151   3.899   2.559   3.525
    1C        C  152   4.085   2.666   3.644
    1C        C  153   4.023   2.637   3.768
    1C        C  154   4.194   2.763   3.887
    1C        C  155   4.080   2.680   3.890
    1C        C  156   4.247   2.809   4.010
    1C        C  157   4.196   2.763   4.133
    1C        C  158   4.341   2.919   4.253
    1C        C  159   4.248   2.813   4.255
    1C        C  160   4.383   2.978   4.374
    1C        C  161   4.338   2.925   4.497
    1C        C  162   4.439   3.112   4.615
    1C        C  163   4.376   2.986   4.619
    1C        C  164   4.467   3.182   4.735
    1C        C  165   4.435   3.120   4.858
    1C        C  166   4.514   3.319   4.975
    1C        C  167   4.477   3.185   4.974
    1C        C  168   3.474   2.431   2.073
    1C        C  169   3.400   2.455   2.189
    1C        C  170   3.617   2.463   2.308
    1C        C  171   3.475   2.460   2.309
    1C        C  172   3.690   2.483   2.428
    1C        C  173   3.618   2.491   2.549
    1C        C  174   3.825   2.542   2.668
    1C        C  175   3.688   2.508   2.671
    1C        C  176   3.896   2.557   2.789
    1C        C  177   3.831   2.536   2.913
    1C        C  178   4.024   2.626   3.035
    1C        C  179   3.899   2.560   3.035
    1C        C  180   4.086   2.662   3.157
    1C        C  181   4.027   2.623   3.279
    1C        C  182   4.195   2.751   3.399
    1C        C  183   4.087   2.659   3.401
    1C        C  184   4.249   2.802   3.519
    1C        C  185   4.198   2.751   3.641
    1C        C  186   4.336   2.914   3.765
    1C        C  187   4.244   2.806   3.762
    1C        C  188   4.381   2.971   3.886
    1C        C  189   4.340   2.915   4.009
    1C        C  190   4.447   3.101   4.128
    1C        C  191   4.382   2.976   4.130
    1C        C  192   4.471   3.169   4.250
    1C        C  193   4.446   3.105   4.373
    1C        C  194   4.497   3.314   4.492
    1C        C  195   4.470   3.176   4.493
    1C        C  196   4.521   3.385   4.612
    1C        C  197   4.513   3.317   4.735
    1C        C  198   4.551   3.531   4.849
    1C        C  199   4.526   3.391   4.855
    1C        C  200   4.580   3.617   4.959
    1C        C  201   3.613   2.413   2.074
    1C        C  202   3.823   2.509   2.182
    1C        C  203   3.689   2.458   2.186
    1C        C  204   3.896   2.539   2.301
    1C        C  205   3.825   2.524   2.422
    1C        C  206   4.016   2.618   2.545
    1C        C  207   3.889   2.556   2.543
    1C        C  208   4.080   2.656   2.665
    1C        C  209   4.018   2.627   2.789
    1C        C  210   4.194   2.748   2.908
    1C        C  211   4.078   2.666   2.911
    1C        C  212   4.249   2.795   3.029
    1C        C  213   4.196   2.751   3.152
    1C        C  214   4.338   2.905   3.274
    1C        C  215   4.246   2.797   3.276
    1C        C  216   4.374   2.968   3.394
    1C        C  217   4.337   2.912   3.519
    1C        C  218   4.440   3.096   3.640
    1C        C  219   4.376   2.970   3.642
    1C        C  220   4.466   3.163   3.761
    1C        C  221   4.438   3.101   3.884
    1C        C  222   4.503   3.304   4.003
    1C        C  223   4.468   3.167   4.005
    1C        C  224   4.514   3.376   4.124
    1C        C  225   4.506   3.306   4.247
    1C        C  226   4.513   3.520   4.364
    1C        C  227   4.511   3.379   4.367
    1C        C  228   4.511   3.593   4.486
    1C        C  229   4.528   3.526   4.609
    1C        C  230   4.503   3.742   4.726
    1C        C  231   4.531   3.603   4.727
    1C        C  232   4.496   3.819   4.845
    1C        C  233   4.543   3.752   4.958
    1C        C  234   4.012   2.611   2.065
    1C        C  235   3.889   2.545   2.064
    1C        C  236   4.083   2.645   2.181
    1C        C  237   4.023   2.603   2.301
    1C        C  238   4.198   2.727   2.424
    1C        C  239   4.080   2.648   2.422
    1C        C  240   4.252   2.781   2.542
    1C        C  241   4.193   2.741   2.664
    1C        C  242   4.338   2.899   2.783
    1C        C  243   4.248   2.791   2.785
    1C        C  244   4.386   2.954   2.904
    1C        C  245   4.345   2.898   3.027
    1C        C  246   4.439   3.088   3.149
    1C        C  247   4.376   2.961   3.150
    1C        C  248   4.461   3.158   3.270
    1C        C  249   4.436   3.095   3.394
    1C        C  250   4.493   3.299   3.514
    1C        C  251   4.461   3.161   3.516
    1C        C  252   4.508   3.369   3.636
    1C        C  253   4.503   3.300   3.759
    1C        C  254   4.521   3.513   3.879
    1C        C  255   4.514   3.372   3.880
    1C        C  256   4.516   3.588   3.999
    1C        C  257   4.515   3.518   4.122
    1C        C  258   4.485   3.730   4.242
    1C        C  259   4.510   3.591   4.242
    1C        C  260   4.469   3.802   4.363
    1C        C  261   4.482   3.731   4.484
    1C        C  262   4.421   3.938   4.603
    1C        C  263   4.469   3.805   4.604
    1C        C  264   4.397   4.007   4.723
    1C        C  265   4.431   3.945   4.846
    1C        C  266   4.318   4.129   4.955
    1C        C  267   4.391   4.011   4.962
    1C        C  268   4.262   2.770   2.064
    1C        C  269   4.196   2.730   2.181
    1C        C  270   4.342   2.887   2.298
    1C        C  271   4.251   2.777   2.303
    1C        C  272   4.382   2.948   2.418
    1C        C  273   4.346   2.887   2.540
    1C        C  274   4.450   3.076   2.662
    1C        C  275   4.382   2.952   2.660
    1C        C  276   4.470   3.148   2.782
    1C        C  277   4.442   3.084   2.904
    1C        C  278   4.502   3.288   3.023
    1C        C  279   4.471   3.150   3.026
    1C        C  280   4.507   3.363   3.143
    1C        C  281   4.497   3.295   3.267
    1C        C  282   4.509   3.505   3.389
    1C        C  283   4.506   3.364   3.390
    1C        C  284   4.506   3.579   3.510
    1C        C  285   4.509   3.511   3.634
    1C        C  286   4.484   3.720   3.752
    1C        C  287   4.507   3.581   3.756
    1C        C  288   4.471   3.791   3.873
    1C        C  289   4.488   3.726   3.998
    1C        C  290   4.424   3.931   4.116
    1C        C  291   4.467   3.797   4.119
    1C        C  292   4.396   3.999   4.237
    1C        C  293   4.423   3.935   4.360
    1C        C  294   4.328   4.128   4.479
    1C        C  295   4.391   4.002   4.480
    1C        C  296   4.283   4.188   4.599
    1C        C  297   4.324   4.129   4.720
    1C        C  298   4.197   4.312   4.840
    1C        C  299   4.279   4.195   4.838
    1C        C  300   4.167   4.404   4.945
    1C        C  301   4.353   2.875   2.064
    1C        C  302   4.469   3.066   2.177
    1C        C  303   4.391   2.946   2.178
    1C        C  304   4.479   3.140   2.298
    1C        C  305   4.445   3.075   2.418
    1C        C  306   4.503   3.279   2.535
    1C        C  307   4.479   3.140   2.539
    1C        C  308   4.511   3.352   2.656
    1C        C  309   4.505   3.285   2.780
    1C        C  310   4.519   3.499   2.900
    1C        C  311   4.513   3.358   2.901
    1C        C  312   4.514   3.572   3.021
    1C        C  313   4.509   3.504   3.145
    1C        C  314   4.482   3.715   3.263
    1C        C  315   4.501   3.575   3.267
    1C        C  316   4.468   3.788   3.383
    1C        C  317   4.482   3.718   3.505
    1C        C  318   4.419   3.919   3.627
    1C        C  319   4.468   3.786   3.628
    1C        C  320   4.390   3.986   3.748
    1C        C  321   4.424   3.924   3.870
    1C        C  322   4.317   4.109   3.990
    1C        C  323   4.392   3.990   3.991
    1C        C  324   4.278   4.171   4.111
    1C        C  325   4.324   4.120   4.234
    1C        C  326   4.193   4.289   4.353
    1C        C  327   4.286   4.183   4.355
    1C        C  328   4.138   4.341   4.473
    1C        C  329   4.188   4.292   4.595
    1C        C  330   4.029   4.439   4.714
    1C        C  331   4.139   4.349   4.715
    1C        C  332   3.972   4.497   4.830
    1C        C  333   4.054   4.486   4.943
    1C        C  334   4.550   3.261   2.063
    1C        C  335   4.534   3.122   2.062
    1C        C  336   4.537   3.348   2.173
    1C        C  337   4.509   3.279   2.293
    1C        C  338   4.524   3.491   2.411
    1C        C  339   4.520   3.350   2.414
    1C        C  340   4.515   3.564   2.531
    1C        C  341   4.509   3.493   2.654
    1C        C  342   4.489   3.705   2.774
    1C        C  343   4.509   3.565   2.776
    1C        C  344   4.472   3.777   2.895
    1C        C  345   4.490   3.711   3.018
    1C        C  346   4.418   3.913   3.136
    1C        C  347   4.463   3.779   3.139
    1C        C  348   4.388   3.980   3.257
    1C        C  349   4.419   3.921   3.381
    1C        C  350   4.315   4.102   3.501
    1C        C  351   4.391   3.983   3.505
    1C        C  352   4.269   4.158   3.622
    1C        C  353   4.313   4.104   3.745
    1C        C  354   4.179   4.269   3.867
    1C        C  355   4.273   4.163   3.867
    1C        C  356   4.124   4.319   3.987
    1C        C  357   4.179   4.272   4.109
    1C        C  358   4.015   4.404   4.228
    1C        C  359   4.131   4.324   4.231
    1C        C  360   3.955   4.447   4.349
    1C        C  361   4.021   4.420   4.471
    1C        C  362   3.832   4.516   4.593
    1C        C  363   3.963   4.463   4.592
    1C        C  364   3.763   4.545   4.713
    1C        C  365   3.838   4.542   4.832
    1C        C  366   3.629   4.592   4.947
    1C        C  367   3.766   4.567   4.949
    1C        C  368   4.501   3.561   2.052
    1C        C  369   4.519   3.488   2.171
    1C        C  370   4.497   3.703   2.286
    1C        C  371   4.519   3.564   2.290
    1C        C  372   4.476   3.773   2.408
    1C        C  373   4.491   3.703   2.530
    1C        C  374   4.422   3.905   2.647
    1C        C  375   4.471   3.772   2.651
    1C        C  376   4.387   3.970   2.767
    1C        C  377   4.417   3.907   2.890
    1C        C  378   4.316   4.094   3.010
    1C        C  379   4.388   3.972   3.012
    1C        C  380   4.270   4.151   3.131
    1C        C  381   4.309   4.098   3.256
    1C        C  382   4.172   4.258   3.378
    1C        C  383   4.268   4.155   3.379
    1C        C  384   4.122   4.308   3.501
    1C        C  385   4.171   4.260   3.624
    1C        C  386   4.009   4.397   3.741
    1C        C  387   4.124   4.314   3.746
    1C        C  388   3.951   4.440   3.863
    1C        C  389   4.011   4.403   3.986
    1C        C  390   3.819   4.494   4.108
    1C        C  391   3.948   4.435   4.108
    1C        C  392   3.754   4.518   4.231
    1C        C  393   3.825   4.502   4.352
    1C        C  394   3.620   4.555   4.472
    1C        C  395   3.759   4.532   4.473
    1C        C  396   3.547   4.560   4.593
    1C        C  397   3.623   4.565   4.711
    1C        C  398   3.413   4.545   4.838
    1C        C  399   3.551   4.577   4.832
    1C        C  400   3.343   4.516   4.955
    1C        C  401   4.505   3.700   2.050
    1C        C  402   4.455   3.914   2.166
    1C        C  403   4.487   3.776   2.166
    1C        C  404   4.411   3.976   2.285
    1C        C  405   4.434   3.907   2.406
    1C        C  406   4.325   4.093   2.525
    1C        C  407   4.402   3.975   2.526
    1C        C  408   4.275   4.149   2.645
    1C        C  409   4.315   4.092   2.768
    1C        C  410   4.174   4.253   2.888
    1C        C  411   4.271   4.151   2.889
    1C        C  412   4.121   4.298   3.011
    1C        C  413   4.170   4.251   3.134
    1C        C  414   4.004   4.386   3.254
    1C        C  415   4.117   4.301   3.255
    1C        C  416   3.944   4.420   3.377
    1C        C  417   4.005   4.388   3.500
    1C        C  418   3.813   4.484   3.618
    1C        C  419   3.942   4.427   3.621
    1C        C  420   3.751   4.514   3.742
    1C        C  421   3.821   4.494   3.863
    1C        C  422   3.613   4.536   3.984
    1C        C  423   3.753   4.516   3.985
    1C        C  424   3.544   4.540   4.107
    1C        C  425   3.614   4.536   4.229
    1C        C  426   3.404   4.546   4.355
    1C        C  427   3.545   4.554   4.352
    1C        C  428   3.332   4.541   4.476
    1C        C  429   3.406   4.548   4.597
    1C        C  430   3.197   4.513   4.721
    1C        C  431   3.336   4.542   4.719
    1C        C  432   3.127   4.490   4.842
    1C        C  433   3.206   4.490   4.958
    1C        C  434   4.389   4.121   2.052
    1C        C  435   4.454   3.997   2.053
    1C        C  436   4.301   4.156   2.159
    1C        C  437   4.333   4.094   2.283
    1C        C  438   4.180   4.247   2.401
    1C        C  439   4.285   4.152   2.403
    1C        C  440   4.124   4.294   2.522
    1C        C  441   4.172   4.246   2.646
    1C        C  442   4.007   4.383   2.765
    1C        C  443   4.119   4.298   2.766
    1C        C  444   3.945   4.420   2.886
    1C        C  445   4.006   4.380   3.008
    1C        C  446   3.816   4.476   3.131
    1C        C  447   3.946   4.420   3.129
    1C        C  448   3.748   4.502   3.252
    1C        C  449   3.815   4.478   3.374
    1C        C  450   3.608   4.531   3.497
    1C        C  451   3.747   4.503   3.495
    1C        C  452   3.541   4.541   3.621
    1C        C  453   3.613   4.540   3.743
    1C        C  454   3.399   4.537   3.865
    1C        C  455   3.540   4.546   3.864
    1C        C  456   3.333   4.527   3.989
    1C        C  457   3.403   4.538   4.112
    1C        C  458   3.195   4.499   4.237
    1C        C  459   3.332   4.534   4.234
    1C        C  460   3.126   4.485   4.359
    1C        C  461   3.196   4.507   4.480
    1C        C  462   2.997   4.432   4.600
    1C        C  463   3.126   4.489   4.601
    1C        C  464   2.930   4.402   4.721
    1C        C  465   2.990   4.447   4.841
    1C        C  466   2.805   4.338   4.959
    1C        C  467   2.909   4.433   4.958
    1C        C  468   4.126   4.286   2.040
    1C        C  469   4.191   4.248   2.157
    1C        C  470   4.012   4.372   2.279
    1C        C  471   4.130   4.294   2.278
    1C        C  472   3.944   4.406   2.399
    1C        C  473   4.008   4.375   2.520
    1C        C  474   3.815   4.468   2.641
    1C        C  475   3.945   4.413   2.641
    1C        C  476   3.747   4.490   2.763
    1C        C  477   3.814   4.473   2.886
    1C        C  478   3.608   4.518   3.008
    1C        C  479   3.747   4.491   3.009
    1C        C  480   3.537   4.532   3.130
    1C        C  481   3.609   4.524   3.251
    1C        C  482   3.398   4.528   3.377
    1C        C  483   3.539   4.534   3.374
    1C        C  484   3.328   4.525   3.500
    1C        C  485   3.400   4.536   3.621
    1C        C  486   3.192   4.492   3.744
    1C        C  487   3.329   4.525   3.742
    1C        C  488   3.129   4.469   3.869
    1C        C  489   3.196   4.492   3.991
    1C        C  490   3.006   4.404   4.114
    1C        C  491   3.131   4.470   4.114
    1C        C  492   2.942   4.377   4.237
    1C        C  493   3.000   4.421   4.358
    1C        C  494   2.826   4.302   4.483
    1C        C  495   2.935   4.392   4.480
    1C        C  496   2.773   4.257   4.606
    1C        C  497   2.817   4.315   4.727
    1C        C  498   2.663   4.165   4.847
    1C        C  499   2.755   4.272   4.846
    1C        C  500   2.598   4.116   4.961
    1C        C  501   4.001   4.348   2.041
    1C        C  502   3.818   4.462   2.155
    1C        C  503   3.944   4.399   2.158
    1C        C  504   3.747   4.484   2.275
    1C        C  505   3.813   4.458   2.398
    1C        C  506   3.608   4.512   2.520
    1C        C  507   3.747   4.488   2.519
    1C        C  508   3.537   4.517   2.643
    1C        C  509   3.609   4.519   2.764
    1C        C  510   3.397   4.522   2.884
    1C        C  511   3.538   4.529   2.886
    1C        C  512   3.327   4.516   3.007
    1C        C  513   3.396   4.532   3.129
    1C        C  514   3.194   4.481   3.252
    1C        C  515   3.331   4.517   3.253
    1C        C  516   3.127   4.464   3.375
    1C        C  517   3.192   4.486   3.498
    1C        C  518   3.000   4.404   3.624
    1C        C  519   3.126   4.468   3.621
    1C        C  520   2.943   4.368   3.748
    1C        C  521   3.003   4.406   3.870
    1C        C  522   2.831   4.283   3.996
    1C        C  523   2.941   4.372   3.992
    1C        C  524   2.782   4.236   4.119
    1C        C  525   2.828   4.293   4.240
    1C        C  526   2.691   4.134   4.365
    1C        C  527   2.775   4.248   4.363
    1C        C  528   2.649   4.079   4.488
    1C        C  529   2.689   4.143   4.607
    1C        C  530   2.585   3.960   4.731
    1C        C  531   2.639   4.092   4.729
    1C        C  532   2.542   3.901   4.853
    1C        C  533   2.525   3.996   4.959
    1C        C  534   3.618   4.551   2.039
    1C        C  535   3.751   4.506   2.040
    1C        C  536   3.538   4.528   2.156
    1C        C  537   3.608   4.511   2.279
    1C        C  538   3.394   4.515   2.398
    1C        C  539   3.535   4.520   2.399
    1C        C  540   3.324   4.511   2.521
    1C        C  541   3.396   4.513   2.643
    1C        C  542   3.184   4.483   2.763
    1C        C  543   3.323   4.509   2.764
    1C        C  544   3.120   4.464   2.887
    1C        C  545   3.190   4.483   3.008
    1C        C  546   2.997   4.398   3.133
    1C        C  547   3.126   4.454   3.131
    1C        C  548   2.936   4.366   3.256
    1C        C  549   2.998   4.405   3.377
    1C        C  550   2.831   4.278   3.505
    1C        C  551   2.942   4.365   3.501
    1C        C  552   2.778   4.232   3.627
    1C        C  553   2.832   4.281   3.749
    1C        C  554   2.699   4.120   3.874
    1C        C  555   2.784   4.232   3.873
    1C        C  556   2.659   4.063   3.998
    1C        C  557   2.690   4.129   4.119
    1C        C  558   2.594   3.946   4.248
    1C        C  559   2.652   4.074   4.243
    1C        C  560   2.559   3.883   4.370
    1C        C  561   2.587   3.952   4.490
    1C        C  562   2.530   3.748   4.613
    1C        C  563   2.562   3.886   4.612
    1C        C  564   2.514   3.680   4.736
    1C        C  565   2.521   3.760   4.853
    1C        C  566   2.524   3.547   4.977
    1C        C  567   2.528   3.686   4.972
    1C        C  568   3.329   4.471   2.038
    1C        C  569   3.397   4.511   2.154
    1C        C  570   3.186   4.476   2.279
    1C        C  571   3.324   4.510   2.276
    1C        C  572   3.118   4.453   2.401
    1C        C  573   3.187   4.480   2.522
    1C        C  574   2.987   4.402   2.646
    1C        C  575   3.113   4.465   2.642
    1C        C  576   2.932   4.358   2.768
    1C        C  577   2.994   4.399   2.889
    1C        C  578   2.827   4.271   3.015
    1C        C  579   2.934   4.363   3.011
    1C        C  580   2.778   4.222   3.139
    1C        C  581   2.828   4.275   3.260
    1C        C  582   2.694   4.114   3.384
    1C        C  583   2.780   4.226   3.384
    1C        C  584   2.655   4.057   3.508
    1C        C  585   2.694   4.119   3.629
    1C        C  586   2.594   3.935   3.756
    1C        C  587   2.657   4.061   3.752
    1C        C  588   2.570   3.870   3.879
    1C        C  589   2.603   3.934   4.001
    1C        C  590   2.538   3.739   4.126
    1C        C  591   2.573   3.876   4.127
    1C        C  592   2.524   3.673   4.251
    1C        C  593   2.527   3.746   4.372
    1C        C  594   2.510   3.533   4.495
    1C        C  595   2.521   3.674   4.493
    1C        C  596   2.516   3.465   4.618
    1C        C  597   2.515   3.538   4.739
    1C        C  598   2.543   3.328   4.863
    1C        C  599   2.523   3.468   4.861
    1C        C  600   2.541   3.249   4.978
    1C        C  601   3.197   4.430   2.048
    1C        C  602   2.980   4.394   2.162
    1C        C  603   3.116   4.440   2.161
    1C        C  604   2.923   4.356   2.287
    1C        C  605   2.990   4.393   2.405
    1C        C  606   2.821   4.263   2.530
    1C        C  607   2.928   4.355   2.526
    1C        C  608   2.768   4.217   2.652
    1C        C  609   2.826   4.265   2.772
    1C        C  610   2.682   4.111   2.897
    1C        C  611   2.778   4.215   2.895
    1C        C  612   2.648   4.052   3.021
    1C        C  613   2.689   4.113   3.141
    1C        C  614   2.588   3.928   3.266
    1C        C  615   2.646   4.057   3.264
    1C        C  616   2.567   3.865   3.391
    1C        C  617   2.592   3.930   3.513
    1C        C  618   2.534   3.729   3.637
    1C        C  619   2.565   3.866   3.636
    1C        C  620   2.522   3.662   3.761
    1C        C  621   2.531   3.735   3.883
    1C        C  622   2.511   3.526   4.012
    1C        C  623   2.521   3.667   4.006
    1C        C  624   2.518   3.457   4.135
    1C        C  625   2.518   3.532   4.254
    1C        C  626   2.540   3.320   4.379
    1C        C  627   2.517   3.459   4.375
    1C        C  628   2.565   3.254   4.502
    1C        C  629   2.540   3.326   4.621
    1C        C  630   2.598   3.119   4.744
    1C        C  631   2.557   3.256   4.742
    1C        C  632   2.615   3.044   4.863
    1C        C  633   2.563   3.110   4.979
    1C        C  634   2.779   4.301   2.054
    1C        C  635   2.890   4.387   2.051
    1C        C  636   2.750   4.226   2.169
    1C        C  637   2.810   4.270   2.288
    1C        C  638   2.677   4.104   2.410
    1C        C  639   2.760   4.218   2.410
    1C        C  640   2.646   4.042   2.533
    1C        C  641   2.683   4.105   2.654
    1C        C  642   2.582   3.921   2.778
    1C        C  643   2.641   4.049   2.777
    1C        C  644   2.559   3.858   2.902
    1C        C  645   2.587   3.924   3.023
    1C        C  646   2.530   3.721   3.148
    1C        C  647   2.565   3.858   3.146
    1C        C  648   2.517   3.654   3.272
    1C        C  649   2.534   3.728   3.391
    1C        C  650   2.515   3.518   3.519
    1C        C  651   2.523   3.659   3.514
    1C        C  652   2.522   3.452   3.644
    1C        C  653   2.517   3.521   3.767
    1C        C  654   2.541   3.315   3.889
    1C        C  655   2.512   3.453   3.891
    1C        C  656   2.559   3.250   4.013
    1C        C  657   2.545   3.318   4.136
    1C        C  658   2.615   3.119   4.258
    1C        C  659   2.561   3.249   4.259
    1C        C  660   2.642   3.055   4.380
    1C        C  661   2.615   3.121   4.502
    1C        C  662   2.713   2.936   4.623
    1C        C  663   2.638   3.055   4.624
    1C        C  664   2.751   2.875   4.745
    1C        C  665   2.700   2.929   4.866
    1C        C  666   2.744   2.867   4.984
    1C        C  667   2.679   4.021   2.054
    1C        C  668   2.682   4.102   2.168
    1C        C  669   2.588   3.909   2.291
    1C        C  670   2.642   4.041   2.289
    1C        C  671   2.561   3.843   2.413
    1C        C  672   2.590   3.912   2.533
    1C        C  673   2.517   3.717   2.658
    1C        C  674   2.556   3.853   2.656
    1C        C  675   2.511   3.649   2.781
    1C        C  676   2.523   3.721   2.902
    1C        C  677   2.510   3.511   3.028
    1C        C  678   2.519   3.652   3.025
    1C        C  679   2.507   3.443   3.152
    1C        C  680   2.506   3.513   3.275
    1C        C  681   2.536   3.306   3.399
    1C        C  682   2.510   3.445   3.399
    1C        C  683   2.558   3.242   3.523
    1C        C  684   2.543   3.313   3.644
    1C        C  685   2.610   3.113   3.770
    1C        C  686   2.560   3.246   3.767
    1C        C  687   2.641   3.052   3.894
    1C        C  688   2.603   3.116   4.014
    1C        C  689   2.716   2.934   4.139
    1C        C  690   2.642   3.054   4.135
    1C        C  691   2.759   2.877   4.261
    1C        C  692   2.719   2.936   4.383
    1C        C  693   2.759   2.876   4.504
    1C        C  694   2.630   3.890   2.053
    1C        C  695   2.529   3.703   2.174
    1C        C  696   2.580   3.835   2.171
    1C        C  697   2.507   3.636   2.296
    1C        C  698   2.515   3.710   2.416
    1C        C  699   2.491   3.503   2.542
    1C        C  700   2.495   3.644   2.539
    1C        C  701   2.500   3.434   2.665
    1C        C  702   2.500   3.508   2.786
    1C        C  703   2.525   3.297   2.912
    1C        C  704   2.508   3.438   2.908
    1C        C  705   2.542   3.230   3.035
    1C        C  706   2.530   3.303   3.155
    1C        C  707   2.605   3.105   3.278
    1C        C  708   2.553   3.236   3.278
    1C        C  709   2.640   3.049   3.403
    1C        C  710   2.609   3.110   3.526
    1C        C  711   2.717   2.929   3.650
    1C        C  712   2.639   3.047   3.649
    1C        C  713   2.759   2.874   3.773
    1C        C  714   2.716   2.933   3.895
    1C        C  715   2.758   2.876   4.017
    1C        C  716   2.454   3.498   2.063
    1C        C  717   2.489   3.634   2.059
    1C        C  718   2.465   3.419   2.182
    1C        C  719   2.480   3.496   2.300
    1C        C  720   2.512   3.288   2.425
    1C        C  721   2.484   3.427   2.423
    1C        C  722   2.534   3.222   2.547
    1C        C  723   2.526   3.296   2.667
    1C        C  724   2.594   3.097   2.789
    1C        C  725   2.540   3.228   2.790
    1C        C  726   2.624   3.035   2.912
    1C        C  727   2.592   3.098   3.034
    1C        C  728   2.706   2.918   3.157
    1C        C  729   2.631   3.038   3.156
    1C        C  730   2.752   2.870   3.281
    1C        C  731   2.717   2.930   3.404
    1C        C  732   2.758   2.873   3.526
    1C        C  733   2.494   3.195   2.071
    1C        C  734   2.487   3.278   2.184
    1C        C  735   2.584   3.085   2.303
    1C        C  736   2.523   3.213   2.306
    1C        C  737   2.612   3.020   2.426
    1C        C  738   2.586   3.090   2.545
    1C        C  739   2.698   2.912   2.670
    1C        C  740   2.617   3.028   2.668
    1C        C  741   2.742   2.855   2.792
    1C        C  742   2.704   2.919   2.912
    1C        C  743   2.751   2.865   3.034
    1C        C  744   2.546   3.066   2.075
    1C        C  745   2.687   2.892   2.184
    1C        C  746   2.610   3.010   2.186
    1C        C  747   2.729   2.837   2.307
    1C        C  748   2.688   2.900   2.427
    1C        C  749   2.740   2.852   2.549
    1C        C  750   2.740   2.838   2.066
    1C        C  751   3.663   2.298   1.994
    1C        O  752   3.722   2.199   2.045
    1C        O  753   3.697   2.315   1.860
    1C        C  754   4.625   3.042   1.976
    1C        O  755   4.586   2.981   1.873
    1C        O  756   4.762   3.034   2.003
    1C        C  757   4.480   4.224   1.998
    1C        O  758   4.589   4.262   2.050
    1C        O  759   4.460   4.308   1.888
    1C        C  760   3.591   4.670   1.956
    1C        O  761   3.671   4.768   1.951
    1C        O  762   3.496   4.677   1.853
    1C        C  763   2.887   4.496   1.951
    1C        O  764   2.875   4.479   1.827
    1C        O  765   2.839   4.618   1.999
    1C        C  766   2.336   3.467   1.981
    1C        O  767   2.352   3.404   1.873
    1C        O  768   2.201   3.490   2.010
    1C        C  769   4.713   3.598   5.022
    1C        O  770   4.731   3.525   5.124
    1C        O  771   4.838   3.619   4.963
    1C        C  772   4.262   4.436   5.055
    1C        O  773   4.240   4.425   5.178
    1C        O  774   4.386   4.497   5.030
    1C        C  775   4.147   2.501   5.059
    1C        O  776   4.231   2.420   5.012
    1C        O  777   4.212   2.560   5.168
    1C        C  778   2.895   4.546   5.053
    1C        O  779   2.856   4.664   5.034
    1C        O  780   2.912   4.515   5.189
    1C        C  781   2.466   3.036   5.063
    1C        O  782   2.410   2.932   5.020
    1C        O  783   2.479   3.036   5.202
    1C        C  784   2.403   3.999   5.042
    1C        O  785   2.289   4.031   4.998
    1C        O  786   2.404   3.930   5.164
    1C        C  787   2.951   2.417   2.001
    1C        O  788   2.960   2.427   1.876
    1C        O  789   2.924   2.288   2.047
    1C        C  790   3.198   2.378   5.069
    1C        O  791   3.157   2.266   5.028
    1C        O  792   3.227   2.400   5.204
    1C        H  793   4.305   3.000   5.066
    1C        H  794   4.223   2.786   5.069
    1C        H  795   4.504   3.124   5.058
    1C        H  796   4.489   3.373   5.065
    1C        H  797   4.554   3.804   5.051
    1C        H  798   4.389   3.964   5.059
    1C        H  799   4.332   4.185   5.046
    1C        H  800   4.023   4.529   5.037
    1C        H  801   3.808   4.559   5.047
    1C        H  802   3.585   4.617   5.042
    1C        H  803   3.378   4.568   5.042
    1C        H  804   3.158   4.515   5.050
    1C        H  805   3.886   2.485   5.064
    1C        H  806   3.671   2.438   5.070
    1C        H  807   2.994   2.536   5.063
    1C        H  808   3.459   2.400   5.049
    1C        H  809   2.913   2.774   5.066
    1C        H  810   2.690   2.881   5.075
    1C        H  811   2.528   3.297   5.072
    1C        H  812   2.480   3.505   5.065
    1C        H  813   2.578   3.737   5.052
    1C        H  814   2.585   4.183   5.043
    1C        H  815   2.802   4.283   5.050
    1C        H  816   2.711   2.877   1.971
    1C        H  817   2.823   2.664   1.982
    1C        H  818   3.212   2.452   1.982
    1C        H  819   3.433   2.462   1.979
    1C        H  820   3.833   2.549   1.973
    1C        H  821   4.061   2.634   1.973
    1C        H  822   4.212   2.761   1.970
    1C        H  823   4.362   2.924   1.969
    1C        H  824   4.548   3.309   1.968
    1C        H  825   4.455   3.510   1.970
    1C        H  826   4.531   3.748   1.958
    1C        H  827   3.814   4.528   1.956
    1C        H  828   3.930   4.313   1.970
    1C        H  829   4.174   4.279   1.944
    1C        H  830   4.457   3.958   1.954
    1C        H  831   2.691   3.827   1.992
    1C        H  832   2.708   4.061   1.959
    1C        H  833   2.718   4.294   1.967
    1C        H  834   3.388   4.454   1.951
    1C        H  835   3.140   4.438   1.957
    1C        H  836   2.510   3.002   1.997
    1C        H  837   2.500   3.249   1.979
    1C        H  838   2.450   3.693   1.978
    2V3OU   H29  839   2.806   3.547   5.046
    2V3OU   C27  840   2.777   3.500   5.143
    2V3OU   H27  841   2.725   3.567   5.216
    2V3OU   H28  842   2.726   3.400   5.131
    2V3OU   O11  843   2.905   3.461   5.193
    2V3OU   C15  844   2.916   3.399   5.316
    2V3OU   C13  845   3.047   3.378   5.364
    2V3OU   C14  846   3.078   3.267   5.444
    2V3OU   C16  847   2.973   3.186   5.486
    2V3OU    H6  848   2.993   3.110   5.563
    2V3OU   C12  849   3.215   3.230   5.487
    2V3OU    O2  850   3.243   3.120   5.537
    2V3OU   C10  851   3.325   3.313   5.434
    2V3OU    C8  852   3.456   3.277   5.459
    2V3OU   O10  853   3.484   3.150   5.499
    2V3OU   H26  854   3.397   3.111   5.521
    2V3OU    C6  855   3.564   3.351   5.402
    2V3OU    C5  856   3.537   3.467   5.330
    2V3OU    C4  857   3.701   3.292   5.401
    2V3OU    H4  858   3.722   3.228   5.492
    2V3OU    H5  859   3.707   3.223   5.312
    2V3OU    C2  860   3.815   3.395   5.402
    2V3OU    O6  861   3.807   3.474   5.520
    2V3OU   H21  862   3.759   3.553   5.489
    2V3OU    C3  863   3.783   3.499   5.294
    2V3OU    H2  864   3.866   3.573   5.283
    2V3OU    H3  865   3.781   3.435   5.202
    2V3OU   C25  866   3.950   3.322   5.392
    2V3OU    O7  867   3.996   3.297   5.281
    2V3OU   C26  868   4.030   3.287   5.516
    2V3OU   H22  869   4.062   3.388   5.553
    2V3OU   H23  870   4.118   3.223   5.487
    2V3OU    O8  871   3.964   3.209   5.613
    2V3OU   H24  872   3.919   3.265   5.678
    2V3OU    C1  873   3.647   3.566   5.302
    2V3OU    H1  874   3.630   3.622   5.205
    2V3OU    O3  875   3.658   3.656   5.412
    2V3OU   C19  876   3.619   3.794   5.404
    2V3OU    H9  877   3.520   3.805   5.352
    2V3OU    O4  878   3.712   3.849   5.313
    2V3OU   C20  879   3.843   3.873   5.364
    2V3OU   H10  880   3.884   3.769   5.379
    2V3OU   C24  881   3.609   3.858   5.543
    2V3OU   H16  882   3.548   3.792   5.610
    2V3OU   H17  883   3.562   3.959   5.533
    2V3OU   C23  884   3.751   3.872   5.597
    2V3OU   H15  885   3.798   3.768   5.607
    2V3OU    N1  886   3.739   3.949   5.718
    2V3OU   H19  887   3.808   3.926   5.786
    2V3OU   H20  888   3.648   3.930   5.756
    2V3OU   C21  889   3.844   3.948   5.497
    2V3OU   H11  890   3.949   3.926   5.533
    2V3OU    O5  891   3.826   4.089   5.502
    2V3OU   H18  892   3.782   4.100   5.587
    2V3OU   C22  893   3.913   3.950   5.253
    2V3OU   H12  894   3.869   4.053   5.241
    2V3OU   H13  895   3.909   3.891   5.158
    2V3OU   H14  896   4.022   3.960   5.275
    2V3OU   C11  897   3.156   3.472   5.336
    2V3OU    O1  898   3.127   3.583   5.285
    2V3OU    C9  899   3.296   3.431   5.360
    2V3OU    C7  900   3.401   3.505   5.307
    2V3OU    O9  901   3.387   3.626   5.243
    2V3OU   H25  902   3.290   3.629   5.237
    2V3OU   C17  903   2.816   3.311   5.361
    2V3OU    H7  904   2.713   3.337   5.337
    2V3OU   C18  905   2.841   3.204   5.447
    2V3OU    H8  906   2.753   3.151   5.486
    3SOL     OW  907   3.840   4.029   4.307
    3SOL    HW1  908   3.869   4.015   4.402
    3SOL    HW2  909   3.905   3.984   4.246
    4SOL     OW  910   6.139   0.142   0.246
    4SOL    HW1  911   6.049   0.117   0.283
    4SOL    HW2  912   6.130   0.163   0.149
    5SOL     OW  913   4.082   1.087   1.158
    5SOL    HW1  914   4.117   1.076   1.065
    5SOL    HW2  915   4.135   1.030   1.220
    6SOL     OW  916   5.646   0.139   1.983
    6SOL    HW1  917   5.680   0.182   1.899
    6SOL    HW2  918   5.562   0.088   1.963
    7SOL     OW  919   2.361   4.288   3.523
    7SOL    HW1  920   2.420   4.368   3.511
    7SOL    HW2  921   2.374   4.251   3.615
    8SOL     OW  922   1.907   3.228   5.640
    8SOL    HW1  923   1.824   3.263   5.683
    8SOL    HW2  924   1.889   3.139   5.598
    9SOL     OW  925   5.972   1.257   6.627
    9SOL    HW1  926   5.972   1.200   6.546
    9SOL    HW2  927   6.067   1.273   6.656
   10SOL     OW  928   4.606   5.097   3.427
   10SOL    HW1  929   4.628   5.084   3.523
   10SOL    HW2  930   4.570   5.012   3.389
   11SOL     OW  931   2.032   0.564   0.607
   11SOL    HW1  932   2.011   0.474   0.645
   11SOL    HW2  933   2.049   0.628   0.683
   12SOL     OW  934   3.045   5.222   3.669
   12SOL    HW1  935   3.096   5.135   3.668
   12SOL    HW2  936   3.081   5.282   3.598
   13SOL     OW  937   4.449   6.178   1.614
   13SOL    HW1  938   4.466   6.095   1.667
   13SOL    HW2  939   4.533   6.234   1.612
   14SOL     OW  940   4.220   5.230   5.016
   14SOL    HW1  941   4.169   5.181   4.945
   14SOL    HW2  942   4.300   5.274   4.975
   15SOL     OW  943   7.002   5.541   6.320
   15SOL    HW1  944   6.961   5.627   6.286
   15SOL    HW2  945   6.935   5.493   6.376
   16SOL     OW  946   0.396   3.794   5.500
   16SOL    HW1  947   0.426   3.766   5.409
   16SOL    HW2  948   0.316   3.741   5.527
   17SOL     OW  949   6.234   1.263   5.379
   17SOL    HW1  950   6.195   1.324   5.448
   17SOL    HW2  951   6.325   1.234   5.408
   18SOL     OW  952   3.436   0.946   5.701
   18SOL    HW1  953   3.419   0.856   5.742
   18SOL    HW2  954   3.404   1.017   5.764
   19SOL     OW  955   1.594   1.384   3.020
   19SOL    HW1  956   1.568   1.476   2.988
   19SOL    HW2  957   1.634   1.333   2.944
   20SOL     OW  958   5.773   2.107   5.449
   20SOL    HW1  959   5.717   2.025   5.457
   20SOL    HW2  960   5.788   2.129   5.353
   21SOL     OW  961   2.502   5.294   2.466
   21SOL    HW1  962   2.523   5.238   2.386
   21SOL    HW2  963   2.456   5.378   2.437
   22SOL     OW  964   2.073   6.031   5.510
   22SOL    HW1  965   2.123   6.079   5.438
   22SOL    HW2  966   2.009   6.093   5.554
   23SOL     OW  967   5.276   4.166   1.883
   23SOL    HW1  968   5.206   4.225   1.845
   23SOL    HW2  969   5.243   4.124   1.967
   24SOL     OW  970   4.524   0.801   1.800
   24SOL    HW1  971   4.457   0.796   1.726
   24SOL    HW2  972   4.479   0.784   1.888
   25SOL     OW  973   2.162   0.414   4.119
   25SOL    HW1  974   2.101   0.349   4.075
   25SOL    HW2  975   2.231   0.364   4.173
   26SOL     OW  976   0.853   3.167   0.134
   26SOL    HW1  977   0.901   3.254   0.145
   26SOL    HW2  978   0.765   3.183   0.088
   27SOL     OW  979   6.621   1.470   0.937
   27SOL    HW1  980   6.604   1.564   0.966
   27SOL    HW2  981   6.605   1.407   1.013
   28SOL     OW  982   2.811   0.503   4.695
   28SOL    HW1  983   2.800   0.512   4.596
   28SOL    HW2  984   2.908   0.509   4.719
   29SOL     OW  985   6.954   0.585   0.767
   29SOL    HW1  986   6.856   0.596   0.778
   29SOL    HW2  987   6.973   0.507   0.707
   30SOL     OW  988   3.952   0.435   5.246
   30SOL    HW1  989   4.030   0.386   5.206
   30SOL    HW2  990   3.942   0.407   5.342
   31SOL     OW  991   1.025   3.091   4.658
   31SOL    HW1  992   1.080   3.046   4.587
   31SOL    HW2  993   1.055   3.186   4.667
   32SOL     OW  994   2.031   0.068   1.174
   32SOL    HW1  995   2.079   0.077   1.261
   32SOL    HW2  996   1.960   0.138   1.168
   33SOL     OW  997   0.577   5.072   6.058
   33SOL    HW1  998   0.589   5.138   5.983
   33SOL    HW2  999   0.649   5.086   6.126
   34SOL     OW 1000   2.451   5.164   5.313
   34SOL    HW1 1001   2.392   5.187   5.391
   34SOL    HW2 1002   2.486   5.071   5.324
   35SOL     OW 1003   3.521   3.073   0.616
   35SOL    HW1 1004   3.511   3.061   0.715
   35SOL    HW2 1005   3.591   3.012   0.581
   36SOL     OW 1006   4.929   0.536   3.918
   36SOL    HW1 1007   4.844   0.493   3.949
   36SOL    HW2 1008   4.938   0.523   3.819
   37SOL     OW 1009   2.553   1.164   3.643
   37SOL    HW1 1010   2.625   1.233   3.642
   37SOL    HW2 1011   2.590   1.077   3.674
   38SOL     OW 1012   0.216   4.731   2.323
   38SOL    HW1 1013   0.291   4.675   2.288
   38SOL    HW2 1014   0.129   4.692   2.292
   39SOL     OW 1015   6.724   5.475   6.103
   39SOL    HW1 1016   6.680   5.542   6.043
   39SOL    HW2 1017   6.822   5.475   6.086
   40SOL     OW 1018   4.225   0.825   6.106
   40SOL    HW1 1019   4.184   0.734   6.116
   40SOL    HW2 1020   4.183   0.887   6.172
   41SOL     OW 1021   6.204   3.948   1.631
   41SOL    HW1 1022   6.217   4.047   1.626
   41SOL    HW2 1023   6.190   3.912   1.539
   42SOL     OW 1024   2.401   5.856   5.928
   42SOL    HW1 1025   2.326   5.869   5.863
   42SOL    HW2 1026   2.380   5.779   5.989
   43SOL     OW 1027   4.703   6.615   4.313
   43SOL    HW1 1028   4.741   6.528   4.344
   43SOL    HW2 1029   4.631   6.645   4.376
   44SOL     OW 1030   6.227   1.734   5.891
   44SOL    HW1 1031   6.240   1.833   5.889
   44SOL    HW2 1032   6.129   1.713   5.891
   45SOL     OW 1033   3.411   4.874   0.290
   45SOL    HW1 1034   3.463   4.837   0.213
   45SOL    HW2 1035   3.314   4.879   0.265
   46SOL     OW 1036   0.664   2.844   4.593
   46SOL    HW1 1037   0.627   2.903   4.521
   46SOL    HW2 1038   0.715   2.900   4.658
   47SOL     OW 1039   5.642   2.945   1.423
   47SOL    HW1 1040   5.727   2.964   1.471
   47SOL    HW2 1041   5.651   2.861   1.370
   48SOL     OW 1042   6.628   3.634   0.434
   48SOL    HW1 1043   6.593   3.549   0.394
   48SOL    HW2 1044   6.581   3.712   0.394
   49SOL     OW 1045   4.074   3.039   6.987
   49SOL    HW1 1046   4.019   3.109   6.943
   49SOL    HW2 1047   4.053   3.037   0.063
   50SOL     OW 1048   6.487   3.696   6.441
   50SOL    HW1 1049   6.582   3.690   6.409
   50SOL    HW2 1050   6.435   3.755   6.380
   51SOL     OW 1051   2.509   5.902   2.984
   51SOL    HW1 1052   2.587   5.917   2.924
   51SOL    HW2 1053   2.504   5.805   3.009
   52SOL     OW 1054   5.815   2.655   1.534
   52SOL    HW1 1055   5.836   2.742   1.579
   52SOL    HW2 1056   5.717   2.648   1.519
   53SOL     OW 1057   3.837   0.629   2.512
   53SOL    HW1 1058   3.907   0.700   2.520
   53SOL    HW2 1059   3.882   0.539   2.504
   54SOL     OW 1060   5.334   6.886   0.453
   54SOL    HW1 1061   5.284   6.923   0.532
   54SOL    HW2 1062   5.383   6.804   0.481
   55SOL     OW 1063   1.319   3.657   6.288
   55SOL    HW1 1064   1.383   3.633   6.216
   55SOL    HW2 1065   1.345   3.745   6.328
   56SOL     OW 1066   1.256   2.377   6.769
   56SOL    HW1 1067   1.246   2.287   6.812
   56SOL    HW2 1068   1.332   2.426   6.812
   57SOL     OW 1069   4.623   0.731   6.778
   57SOL    HW1 1070   4.596   0.715   6.683
   57SOL    HW2 1071   4.541   0.751   6.832
   58SOL     OW 1072   0.747   0.430   6.432
   58SOL    HW1 1073   0.839   0.468   6.446
   58SOL    HW2 1074   0.753   0.331   6.429
   59SOL     OW 1075   5.421   3.484   5.967
   59SOL    HW1 1076   5.355   3.558   5.957
   59SOL    HW2 1077   5.490   3.491   5.895
   60SOL     OW 1078   5.316   0.306   2.625
   60SOL    HW1 1079   5.397   0.339   2.578
   60SOL    HW2 1080   5.327   0.318   2.724
   61SOL     OW 1081   6.850   0.252   5.232
   61SOL    HW1 1082   6.896   0.337   5.205
   61SOL    HW2 1083   6.914   0.175   5.223
   62SOL     OW 1084   0.137   1.976   2.419
   62SOL    HW1 1085   0.087   1.936   2.342
   62SOL    HW2 1086   0.183   2.060   2.390
   63SOL     OW 1087   4.367   6.179   5.056
   63SOL    HW1 1088   4.358   6.278   5.041
   63SOL    HW2 1089   4.323   6.130   4.981
   64SOL     OW 1090   1.106   4.476   0.369
   64SOL    HW1 1091   1.070   4.385   0.345
   64SOL    HW2 1092   1.131   4.477   0.466
   65SOL     OW 1093   0.615   0.279   5.287
   65SOL    HW1 1094   0.624   0.196   5.342
   65SOL    HW2 1095   0.672   0.351   5.326
   66SOL     OW 1096   4.299   0.671   2.356
   66SOL    HW1 1097   4.288   0.762   2.315
   66SOL    HW2 1098   4.324   0.681   2.452
   67SOL     OW 1099   0.787   2.276   0.997
   67SOL    HW1 1100   0.709   2.239   0.947
   67SOL    HW2 1101   0.859   2.207   1.002
   68SOL     OW 1102   6.677   2.187   5.794
   68SOL    HW1 1103   6.747   2.141   5.739
   68SOL    HW2 1104   6.703   2.282   5.809
   69SOL     OW 1105   0.702   4.843   6.300
   69SOL    HW1 1106   0.701   4.750   6.337
   69SOL    HW2 1107   0.779   4.853   6.237
   70SOL     OW 1108   5.395   3.183   4.441
   70SOL    HW1 1109   5.301   3.190   4.407
   70SOL    HW2 1110   5.441   3.271   4.429
   71SOL     OW 1111   4.488   1.592   4.101
   71SOL    HW1 1112   4.419   1.611   4.170
   71SOL    HW2 1113   4.564   1.542   4.142
   72SOL     OW 1114   0.461   0.726   3.533
   72SOL    HW1 1115   0.497   0.705   3.624
   72SOL    HW2 1116   0.512   0.802   3.494
   73SOL     OW 1117   2.664   0.683   1.095
   73SOL    HW1 1118   2.635   0.768   1.052
   73SOL    HW2 1119   2.674   0.612   1.025
   74SOL     OW 1120   1.742   2.369   0.224
   74SOL    HW1 1121   1.821   2.366   0.285
   74SOL    HW2 1122   1.732   2.280   0.179
   75SOL     OW 1123   4.066   2.528   0.413
   75SOL    HW1 1124   4.026   2.620   0.419
   75SOL    HW2 1125   4.155   2.533   0.368
   76SOL     OW 1126   3.334   4.763   5.366
   76SOL    HW1 1127   3.403   4.821   5.324
   76SOL    HW2 1128   3.246   4.778   5.322
   77SOL     OW 1129   1.760   4.067   4.231
   77SOL    HW1 1130   1.664   4.060   4.260
   77SOL    HW2 1131   1.769   4.140   4.163
   78SOL     OW 1132   4.491   1.835   1.101
   78SOL    HW1 1133   4.524   1.925   1.127
   78SOL    HW2 1134   4.569   1.772   1.095
   79SOL     OW 1135   1.925   5.164   2.501
   79SOL    HW1 1136   1.870   5.081   2.506
   79SOL    HW2 1137   2.017   5.142   2.469
   80SOL     OW 1138   4.746   2.052   4.588
   80SOL    HW1 1139   4.748   2.002   4.674
   80SOL    HW2 1140   4.719   2.147   4.605
   81SOL     OW 1141   2.939   5.778   1.524
   81SOL    HW1 1142   2.941   5.857   1.584
   81SOL    HW2 1143   2.878   5.797   1.447
   82SOL     OW 1144   1.414   6.212   1.453
   82SOL    HW1 1145   1.381   6.205   1.358
   82SOL    HW2 1146   1.363   6.283   1.501
   83SOL     OW 1147   5.084   1.304   4.734
   83SOL    HW1 1148   5.031   1.278   4.653
   83SOL    HW2 1149   5.104   1.222   4.788
   84SOL     OW 1150   5.740   2.411   2.841
   84SOL    HW1 1151   5.755   2.316   2.868
   84SOL    HW2 1152   5.712   2.465   2.921
   85SOL     OW 1153   2.066   0.671   4.053
   85SOL    HW1 1154   2.105   0.584   4.084
   85SOL    HW2 1155   2.020   0.716   4.130
   86SOL     OW 1156   5.587   0.806   6.722
   86SOL    HW1 1157   5.491   0.791   6.745
   86SOL    HW2 1158   5.630   0.861   6.793
   87SOL     OW 1159   2.878   4.318   6.971
   87SOL    HW1 1160   2.798   4.326   6.911
   87SOL    HW2 1161   2.847   4.300   0.042
   88SOL     OW 1162   2.892   3.681   6.982
   88SOL    HW1 1163   2.836   3.695   0.041
   88SOL    HW2 1164   2.974   3.737   6.987
   89SOL     OW 1165   2.920   3.611   2.975
   89SOL    HW1 1166   2.931   3.511   2.972
   89SOL    HW2 1167   2.938   3.644   3.067
   90SOL     OW 1168   5.116   4.025   3.140
   90SOL    HW1 1169   5.080   3.943   3.094
   90SOL    HW2 1170   5.040   4.077   3.180
   91SOL     OW 1171   5.029   5.265   5.814
   91SOL    HW1 1172   4.946   5.316   5.791
   91SOL    HW2 1173   5.080   5.313   5.885
   92SOL     OW 1174   5.573   4.332   6.559
   92SOL    HW1 1175   5.548   4.382   6.642
   92SOL    HW2 1176   5.602   4.239   6.582
   93SOL     OW 1177   2.905   3.211   2.251
   93SOL    HW1 1178   2.985   3.165   2.288
   93SOL    HW2 1179   2.845   3.144   2.208
   94SOL     OW 1180   3.309   1.668   5.887
   94SOL    HW1 1181   3.375   1.612   5.837
   94SOL    HW2 1182   3.228   1.682   5.829
   95SOL     OW 1183   0.300   0.647   4.676
   95SOL    HW1 1184   0.318   0.549   4.680
   95SOL    HW2 1185   0.292   0.684   4.769
   96SOL     OW 1186   4.720   5.257   0.304
   96SOL    HW1 1187   4.751   5.300   0.388
   96SOL    HW2 1188   4.663   5.178   0.325
   97SOL     OW 1189   2.219   5.242   5.487
   97SOL    HW1 1190   2.231   5.299   5.568
   97SOL    HW2 1191   2.125   5.251   5.453
   98SOL     OW 1192   1.075   2.936   3.309
   98SOL    HW1 1193   1.111   2.843   3.298
   98SOL    HW2 1194   1.095   2.989   3.227
   99SOL     OW 1195   4.011   3.285   4.555
   99SOL    HW1 1196   3.972   3.376   4.541
   99SOL    HW2 1197   4.043   3.249   4.467
  100SOL     OW 1198   0.013   7.014   3.648
  100SOL    HW1 1199   0.014   6.949   3.724
  100SOL    HW2 1200   0.098   0.045   3.649
  101SOL     OW 1201   0.072   3.446   2.569
  101SOL    HW1 1202   0.013   3.414   2.643
  101SOL    HW2 1203   0.133   3.372   2.541
  102SOL     OW 1204   2.589   0.011   0.528
  102SOL    HW1 1205   2.646   6.960   0.564
  102SOL    HW2 1206   2.566   0.074   0.602
  103SOL     OW 1207   2.188   0.723   1.582
  103SOL    HW1 1208   2.234   0.785   1.646
  103SOL    HW2 1209   2.091   0.719   1.604
  104SOL     OW 1210   0.938   4.691   1.463
  104SOL    HW1 1211   0.923   4.787   1.441
  104SOL    HW2 1212   0.882   4.665   1.542
  105SOL     OW 1213   5.291   1.457   5.722
  105SOL    HW1 1214   5.228   1.525   5.685
  105SOL    HW2 1215   5.307   1.477   5.819
  106SOL     OW 1216   5.799   5.419   2.248
  106SOL    HW1 1217   5.781   5.323   2.225
  106SOL    HW2 1218   5.897   5.433   2.257
  107SOL     OW 1219   5.934   0.584   0.801
  107SOL    HW1 1220   5.852   0.575   0.859
  107SOL    HW2 1221   5.989   0.660   0.834
  108SOL     OW 1222   1.876   0.669   5.807
  108SOL    HW1 1223   1.939   0.645   5.733
  108SOL    HW2 1224   1.836   0.759   5.788
  109SOL     OW 1225   2.170   1.164   3.891
  109SOL    HW1 1226   2.203   1.124   3.805
  109SOL    HW2 1227   2.182   1.099   3.965
  110SOL     OW 1228   2.888   4.459   5.643
  110SOL    HW1 1229   2.866   4.380   5.701
  110SOL    HW2 1230   2.845   4.448   5.554
  111SOL     OW 1231   6.934   1.958   1.661
  111SOL    HW1 1232   6.960   1.862   1.672
  111SOL    HW2 1233   6.965   2.010   1.740
  112SOL     OW 1234   4.896   0.292   6.945
  112SOL    HW1 1235   4.971   0.288   6.879
  112SOL    HW2 1236   4.898   0.380   6.993
  113SOL     OW 1237   6.511   5.964   1.557
  113SOL    HW1 1238   6.475   6.038   1.500
  113SOL    HW2 1239   6.450   5.885   1.550
  114SOL     OW 1240   0.306   3.927   3.245
  114SOL    HW1 1241   0.402   3.899   3.248
  114SOL    HW2 1242   0.271   3.917   3.152
  115SOL     OW 1243   6.246   0.754   3.413
  115SOL    HW1 1244   6.219   0.658   3.414
  115SOL    HW2 1245   6.175   0.810   3.455
  116SOL     OW 1246   1.066   4.941   0.825
  116SOL    HW1 1247   1.121   5.014   0.787
  116SOL    HW2 1248   1.110   4.903   0.906
  117SOL     OW 1249   2.328   1.606   0.065
  117SOL    HW1 1250   2.306   1.622   6.992
  117SOL    HW2 1251   2.385   1.681   0.099
  118SOL     OW 1252   1.214   1.546   4.297
  118SOL    HW1 1253   1.244   1.591   4.213
  118SOL    HW2 1254   1.116   1.526   4.291
  119SOL     OW 1255   6.719   6.030   6.493
  119SOL    HW1 1256   6.778   5.964   6.445
  119SOL    HW2 1257   6.642   6.055   6.434
  120SOL     OW 1258   4.694   2.316   4.622
  120SOL    HW1 1259   4.628   2.385   4.591
  120SOL    HW2 1260   4.773   2.361   4.662
  121SOL     OW 1261   1.308   3.854   6.796
  121SOL    HW1 1262   1.322   3.815   6.705
  121SOL    HW2 1263   1.372   3.813   6.861
  122SOL     OW 1264   0.626   3.841   0.035
  122SOL    HW1 1265   0.681   3.904   7.003
  122SOL    HW2 1266   0.686   3.785   0.092
  123SOL     OW 1267   1.090   1.167   1.690
  123SOL    HW1 1268   1.070   1.244   1.750
  123SOL    HW2 1269   1.070   1.081   1.738
  124SOL     OW 1270   2.143   2.696   0.696
  124SOL    HW1 1271   2.186   2.609   0.717
  124SOL    HW2 1272   2.196   2.745   0.627
  125SOL     OW 1273   3.851   3.647   0.255
  125SOL    HW1 1274   3.809   3.719   0.199
  125SOL    HW2 1275   3.789   3.570   0.263
  126SOL     OW 1276   3.676   3.121   4.666
  126SOL    HW1 1277   3.711   3.214   4.674
  126SOL    HW2 1278   3.735   3.058   4.716
  127SOL     OW 1279   0.517   5.959   6.272
  127SOL    HW1 1280   0.482   5.893   6.338
  127SOL    HW2 1281   0.593   5.917   6.221
  128SOL     OW 1282   5.040   3.704   0.717
  128SOL    HW1 1283   5.076   3.629   0.662
  128SOL    HW2 1284   5.009   3.777   0.656
  129SOL     OW 1285   2.021   5.845   1.106
  129SOL    HW1 1286   1.985   5.911   1.172
  129SOL    HW2 1287   1.957   5.835   1.030
  130SOL     OW 1288   5.402   2.436   5.013
  130SOL    HW1 1289   5.496   2.472   5.018
  130SOL    HW2 1290   5.342   2.494   5.068
  131SOL     OW 1291   6.866   2.535   3.650
  131SOL    HW1 1292   6.907   2.469   3.713
  131SOL    HW2 1293   6.933   2.561   3.581
  132SOL     OW 1294   3.771   3.653   2.355
  132SOL    HW1 1295   3.705   3.649   2.280
  132SOL    HW2 1296   3.841   3.721   2.333
  133SOL     OW 1297   5.636   6.516   5.910
  133SOL    HW1 1298   5.694   6.476   5.839
  133SOL    HW2 1299   5.563   6.453   5.933
  134SOL     OW 1300   5.257   1.163   1.692
  134SOL    HW1 1301   5.168   1.145   1.733
  134SOL    HW2 1302   5.317   1.085   1.707
  135SOL     OW 1303   4.856   3.874   4.275
  135SOL    HW1 1304   4.826   3.891   4.181
  135SOL    HW2 1305   4.837   3.955   4.331
  136SOL     OW 1306   3.455   0.056   5.564
  136SOL    HW1 1307   3.529   0.120   5.587
  136SOL    HW2 1308   3.481   0.004   5.483
  137SOL     OW 1309   2.999   2.302   5.360
  137SOL    HW1 1310   2.956   2.212   5.361
  137SOL    HW2 1311   3.068   2.306   5.288
  138SOL     OW 1312   0.805   6.055   5.809
  138SOL    HW1 1313   0.875   6.127   5.812
  138SOL    HW2 1314   0.784   6.034   5.713
  139SOL     OW 1315   1.966   5.807   0.139
  139SOL    HW1 1316   2.050   5.853   0.169
  139SOL    HW2 1317   1.906   5.874   0.096
  140SOL     OW 1318   2.559   0.241   2.232
  140SOL    HW1 1319   2.473   0.217   2.278
  140SOL    HW2 1320   2.540   0.294   2.150
  141SOL     OW 1321   6.833   3.900   0.411
  141SOL    HW1 1322   6.864   3.995   0.407
  141SOL    HW2 1323   6.739   3.897   0.447
  142SOL     OW 1324   1.481   4.255   2.595
  142SOL    HW1 1325   1.479   4.156   2.608
  142SOL    HW2 1326   1.562   4.280   2.542
  143SOL     OW 1327   4.419   6.574   1.754
  143SOL    HW1 1328   4.478   6.600   1.830
  143SOL    HW2 1329   4.464   6.598   1.667
  144SOL     OW 1330   3.621   4.943   3.512
  144SOL    HW1 1331   3.656   4.897   3.594
  144SOL    HW2 1332   3.683   4.926   3.435
  145SOL     OW 1333   6.965   4.668   3.161
  145SOL    HW1 1334   6.959   4.640   3.257
  145SOL    HW2 1335   0.015   4.616   3.116
  146SOL     OW 1336   5.699   1.516   6.443
  146SOL    HW1 1337   5.770   1.543   6.509
  146SOL    HW2 1338   5.699   1.580   6.367
  147SOL     OW 1339   4.676   1.188   5.106
  147SOL    HW1 1340   4.602   1.129   5.138
  147SOL    HW2 1341   4.763   1.142   5.118
  148SOL     OW 1342   1.283   5.403   0.704
  148SOL    HW1 1343   1.365   5.435   0.658
  148SOL    HW2 1344   1.233   5.482   0.741
  149SOL     OW 1345   1.843   2.975   5.586
  149SOL    HW1 1346   1.837   2.903   5.655
  149SOL    HW2 1347   1.919   2.955   5.524
  150SOL     OW 1348   4.218   1.690   4.585
  150SOL    HW1 1349   4.247   1.696   4.681
  150SOL    HW2 1350   4.133   1.638   4.579
  151SOL     OW 1351   4.336   2.669   0.633
  151SOL    HW1 1352   4.247   2.685   0.676
  151SOL    HW2 1353   4.400   2.635   0.701
  152SOL     OW 1354   0.899   1.147   0.265
  152SOL    HW1 1355   0.950   1.095   0.196
  152SOL    HW2 1356   0.921   1.244   0.256
  153SOL     OW 1357   3.230   0.974   3.878
  153SOL    HW1 1358   3.329   0.981   3.871
  153SOL    HW2 1359   3.204   0.951   3.971
  154SOL     OW 1360   5.846   1.652   1.390
  154SOL    HW1 1361   5.793   1.681   1.470
  154SOL    HW2 1362   5.938   1.627   1.419
  155SOL     OW 1363   1.758   7.001   2.076
  155SOL    HW1 1364   1.680   0.031   2.044
  155SOL    HW2 1365   1.836   0.039   2.090
  156SOL     OW 1366   5.224   2.337   0.583
  156SOL    HW1 1367   5.164   2.339   0.503
  156SOL    HW2 1368   5.258   2.429   0.602
  157SOL     OW 1369   4.813   5.202   0.023
  157SOL    HW1 1370   4.801   5.106   0.048
  157SOL    HW2 1371   4.802   5.259   0.104
  158SOL     OW 1372   0.342   2.872   3.172
  158SOL    HW1 1373   0.286   2.904   3.096
  158SOL    HW2 1374   0.364   2.950   3.232
  159SOL     OW 1375   5.621   5.506   0.592
  159SOL    HW1 1376   5.697   5.445   0.613
  159SOL    HW2 1377   5.595   5.495   0.496
  160SOL     OW 1378   6.045   6.687   1.091
  160SOL    HW1 1379   6.018   6.751   1.162
  160SOL    HW2 1380   6.123   6.724   1.041
  161SOL     OW 1381   0.181   6.409   0.338
  161SOL    HW1 1382   0.118   6.374   0.269
  161SOL    HW2 1383   0.275   6.386   0.313
  162SOL     OW 1384   4.067   6.890   7.012
  162SOL    HW1 1385   4.113   6.967   6.969
  162SOL    HW2 1386   4.026   6.832   6.942
  163SOL     OW 1387   6.769   3.764   3.682
  163SOL    HW1 1388   6.821   3.715   3.752
  163SOL    HW2 1389   6.776   3.862   3.698
  164SOL     OW 1390   1.885   1.677   3.209
  164SOL    HW1 1391   1.984   1.677   3.193
  164SOL    HW2 1392   1.867   1.667   3.307
  165SOL     OW 1393   0.871   5.929   3.428
  165SOL    HW1 1394   0.771   5.925   3.438
  165SOL    HW2 1395   0.894   5.949   3.332
  166SOL     OW 1396   6.885   3.463   3.033
  166SOL    HW1 1397   6.930   3.379   3.063
  166SOL    HW2 1398   6.864   3.520   3.113
  167SOL     OW 1399   4.843   2.167   6.714
  167SOL    HW1 1400   4.891   2.155   6.627
  167SOL    HW2 1401   4.812   2.078   6.747
  168SOL     OW 1402   4.963   4.053   2.295
  168SOL    HW1 1403   5.042   4.097   2.338
  168SOL    HW2 1404   4.955   4.087   2.201
  169SOL     OW 1405   6.222   2.513   1.280
  169SOL    HW1 1406   6.232   2.608   1.251
  169SOL    HW2 1407   6.312   2.471   1.287
  170SOL     OW 1408   0.517   5.275   3.002
  170SOL    HW1 1409   0.524   5.201   2.935
  170SOL    HW2 1410   0.567   5.355   2.968
  171SOL     OW 1411   2.845   3.671   0.430
  171SOL    HW1 1412   2.792   3.755   0.439
  171SOL    HW2 1413   2.943   3.692   0.436
  172SOL     OW 1414   6.296   1.958   0.195
  172SOL    HW1 1415   6.203   1.981   0.166
  172SOL    HW2 1416   6.293   1.902   0.277
  173SOL     OW 1417   6.975   2.235   5.239
  173SOL    HW1 1418   6.881   2.228   5.271
  173SOL    HW2 1419   6.976   2.246   5.140
  174SOL     OW 1420   6.368   5.268   5.450
  174SOL    HW1 1421   6.460   5.299   5.472
  174SOL    HW2 1422   6.304   5.301   5.520
  175SOL     OW 1423   0.935   0.165   0.783
  175SOL    HW1 1424   1.013   0.204   0.832
  175SOL    HW2 1425   0.895   0.092   0.838
  176SOL     OW 1426   5.401   4.565   2.398
  176SOL    HW1 1427   5.378   4.530   2.489
  176SOL    HW2 1428   5.475   4.633   2.406
  177SOL     OW 1429   5.782   2.481   4.162
  177SOL    HW1 1430   5.806   2.460   4.257
  177SOL    HW2 1431   5.740   2.400   4.119
  178SOL     OW 1432   1.916   6.704   5.241
  178SOL    HW1 1433   1.980   6.628   5.231
  178SOL    HW2 1434   1.830   6.681   5.196
  179SOL     OW 1435   3.683   4.794   1.066
  179SOL    HW1 1436   3.603   4.734   1.062
  179SOL    HW2 1437   3.757   4.747   1.114
  180SOL     OW 1438   4.415   1.868   0.819
  180SOL    HW1 1439   4.421   1.852   0.917
  180SOL    HW2 1440   4.480   1.809   0.771
  181SOL     OW 1441   3.212   2.220   5.650
  181SOL    HW1 1442   3.145   2.274   5.701
  181SOL    HW2 1443   3.205   2.242   5.552
  182SOL     OW 1444   4.695   2.436   6.692
  182SOL    HW1 1445   4.683   2.370   6.617
  182SOL    HW2 1446   4.710   2.386   6.777
  183SOL     OW 1447   3.250   1.599   3.585
  183SOL    HW1 1448   3.251   1.649   3.672
  183SOL    HW2 1449   3.239   1.663   3.509
  184SOL     OW 1450   6.295   6.170   3.535
  184SOL    HW1 1451   6.211   6.211   3.571
  184SOL    HW2 1452   6.271   6.106   3.461
  185SOL     OW 1453   0.447   1.068   4.242
  185SOL    HW1 1454   0.427   1.078   4.144
  185SOL    HW2 1455   0.502   1.146   4.272
  186SOL     OW 1456   4.675   5.835   3.745
  186SOL    HW1 1457   4.599   5.857   3.684
  186SOL    HW2 1458   4.750   5.900   3.730
  187SOL     OW 1459   4.259   6.348   1.776
  187SOL    HW1 1460   4.284   6.445   1.774
  187SOL    HW2 1461   4.323   6.295   1.720
  188SOL     OW 1462   1.594   2.891   3.012
  188SOL    HW1 1463   1.648   2.971   3.039
  188SOL    HW2 1464   1.625   2.859   2.923
  189SOL     OW 1465   6.152   5.239   6.140
  189SOL    HW1 1466   6.073   5.185   6.168
  189SOL    HW2 1467   6.125   5.334   6.130
  190SOL     OW 1468   6.386   0.316   0.197
  190SOL    HW1 1469   6.329   0.237   0.218
  190SOL    HW2 1470   6.442   0.297   0.116
  191SOL     OW 1471   6.508   0.998   5.709
  191SOL    HW1 1472   6.474   0.933   5.776
  191SOL    HW2 1473   6.571   1.062   5.754
  192SOL     OW 1474   0.786   5.539   0.543
  192SOL    HW1 1475   0.771   5.526   0.445
  192SOL    HW2 1476   0.724   5.481   0.594
  193SOL     OW 1477   2.802   5.664   6.181
  193SOL    HW1 1478   2.815   5.670   6.082
  193SOL    HW2 1479   2.805   5.568   6.209
  194SOL     OW 1480   3.693   0.122   2.224
  194SOL    HW1 1481   3.793   0.129   2.226
  194SOL    HW2 1482   3.655   0.200   2.175
  195SOL     OW 1483   3.055   1.006   1.613
  195SOL    HW1 1484   3.011   0.952   1.685
  195SOL    HW2 1485   3.119   1.071   1.654
  196SOL     OW 1486   2.141   1.114   0.316
  196SOL    HW1 1487   2.062   1.061   0.345
  196SOL    HW2 1488   2.139   1.204   0.361
  197SOL     OW 1489   2.190   5.928   0.768
  197SOL    HW1 1490   2.099   5.968   0.757
  197SOL    HW2 1491   2.183   5.829   0.770
  198SOL     OW 1492   4.559   6.731   6.944
  198SOL    HW1 1493   4.568   6.821   6.985
  198SOL    HW2 1494   4.463   6.701   6.950
  199SOL     OW 1495   6.213   6.426   3.112
  199SOL    HW1 1496   6.204   6.395   3.017
  199SOL    HW2 1497   6.170   6.360   3.173
  200SOL     OW 1498   0.404   4.201   3.250
  200SOL    HW1 1499   0.461   4.177   3.172
  200SOL    HW2 1500   0.355   4.120   3.282
  201SOL     OW 1501   3.137   0.838   6.852
  201SOL    HW1 1502   3.216   0.898   6.867
  201SOL    HW2 1503   3.081   0.874   6.778
  202SOL     OW 1504   3.864   0.024   3.353
  202SOL    HW1 1505   3.905   6.997   3.276
  202SOL    HW2 1506   3.856   6.985   3.431
  203SOL     OW 1507   5.287   3.721   6.006
  203SOL    HW1 1508   5.230   3.768   6.073
  203SOL    HW2 1509   5.374   3.770   5.995
  204SOL     OW 1510   2.393   6.633   0.476
  204SOL    HW1 1511   2.456   6.564   0.513
  204SOL    HW2 1512   2.351   6.598   0.392
  205SOL     OW 1513   6.223   1.875   0.682
  205SOL    HW1 1514   6.221   1.972   0.705
  205SOL    HW2 1515   6.173   1.823   0.752
  206SOL     OW 1516   0.665   4.767   2.167
  206SOL    HW1 1517   0.688   4.719   2.252
  206SOL    HW2 1518   0.729   4.843   2.153
  207SOL     OW 1519   4.706   0.769   5.800
  207SOL    HW1 1520   4.770   0.693   5.813
  207SOL    HW2 1521   4.614   0.740   5.827
  208SOL     OW 1522   5.268   5.954   6.033
  208SOL    HW1 1523   5.245   6.035   5.980
  208SOL    HW2 1524   5.187   5.924   6.084
  209SOL     OW 1525   6.606   5.352   5.486
  209SOL    HW1 1526   6.671   5.356   5.563
  209SOL    HW2 1527   6.657   5.343   5.400
  210SOL     OW 1528   4.037   2.690   1.128
  210SOL    HW1 1529   3.977   2.732   1.061
  210SOL    HW2 1530   4.104   2.633   1.082
  211SOL     OW 1531   1.249   1.343   0.503
  211SOL    HW1 1532   1.207   1.415   0.558
  211SOL    HW2 1533   1.184   1.269   0.489
  212SOL     OW 1534   0.814   5.136   4.096
  212SOL    HW1 1535   0.777   5.104   4.183
  212SOL    HW2 1536   0.848   5.057   4.044
  213SOL     OW 1537   5.241   2.190   6.991
  213SOL    HW1 1538   5.330   2.187   6.946
  213SOL    HW2 1539   5.199   2.099   6.990
  214SOL     OW 1540   0.832   6.791   2.415
  214SOL    HW1 1541   0.859   6.724   2.346
  214SOL    HW2 1542   0.755   6.845   2.381
  215SOL     OW 1543   3.435   3.378   2.826
  215SOL    HW1 1544   3.484   3.457   2.789
  215SOL    HW2 1545   3.464   3.295   2.778
  216SOL     OW 1546   1.021   0.358   5.711
  216SOL    HW1 1547   1.074   0.332   5.792
  216SOL    HW2 1548   1.082   0.396   5.642
  217SOL     OW 1549   1.243   3.167   3.766
  217SOL    HW1 1550   1.204   3.199   3.852
  217SOL    HW2 1551   1.170   3.139   3.704
  218SOL     OW 1552   1.327   3.595   5.384
  218SOL    HW1 1553   1.419   3.581   5.420
  218SOL    HW2 1554   1.280   3.664   5.440
  219SOL     OW 1555   4.595   5.045   0.429
  219SOL    HW1 1556   4.523   4.976   0.428
  219SOL    HW2 1557   4.679   5.005   0.466
  220SOL     OW 1558   2.599   5.095   0.427
  220SOL    HW1 1559   2.571   5.110   0.522
  220SOL    HW2 1560   2.520   5.100   0.367
  221SOL     OW 1561   5.355   2.330   4.126
  221SOL    HW1 1562   5.292   2.293   4.194
  221SOL    HW2 1563   5.349   2.276   4.042
  222SOL     OW 1564   0.480   5.750   5.682
  222SOL    HW1 1565   0.428   5.740   5.767
  222SOL    HW2 1566   0.420   5.783   5.610
  223SOL     OW 1567   0.112   3.783   1.972
  223SOL    HW1 1568   0.118   3.683   1.969
  223SOL    HW2 1569   0.022   3.811   1.938
  224SOL     OW 1570   2.827   2.174   1.796
  224SOL    HW1 1571   2.873   2.243   1.853
  224SOL    HW2 1572   2.842   2.195   1.700
  225SOL     OW 1573   5.700   0.885   6.964
  225SOL    HW1 1574   5.626   0.883   0.008
  225SOL    HW2 1575   5.740   0.977   6.961
  226SOL     OW 1576   0.512   5.677   0.553
  226SOL    HW1 1577   0.610   5.673   0.573
  226SOL    HW2 1578   0.497   5.734   0.472
  227SOL     OW 1579   1.529   3.548   3.513
  227SOL    HW1 1580   1.443   3.498   3.519
  227SOL    HW2 1581   1.604   3.489   3.541
  228SOL     OW 1582   4.753   0.268   3.526
  228SOL    HW1 1583   4.783   0.257   3.431
  228SOL    HW2 1584   4.822   0.232   3.588
  229SOL     OW 1585   6.115   6.300   2.183
  229SOL    HW1 1586   6.116   6.231   2.256
  229SOL    HW2 1587   6.174   6.377   2.209
  230SOL     OW 1588   2.230   4.280   5.034
  230SOL    HW1 1589   2.261   4.337   4.958
  230SOL    HW2 1590   2.265   4.187   5.022
  231SOL     OW 1591   0.704   2.861   6.139
  231SOL    HW1 1592   0.742   2.927   6.203
  231SOL    HW2 1593   0.607   2.880   6.124
  232SOL     OW 1594   1.753   4.049   6.793
  232SOL    HW1 1595   1.727   4.038   6.698
  232SOL    HW2 1596   1.730   4.141   6.824
  233SOL     OW 1597   2.446   1.063   5.746
  233SOL    HW1 1598   2.437   1.136   5.678
  233SOL    HW2 1599   2.540   1.059   5.779
  234SOL     OW 1600   2.593   5.156   6.857
  234SOL    HW1 1601   2.603   5.117   6.765
  234SOL    HW2 1602   2.504   5.200   6.865
  235SOL     OW 1603   3.121   3.685   4.448
  235SOL    HW1 1604   3.162   3.611   4.501
  235SOL    HW2 1605   3.114   3.658   4.352
  236SOL     OW 1606   6.608   2.297   5.441
  236SOL    HW1 1607   6.559   2.384   5.433
  236SOL    HW2 1608   6.690   2.310   5.497
  237SOL     OW 1609   0.500   7.000   0.954
  237SOL    HW1 1610   0.523   0.073   0.969
  237SOL    HW2 1611   0.508   6.979   0.856
  238SOL     OW 1612   5.698   2.862   2.543
  238SOL    HW1 1613   5.788   2.905   2.550
  238SOL    HW2 1614   5.631   2.919   2.592
  239SOL     OW 1615   6.571   5.898   6.896
  239SOL    HW1 1616   6.507   5.874   6.969
  239SOL    HW2 1617   6.658   5.852   6.912
  240SOL     OW 1618   0.362   4.128   6.248
  240SOL    HW1 1619   0.279   4.153   6.297
  240SOL    HW2 1620   0.357   4.163   6.154
  241SOL     OW 1621   0.393   0.675   2.965
  241SOL    HW1 1622   0.362   0.697   3.058
  241SOL    HW2 1623   0.366   0.748   2.902
  242SOL     OW 1624   1.478   3.745   4.473
  242SOL    HW1 1625   1.417   3.669   4.495
  242SOL    HW2 1626   1.549   3.713   4.411
  243SOL     OW 1627   5.668   6.801   5.197
  243SOL    HW1 1628   5.606   6.725   5.217
  243SOL    HW2 1629   5.634   6.852   5.118
  244SOL     OW 1630   5.785   2.209   5.174
  244SOL    HW1 1631   5.825   2.214   5.082
  244SOL    HW2 1632   5.687   2.229   5.169
  245SOL     OW 1633   5.704   2.705   4.039
  245SOL    HW1 1634   5.762   2.640   4.088
  245SOL    HW2 1635   5.727   2.702   3.941
  246SOL     OW 1636   4.996   3.650   3.224
  246SOL    HW1 1637   5.093   3.668   3.238
  246SOL    HW2 1638   4.942   3.708   3.285
  247SOL     OW 1639   2.301   1.449   3.265
  247SOL    HW1 1640   2.340   1.388   3.196
  247SOL    HW2 1641   2.374   1.498   3.312
  248SOL     OW 1642   6.184   1.347   3.531
  248SOL    HW1 1643   6.142   1.263   3.497
  248SOL    HW2 1644   6.217   1.401   3.454
  249SOL     OW 1645   3.766   6.831   4.069
  249SOL    HW1 1646   3.852   6.843   4.018
  249SOL    HW2 1647   3.701   6.902   4.041
  250SOL     OW 1648   5.620   3.533   5.795
  250SOL    HW1 1649   5.675   3.569   5.870
  250SOL    HW2 1650   5.571   3.609   5.751
  251SOL     OW 1651   4.464   2.463   0.014
  251SOL    HW1 1652   4.498   2.387   0.069
  251SOL    HW2 1653   4.416   2.427   6.956
  252SOL     OW 1654   0.273   0.349   5.981
  252SOL    HW1 1655   0.244   0.396   5.897
  252SOL    HW2 1656   0.338   0.276   5.958
  253SOL     OW 1657   3.366   3.387   0.067
  253SOL    HW1 1658   3.378   3.325   7.012
  253SOL    HW2 1659   3.274   3.377   0.105
  254SOL     OW 1660   5.912   2.455   5.321
  254SOL    HW1 1661   5.882   2.538   5.273
  254SOL    HW2 1662   5.837   2.420   5.377
  255SOL     OW 1663   2.837   1.938   3.112
  255SOL    HW1 1664   2.782   1.964   3.033
  255SOL    HW2 1665   2.806   1.990   3.192
  256SOL     OW 1666   5.566   4.979   0.274
  256SOL    HW1 1667   5.554   5.024   0.363
  256SOL    HW2 1668   5.516   5.030   0.204
  257SOL     OW 1669   2.821   6.061   6.058
  257SOL    HW1 1670   2.778   6.025   6.141
  257SOL    HW2 1671   2.778   6.148   6.033
  258SOL     OW 1672   5.608   4.518   4.441
  258SOL    HW1 1673   5.589   4.423   4.416
  258SOL    HW2 1674   5.707   4.531   4.447
  259SOL     OW 1675   1.793   1.890   2.448
  259SOL    HW1 1676   1.746   1.824   2.506
  259SOL    HW2 1677   1.796   1.856   2.354
  260SOL     OW 1678   5.557   0.133   5.815
  260SOL    HW1 1679   5.517   0.092   5.897
  260SOL    HW2 1680   5.649   0.167   5.836
  261SOL     OW 1681   0.775   4.062   2.377
  261SOL    HW1 1682   0.860   4.107   2.351
  261SOL    HW2 1683   0.711   4.064   2.300
  262SOL     OW 1684   0.655   4.140   2.114
  262SOL    HW1 1685   0.693   4.232   2.105
  262SOL    HW2 1686   0.565   4.137   2.070
  263SOL     OW 1687   1.098   1.915   4.230
  263SOL    HW1 1688   1.116   1.895   4.134
  263SOL    HW2 1689   1.070   2.010   4.240
  264SOL     OW 1690   2.523   4.401   6.426
  264SOL    HW1 1691   2.456   4.441   6.364
  264SOL    HW2 1692   2.537   4.305   6.401
  265SOL     OW 1693   5.348   4.299   4.763
  265SOL    HW1 1694   5.312   4.339   4.679
  265SOL    HW2 1695   5.425   4.239   4.740
  266SOL     OW 1696   4.244   1.929   0.613
  266SOL    HW1 1697   4.208   1.839   0.589
  266SOL    HW2 1698   4.325   1.919   0.671
  267SOL     OW 1699   1.488   1.911   6.072
  267SOL    HW1 1700   1.397   1.940   6.101
  267SOL    HW2 1701   1.483   1.817   6.039
  268SOL     OW 1702   4.064   4.840   4.684
  268SOL    HW1 1703   4.079   4.878   4.593
  268SOL    HW2 1704   4.088   4.743   4.684
  269SOL     OW 1705   0.688   1.867   5.704
  269SOL    HW1 1706   0.683   1.887   5.802
  269SOL    HW2 1707   0.780   1.834   5.681
  270SOL     OW 1708   5.365   1.207   2.907
  270SOL    HW1 1709   5.357   1.161   2.819
  270SOL    HW2 1710   5.393   1.302   2.892
  271SOL     OW 1711   1.509   0.776   6.749
  271SOL    HW1 1712   1.536   0.751   6.842
  271SOL    HW2 1713   1.413   0.804   6.748
  272SOL     OW 1714   3.266   6.126   3.497
  272SOL    HW1 1715   3.342   6.161   3.441
  272SOL    HW2 1716   3.216   6.057   3.445
  273SOL     OW 1717   2.499   6.336   5.227
  273SOL    HW1 1718   2.554   6.351   5.145
  273SOL    HW2 1719   2.470   6.241   5.231
  274SOL     OW 1720   6.327   2.245   2.033
  274SOL    HW1 1721   6.308   2.299   1.951
  274SOL    HW2 1722   6.296   2.296   2.113
  275SOL     OW 1723   6.711   5.812   5.113
  275SOL    HW1 1724   6.747   5.771   5.029
  275SOL    HW2 1725   6.641   5.752   5.151
  276SOL     OW 1726   6.729   6.400   3.809
  276SOL    HW1 1727   6.696   6.308   3.787
  276SOL    HW2 1728   6.728   6.456   3.726
  277SOL     OW 1729   4.259   1.475   5.365
  277SOL    HW1 1730   4.314   1.537   5.422
  277SOL    HW2 1731   4.320   1.408   5.322
  278SOL     OW 1732   6.045   3.419   2.603
  278SOL    HW1 1733   6.028   3.517   2.590
  278SOL    HW2 1734   5.988   3.366   2.540
  279SOL     OW 1735   0.275   2.751   3.885
  279SOL    HW1 1736   0.191   2.733   3.937
  279SOL    HW2 1737   0.312   2.664   3.852
  280SOL     OW 1738   3.676   0.463   4.214
  280SOL    HW1 1739   3.598   0.444   4.274
  280SOL    HW2 1740   3.705   0.379   4.169
  281SOL     OW 1741   4.872   6.189   4.043
  281SOL    HW1 1742   4.878   6.173   4.142
  281SOL    HW2 1743   4.921   6.117   3.995
  282SOL     OW 1744   4.343   1.779   0.313
  282SOL    HW1 1745   4.254   1.799   0.352
  282SOL    HW2 1746   4.362   1.843   0.238
  283SOL     OW 1747   6.297   1.905   4.869
  283SOL    HW1 1748   6.264   1.877   4.960
  283SOL    HW2 1749   6.257   1.844   4.800
  284SOL     OW 1750   5.763   5.564   3.964
  284SOL    HW1 1751   5.730   5.652   3.931
  284SOL    HW2 1752   5.850   5.542   3.918
  285SOL     OW 1753   4.330   0.585   6.229
  285SOL    HW1 1754   4.361   0.494   6.202
  285SOL    HW2 1755   4.360   0.653   6.162
  286SOL     OW 1756   3.414   4.960   4.981
  286SOL    HW1 1757   3.339   4.931   4.921
  286SOL    HW2 1758   3.496   4.974   4.925
  287SOL     OW 1759   2.780   6.795   5.903
  287SOL    HW1 1760   2.709   6.839   5.958
  287SOL    HW2 1761   2.750   6.791   5.807
  288SOL     OW 1762   3.280   0.970   0.701
  288SOL    HW1 1763   3.370   0.928   0.708
  288SOL    HW2 1764   3.270   1.040   0.771
  289SOL     OW 1765   0.047   6.148   4.026
  289SOL    HW1 1766   0.004   6.235   4.003
  289SOL    HW2 1767   0.050   6.138   4.126
  290SOL     OW 1768   3.313   0.886   4.967
  290SOL    HW1 1769   3.381   0.881   5.040
  290SOL    HW2 1770   3.237   0.824   4.989
  291SOL     OW 1771   4.123   0.277   5.133
  291SOL    HW1 1772   4.128   0.296   5.035
  291SOL    HW2 1773   4.126   0.178   5.148
  292SOL     OW 1774   3.898   0.322   3.709
  292SOL    HW1 1775   3.881   0.421   3.715
  292SOL    HW2 1776   3.986   0.301   3.753
  293SOL     OW 1777   6.039   7.012   2.567
  293SOL    HW1 1778   6.056   0.036   2.654
  293SOL    HW2 1779   5.940   6.996   2.556
  294SOL     OW 1780   6.375   0.846   5.883
  294SOL    HW1 1781   6.376   0.747   5.868
  294SOL    HW2 1782   6.380   0.864   5.981
  295SOL     OW 1783   1.155   1.714   5.083
  295SOL    HW1 1784   1.126   1.668   5.166
  295SOL    HW2 1785   1.179   1.809   5.104
  296SOL     OW 1786   0.421   2.099   2.083
  296SOL    HW1 1787   0.503   2.129   2.132
  296SOL    HW2 1788   0.427   2.129   1.988
  297SOL     OW 1789   5.715   3.739   3.780
  297SOL    HW1 1790   5.732   3.644   3.805
  297SOL    HW2 1791   5.670   3.743   3.690
  298SOL     OW 1792   3.349   0.965   6.951
  298SOL    HW1 1793   3.365   1.055   6.990
  298SOL    HW2 1794   3.434   0.913   6.950
  299SOL     OW 1795   2.574   1.778   6.383
  299SOL    HW1 1796   2.477   1.804   6.383
  299SOL    HW2 1797   2.583   1.684   6.349
  300SOL     OW 1798   3.885   0.541   2.824
  300SOL    HW1 1799   3.909   0.631   2.862
  300SOL    HW2 1800   3.969   0.491   2.803
  301SOL     OW 1801   6.222   5.491   0.903
  301SOL    HW1 1802   6.220   5.555   0.827
  301SOL    HW2 1803   6.182   5.404   0.874
  302SOL     OW 1804   5.863   5.861   0.805
  302SOL    HW1 1805   5.824   5.874   0.714
  302SOL    HW2 1806   5.872   5.763   0.823
  303SOL     OW 1807   5.895   5.771   2.415
  303SOL    HW1 1808   5.799   5.752   2.434
  303SOL    HW2 1809   5.948   5.687   2.427
  304SOL     OW 1810   1.604   6.920   5.352
  304SOL    HW1 1811   1.548   6.841   5.327
  304SOL    HW2 1812   1.565   6.965   5.433
  305SOL     OW 1813   1.500   2.813   2.459
  305SOL    HW1 1814   1.584   2.771   2.425
  305SOL    HW2 1815   1.519   2.907   2.489
  306SOL     OW 1816   6.804   0.406   2.690
  306SOL    HW1 1817   6.812   0.339   2.764
  306SOL    HW2 1818   6.893   0.446   2.672
  307SOL     OW 1819   3.481   3.159   3.024
  307SOL    HW1 1820   3.472   3.205   2.936
  307SOL    HW2 1821   3.418   3.200   3.090
  308SOL     OW 1822   5.862   1.605   3.935
  308SOL    HW1 1823   5.810   1.605   4.021
  308SOL    HW2 1824   5.799   1.602   3.858
  309SOL     OW 1825   0.892   6.180   6.283
  309SOL    HW1 1826   0.822   6.207   6.218
  309SOL    HW2 1827   0.965   6.132   6.235
  310SOL     OW 1828   5.371   6.479   4.878
  310SOL    HW1 1829   5.437   6.472   4.804
  310SOL    HW2 1830   5.395   6.416   4.951
  311SOL     OW 1831   2.069   5.378   2.884
  311SOL    HW1 1832   2.002   5.338   2.822
  311SOL    HW2 1833   2.160   5.374   2.842
  312SOL     OW 1834   4.727   1.941   2.965
  312SOL    HW1 1835   4.657   1.964   3.032
  312SOL    HW2 1836   4.693   1.870   2.903
  313SOL     OW 1837   4.132   3.261   3.651
  313SOL    HW1 1838   4.132   3.339   3.588
  313SOL    HW2 1839   4.186   3.186   3.610
  314SOL     OW 1840   2.529   6.619   5.628
  314SOL    HW1 1841   2.543   6.714   5.656
  314SOL    HW2 1842   2.431   6.598   5.628
  315SOL     OW 1843   6.705   1.477   3.621
  315SOL    HW1 1844   6.716   1.383   3.652
  315SOL    HW2 1845   6.693   1.478   3.521
  316SOL     OW 1846   3.726   1.400   5.129
  316SOL    HW1 1847   3.801   1.353   5.176
  316SOL    HW2 1848   3.649   1.412   5.192
  317SOL     OW 1849   0.859   1.204   1.556
  317SOL    HW1 1850   0.867   1.254   1.469
  317SOL    HW2 1851   0.947   1.206   1.603
  318SOL     OW 1852   6.957   0.673   5.321
  318SOL    HW1 1853   0.031   0.672   5.346
  318SOL    HW2 1854   6.922   0.767   5.326
  319SOL     OW 1855   1.751   2.506   2.391
  319SOL    HW1 1856   1.696   2.452   2.455
  319SOL    HW2 1857   1.807   2.446   2.334
  320SOL     OW 1858   6.261   2.954   6.813
  320SOL    HW1 1859   6.209   2.869   6.826
  320SOL    HW2 1860   6.198   3.031   6.812
  321SOL     OW 1861   4.415   2.988   1.099
  321SOL    HW1 1862   4.319   2.990   1.069
  321SOL    HW2 1863   4.475   2.975   1.021
  322SOL     OW 1864   3.998   3.830   6.070
  322SOL    HW1 1865   3.951   3.781   6.143
  322SOL    HW2 1866   3.957   3.921   6.060
  323SOL     OW 1867   0.322   3.296   3.551
  323SOL    HW1 1868   0.341   3.321   3.646
  323SOL    HW2 1869   0.224   3.300   3.534
  324SOL     OW 1870   1.010   6.869   3.667
  324SOL    HW1 1871   0.995   6.963   3.637
  324SOL    HW2 1872   1.049   6.870   3.760
  325SOL     OW 1873   0.554   3.540   2.603
  325SOL    HW1 1874   0.613   3.595   2.662
  325SOL    HW2 1875   0.516   3.598   2.531
  326SOL     OW 1876   1.426   6.338   6.577
  326SOL    HW1 1877   1.338   6.291   6.570
  326SOL    HW2 1878   1.480   6.320   6.495
  327SOL     OW 1879   4.215   5.153   3.296
  327SOL    HW1 1880   4.265   5.088   3.354
  327SOL    HW2 1881   4.179   5.227   3.353
  328SOL     OW 1882   2.289   4.453   2.210
  328SOL    HW1 1883   2.330   4.428   2.123
  328SOL    HW2 1884   2.361   4.463   2.279
  329SOL     OW 1885   3.435   3.824   1.680
  329SOL    HW1 1886   3.512   3.877   1.645
  329SOL    HW2 1887   3.422   3.844   1.777
  330SOL     OW 1888   3.974   4.888   0.419
  330SOL    HW1 1889   3.942   4.935   0.337
  330SOL    HW2 1890   4.034   4.949   0.470
  331SOL     OW 1891   5.254   5.865   6.905
  331SOL    HW1 1892   5.273   5.780   6.856
  331SOL    HW2 1893   5.280   5.855   7.001
  332SOL     OW 1894   5.378   2.235   3.071
  332SOL    HW1 1895   5.353   2.286   2.989
  332SOL    HW2 1896   5.326   2.150   3.075
  333SOL     OW 1897   3.890   1.251   6.250
  333SOL    HW1 1898   3.843   1.299   6.176
  333SOL    HW2 1899   3.912   1.158   6.220
  334SOL     OW 1900   3.267   3.982   3.799
  334SOL    HW1 1901   3.321   3.905   3.763
  334SOL    HW2 1902   3.328   4.045   3.848
  335SOL     OW 1903   3.339   0.635   6.103
  335SOL    HW1 1904   3.414   0.632   6.168
  335SOL    HW2 1905   3.320   0.542   6.071
  336SOL     OW 1906   3.094   1.828   3.097
  336SOL    HW1 1907   2.999   1.859   3.098
  336SOL    HW2 1908   3.154   1.906   3.077
  337SOL     OW 1909   1.964   1.156   5.954
  337SOL    HW1 1910   1.936   1.165   6.050
  337SOL    HW2 1911   2.063   1.153   5.949
  338SOL     OW 1912   4.534   2.012   2.013
  338SOL    HW1 1913   4.625   2.039   2.043
  338SOL    HW2 1914   4.478   2.094   1.995
  339SOL     OW 1915   3.907   5.012   4.862
  339SOL    HW1 1916   3.956   4.982   4.780
  339SOL    HW2 1917   3.892   5.111   4.857
  340SOL     OW 1918   4.427   1.981   3.772
  340SOL    HW1 1919   4.466   1.907   3.827
  340SOL    HW2 1920   4.489   2.004   3.698
  341SOL     OW 1921   5.975   6.813   3.874
  341SOL    HW1 1922   6.061   6.814   3.822
  341SOL    HW2 1923   5.989   6.860   3.961
  342SOL     OW 1924   4.803   2.065   1.761
  342SOL    HW1 1925   4.712   2.107   1.766
  342SOL    HW2 1926   4.805   1.998   1.687
  343SOL     OW 1927   0.960   5.632   3.439
  343SOL    HW1 1928   0.932   5.665   3.529
  343SOL    HW2 1929   1.030   5.693   3.402
  344SOL     OW 1930   1.797   1.329   1.461
  344SOL    HW1 1931   1.780   1.395   1.388
  344SOL    HW2 1932   1.798   1.377   1.549
  345SOL     OW 1933   6.170   3.201   4.280
  345SOL    HW1 1934   6.094   3.232   4.222
  345SOL    HW2 1935   6.134   3.164   4.365
  346SOL     OW 1936   1.852   0.013   2.632
  346SOL    HW1 1937   1.897   0.094   2.594
  346SOL    HW2 1938   1.832   0.028   2.728
  347SOL     OW 1939   2.825   4.901   0.547
  347SOL    HW1 1940   2.823   4.930   0.451
  347SOL    HW2 1941   2.885   4.963   0.598
  348SOL     OW 1942   5.071   5.727   2.471
  348SOL    HW1 1943   5.020   5.728   2.385
  348SOL    HW2 1944   5.011   5.755   2.546
  349SOL     OW 1945   0.050   3.852   1.064
  349SOL    HW1 1946   0.096   3.937   1.037
  349SOL    HW2 1947   6.973   3.868   1.068
  350SOL     OW 1948   3.560   2.935   0.092
  350SOL    HW1 1949   3.579   2.865   0.023
  350SOL    HW2 1950   3.584   3.025   0.056
  351SOL     OW 1951   3.439   4.384   1.277
  351SOL    HW1 1952   3.510   4.423   1.336
  351SOL    HW2 1953   3.480   4.314   1.219
  352SOL     OW 1954   4.218   6.395   3.277
  352SOL    HW1 1955   4.133   6.426   3.319
  352SOL    HW2 1956   4.202   6.307   3.232
  353SOL     OW 1957   2.408   6.192   6.386
  353SOL    HW1 1958   2.434   6.170   6.292
  353SOL    HW2 1959   2.374   6.286   6.391
  354SOL     OW 1960   6.480   2.773   0.632
  354SOL    HW1 1961   6.418   2.797   0.706
  354SOL    HW2 1962   6.433   2.713   0.567
  355SOL     OW 1963   2.010   2.566   2.264
  355SOL    HW1 1964   2.000   2.664   2.247
  355SOL    HW2 1965   2.016   2.549   2.362
  356SOL     OW 1966   1.280   0.309   5.924
  356SOL    HW1 1967   1.343   0.381   5.894
  356SOL    HW2 1968   1.281   0.234   5.857
  357SOL     OW 1969   5.798   7.005   4.533
  357SOL    HW1 1970   5.848   0.031   4.605
  357SOL    HW2 1971   5.860   6.988   4.456
  358SOL     OW 1972   5.082   5.724   0.925
  358SOL    HW1 1973   5.057   5.734   0.828
  358SOL    HW2 1974   5.089   5.814   0.967
  359SOL     OW 1975   3.344   2.077   2.173
  359SOL    HW1 1976   3.386   1.992   2.143
  359SOL    HW2 1977   3.266   2.099   2.114
  360SOL     OW 1978   0.961   4.744   4.059
  360SOL    HW1 1979   1.059   4.752   4.077
  360SOL    HW2 1980   0.926   4.829   4.021
  361SOL     OW 1981   6.715   6.075   3.346
  361SOL    HW1 1982   6.807   6.037   3.349
  361SOL    HW2 1983   6.707   6.150   3.411
  362SOL     OW 1984   4.008   4.183   0.956
  362SOL    HW1 1985   4.016   4.194   1.055
  362SOL    HW2 1986   3.912   4.170   0.932
  363SOL     OW 1987   6.471   5.047   2.636
  363SOL    HW1 1988   6.563   5.073   2.608
  363SOL    HW2 1989   6.420   5.016   2.556
  364SOL     OW 1990   0.675   5.411   6.974
  364SOL    HW1 1991   0.766   5.430   7.012
  364SOL    HW2 1992   0.610   5.396   0.027
  365SOL     OW 1993   3.661   1.503   2.280
  365SOL    HW1 1994   3.583   1.465   2.329
  365SOL    HW2 1995   3.642   1.504   2.182
  366SOL     OW 1996   5.803   3.054   0.556
  366SOL    HW1 1997   5.845   3.125   0.500
  366SOL    HW2 1998   5.874   3.002   0.603
  367SOL     OW 1999   4.534   2.033   5.915
  367SOL    HW1 2000   4.470   2.064   5.985
  367SOL    HW2 2001   4.544   2.104   5.845
  368SOL     OW 2002   6.367   2.000   6.255
  368SOL    HW1 2003   6.410   2.074   6.204
  368SOL    HW2 2004   6.281   2.031   6.295
  369SOL     OW 2005   5.644   3.377   2.786
  369SOL    HW1 2006   5.636   3.306   2.716
  369SOL    HW2 2007   5.738   3.381   2.819
  370SOL     OW 2008   2.193   2.548   4.244
  370SOL    HW1 2009   2.269   2.483   4.234
  370SOL    HW2 2010   2.149   2.535   4.332
  371SOL     OW 2011   2.179   4.194   0.044
  371SOL    HW1 2012   2.121   4.115   0.068
  371SOL    HW2 2013   2.227   4.175   6.982
  372SOL     OW 2014   2.765   6.824   5.606
  372SOL    HW1 2015   2.707   6.830   5.524
  372SOL    HW2 2016   2.836   6.894   5.601
  373SOL     OW 2017   6.241   6.547   4.718
  373SOL    HW1 2018   6.144   6.544   4.694
  373SOL    HW2 2019   6.270   6.456   4.749
  374SOL     OW 2020   2.808   1.753   2.545
  374SOL    HW1 2021   2.890   1.784   2.498
  374SOL    HW2 2022   2.758   1.689   2.487
  375SOL     OW 2023   0.864   4.720   5.066
  375SOL    HW1 2024   0.901   4.632   5.037
  375SOL    HW2 2025   0.913   4.794   5.019
  376SOL     OW 2026   2.636   1.002   4.254
  376SOL    HW1 2027   2.728   0.968   4.234
  376SOL    HW2 2028   2.574   0.924   4.266
  377SOL     OW 2029   1.759   2.036   6.674
  377SOL    HW1 2030   1.673   2.035   6.726
  377SOL    HW2 2031   1.793   2.130   6.668
  378SOL     OW 2032   2.698   1.830   0.946
  378SOL    HW1 2033   2.776   1.775   0.916
  378SOL    HW2 2034   2.618   1.771   0.957
  379SOL     OW 2035   6.093   2.829   6.464
  379SOL    HW1 2036   6.068   2.818   6.368
  379SOL    HW2 2037   6.031   2.894   6.508
  380SOL     OW 2038   3.283   1.369   1.438
  380SOL    HW1 2039   3.192   1.409   1.424
  380SOL    HW2 2040   3.287   1.280   1.394
  381SOL     OW 2041   1.644   4.529   3.583
  381SOL    HW1 2042   1.642   4.564   3.490
  381SOL    HW2 2043   1.572   4.460   3.594
  382SOL     OW 2044   6.510   0.977   0.478
  382SOL    HW1 2045   6.469   0.992   0.388
  382SOL    HW2 2046   6.449   0.920   0.533
  383SOL     OW 2047   3.989   3.012   1.444
  383SOL    HW1 2048   3.992   3.069   1.362
  383SOL    HW2 2049   4.006   2.917   1.420
  384SOL     OW 2050   6.561   3.641   4.527
  384SOL    HW1 2051   6.603   3.555   4.497
  384SOL    HW2 2052   6.467   3.645   4.494
  385SOL     OW 2053   4.487   5.049   6.504
  385SOL    HW1 2054   4.431   5.100   6.439
  385SOL    HW2 2055   4.429   4.989   6.559
  386SOL     OW 2056   4.214   0.257   4.874
  386SOL    HW1 2057   4.258   0.170   4.855
  386SOL    HW2 2058   4.157   0.284   4.797
  387SOL     OW 2059   2.612   5.156   3.388
  387SOL    HW1 2060   2.545   5.197   3.450
  387SOL    HW2 2061   2.701   5.151   3.433
  388SOL     OW 2062   1.749   2.660   6.584
  388SOL    HW1 2063   1.808   2.710   6.647
  388SOL    HW2 2064   1.805   2.615   6.514
  389SOL     OW 2065   2.912   3.746   3.240
  389SOL    HW1 2066   2.837   3.788   3.189
  389SOL    HW2 2067   2.879   3.663   3.285
  390SOL     OW 2068   2.606   1.356   4.235
  390SOL    HW1 2069   2.672   1.402   4.176
  390SOL    HW2 2070   2.655   1.306   4.307
  391SOL     OW 2071   1.628   2.686   0.388
  391SOL    HW1 2072   1.579   2.677   0.301
  391SOL    HW2 2073   1.723   2.657   0.376
  392SOL     OW 2074   2.266   5.103   1.516
  392SOL    HW1 2075   2.181   5.156   1.517
  392SOL    HW2 2076   2.272   5.052   1.430
  393SOL     OW 2077   5.899   4.412   5.014
  393SOL    HW1 2078   5.981   4.368   4.978
  393SOL    HW2 2079   5.826   4.409   4.945
  394SOL     OW 2080   0.055   6.654   0.383
  394SOL    HW1 2081   6.992   6.636   0.431
  394SOL    HW2 2082   0.102   6.567   0.365
  395SOL     OW 2083   5.032   3.730   2.340
  395SOL    HW1 2084   5.016   3.724   2.241
  395SOL    HW2 2085   4.997   3.818   2.374
  396SOL     OW 2086   3.340   3.797   3.046
  396SOL    HW1 2087   3.419   3.829   3.098
  396SOL    HW2 2088   3.336   3.846   2.959
  397SOL     OW 2089   4.599   2.204   5.465
  397SOL    HW1 2090   4.668   2.154   5.412
  397SOL    HW2 2091   4.643   2.253   5.540
  398SOL     OW 2092   0.705   5.767   2.128
  398SOL    HW1 2093   0.619   5.756   2.078
  398SOL    HW2 2094   0.685   5.788   2.224
  399SOL     OW 2095   4.551   5.365   1.516
  399SOL    HW1 2096   4.509   5.414   1.439
  399SOL    HW2 2097   4.650   5.377   1.513
  400SOL     OW 2098   0.044   0.062   5.239
  400SOL    HW1 2099   0.027   6.987   5.251
  400SOL    HW2 2100   0.090   0.098   5.320
  401SOL     OW 2101   4.623   1.394   6.342
  401SOL    HW1 2102   4.610   1.297   6.362
  401SOL    HW2 2103   4.637   1.406   6.244
  402SOL     OW 2104   6.263   6.392   2.606
  402SOL    HW1 2105   6.357   6.369   2.581
  402SOL    HW2 2106   6.210   6.410   2.523
  403SOL     OW 2107   4.673   2.368   5.988
  403SOL    HW1 2108   4.695   2.463   6.007
  403SOL    HW2 2109   4.756   2.312   5.997
  404SOL     OW 2110   1.448   6.788   3.329
  404SOL    HW1 2111   1.503   6.832   3.400
  404SOL    HW2 2112   1.352   6.788   3.356
  405SOL     OW 2113   1.788   2.542   1.041
  405SOL    HW1 2114   1.736   2.590   0.970
  405SOL    HW2 2115   1.764   2.445   1.040
  406SOL     OW 2116   0.959   2.703   3.953
  406SOL    HW1 2117   0.864   2.694   3.925
  406SOL    HW2 2118   0.989   2.621   4.001
  407SOL     OW 2119   3.191   0.144   4.757
  407SOL    HW1 2120   3.175   0.184   4.848
  407SOL    HW2 2121   3.173   0.046   4.761
  408SOL     OW 2122   1.531   0.173   3.083
  408SOL    HW1 2123   1.515   0.249   3.020
  408SOL    HW2 2124   1.564   0.093   3.033
  409SOL     OW 2125   5.909   3.075   2.823
  409SOL    HW1 2126   5.925   3.036   2.731
  409SOL    HW2 2127   5.948   3.014   2.892
  410SOL     OW 2128   2.334   0.070   0.219
  410SOL    HW1 2129   2.255   0.030   0.173
  410SOL    HW2 2130   2.391   7.020   0.258
  411SOL     OW 2131   5.658   5.411   6.596
  411SOL    HW1 2132   5.730   5.473   6.564
  411SOL    HW2 2133   5.696   5.349   6.665
  412SOL     OW 2134   3.634   6.364   3.251
  412SOL    HW1 2135   3.602   6.401   3.164
  412SOL    HW2 2136   3.715   6.307   3.235
  413SOL     OW 2137   3.453   5.475   0.134
  413SOL    HW1 2138   3.364   5.519   0.137
  413SOL    HW2 2139   3.448   5.384   0.174
  414SOL     OW 2140   4.255   5.013   1.676
  414SOL    HW1 2141   4.306   5.046   1.596
  414SOL    HW2 2142   4.269   5.077   1.752
  415SOL     OW 2143   1.293   5.913   0.597
  415SOL    HW1 2144   1.255   5.831   0.555
  415SOL    HW2 2145   1.221   5.983   0.602
  416SOL     OW 2146   4.029   5.600   4.804
  416SOL    HW1 2147   3.986   5.598   4.894
  416SOL    HW2 2148   3.960   5.624   4.735
  417SOL     OW 2149   3.115   6.571   1.574
  417SOL    HW1 2150   3.076   6.652   1.617
  417SOL    HW2 2151   3.116   6.495   1.639
  418SOL     OW 2152   4.686   6.215   0.214
  418SOL    HW1 2153   4.767   6.274   0.217
  418SOL    HW2 2154   4.708   6.132   0.163
  419SOL     OW 2155   0.727   0.613   1.085
  419SOL    HW1 2156   0.704   0.599   0.989
  419SOL    HW2 2157   0.755   0.708   1.099
  420SOL     OW 2158   6.114   3.749   1.333
  420SOL    HW1 2159   6.210   3.764   1.308
  420SOL    HW2 2160   6.064   3.834   1.323
  421SOL     OW 2161   1.371   4.895   6.252
  421SOL    HW1 2162   1.390   4.803   6.284
  421SOL    HW2 2163   1.330   4.949   6.326
  422SOL     OW 2164   5.854   4.631   0.463
  422SOL    HW1 2165   5.938   4.592   0.500
  422SOL    HW2 2166   5.876   4.710   0.406
  423SOL     OW 2167   6.333   3.314   0.375
  423SOL    HW1 2168   6.266   3.297   0.447
  423SOL    HW2 2169   6.331   3.410   0.349
  424SOL     OW 2170   3.127   3.719   0.165
  424SOL    HW1 2171   3.107   3.628   0.131
  424SOL    HW2 2172   3.193   3.713   0.240
  425SOL     OW 2173   5.378   1.580   1.871
  425SOL    HW1 2174   5.408   1.543   1.782
  425SOL    HW2 2175   5.434   1.660   1.893
  426SOL     OW 2176   5.320   2.682   5.414
  426SOL    HW1 2177   5.282   2.636   5.334
  426SOL    HW2 2178   5.331   2.616   5.488
  427SOL     OW 2179   5.338   4.468   2.017
  427SOL    HW1 2180   5.321   4.414   2.099
  427SOL    HW2 2181   5.301   4.420   1.938
  428SOL     OW 2182   4.352   0.551   5.400
  428SOL    HW1 2183   4.367   0.508   5.311
  428SOL    HW2 2184   4.306   0.486   5.461
  429SOL     OW 2185   2.349   5.005   0.659
  429SOL    HW1 2186   2.412   5.082   0.665
  429SOL    HW2 2187   2.283   5.010   0.734
  430SOL     OW 2188   1.986   6.365   4.429
  430SOL    HW1 2189   1.974   6.266   4.423
  430SOL    HW2 2190   1.909   6.404   4.479
  431SOL     OW 2191   3.202   1.281   6.836
  431SOL    HW1 2192   3.283   1.289   6.894
  431SOL    HW2 2193   3.200   1.357   6.771
  432SOL     OW 2194   0.024   2.331   0.432
  432SOL    HW1 2195   0.019   2.252   0.371
  432SOL    HW2 2196   6.962   2.384   0.427
  433SOL     OW 2197   2.337   0.273   4.254
  433SOL    HW1 2198   2.351   0.174   4.256
  433SOL    HW2 2199   2.425   0.320   4.245
  434SOL     OW 2200   5.288   4.907   1.275
  434SOL    HW1 2201   5.260   4.835   1.212
  434SOL    HW2 2202   5.365   4.957   1.237
  435SOL     OW 2203   3.652   2.833   5.587
  435SOL    HW1 2204   3.561   2.873   5.594
  435SOL    HW2 2205   3.721   2.905   5.597
  436SOL     OW 2206   1.615   0.097   0.915
  436SOL    HW1 2207   1.654   0.153   0.988
  436SOL    HW2 2208   1.645   0.132   0.826
  437SOL     OW 2209   0.087   0.350   6.473
  437SOL    HW1 2210   0.017   0.279   6.472
  437SOL    HW2 2211   0.148   0.339   6.394
  438SOL     OW 2212   2.229   2.632   2.067
  438SOL    HW1 2213   2.272   2.709   2.113
  438SOL    HW2 2214   2.143   2.609   2.113
  439SOL     OW 2215   6.036   4.570   3.454
  439SOL    HW1 2216   6.077   4.646   3.404
  439SOL    HW2 2217   6.054   4.581   3.552
  440SOL     OW 2218   1.182   2.107   4.492
  440SOL    HW1 2219   1.107   2.122   4.428
  440SOL    HW2 2220   1.184   2.181   4.559
  441SOL     OW 2221   0.931   1.736   3.071
  441SOL    HW1 2222   0.842   1.754   3.029
  441SOL    HW2 2223   0.985   1.676   3.011
  442SOL     OW 2224   0.494   4.355   0.170
  442SOL    HW1 2225   0.551   4.438   0.171
  442SOL    HW2 2226   0.468   4.331   0.264
  443SOL     OW 2227   1.051   4.441   4.676
  443SOL    HW1 2228   1.109   4.380   4.729
  443SOL    HW2 2229   1.084   4.445   4.582
  444SOL     OW 2230   4.901   3.171   6.203
  444SOL    HW1 2231   4.860   3.104   6.265
  444SOL    HW2 2232   4.850   3.257   6.208
  445SOL     OW 2233   1.849   5.388   3.088
  445SOL    HW1 2234   1.891   5.448   3.156
  445SOL    HW2 2235   1.907   5.385   3.006
  446SOL     OW 2236   4.017   4.846   3.623
  446SOL    HW1 2237   4.086   4.818   3.556
  446SOL    HW2 2238   4.054   4.918   3.681
  447SOL     OW 2239   0.373   4.454   6.255
  447SOL    HW1 2240   0.429   4.372   6.269
  447SOL    HW2 2241   0.405   4.504   6.175
  448SOL     OW 2242   3.531   0.602   5.006
  448SOL    HW1 2243   3.443   0.558   4.988
  448SOL    HW2 2244   3.590   0.539   5.056
  449SOL     OW 2245   4.986   0.755   5.234
  449SOL    HW1 2246   5.078   0.748   5.194
  449SOL    HW2 2247   4.984   0.708   5.322
  450SOL     OW 2248   0.450   5.996   3.258
  450SOL    HW1 2249   0.467   5.924   3.190
  450SOL    HW2 2250   0.405   5.956   3.338
  451SOL     OW 2251   1.081   2.266   2.282
  451SOL    HW1 2252   1.132   2.331   2.338
  451SOL    HW2 2253   1.064   2.305   2.192
  452SOL     OW 2254   6.763   5.896   0.128
  452SOL    HW1 2255   6.754   5.994   0.146
  452SOL    HW2 2256   6.836   5.881   0.061
  453SOL     OW 2257   3.134   0.869   6.428
  453SOL    HW1 2258   3.136   0.845   6.330
  453SOL    HW2 2259   3.043   0.899   6.453
  454SOL     OW 2260   6.934   5.990   6.155
  454SOL    HW1 2261   6.909   6.069   6.100
  454SOL    HW2 2262   0.009   5.993   6.176
  455SOL     OW 2263   6.812   0.377   4.303
  455SOL    HW1 2264   6.800   0.299   4.364
  455SOL    HW2 2265   6.888   0.434   4.335
  456SOL     OW 2266   4.513   6.154   5.315
  456SOL    HW1 2267   4.464   6.079   5.271
  456SOL    HW2 2268   4.508   6.236   5.258
  457SOL     OW 2269   2.121   3.495   3.428
  457SOL    HW1 2270   2.153   3.586   3.453
  457SOL    HW2 2271   2.168   3.465   3.345
  458SOL     OW 2272   5.453   5.681   5.247
  458SOL    HW1 2273   5.504   5.719   5.324
  458SOL    HW2 2274   5.470   5.737   5.165
  459SOL     OW 2275   1.517   0.400   3.857
  459SOL    HW1 2276   1.536   0.377   3.762
  459SOL    HW2 2277   1.558   0.332   3.917
  460SOL     OW 2278   0.341   1.159   2.540
  460SOL    HW1 2279   0.254   1.173   2.588
  460SOL    HW2 2280   0.328   1.091   2.468
  461SOL     OW 2281   5.176   6.993   4.543
  461SOL    HW1 2282   5.268   0.009   4.552
  461SOL    HW2 2283   5.112   0.022   4.599
  462SOL     OW 2284   4.307   2.328   5.844
  462SOL    HW1 2285   4.314   2.428   5.851
  462SOL    HW2 2286   4.211   2.302   5.835
  463SOL     OW 2287   6.109   5.848   3.063
  463SOL    HW1 2288   6.120   5.921   3.131
  463SOL    HW2 2289   6.184   5.851   2.998
  464SOL     OW 2290   2.868   1.881   6.264
  464SOL    HW1 2291   2.783   1.854   6.220
  464SOL    HW2 2292   2.933   1.913   6.196
  465SOL     OW 2293   1.257   1.832   4.445
  465SOL    HW1 2294   1.206   1.823   4.359
  465SOL    HW2 2295   1.254   1.927   4.475
  466SOL     OW 2296   0.041   5.799   3.426
  466SOL    HW1 2297   0.133   5.792   3.463
  466SOL    HW2 2298   7.002   5.740   3.477
  467SOL     OW 2299   1.070   0.440   6.380
  467SOL    HW1 2300   1.111   0.531   6.388
  467SOL    HW2 2301   1.130   0.373   6.426
  468SOL     OW 2302   3.189   6.178   0.562
  468SOL    HW1 2303   3.156   6.240   0.491
  468SOL    HW2 2304   3.229   6.097   0.519
  469SOL     OW 2305   3.186   4.450   0.569
  469SOL    HW1 2306   3.153   4.460   0.475
  469SOL    HW2 2307   3.128   4.503   0.631
  470SOL     OW 2308   3.197   0.686   2.598
  470SOL    HW1 2309   3.138   0.741   2.658
  470SOL    HW2 2310   3.152   0.599   2.577
  471SOL     OW 2311   1.739   2.185   4.693
  471SOL    HW1 2312   1.640   2.200   4.685
  471SOL    HW2 2313   1.761   2.092   4.665
  472SOL     OW 2314   4.659   3.566   6.692
  472SOL    HW1 2315   4.691   3.612   6.775
  472SOL    HW2 2316   4.627   3.635   6.626
  473SOL     OW 2317   0.385   2.716   1.235
  473SOL    HW1 2318   0.426   2.664   1.310
  473SOL    HW2 2319   0.403   2.669   1.148
  474SOL     OW 2320   4.631   5.186   4.104
  474SOL    HW1 2321   4.725   5.221   4.114
  474SOL    HW2 2322   4.568   5.263   4.097
  475SOL     OW 2323   6.134   0.929   6.901
  475SOL    HW1 2324   6.189   0.979   6.834
  475SOL    HW2 2325   6.193   0.897   6.976
  476SOL     OW 2326   6.976   3.709   2.371
  476SOL    HW1 2327   7.019   3.788   2.326
  476SOL    HW2 2328   0.009   3.628   2.355
  477SOL     OW 2329   2.402   4.860   5.057
  477SOL    HW1 2330   2.484   4.809   5.031
  477SOL    HW2 2331   2.367   4.825   5.144
  478SOL     OW 2332   3.018   6.276   2.229
  478SOL    HW1 2333   3.006   6.210   2.303
  478SOL    HW2 2334   2.943   6.343   2.232
  479SOL     OW 2335   4.553   2.040   7.005
  479SOL    HW1 2336   4.479   2.051   0.048
  479SOL    HW2 2337   4.517   2.005   6.919
  480SOL     OW 2338   1.963   0.153   6.971
  480SOL    HW1 2339   2.011   0.199   6.896
  480SOL    HW2 2340   1.931   0.221   0.014
  481SOL     OW 2341   2.034   6.729   0.748
  481SOL    HW1 2342   2.111   6.790   0.729
  481SOL    HW2 2343   2.036   6.653   0.684
  482SOL     OW 2344   4.634   4.361   2.591
  482SOL    HW1 2345   4.673   4.276   2.555
  482SOL    HW2 2346   4.620   4.425   2.515
  483SOL     OW 2347   5.517   2.618   1.535
  483SOL    HW1 2348   5.511   2.718   1.539
  483SOL    HW2 2349   5.425   2.580   1.521
  484SOL     OW 2350   1.243   2.676   5.004
  484SOL    HW1 2351   1.206   2.651   5.094
  484SOL    HW2 2352   1.279   2.594   4.959
  485SOL     OW 2353   4.167   5.753   2.026
  485SOL    HW1 2354   4.252   5.794   1.992
  485SOL    HW2 2355   4.144   5.793   2.115
  486SOL     OW 2356   0.355   1.949   0.927
  486SOL    HW1 2357   0.367   1.917   1.021
  486SOL    HW2 2358   0.444   1.968   0.887
  487SOL     OW 2359   0.618   1.596   6.598
  487SOL    HW1 2360   0.679   1.671   6.622
  487SOL    HW2 2361   0.637   1.566   6.504
  488SOL     OW 2362   0.577   1.026   1.803
  488SOL    HW1 2363   0.521   1.102   1.836
  488SOL    HW2 2364   0.527   0.940   1.815
  489SOL     OW 2365   3.507   5.897   0.045
  489SOL    HW1 2366   3.540   5.949   6.989
  489SOL    HW2 2367   3.408   5.886   0.038
  490SOL     OW 2368   6.781   6.177   4.154
  490SOL    HW1 2369   6.865   6.155   4.204
  490SOL    HW2 2370   6.771   6.114   4.078
  491SOL     OW 2371   7.004   2.284   3.061
  491SOL    HW1 2372   0.065   2.313   3.107
  491SOL    HW2 2373   0.001   2.205   3.003
  492SOL     OW 2374   3.275   0.261   5.010
  492SOL    HW1 2375   3.333   0.200   4.957
  492SOL    HW2 2376   3.229   0.210   5.082
  493SOL     OW 2377   5.638   5.937   5.829
  493SOL    HW1 2378   5.550   5.891   5.837
  493SOL    HW2 2379   5.624   6.031   5.799
  494SOL     OW 2380   0.454   6.656   7.009
  494SOL    HW1 2381   0.540   6.688   0.024
  494SOL    HW2 2382   0.433   6.707   6.926
  495SOL     OW 2383   5.295   6.066   3.033
  495SOL    HW1 2384   5.349   5.984   3.015
  495SOL    HW2 2385   5.350   6.132   3.085
  496SOL     OW 2386   5.205   3.403   2.844
  496SOL    HW1 2387   5.186   3.306   2.860
  496SOL    HW2 2388   5.145   3.437   2.772
  497SOL     OW 2389   3.475   1.517   5.660
  497SOL    HW1 2390   3.500   1.547   5.568
  497SOL    HW2 2391   3.420   1.434   5.654
  498SOL     OW 2392   1.706   4.273   1.819
  498SOL    HW1 2393   1.687   4.175   1.826
  498SOL    HW2 2394   1.772   4.299   1.890
  499SOL     OW 2395   2.734   0.453   4.122
  499SOL    HW1 2396   2.798   0.396   4.071
  499SOL    HW2 2397   2.724   0.542   4.077
  500SOL     OW 2398   0.927   4.022   3.207
  500SOL    HW1 2399   0.908   4.112   3.167
  500SOL    HW2 2400   0.969   3.964   3.137
  501SOL     OW 2401   3.406   0.572   0.514
  501SOL    HW1 2402   3.429   0.580   0.611
  501SOL    HW2 2403   3.324   0.626   0.495
  502SOL     OW 2404   6.102   4.488   6.505
  502SOL    HW1 2405   6.116   4.404   6.557
  502SOL    HW2 2406   6.117   4.469   6.408
  503SOL     OW 2407   5.620   5.379   6.007
  503SOL    HW1 2408   5.705   5.353   5.960
  503SOL    HW2 2409   5.627   5.354   6.104
  504SOL     OW 2410   3.070   6.333   3.402
  504SOL    HW1 2411   3.150   6.274   3.412
  504SOL    HW2 2412   3.088   6.421   3.446
  505SOL     OW 2413   3.751   0.478   6.026
  505SOL    HW1 2414   3.725   0.550   6.090
  505SOL    HW2 2415   3.669   0.445   5.979
  506SOL     OW 2416   1.900   5.326   4.768
  506SOL    HW1 2417   1.897   5.257   4.840
  506SOL    HW2 2418   1.932   5.413   4.806
  507SOL     OW 2419   3.719   0.220   4.025
  507SOL    HW1 2420   3.682   0.276   3.950
  507SOL    HW2 2421   3.819   0.217   4.017
  508SOL     OW 2422   6.582   3.978   2.952
  508SOL    HW1 2423   6.643   3.938   2.884
  508SOL    HW2 2424   6.560   4.072   2.925
  509SOL     OW 2425   3.088   1.334   1.825
  509SOL    HW1 2426   3.120   1.335   1.920
  509SOL    HW2 2427   3.136   1.404   1.773
  510SOL     OW 2428   6.505   4.976   5.931
  510SOL    HW1 2429   6.515   4.981   5.831
  510SOL    HW2 2430   6.408   4.984   5.955
  511SOL     OW 2431   0.217   6.489   0.055
  511SOL    HW1 2432   0.289   6.558   0.069
  511SOL    HW2 2433   0.129   6.535   0.046
  512SOL     OW 2434   0.312   3.078   0.400
  512SOL    HW1 2435   0.225   3.126   0.389
  512SOL    HW2 2436   0.347   3.051   0.310
  513SOL     OW 2437   5.901   6.330   3.121
  513SOL    HW1 2438   5.881   6.421   3.156
  513SOL    HW2 2439   5.951   6.336   3.035
  514SOL     OW 2440   6.576   2.350   4.061
  514SOL    HW1 2441   6.575   2.281   3.989
  514SOL    HW2 2442   6.602   2.439   4.021
  515SOL     OW 2443   2.029   0.158   6.007
  515SOL    HW1 2444   2.067   0.250   6.009
  515SOL    HW2 2445   2.088   0.099   5.951
  516SOL     OW 2446   2.664   4.501   1.684
  516SOL    HW1 2447   2.756   4.491   1.721
  516SOL    HW2 2448   2.608   4.553   1.749
  517SOL     OW 2449   5.389   5.962   2.199
  517SOL    HW1 2450   5.338   6.014   2.267
  517SOL    HW2 2451   5.344   5.874   2.184
  518SOL     OW 2452   3.128   2.125   2.021
  518SOL    HW1 2453   3.058   2.195   2.040
  518SOL    HW2 2454   3.167   2.141   1.931
  519SOL     OW 2455   6.866   0.860   4.951
  519SOL    HW1 2456   6.861   0.887   5.047
  519SOL    HW2 2457   6.779   0.821   4.922
  520SOL     OW 2458   5.695   4.829   6.547
  520SOL    HW1 2459   5.758   4.756   6.574
  520SOL    HW2 2460   5.648   4.804   6.463
  521SOL     OW 2461   6.364   2.813   6.530
  521SOL    HW1 2462   6.265   2.821   6.537
  521SOL    HW2 2463   6.400   2.764   6.610
  522SOL     OW 2464   4.015   2.840   5.377
  522SOL    HW1 2465   4.023   2.745   5.409
  522SOL    HW2 2466   4.105   2.883   5.380
  523SOL     OW 2467   0.415   4.953   3.620
  523SOL    HW1 2468   0.422   4.883   3.549
  523SOL    HW2 2469   0.333   5.008   3.605
  524SOL     OW 2470   2.540   1.344   6.573
  524SOL    HW1 2471   2.485   1.368   6.653
  524SOL    HW2 2472   2.635   1.330   6.600
  525SOL     OW 2473   2.813   3.215   6.581
  525SOL    HW1 2474   2.799   3.211   6.482
  525SOL    HW2 2475   2.729   3.247   6.625
  526SOL     OW 2476   2.966   7.004   4.988
  526SOL    HW1 2477   3.009   6.993   4.898
  526SOL    HW2 2478   3.026   0.035   5.047
  527SOL     OW 2479   5.877   3.284   6.299
  527SOL    HW1 2480   5.974   3.268   6.318
  527SOL    HW2 2481   5.866   3.320   6.207
  528SOL     OW 2482   1.345   1.769   3.787
  528SOL    HW1 2483   1.323   1.840   3.721
  528SOL    HW2 2484   1.299   1.788   3.874
  529SOL     OW 2485   0.200   5.469   4.626
  529SOL    HW1 2486   0.231   5.377   4.603
  529SOL    HW2 2487   0.278   5.525   4.654
  530SOL     OW 2488   2.636   2.942   5.392
  530SOL    HW1 2489   2.607   2.986   5.477
  530SOL    HW2 2490   2.592   2.987   5.315
  531SOL     OW 2491   6.905   1.012   1.657
  531SOL    HW1 2492   6.832   0.973   1.712
  531SOL    HW2 2493   6.988   1.020   1.712
  532SOL     OW 2494   0.424   2.933   6.234
  532SOL    HW1 2495   0.382   2.846   6.260
  532SOL    HW2 2496   0.357   2.988   6.183
  533SOL     OW 2497   4.914   5.628   4.262
  533SOL    HW1 2498   4.998   5.600   4.308
  533SOL    HW2 2499   4.857   5.682   4.324
  534SOL     OW 2500   5.491   5.263   3.373
  534SOL    HW1 2501   5.426   5.338   3.378
  534SOL    HW2 2502   5.510   5.229   3.465
  535SOL     OW 2503   1.087   4.112   4.434
  535SOL    HW1 2504   0.997   4.155   4.424
  535SOL    HW2 2505   1.157   4.183   4.442
  536SOL     OW 2506   6.797   5.238   2.132
  536SOL    HW1 2507   6.851   5.300   2.189
  536SOL    HW2 2508   6.858   5.187   2.072
  537SOL     OW 2509   2.121   6.347   3.804
  537SOL    HW1 2510   2.028   6.383   3.791
  537SOL    HW2 2511   2.123   6.288   3.885
  538SOL     OW 2512   1.861   5.900   3.680
  538SOL    HW1 2513   1.871   5.852   3.768
  538SOL    HW2 2514   1.951   5.920   3.643
  539SOL     OW 2515   0.384   5.807   0.331
  539SOL    HW1 2516   0.288   5.777   0.334
  539SOL    HW2 2517   0.391   5.886   0.270
  540SOL     OW 2518   0.404   1.722   1.988
  540SOL    HW1 2519   0.428   1.810   1.947
  540SOL    HW2 2520   0.377   1.658   1.917
  541SOL     OW 2521   2.839   6.455   4.451
  541SOL    HW1 2522   2.911   6.513   4.489
  541SOL    HW2 2523   2.875   6.403   4.373
  542SOL     OW 2524   6.499   6.711   6.972
  542SOL    HW1 2525   6.422   6.762   6.934
  542SOL    HW2 2526   6.466   6.639   0.009
  543SOL     OW 2527   0.510   5.084   5.583
  543SOL    HW1 2528   0.431   5.142   5.560
  543SOL    HW2 2529   0.561   5.126   5.657
  544SOL     OW 2530   1.292   4.461   1.000
  544SOL    HW1 2531   1.332   4.378   0.961
  544SOL    HW2 2532   1.329   4.476   1.092
  545SOL     OW 2533   3.817   1.593   3.242
  545SOL    HW1 2534   3.862   1.532   3.177
  545SOL    HW2 2535   3.761   1.539   3.305
  546SOL     OW 2536   1.600   3.435   1.627
  546SOL    HW1 2537   1.699   3.431   1.643
  546SOL    HW2 2538   1.570   3.530   1.627
  547SOL     OW 2539   2.592   1.521   6.843
  547SOL    HW1 2540   2.666   1.564   6.895
  547SOL    HW2 2541   2.575   1.573   6.759
  548SOL     OW 2542   3.705   2.970   2.997
  548SOL    HW1 2543   3.799   2.990   2.969
  548SOL    HW2 2544   3.655   3.056   3.008
  549SOL     OW 2545   4.295   3.670   1.672
  549SOL    HW1 2546   4.345   3.693   1.589
  549SOL    HW2 2547   4.253   3.753   1.709
  550SOL     OW 2548   0.030   3.218   3.133
  550SOL    HW1 2549   6.981   3.215   3.203
  550SOL    HW2 2550   0.106   3.276   3.165
  551SOL     OW 2551   0.143   1.790   0.815
  551SOL    HW1 2552   0.222   1.824   0.867
  551SOL    HW2 2553   0.113   1.702   0.853
  552SOL     OW 2554   3.683   5.726   0.610
  552SOL    HW1 2555   3.603   5.666   0.608
  552SOL    HW2 2556   3.757   5.685   0.555
  553SOL     OW 2557   1.738   6.626   2.845
  553SOL    HW1 2558   1.731   6.692   2.770
  553SOL    HW2 2559   1.823   6.574   2.835
  554SOL     OW 2560   5.203   0.194   6.326
  554SOL    HW1 2561   5.223   0.111   6.275
  554SOL    HW2 2562   5.234   0.274   6.274
  555SOL     OW 2563   2.171   5.260   4.079
  555SOL    HW1 2564   2.102   5.332   4.086
  555SOL    HW2 2565   2.126   5.171   4.082
  556SOL     OW 2566   6.209   2.331   4.339
  556SOL    HW1 2567   6.127   2.278   4.361
  556SOL    HW2 2568   6.225   2.399   4.411
  557SOL     OW 2569   0.139   6.103   6.708
  557SOL    HW1 2570   0.058   6.048   6.688
  557SOL    HW2 2571   0.122   6.160   6.788
  558SOL     OW 2572   4.196   3.668   5.091
  558SOL    HW1 2573   4.140   3.587   5.073
  558SOL    HW2 2574   4.283   3.660   5.044
  559SOL     OW 2575   6.495   6.319   6.586
  559SOL    HW1 2576   6.483   6.256   6.663
  559SOL    HW2 2577   6.507   6.412   6.621
  560SOL     OW 2578   3.539   6.421   0.864
  560SOL    HW1 2579   3.490   6.376   0.939
  560SOL    HW2 2580   3.500   6.392   0.777
  561SOL     OW 2581   5.881   6.990   6.265
  561SOL    HW1 2582   5.845   6.904   6.300
  561SOL    HW2 2583   5.944   6.972   6.189
  562SOL     OW 2584   4.694   0.986   6.345
  562SOL    HW1 2585   4.623   1.055   6.359
  562SOL    HW2 2586   4.691   0.952   6.251
  563SOL     OW 2587   2.862   6.714   3.311
  563SOL    HW1 2588   2.837   6.618   3.296
  563SOL    HW2 2589   2.790   6.759   3.364
  564SOL     OW 2590   2.258   2.407   6.086
  564SOL    HW1 2591   2.178   2.348   6.076
  564SOL    HW2 2592   2.272   2.429   6.183
  565SOL     OW 2593   4.622   3.100   5.512
  565SOL    HW1 2594   4.577   3.021   5.471
  565SOL    HW2 2595   4.628   3.089   5.611
  566SOL     OW 2596   4.444   4.513   3.668
  566SOL    HW1 2597   4.435   4.599   3.718
  566SOL    HW2 2598   4.460   4.533   3.571
  567SOL     OW 2599   3.234   3.405   4.181
  567SOL    HW1 2600   3.274   3.446   4.100
  567SOL    HW2 2601   3.307   3.376   4.243
  568SOL     OW 2602   3.681   2.407   1.251
  568SOL    HW1 2603   3.774   2.376   1.267
  568SOL    HW2 2604   3.682   2.485   1.188
  569SOL     OW 2605   1.422   3.101   0.817
  569SOL    HW1 2606   1.497   3.057   0.866
  569SOL    HW2 2607   1.351   3.033   0.797
  570SOL     OW 2608   1.261   6.371   0.242
  570SOL    HW1 2609   1.234   6.452   0.190
  570SOL    HW2 2610   1.332   6.322   0.192
  571SOL     OW 2611   3.004   6.079   2.441
  571SOL    HW1 2612   2.963   5.987   2.439
  571SOL    HW2 2613   3.066   6.085   2.519
  572SOL     OW 2614   2.386   4.447   5.764
  572SOL    HW1 2615   2.398   4.511   5.688
  572SOL    HW2 2616   2.326   4.487   5.833
  573SOL     OW 2617   3.373   1.568   5.277
  573SOL    HW1 2618   3.358   1.599   5.183
  573SOL    HW2 2619   3.286   1.572   5.327
  574SOL     OW 2620   2.247   2.341   4.698
  574SOL    HW1 2621   2.312   2.396   4.645
  574SOL    HW2 2622   2.170   2.316   4.640
  575SOL     OW 2623   6.241   4.010   0.394
  575SOL    HW1 2624   6.266   4.106   0.388
  575SOL    HW2 2625   6.180   3.987   0.318
  576SOL     OW 2626   1.152   2.284   1.834
  576SOL    HW1 2627   1.157   2.193   1.875
  576SOL    HW2 2628   1.076   2.287   1.769
  577SOL     OW 2629   2.641   1.409   3.735
  577SOL    HW1 2630   2.548   1.419   3.702
  577SOL    HW2 2631   2.641   1.353   3.818
  578SOL     OW 2632   6.907   3.399   3.597
  578SOL    HW1 2633   6.822   3.449   3.579
  578SOL    HW2 2634   6.956   3.443   3.672
  579SOL     OW 2635   4.005   2.005   1.474
  579SOL    HW1 2636   4.057   2.032   1.555
  579SOL    HW2 2637   3.965   1.914   1.489
  580SOL     OW 2638   0.843   4.609   6.038
  580SOL    HW1 2639   0.804   4.694   6.003
  580SOL    HW2 2640   0.800   4.531   5.993
  581SOL     OW 2641   3.630   2.898   3.294
  581SOL    HW1 2642   3.631   2.872   3.198
  581SOL    HW2 2643   3.542   2.874   3.334
  582SOL     OW 2644   5.811   3.993   2.355
  582SOL    HW1 2645   5.722   3.947   2.356
  582SOL    HW2 2646   5.841   4.008   2.449
  583SOL     OW 2647   2.776   4.700   0.153
  583SOL    HW1 2648   2.744   4.714   0.060
  583SOL    HW2 2649   2.764   4.784   0.206
  584SOL     OW 2650   0.356   4.869   5.533
  584SOL    HW1 2651   0.282   4.897   5.472
  584SOL    HW2 2652   0.412   4.949   5.556
  585SOL     OW 2653   6.862   2.767   6.195
  585SOL    HW1 2654   6.815   2.691   6.239
  585SOL    HW2 2655   6.872   2.749   6.097
  586SOL     OW 2656   3.089   6.633   0.372
  586SOL    HW1 2657   3.015   6.698   0.354
  586SOL    HW2 2658   3.080   6.599   0.466
  587SOL     OW 2659   2.027   1.758   4.944
  587SOL    HW1 2660   1.964   1.834   4.963
  587SOL    HW2 2661   2.007   1.682   5.005
  588SOL     OW 2662   3.667   0.103   1.226
  588SOL    HW1 2663   3.747   0.048   1.250
  588SOL    HW2 2664   3.628   0.069   1.140
  589SOL     OW 2665   3.725   5.031   1.685
  589SOL    HW1 2666   3.679   5.119   1.677
  589SOL    HW2 2667   3.822   5.041   1.666
  590SOL     OW 2668   0.294   2.438   2.328
  590SOL    HW1 2669   0.377   2.489   2.350
  590SOL    HW2 2670   0.234   2.494   2.271
  591SOL     OW 2671   4.336   7.013   3.392
  591SOL    HW1 2672   4.289   7.020   3.304
  591SOL    HW2 2673   4.276   6.968   3.459
  592SOL     OW 2674   4.817   1.098   0.384
  592SOL    HW1 2675   4.840   1.147   0.468
  592SOL    HW2 2676   4.773   1.161   0.320
  593SOL     OW 2677   4.201   2.326   3.983
  593SOL    HW1 2678   4.105   2.338   4.009
  593SOL    HW2 2679   4.212   2.238   3.936
  594SOL     OW 2680   4.381   2.967   6.659
  594SOL    HW1 2681   4.406   2.909   6.582
  594SOL    HW2 2682   4.360   2.911   6.739
  595SOL     OW 2683   4.027   6.711   4.344
  595SOL    HW1 2684   3.948   6.768   4.365
  595SOL    HW2 2685   4.042   6.710   4.245
  596SOL     OW 2686   1.082   3.809   2.098
  596SOL    HW1 2687   1.168   3.859   2.109
  596SOL    HW2 2688   1.005   3.873   2.099
  597SOL     OW 2689   3.931   6.897   6.732
  597SOL    HW1 2690   3.992   6.848   6.669
  597SOL    HW2 2691   3.848   6.844   6.746
  598SOL     OW 2692   4.159   4.708   0.320
  598SOL    HW1 2693   4.224   4.674   0.388
  598SOL    HW2 2694   4.093   4.768   0.365
  599SOL     OW 2695   0.266   0.361   2.397
  599SOL    HW1 2696   0.322   0.296   2.345
  599SOL    HW2 2697   0.326   0.423   2.447
  600SOL     OW 2698   0.982   6.497   0.775
  600SOL    HW1 2699   1.061   6.446   0.809
  600SOL    HW2 2700   0.972   6.581   0.828
  601SOL     OW 2701   2.849   5.894   3.599
  601SOL    HW1 2702   2.908   5.816   3.619
  601SOL    HW2 2703   2.801   5.878   3.512
  602SOL     OW 2704   0.985   0.415   0.627
  602SOL    HW1 2705   0.963   0.342   0.691
  602SOL    HW2 2706   1.079   0.403   0.593
  603SOL     OW 2707   3.671   1.788   3.351
  603SOL    HW1 2708   3.724   1.735   3.284
  603SOL    HW2 2709   3.652   1.732   3.431
  604SOL     OW 2710   1.374   3.028   0.180
  604SOL    HW1 2711   1.349   3.079   0.097
  604SOL    HW2 2712   1.474   3.018   0.184
  605SOL     OW 2713   6.999   6.022   3.277
  605SOL    HW1 2714   7.004   5.934   3.323
  605SOL    HW2 2715   0.069   6.057   3.263
  606SOL     OW 2716   4.410   0.614   4.637
  606SOL    HW1 2717   4.337   0.595   4.571
  606SOL    HW2 2718   4.435   0.530   4.685
  607SOL     OW 2719   5.723   1.242   4.019
  607SOL    HW1 2720   5.759   1.317   4.073
  607SOL    HW2 2721   5.798   1.187   3.983
  608SOL     OW 2722   3.037   0.439   0.814
  608SOL    HW1 2723   2.988   0.353   0.795
  608SOL    HW2 2724   3.006   0.509   0.749
  609SOL     OW 2725   3.370   2.970   4.793
  609SOL    HW1 2726   3.443   2.925   4.844
  609SOL    HW2 2727   3.387   2.960   4.695
  610SOL     OW 2728   5.210   2.482   3.654
  610SOL    HW1 2729   5.224   2.448   3.561
  610SOL    HW2 2730   5.250   2.418   3.719
  611SOL     OW 2731   0.325   0.477   6.901
  611SOL    HW1 2732   0.418   0.505   6.923
  611SOL    HW2 2733   0.318   0.457   6.804
  612SOL     OW 2734   3.691   5.218   6.078
  612SOL    HW1 2735   3.607   5.260   6.044
  612SOL    HW2 2736   3.752   5.197   6.002
  613SOL     OW 2737   3.942   1.354   5.778
  613SOL    HW1 2738   3.900   1.409   5.851
  613SOL    HW2 2739   3.966   1.414   5.702
  614SOL     OW 2740   6.048   4.753   0.749
  614SOL    HW1 2741   6.043   4.846   0.712
  614SOL    HW2 2742   5.972   4.698   0.712
  615SOL     OW 2743   0.664   0.026   6.951
  615SOL    HW1 2744   0.586   0.030   7.014
  615SOL    HW2 2745   0.663   0.106   6.891
  616SOL     OW 2746   5.626   2.227   4.362
  616SOL    HW1 2747   5.536   2.199   4.328
  616SOL    HW2 2748   5.687   2.244   4.285
  617SOL     OW 2749   0.390   4.500   5.913
  617SOL    HW1 2750   0.372   4.558   5.833
  617SOL    HW2 2751   0.405   4.558   5.993
  618SOL     OW 2752   6.354   3.241   1.643
  618SOL    HW1 2753   6.278   3.278   1.696
  618SOL    HW2 2754   6.441   3.277   1.679
  619SOL     OW 2755   3.011   0.943   0.057
  619SOL    HW1 2756   3.083   0.914   7.016
  619SOL    HW2 2757   3.052   0.994   0.132
  620SOL     OW 2758   5.563   3.484   2.194
  620SOL    HW1 2759   5.555   3.558   2.128
  620SOL    HW2 2760   5.647   3.494   2.247
  621SOL     OW 2761   3.020   0.021   6.034
  621SOL    HW1 2762   2.992   6.948   6.037
  621SOL    HW2 2763   3.010   0.062   6.125
  622SOL     OW 2764   1.142   2.567   5.242
  622SOL    HW1 2765   1.056   2.538   5.201
  622SOL    HW2 2766   1.137   2.556   5.342
  623SOL     OW 2767   6.515   6.530   4.416
  623SOL    HW1 2768   6.473   6.603   4.362
  623SOL    HW2 2769   6.541   6.455   4.355
  624SOL     OW 2770   6.314   1.574   6.730
  624SOL    HW1 2771   6.300   1.657   6.785
  624SOL    HW2 2772   6.412   1.557   6.719
  625SOL     OW 2773   2.056   0.868   0.144
  625SOL    HW1 2774   2.138   0.925   0.142
  625SOL    HW2 2775   2.061   0.804   0.221
  626SOL     OW 2776   1.411   5.749   3.717
  626SOL    HW1 2777   1.463   5.783   3.639
  626SOL    HW2 2778   1.473   5.725   3.792
  627SOL     OW 2779   6.177   6.672   0.027
  627SOL    HW1 2780   6.217   6.581   0.014
  627SOL    HW2 2781   6.199   6.706   0.118
  628SOL     OW 2782   5.395   4.182   5.280
  628SOL    HW1 2783   5.491   4.171   5.303
  628SOL    HW2 2784   5.349   4.238   5.349
  629SOL     OW 2785   7.004   0.640   0.063
  629SOL    HW1 2786   6.940   0.673   7.016
  629SOL    HW2 2787   7.002   0.701   0.142
  630SOL     OW 2788   6.775   1.093   1.029
  630SOL    HW1 2789   6.749   1.033   0.953
  630SOL    HW2 2790   6.695   1.142   1.062
  631SOL     OW 2791   2.555   2.553   5.030
  631SOL    HW1 2792   2.488   2.626   5.020
  631SOL    HW2 2793   2.607   2.567   5.115
  632SOL     OW 2794   4.967   3.014   0.497
  632SOL    HW1 2795   4.933   2.942   0.436
  632SOL    HW2 2796   5.064   3.031   0.477
  633SOL     OW 2797   1.682   4.970   1.133
  633SOL    HW1 2798   1.592   5.004   1.104
  633SOL    HW2 2799   1.744   4.968   1.055
  634SOL     OW 2800   3.101   3.376   3.878
  634SOL    HW1 2801   3.023   3.434   3.906
  634SOL    HW2 2802   3.185   3.415   3.914
  635SOL     OW 2803   5.131   1.100   6.738
  635SOL    HW1 2804   5.055   1.135   6.683
  635SOL    HW2 2805   5.174   1.175   6.787
  636SOL     OW 2806   3.047   0.354   5.819
  636SOL    HW1 2807   3.108   0.421   5.778
  636SOL    HW2 2808   3.088   0.263   5.813
  637SOL     OW 2809   6.268   1.268   2.292
  637SOL    HW1 2810   6.273   1.180   2.339
  637SOL    HW2 2811   6.254   1.251   2.194
  638SOL     OW 2812   5.805   3.507   3.849
  638SOL    HW1 2813   5.880   3.489   3.785
  638SOL    HW2 2814   5.812   3.445   3.927
  639SOL     OW 2815   5.551   5.159   2.867
  639SOL    HW1 2816   5.560   5.164   2.967
  639SOL    HW2 2817   5.464   5.202   2.840
  640SOL     OW 2818   0.041   2.831   2.839
  640SOL    HW1 2819   0.035   2.731   2.838
  640SOL    HW2 2820   6.993   2.869   2.779
  641SOL     OW 2821   2.051   4.876   5.145
  641SOL    HW1 2822   2.054   4.954   5.081
  641SOL    HW2 2823   2.011   4.797   5.099
  642SOL     OW 2824   1.060   3.615   4.691
  642SOL    HW1 2825   1.025   3.684   4.755
  642SOL    HW2 2826   1.075   3.657   4.602
  643SOL     OW 2827   5.626   6.658   6.998
  643SOL    HW1 2828   5.621   6.626   0.070
  643SOL    HW2 2829   5.547   6.716   6.978
  644SOL     OW 2830   0.546   0.652   4.552
  644SOL    HW1 2831   0.508   0.721   4.491
  644SOL    HW2 2832   0.502   0.659   4.642
  645SOL     OW 2833   3.801   4.947   2.844
  645SOL    HW1 2834   3.734   4.975   2.776
  645SOL    HW2 2835   3.754   4.904   2.921
  646SOL     OW 2836   3.744   0.895   5.296
  646SOL    HW1 2837   3.741   0.797   5.317
  646SOL    HW2 2838   3.811   0.940   5.354
  647SOL     OW 2839   5.020   2.072   4.485
  647SOL    HW1 2840   4.950   2.038   4.548
  647SOL    HW2 2841   4.988   2.156   4.442
  648SOL     OW 2842   6.225   1.841   2.647
  648SOL    HW1 2843   6.298   1.842   2.579
  648SOL    HW2 2844   6.136   1.846   2.601
  649SOL     OW 2845   2.566   4.732   0.452
  649SOL    HW1 2846   2.573   4.643   0.498
  649SOL    HW2 2847   2.656   4.775   0.449
  650SOL     OW 2848   6.519   5.727   0.642
  650SOL    HW1 2849   6.583   5.800   0.667
  650SOL    HW2 2850   6.554   5.680   0.561
  651SOL     OW 2851   1.512   0.376   5.530
  651SOL    HW1 2852   1.528   0.474   5.520
  651SOL    HW2 2853   1.570   0.340   5.603
  652SOL     OW 2854   4.308   0.918   2.248
  652SOL    HW1 2855   4.365   1.001   2.252
  652SOL    HW2 2856   4.212   0.944   2.236
  653SOL     OW 2857   6.514   6.314   0.600
  653SOL    HW1 2858   6.435   6.272   0.644
  653SOL    HW2 2859   6.534   6.402   0.644
  654SOL     OW 2860   6.781   6.437   5.544
  654SOL    HW1 2861   6.703   6.380   5.517
  654SOL    HW2 2862   6.836   6.458   5.463
  655SOL     OW 2863   6.998   5.063   2.061
  655SOL    HW1 2864   0.012   4.976   2.095
  655SOL    HW2 2865   0.046   5.133   2.067
  656SOL     OW 2866   3.427   6.293   0.642
  656SOL    HW1 2867   3.453   6.335   0.555
  656SOL    HW2 2868   3.332   6.260   0.636
  657SOL     OW 2869   3.710   3.269   1.984
  657SOL    HW1 2870   3.625   3.229   2.019
  657SOL    HW2 2871   3.772   3.195   1.957
  658SOL     OW 2872   2.192   4.026   4.536
  658SOL    HW1 2873   2.180   4.012   4.635
  658SOL    HW2 2874   2.179   3.938   4.489
  659SOL     OW 2875   3.804   6.320   5.821
  659SOL    HW1 2876   3.840   6.251   5.884
  659SOL    HW2 2877   3.712   6.295   5.793
  660SOL     OW 2878   5.070   4.620   2.725
  660SOL    HW1 2879   5.052   4.718   2.713
  660SOL    HW2 2880   4.999   4.580   2.784
  661SOL     OW 2881   5.000   4.449   4.127
  661SOL    HW1 2882   4.994   4.378   4.197
  661SOL    HW2 2883   4.990   4.407   4.037
  662SOL     OW 2884   4.754   2.702   6.723
  662SOL    HW1 2885   4.760   2.604   6.707
  662SOL    HW2 2886   4.693   2.720   6.800
  663SOL     OW 2887   6.774   4.266   7.011
  663SOL    HW1 2888   6.822   4.342   0.032
  663SOL    HW2 2889   6.840   4.199   6.978
  664SOL     OW 2890   1.710   5.932   6.049
  664SOL    HW1 2891   1.650   6.003   6.012
  664SOL    HW2 2892   1.794   5.928   5.995
  665SOL     OW 2893   3.598   5.501   1.440
  665SOL    HW1 2894   3.625   5.408   1.413
  665SOL    HW2 2895   3.501   5.501   1.466
  666SOL     OW 2896   3.894   2.013   0.328
  666SOL    HW1 2897   3.957   1.994   0.404
  666SOL    HW2 2898   3.809   1.963   0.343
  667SOL     OW 2899   0.511   2.877   3.922
  667SOL    HW1 2900   0.580   2.809   3.949
  667SOL    HW2 2901   0.420   2.836   3.926
  668SOL     OW 2902   4.777   6.601   0.036
  668SOL    HW1 2903   4.707   6.627   6.992
  668SOL    HW2 2904   4.746   6.624   0.128
  669SOL     OW 2905   1.175   6.928   3.342
  669SOL    HW1 2906   1.097   6.990   3.333
  669SOL    HW2 2907   1.151   6.854   3.405
  670SOL     OW 2908   3.292   3.631   2.695
  670SOL    HW1 2909   3.249   3.637   2.786
  670SOL    HW2 2910   3.225   3.594   2.630
  671SOL     OW 2911   1.622   6.152   5.916
  671SOL    HW1 2912   1.698   6.217   5.907
  671SOL    HW2 2913   1.590   6.125   5.825
  672SOL     OW 2914   1.024   2.894   4.340
  672SOL    HW1 2915   0.970   2.977   4.326
  672SOL    HW2 2916   1.107   2.917   4.390
  673SOL     OW 2917   4.843   0.601   6.904
  673SOL    HW1 2918   4.750   0.627   6.876
  673SOL    HW2 2919   4.851   0.612   7.003
  674SOL     OW 2920   0.653   2.762   3.607
  674SOL    HW1 2921   0.736   2.707   3.611
  674SOL    HW2 2922   0.665   2.845   3.662
  675SOL     OW 2923   0.397   2.356   4.523
  675SOL    HW1 2924   0.469   2.426   4.518
  675SOL    HW2 2925   0.413   2.299   4.603
  676SOL     OW 2926   2.996   4.825   4.288
  676SOL    HW1 2927   2.924   4.763   4.257
  676SOL    HW2 2928   3.000   4.823   4.388
  677SOL     OW 2929   6.284   0.555   0.555
  677SOL    HW1 2930   6.305   0.584   0.462
  677SOL    HW2 2931   6.365   0.515   0.597
  678SOL     OW 2932   2.624   0.855   5.630
  678SOL    HW1 2933   2.615   0.797   5.549
  678SOL    HW2 2934   2.601   0.949   5.606
  679SOL     OW 2935   3.488   1.190   3.373
  679SOL    HW1 2936   3.539   1.256   3.428
  679SOL    HW2 2937   3.404   1.232   3.340
  680SOL     OW 2938   5.712   4.099   5.926
  680SOL    HW1 2939   5.660   4.029   5.975
  680SOL    HW2 2940   5.751   4.058   5.843
  681SOL     OW 2941   6.749   6.400   0.953
  681SOL    HW1 2942   6.666   6.379   1.004
  681SOL    HW2 2943   6.727   6.417   0.858
  682SOL     OW 2944   2.033   6.629   0.359
  682SOL    HW1 2945   2.053   6.593   0.268
  682SOL    HW2 2946   2.038   6.729   0.357
  683SOL     OW 2947   4.164   1.487   6.226
  683SOL    HW1 2948   4.178   1.562   6.162
  683SOL    HW2 2949   4.081   1.503   6.279
  684SOL     OW 2950   0.246   0.067   6.396
  684SOL    HW1 2951   0.152   0.042   6.417
  684SOL    HW2 2952   0.251   0.166   6.379
  685SOL     OW 2953   4.910   6.990   6.381
  685SOL    HW1 2954   5.006   6.975   6.357
  685SOL    HW2 2955   4.899   0.059   6.418
  686SOL     OW 2956   5.379   3.037   3.507
  686SOL    HW1 2957   5.365   3.133   3.531
  686SOL    HW2 2958   5.308   3.009   3.442
  687SOL     OW 2959   6.837   3.443   6.575
  687SOL    HW1 2960   6.769   3.470   6.643
  687SOL    HW2 2961   6.796   3.446   6.483
  688SOL     OW 2962   1.987   3.624   6.956
  688SOL    HW1 2963   2.048   3.593   0.007
  688SOL    HW2 2964   1.900   3.575   6.962
  689SOL     OW 2965   0.604   4.270   6.324
  689SOL    HW1 2966   0.695   4.232   6.308
  689SOL    HW2 2967   0.535   4.199   6.309
  690SOL     OW 2968   1.250   2.143   4.027
  690SOL    HW1 2969   1.163   2.115   3.987
  690SOL    HW2 2970   1.248   2.127   4.126
  691SOL     OW 2971   1.571   2.419   6.332
  691SOL    HW1 2972   1.508   2.388   6.261
  691SOL    HW2 2973   1.560   2.517   6.346
  692SOL     OW 2974   2.653   6.956   3.279
  692SOL    HW1 2975   2.655   6.878   3.217
  692SOL    HW2 2976   2.746   6.992   3.291
  693SOL     OW 2977   6.647   1.949   2.482
  693SOL    HW1 2978   6.642   1.900   2.395
  693SOL    HW2 2979   6.583   2.026   2.480
  694SOL     OW 2980   3.434   5.762   1.054
  694SOL    HW1 2981   3.441   5.858   1.080
  694SOL    HW2 2982   3.420   5.755   0.956
  695SOL     OW 2983   5.321   5.458   4.842
  695SOL    HW1 2984   5.328   5.477   4.940
  695SOL    HW2 2985   5.257   5.523   4.800
  696SOL     OW 2986   3.225   5.184   2.517
  696SOL    HW1 2987   3.128   5.171   2.537
  696SOL    HW2 2988   3.242   5.163   2.420
  697SOL     OW 2989   1.220   3.523   5.124
  697SOL    HW1 2990   1.124   3.526   5.153
  697SOL    HW2 2991   1.278   3.559   5.196
  698SOL     OW 2992   4.953   0.454   3.671
  698SOL    HW1 2993   4.864   0.495   3.652
  698SOL    HW2 2994   4.992   0.417   3.587
  699SOL     OW 2995   1.691   4.559   0.879
  699SOL    HW1 2996   1.780   4.606   0.872
  699SOL    HW2 2997   1.687   4.509   0.966
  700SOL     OW 2998   2.675   2.450   3.830
  700SOL    HW1 2999   2.627   2.512   3.768
  700SOL    HW2 3000   2.756   2.413   3.785
  701SOL     OW 3001   1.098   4.499   7.001
  701SOL    HW1 3002   1.109   4.576   0.042
  701SOL    HW2 3003   1.172   4.433   7.015
  702SOL     OW 3004   5.164   6.924   4.897
  702SOL    HW1 3005   5.241   6.877   4.854
  702SOL    HW2 3006   5.111   6.859   4.951
  703SOL     OW 3007   4.376   3.447   6.583
  703SOL    HW1 3008   4.423   3.471   6.667
  703SOL    HW2 3009   4.372   3.526   6.522
  704SOL     OW 3010   1.121   1.211   6.013
  704SOL    HW1 3011   1.099   1.128   5.961
  704SOL    HW2 3012   1.188   1.188   6.084
  705SOL     OW 3013   4.744   0.654   3.641
  705SOL    HW1 3014   4.733   0.716   3.719
  705SOL    HW2 3015   4.735   0.705   3.556
  706SOL     OW 3016   3.336   1.917   4.150
  706SOL    HW1 3017   3.360   1.886   4.243
  706SOL    HW2 3018   3.420   1.932   4.098
  707SOL     OW 3019   4.656   0.558   1.732
  707SOL    HW1 3020   4.627   0.649   1.759
  707SOL    HW2 3021   4.581   0.511   1.685
  708SOL     OW 3022   4.585   0.196   1.118
  708SOL    HW1 3023   4.488   0.209   1.098
  708SOL    HW2 3024   4.628   0.285   1.133
  709SOL     OW 3025   1.036   4.826   1.205
  709SOL    HW1 3026   0.955   4.774   1.177
  709SOL    HW2 3027   1.093   4.843   1.125
  710SOL     OW 3028   3.494   4.043   2.135
  710SOL    HW1 3029   3.549   4.080   2.060
  710SOL    HW2 3030   3.453   4.119   2.186
  711SOL     OW 3031   6.784   2.781   5.134
  711SOL    HW1 3032   6.736   2.695   5.151
  711SOL    HW2 3033   6.774   2.841   5.213
  712SOL     OW 3034   0.940   3.722   0.822
  712SOL    HW1 3035   1.016   3.783   0.845
  712SOL    HW2 3036   0.854   3.764   0.851
  713SOL     OW 3037   4.083   3.584   2.297
  713SOL    HW1 3038   4.058   3.573   2.201
  713SOL    HW2 3039   4.089   3.682   2.318
  714SOL     OW 3040   5.517   4.509   5.509
  714SOL    HW1 3041   5.436   4.450   5.509
  714SOL    HW2 3042   5.530   4.547   5.418
  715SOL     OW 3043   4.400   6.041   6.793
  715SOL    HW1 3044   4.301   6.025   6.784
  715SOL    HW2 3045   4.449   5.977   6.734
  716SOL     OW 3046   0.772   4.956   1.402
  716SOL    HW1 3047   0.677   4.924   1.400
  716SOL    HW2 3048   0.774   5.051   1.371
  717SOL     OW 3049   5.897   4.428   0.005
  717SOL    HW1 3050   5.803   4.454   0.026
  717SOL    HW2 3051   5.958   4.464   0.075
  718SOL     OW 3052   3.635   2.676   5.912
  718SOL    HW1 3053   3.676   2.736   5.981
  718SOL    HW2 3054   3.597   2.731   5.838
  719SOL     OW 3055   6.815   2.789   1.484
  719SOL    HW1 3056   6.875   2.710   1.473
  719SOL    HW2 3057   6.857   2.854   1.548
  720SOL     OW 3058   2.421   1.435   5.322
  720SOL    HW1 3059   2.477   1.517   5.336
  720SOL    HW2 3060   2.453   1.387   5.240
  721SOL     OW 3061   1.325   0.651   5.258
  721SOL    HW1 3062   1.304   0.567   5.209
  721SOL    HW2 3063   1.351   0.723   5.193
  722SOL     OW 3064   4.264   6.540   4.998
  722SOL    HW1 3065   4.325   6.596   5.054
  722SOL    HW2 3066   4.306   6.521   4.910
  723SOL     OW 3067   2.548   2.454   2.041
  723SOL    HW1 3068   2.595   2.541   2.025
  723SOL    HW2 3069   2.472   2.444   1.977
  724SOL     OW 3070   0.844   1.843   5.270
  724SOL    HW1 3071   0.872   1.868   5.177
  724SOL    HW2 3072   0.744   1.848   5.276
  725SOL     OW 3073   3.126   5.290   1.860
  725SOL    HW1 3074   3.162   5.305   1.767
  725SOL    HW2 3075   3.072   5.206   1.861
  726SOL     OW 3076   2.996   4.861   6.699
  726SOL    HW1 3077   2.925   4.840   6.766
  726SOL    HW2 3078   3.070   4.794   6.706
  727SOL     OW 3079   3.756   5.667   4.333
  727SOL    HW1 3080   3.829   5.650   4.267
  727SOL    HW2 3081   3.673   5.692   4.284
  728SOL     OW 3082   6.895   3.884   5.121
  728SOL    HW1 3083   6.913   3.982   5.133
  728SOL    HW2 3084   6.932   3.854   5.033
  729SOL     OW 3085   1.543   0.752   0.404
  729SOL    HW1 3086   1.532   0.807   0.487
  729SOL    HW2 3087   1.640   0.746   0.381
  730SOL     OW 3088   6.078   0.464   3.092
  730SOL    HW1 3089   6.012   0.537   3.108
  730SOL    HW2 3090   6.158   0.501   3.044
  731SOL     OW 3091   5.672   3.061   5.181
  731SOL    HW1 3092   5.600   3.011   5.228
  731SOL    HW2 3093   5.633   3.110   5.103
  732SOL     OW 3094   0.497   2.551   1.424
  732SOL    HW1 3095   0.538   2.577   1.511
  732SOL    HW2 3096   0.521   2.456   1.403
  733SOL     OW 3097   5.048   4.076   3.864
  733SOL    HW1 3098   5.029   4.173   3.877
  733SOL    HW2 3099   5.086   4.061   3.773
  734SOL     OW 3100   0.640   4.788   1.725
  734SOL    HW1 3101   0.732   4.751   1.742
  734SOL    HW2 3102   0.617   4.778   1.628
  735SOL     OW 3103   2.168   3.521   0.781
  735SOL    HW1 3104   2.115   3.438   0.793
  735SOL    HW2 3105   2.241   3.524   0.850
  736SOL     OW 3106   6.245   6.640   2.753
  736SOL    HW1 3107   6.252   6.562   2.691
  736SOL    HW2 3108   6.244   6.725   2.699
  737SOL     OW 3109   4.905   3.828   1.213
  737SOL    HW1 3110   4.963   3.758   1.254
  737SOL    HW2 3111   4.914   3.914   1.264
  738SOL     OW 3112   0.710   4.598   4.129
  738SOL    HW1 3113   0.711   4.638   4.221
  738SOL    HW2 3114   0.794   4.624   4.081
  739SOL     OW 3115   4.623   6.716   5.969
  739SOL    HW1 3116   4.618   6.799   6.025
  739SOL    HW2 3117   4.632   6.636   6.027
  740SOL     OW 3118   5.735   0.535   0.961
  740SOL    HW1 3119   5.657   0.594   0.944
  740SOL    HW2 3120   5.737   0.509   1.057
  741SOL     OW 3121   1.518   5.862   3.120
  741SOL    HW1 3122   1.589   5.819   3.176
  741SOL    HW2 3123   1.552   5.948   3.082
  742SOL     OW 3124   1.979   6.565   3.514
  742SOL    HW1 3125   1.905   6.609   3.464
  742SOL    HW2 3126   2.064   6.576   3.463
  743SOL     OW 3127   1.179   3.895   4.000
  743SOL    HW1 3128   1.236   3.813   3.991
  743SOL    HW2 3129   1.148   3.924   3.910
  744SOL     OW 3130   0.135   6.262   6.959
  744SOL    HW1 3131   0.183   6.186   7.004
  744SOL    HW2 3132   0.162   6.348   7.002
  745SOL     OW 3133   0.704   5.330   4.474
  745SOL    HW1 3134   0.688   5.237   4.441
  745SOL    HW2 3135   0.728   5.389   4.397
  746SOL     OW 3136   0.195   6.344   5.399
  746SOL    HW1 3137   0.248   6.390   5.327
  746SOL    HW2 3138   0.122   6.404   5.430
  747SOL     OW 3139   4.566   4.909   4.018
  747SOL    HW1 3140   4.583   5.004   4.047
  747SOL    HW2 3141   4.586   4.847   4.094
  748SOL     OW 3142   4.471   4.656   1.215
  748SOL    HW1 3143   4.469   4.728   1.145
  748SOL    HW2 3144   4.424   4.575   1.181
  749SOL     OW 3145   0.444   2.980   5.120
  749SOL    HW1 3146   0.477   3.069   5.150
  749SOL    HW2 3147   0.381   2.943   5.188
  750SOL     OW 3148   3.145   3.404   0.396
  750SOL    HW1 3149   3.088   3.382   0.475
  750SOL    HW2 3150   3.209   3.329   0.379
  751SOL     OW 3151   4.292   2.228   0.498
  751SOL    HW1 3152   4.244   2.298   0.552
  751SOL    HW2 3153   4.282   2.139   0.542
  752SOL     OW 3154   4.492   2.492   1.947
  752SOL    HW1 3155   4.570   2.496   1.884
  752SOL    HW2 3156   4.486   2.578   1.998
  753SOL     OW 3157   1.510   3.285   4.967
  753SOL    HW1 3158   1.544   3.342   4.893
  753SOL    HW2 3159   1.423   3.244   4.941
  754SOL     OW 3160   5.403   3.904   6.611
  754SOL    HW1 3161   5.500   3.890   6.634
  754SOL    HW2 3162   5.356   3.944   6.690
  755SOL     OW 3163   0.940   5.701   6.874
  755SOL    HW1 3164   0.956   5.618   6.928
  755SOL    HW2 3165   0.896   5.677   6.788
  756SOL     OW 3166   4.839   0.628   2.088
  756SOL    HW1 3167   4.903   0.644   2.162
  756SOL    HW2 3168   4.847   0.533   2.057
  757SOL     OW 3169   0.852   6.520   3.604
  757SOL    HW1 3170   0.946   6.510   3.636
  757SOL    HW2 3171   0.837   6.614   3.573
  758SOL     OW 3172   3.542   1.456   1.406
  758SOL    HW1 3173   3.455   1.410   1.425
  758SOL    HW2 3174   3.545   1.543   1.454
  759SOL     OW 3175   0.036   1.130   0.344
  759SOL    HW1 3176   6.988   1.185   0.388
  759SOL    HW2 3177   0.112   1.116   0.407
  760SOL     OW 3178   5.118   1.593   6.471
  760SOL    HW1 3179   5.032   1.587   6.421
  760SOL    HW2 3180   5.185   1.532   6.430
  761SOL     OW 3181   6.055   3.555   0.172
  761SOL    HW1 3182   5.990   3.616   0.127
  761SOL    HW2 3183   6.030   3.460   0.153
  762SOL     OW 3184   1.996   5.961   3.251
  762SOL    HW1 3185   1.987   6.043   3.307
  762SOL    HW2 3186   2.093   5.940   3.237
  763SOL     OW 3187   4.052   5.840   0.149
  763SOL    HW1 3188   4.020   5.751   0.116
  763SOL    HW2 3189   4.150   5.834   0.169
  764SOL     OW 3190   3.019   1.145   3.464
  764SOL    HW1 3191   2.967   1.224   3.430
  764SOL    HW2 3192   3.049   1.162   3.558
  765SOL     OW 3193   1.044   6.263   1.178
  765SOL    HW1 3194   0.991   6.271   1.262
  765SOL    HW2 3195   1.012   6.184   1.126
  766SOL     OW 3196   6.968   1.060   6.934
  766SOL    HW1 3197   0.017   1.123   6.903
  766SOL    HW2 3198   6.878   1.099   6.916
  767SOL     OW 3199   0.834   6.726   1.792
  767SOL    HW1 3200   0.785   6.708   1.707
  767SOL    HW2 3201   0.884   6.812   1.785
  768SOL     OW 3202   2.105   0.366   2.926
  768SOL    HW1 3203   2.134   0.315   3.007
  768SOL    HW2 3204   2.010   0.395   2.937
  769SOL     OW 3205   3.118   0.513   4.397
  769SOL    HW1 3206   3.194   0.570   4.428
  769SOL    HW2 3207   3.113   0.431   4.455
  770SOL     OW 3208   2.993   5.523   3.428
  770SOL    HW1 3209   2.966   5.493   3.336
  770SOL    HW2 3210   2.912   5.533   3.485
  771SOL     OW 3211   1.863   5.295   2.716
  771SOL    HW1 3212   1.797   5.368   2.699
  771SOL    HW2 3213   1.894   5.258   2.628
  772SOL     OW 3214   6.867   4.880   0.394
  772SOL    HW1 3215   6.946   4.894   0.334
  772SOL    HW2 3216   6.892   4.906   0.487
  773SOL     OW 3217   0.116   3.157   3.783
  773SOL    HW1 3218   0.180   3.084   3.760
  773SOL    HW2 3219   0.031   3.118   3.817
  774SOL     OW 3220   1.943   2.088   2.132
  774SOL    HW1 3221   2.040   2.063   2.134
  774SOL    HW2 3222   1.887   2.006   2.133
  775SOL     OW 3223   1.430   1.911   4.141
  775SOL    HW1 3224   1.406   1.986   4.203
  775SOL    HW2 3225   1.431   1.944   4.047
  776SOL     OW 3226   0.466   0.127   5.981
  776SOL    HW1 3227   0.540   0.190   5.957
  776SOL    HW2 3228   0.503   0.034   5.988
  777SOL     OW 3229   3.681   0.971   0.940
  777SOL    HW1 3230   3.651   0.899   0.877
  777SOL    HW2 3231   3.666   1.060   0.898
  778SOL     OW 3232   4.053   0.955   3.867
  778SOL    HW1 3233   4.061   0.857   3.886
  778SOL    HW2 3234   4.144   0.997   3.868
  779SOL     OW 3235   0.213   1.866   2.105
  779SOL    HW1 3236   0.281   1.795   2.087
  779SOL    HW2 3237   0.257   1.956   2.098
  780SOL     OW 3238   5.646   2.799   4.324
  780SOL    HW1 3239   5.699   2.716   4.342
  780SOL    HW2 3240   5.549   2.777   4.324
  781SOL     OW 3241   5.940   1.295   5.949
  781SOL    HW1 3242   5.889   1.212   5.972
  781SOL    HW2 3243   5.884   1.352   5.888
  782SOL     OW 3244   0.807   3.661   0.602
  782SOL    HW1 3245   0.856   3.666   0.690
  782SOL    HW2 3246   0.711   3.641   0.619
  783SOL     OW 3247   3.283   5.266   0.244
  783SOL    HW1 3248   3.187   5.248   0.223
  783SOL    HW2 3249   3.332   5.179   0.254
  784SOL     OW 3250   4.437   0.570   4.995
  784SOL    HW1 3251   4.440   0.506   4.919
  784SOL    HW2 3252   4.516   0.631   4.991
  785SOL     OW 3253   6.411   1.770   2.467
  785SOL    HW1 3254   6.501   1.814   2.469
  785SOL    HW2 3255   6.420   1.674   2.493
  786SOL     OW 3256   0.063   0.442   6.830
  786SOL    HW1 3257   0.161   0.426   6.847
  786SOL    HW2 3258   0.035   0.526   6.877
  787SOL     OW 3259   3.133   1.388   6.118
  787SOL    HW1 3260   3.129   1.291   6.140
  787SOL    HW2 3261   3.095   1.404   6.027
  788SOL     OW 3262   1.794   3.165   4.123
  788SOL    HW1 3263   1.720   3.230   4.138
  788SOL    HW2 3264   1.829   3.133   4.211
  789SOL     OW 3265   6.497   4.041   2.430
  789SOL    HW1 3266   6.583   3.991   2.441
  789SOL    HW2 3267   6.470   4.079   2.518
  790SOL     OW 3268   2.341   1.436   4.185
  790SOL    HW1 3269   2.440   1.431   4.195
  790SOL    HW2 3270   2.318   1.481   4.098
  791SOL     OW 3271   3.962   0.238   4.149
  791SOL    HW1 3272   4.001   0.149   4.170
  791SOL    HW2 3273   4.019   0.310   4.189
  792SOL     OW 3274   6.182   0.067   1.689
  792SOL    HW1 3275   6.276   0.057   1.657
  792SOL    HW2 3276   6.162   7.020   1.758
  793SOL     OW 3277   4.570   6.067   1.985
  793SOL    HW1 3278   4.663   6.097   1.962
  793SOL    HW2 3279   4.571   6.021   2.074
  794SOL     OW 3280   2.596   4.941   5.385
  794SOL    HW1 3281   2.583   4.850   5.423
  794SOL    HW2 3282   2.632   4.933   5.292
  795SOL     OW 3283   3.164   5.245   5.613
  795SOL    HW1 3284   3.103   5.310   5.658
  795SOL    HW2 3285   3.139   5.239   5.516
  796SOL     OW 3286   0.333   2.051   5.932
  796SOL    HW1 3287   0.409   2.104   5.895
  796SOL    HW2 3288   0.354   1.953   5.924
  797SOL     OW 3289   4.961   2.425   2.336
  797SOL    HW1 3290   4.930   2.469   2.252
  797SOL    HW2 3291   4.970   2.326   2.320
  798SOL     OW 3292   4.450   0.565   0.988
  798SOL    HW1 3293   4.480   0.640   1.047
  798SOL    HW2 3294   4.397   0.500   1.042
  799SOL     OW 3295   6.576   1.999   3.320
  799SOL    HW1 3296   6.648   2.003   3.250
  799SOL    HW2 3297   6.522   2.082   3.316
  800SOL     OW 3298   5.523   0.777   2.397
  800SOL    HW1 3299   5.506   0.725   2.314
  800SOL    HW2 3300   5.465   0.742   2.471
  801SOL     OW 3301   1.187   2.679   3.305
  801SOL    HW1 3302   1.214   2.615   3.233
  801SOL    HW2 3303   1.268   2.725   3.341
  802SOL     OW 3304   4.800   1.260   0.150
  802SOL    HW1 3305   4.899   1.245   0.154
  802SOL    HW2 3306   4.762   1.207   0.074
  803SOL     OW 3307   5.977   6.479   4.633
  803SOL    HW1 3308   5.978   6.466   4.534
  803SOL    HW2 3309   5.958   6.392   4.678
  804SOL     OW 3310   6.616   6.684   0.290
  804SOL    HW1 3311   6.677   6.613   0.324
  804SOL    HW2 3312   6.631   6.697   0.192
  805SOL     OW 3313   4.416   2.913   5.742
  805SOL    HW1 3314   4.413   2.850   5.819
  805SOL    HW2 3315   4.325   2.953   5.728
  806SOL     OW 3316   4.000   1.422   5.311
  806SOL    HW1 3317   4.096   1.444   5.328
  806SOL    HW2 3318   3.994   1.329   5.274
  807SOL     OW 3319   1.261   0.948   3.723
  807SOL    HW1 3320   1.222   0.973   3.635
  807SOL    HW2 3321   1.308   1.027   3.763
  808SOL     OW 3322   4.964   3.507   6.029
  808SOL    HW1 3323   5.034   3.516   6.101
  808SOL    HW2 3324   4.884   3.561   6.055
  809SOL     OW 3325   1.240   4.901   1.015
  809SOL    HW1 3326   1.282   4.977   1.065
  809SOL    HW2 3327   1.313   4.843   0.976
  810SOL     OW 3328   4.504   3.303   1.030
  810SOL    HW1 3329   4.409   3.290   1.004
  810SOL    HW2 3330   4.509   3.332   1.126
  811SOL     OW 3331   4.518   6.030   3.587
  811SOL    HW1 3332   4.475   6.001   3.501
  811SOL    HW2 3333   4.559   6.120   3.575
  812SOL     OW 3334   6.774   0.598   1.261
  812SOL    HW1 3335   6.830   0.605   1.344
  812SOL    HW2 3336   6.819   0.648   1.187
  813SOL     OW 3337   4.323   6.119   3.141
  813SOL    HW1 3338   4.281   6.029   3.130
  813SOL    HW2 3339   4.294   6.179   3.066
  814SOL     OW 3340   5.361   6.544   2.592
  814SOL    HW1 3341   5.317   6.503   2.672
  814SOL    HW2 3342   5.393   6.635   2.614
  815SOL     OW 3343   6.292   2.406   1.821
  815SOL    HW1 3344   6.197   2.432   1.836
  815SOL    HW2 3345   6.318   2.430   1.728
  816SOL     OW 3346   6.833   6.470   0.366
  816SOL    HW1 3347   6.776   6.391   0.345
  816SOL    HW2 3348   6.849   6.474   0.465
  817SOL     OW 3349   1.687   4.366   2.477
  817SOL    HW1 3350   1.703   4.332   2.385
  817SOL    HW2 3351   1.700   4.465   2.479
  818SOL     OW 3352   6.352   3.023   0.326
  818SOL    HW1 3353   6.354   3.120   0.353
  818SOL    HW2 3354   6.323   2.967   0.403
  819SOL     OW 3355   6.263   2.895   4.797
  819SOL    HW1 3356   6.317   2.946   4.729
  819SOL    HW2 3357   6.171   2.879   4.761
  820SOL     OW 3358   1.012   3.079   5.020
  820SOL    HW1 3359   0.953   3.129   4.956
  820SOL    HW2 3360   0.973   3.084   5.112
  821SOL     OW 3361   2.284   4.737   0.582
  821SOL    HW1 3362   2.376   4.733   0.542
  821SOL    HW2 3363   2.258   4.833   0.594
  822SOL     OW 3364   1.023   4.694   4.797
  822SOL    HW1 3365   1.079   4.682   4.879
  822SOL    HW2 3366   1.017   4.606   4.748
  823SOL     OW 3367   4.819   4.469   6.523
  823SOL    HW1 3368   4.919   4.463   6.522
  823SOL    HW2 3369   4.781   4.389   6.476
  824SOL     OW 3370   4.652   1.218   4.828
  824SOL    HW1 3371   4.616   1.305   4.795
  824SOL    HW2 3372   4.647   1.216   4.928
  825SOL     OW 3373   2.026   3.160   2.519
  825SOL    HW1 3374   2.095   3.093   2.546
  825SOL    HW2 3375   2.016   3.160   2.419
  826SOL     OW 3376   5.912   3.999   0.879
  826SOL    HW1 3377   5.829   4.005   0.823
  826SOL    HW2 3378   5.916   3.909   0.922
  827SOL     OW 3379   3.457   5.650   5.914
  827SOL    HW1 3380   3.408   5.706   5.980
  827SOL    HW2 3381   3.454   5.554   5.942
  828SOL     OW 3382   6.067   0.901   5.158
  828SOL    HW1 3383   6.093   0.805   5.150
  828SOL    HW2 3384   5.972   0.912   5.128
  829SOL     OW 3385   3.065   3.178   4.213
  829SOL    HW1 3386   2.985   3.232   4.241
  829SOL    HW2 3387   3.139   3.241   4.187
  830SOL     OW 3388   5.135   4.854   5.650
  830SOL    HW1 3389   5.084   4.769   5.637
  830SOL    HW2 3390   5.233   4.836   5.639
  831SOL     OW 3391   6.986   6.503   4.714
  831SOL    HW1 3392   6.978   6.602   4.703
  831SOL    HW2 3393   0.056   6.480   4.746
  832SOL     OW 3394   2.447   1.370   0.195
  832SOL    HW1 3395   2.434   1.459   0.152
  832SOL    HW2 3396   2.454   1.381   0.294
  833SOL     OW 3397   6.543   6.211   6.338
  833SOL    HW1 3398   6.531   6.247   6.430
  833SOL    HW2 3399   6.598   6.275   6.284
  834SOL     OW 3400   3.700   3.736   3.041
  834SOL    HW1 3401   3.671   3.777   3.128
  834SOL    HW2 3402   3.776   3.789   3.003
  835SOL     OW 3403   4.140   6.920   3.568
  835SOL    HW1 3404   4.151   6.821   3.552
  835SOL    HW2 3405   4.043   6.943   3.569
  836SOL     OW 3406   3.651   6.477   6.852
  836SOL    HW1 3407   3.583   6.428   6.798
  836SOL    HW2 3408   3.693   6.415   6.918
  837SOL     OW 3409   5.181   0.462   0.221
  837SOL    HW1 3410   5.237   0.481   0.140
  837SOL    HW2 3411   5.151   0.549   0.261
  838SOL     OW 3412   0.636   0.050   5.437
  838SOL    HW1 3413   0.698   6.998   5.416
  838SOL    HW2 3414   0.542   0.016   5.436
  839SOL     OW 3415   2.730   1.690   3.179
  839SOL    HW1 3416   2.782   1.770   3.150
  839SOL    HW2 3417   2.708   1.698   3.276
  840SOL     OW 3418   0.470   0.915   6.603
  840SOL    HW1 3419   0.451   0.976   6.680
  840SOL    HW2 3420   0.401   0.842   6.600
  841SOL     OW 3421   6.116   3.990   0.149
  841SOL    HW1 3422   6.049   3.989   0.076
  841SOL    HW2 3423   6.200   3.945   0.118
  842SOL     OW 3424   4.047   5.454   3.429
  842SOL    HW1 3425   3.996   5.461   3.343
  842SOL    HW2 3426   3.986   5.421   3.501
  843SOL     OW 3427   6.020   2.659   0.166
  843SOL    HW1 3428   6.000   2.736   0.227
  843SOL    HW2 3429   5.986   2.574   0.207
  844SOL     OW 3430   4.946   6.170   0.744
  844SOL    HW1 3431   4.962   6.140   0.650
  844SOL    HW2 3432   4.926   6.090   0.801
  845SOL     OW 3433   6.225   2.806   5.384
  845SOL    HW1 3434   6.128   2.789   5.399
  845SOL    HW2 3435   6.248   2.784   5.289
  846SOL     OW 3436   6.095   1.681   0.227
  846SOL    HW1 3437   5.999   1.660   0.208
  846SOL    HW2 3438   6.105   1.704   0.323
  847SOL     OW 3439   6.195   3.322   0.899
  847SOL    HW1 3440   6.160   3.234   0.933
  847SOL    HW2 3441   6.283   3.308   0.855
  848SOL     OW 3442   6.268   0.713   6.229
  848SOL    HW1 3443   6.305   0.626   6.262
  848SOL    HW2 3444   6.183   0.695   6.179
  849SOL     OW 3445   0.201   6.076   5.315
  849SOL    HW1 3446   0.248   6.062   5.227
  849SOL    HW2 3447   0.202   6.174   5.338
  850SOL     OW 3448   4.415   0.624   3.661
  850SOL    HW1 3449   4.460   0.536   3.645
  850SOL    HW2 3450   4.410   0.675   3.574
  851SOL     OW 3451   0.327   1.487   6.596
  851SOL    HW1 3452   0.425   1.503   6.606
  851SOL    HW2 3453   0.279   1.574   6.594
  852SOL     OW 3454   2.291   2.252   6.697
  852SOL    HW1 3455   2.377   2.279   6.655
  852SOL    HW2 3456   2.304   2.244   6.796
  853SOL     OW 3457   0.910   3.187   3.201
  853SOL    HW1 3458   0.988   3.125   3.209
  853SOL    HW2 3459   0.827   3.143   3.235
  854SOL     OW 3460   5.686   6.536   2.787
  854SOL    HW1 3461   5.661   6.440   2.776
  854SOL    HW2 3462   5.761   6.558   2.725
  855SOL     OW 3463   5.709   0.277   1.756
  855SOL    HW1 3464   5.732   0.371   1.779
  855SOL    HW2 3465   5.769   0.245   1.683
  856SOL     OW 3466   1.515   0.668   5.464
  856SOL    HW1 3467   1.448   0.655   5.391
  856SOL    HW2 3468   1.558   0.758   5.454
  857SOL     OW 3469   5.913   4.374   1.304
  857SOL    HW1 3470   5.864   4.358   1.390
  857SOL    HW2 3471   5.997   4.320   1.304
  858SOL     OW 3472   2.802   4.823   1.800
  858SOL    HW1 3473   2.876   4.793   1.740
  858SOL    HW2 3474   2.780   4.751   1.865
  859SOL     OW 3475   5.560   4.846   6.777
  859SOL    HW1 3476   5.625   4.845   6.852
  859SOL    HW2 3477   5.603   4.812   6.694
  860SOL     OW 3478   3.670   4.550   6.968
  860SOL    HW1 3479   3.642   4.462   6.929
  860SOL    HW2 3480   3.769   4.560   6.960
  861SOL     OW 3481   3.001   6.658   4.839
  861SOL    HW1 3482   2.990   6.679   4.937
  861SOL    HW2 3483   3.042   6.567   4.829
  862SOL     OW 3484   6.125   4.301   4.946
  862SOL    HW1 3485   6.162   4.227   4.890
  862SOL    HW2 3486   6.200   4.348   4.994
  863SOL     OW 3487   0.460   0.520   0.959
  863SOL    HW1 3488   0.466   0.606   0.908
  863SOL    HW2 3489   0.419   0.450   0.901
  864SOL     OW 3490   4.914   4.174   3.271
  864SOL    HW1 3491   4.861   4.154   3.189
  864SOL    HW2 3492   4.856   4.163   3.352
  865SOL     OW 3493   1.025   6.782   4.216
  865SOL    HW1 3494   1.026   6.874   4.176
  865SOL    HW2 3495   1.081   6.781   4.299
  866SOL     OW 3496   2.529   1.417   2.137
  866SOL    HW1 3497   2.507   1.321   2.152
  866SOL    HW2 3498   2.456   1.460   2.083
  867SOL     OW 3499   3.200   2.966   0.409
  867SOL    HW1 3500   3.115   3.019   0.411
  867SOL    HW2 3501   3.237   2.966   0.316
  868SOL     OW 3502   5.934   0.361   2.488
  868SOL    HW1 3503   5.911   0.301   2.411
  868SOL    HW2 3504   6.025   0.400   2.474
  869SOL     OW 3505   6.570   6.001   2.535
  869SOL    HW1 3506   6.500   6.053   2.584
  869SOL    HW2 3507   6.630   5.955   2.602
  870SOL     OW 3508   0.338   2.894   1.701
  870SOL    HW1 3509   0.274   2.828   1.662
  870SOL    HW2 3510   0.288   2.979   1.723
  871SOL     OW 3511   6.896   2.706   1.997
  871SOL    HW1 3512   6.873   2.645   2.073
  871SOL    HW2 3513   6.853   2.795   2.012
  872SOL     OW 3514   6.409   2.638   4.817
  872SOL    HW1 3515   6.337   2.705   4.802
  872SOL    HW2 3516   6.489   2.683   4.858
  873SOL     OW 3517   3.958   6.959   3.050
  873SOL    HW1 3518   3.990   6.989   2.960
  873SOL    HW2 3519   3.867   6.918   3.042
  874SOL     OW 3520   1.947   4.562   5.276
  874SOL    HW1 3521   1.872   4.549   5.212
  874SOL    HW2 3522   2.035   4.553   5.228
  875SOL     OW 3523   5.440   4.413   0.595
  875SOL    HW1 3524   5.446   4.321   0.635
  875SOL    HW2 3525   5.349   4.427   0.556
  876SOL     OW 3526   6.516   3.634   2.537
  876SOL    HW1 3527   6.427   3.647   2.493
  876SOL    HW2 3528   6.506   3.571   2.614
  877SOL     OW 3529   5.237   5.107   0.144
  877SOL    HW1 3530   5.194   5.197   0.147
  877SOL    HW2 3531   5.177   5.040   0.186
  878SOL     OW 3532   3.508   5.125   0.058
  878SOL    HW1 3533   3.573   5.176   0.114
  878SOL    HW2 3534   3.558   5.064   7.019
  879SOL     OW 3535   4.965   2.028   2.537
  879SOL    HW1 3536   4.874   2.047   2.572
  879SOL    HW2 3537   4.959   2.002   2.440
  880SOL     OW 3538   3.767   4.448   0.296
  880SOL    HW1 3539   3.820   4.376   0.342
  880SOL    HW2 3540   3.760   4.527   0.356
  881SOL     OW 3541   4.320   4.704   4.565
  881SOL    HW1 3542   4.329   4.672   4.660
  881SOL    HW2 3543   4.376   4.646   4.505
  882SOL     OW 3544   1.319   0.715   4.587
  882SOL    HW1 3545   1.342   0.813   4.587
  882SOL    HW2 3546   1.337   0.677   4.496
  883SOL     OW 3547   3.374   4.990   5.994
  883SOL    HW1 3548   3.280   4.960   6.006
  883SOL    HW2 3549   3.403   5.045   6.073
  884SOL     OW 3550   6.433   3.612   1.789
  884SOL    HW1 3551   6.400   3.703   1.765
  884SOL    HW2 3552   6.425   3.598   1.887
  885SOL     OW 3553   5.610   6.460   0.529
  885SOL    HW1 3554   5.657   6.491   0.612
  885SOL    HW2 3555   5.512   6.458   0.544
  886SOL     OW 3556   3.627   1.039   6.658
  886SOL    HW1 3557   3.527   1.033   6.666
  886SOL    HW2 3558   3.669   0.990   6.734
  887SOL     OW 3559   4.124   0.222   6.485
  887SOL    HW1 3560   4.120   0.319   6.462
  887SOL    HW2 3561   4.037   0.179   6.461
  888SOL     OW 3562   0.065   6.569   3.538
  888SOL    HW1 3563   7.022   6.494   3.525
  888SOL    HW2 3564   0.093   6.572   3.634
  889SOL     OW 3565   0.008   6.253   5.638
  889SOL    HW1 3566   0.057   6.246   5.551
  889SOL    HW2 3567   6.939   6.213   5.629
  890SOL     OW 3568   2.723   4.663   2.282
  890SOL    HW1 3569   2.623   4.660   2.283
  890SOL    HW2 3570   2.755   4.653   2.188
  891SOL     OW 3571   5.635   2.721   1.280
  891SOL    HW1 3572   5.548   2.673   1.290
  891SOL    HW2 3573   5.694   2.669   1.219
  892SOL     OW 3574   2.570   3.757   1.007
  892SOL    HW1 3575   2.641   3.689   0.984
  892SOL    HW2 3576   2.569   3.828   0.938
  893SOL     OW 3577   1.260   0.627   6.910
  893SOL    HW1 3578   1.350   0.608   6.949
  893SOL    HW2 3579   1.194   0.639   6.983
  894SOL     OW 3580   0.966   5.792   4.336
  894SOL    HW1 3581   0.940   5.869   4.395
  894SOL    HW2 3582   1.033   5.735   4.384
  895SOL     OW 3583   2.026   0.099   4.686
  895SOL    HW1 3584   2.065   0.038   4.754
  895SOL    HW2 3585   2.092   0.115   4.613
  896SOL     OW 3586   6.055   6.336   3.563
  896SOL    HW1 3587   6.004   6.262   3.607
  896SOL    HW2 3588   6.085   6.401   3.633
  897SOL     OW 3589   5.309   2.659   6.539
  897SOL    HW1 3590   5.214   2.628   6.546
  897SOL    HW2 3591   5.322   2.740   6.595
  898SOL     OW 3592   5.091   6.351   3.737
  898SOL    HW1 3593   5.153   6.288   3.785
  898SOL    HW2 3594   5.029   6.393   3.803
  899SOL     OW 3595   0.322   5.053   6.492
  899SOL    HW1 3596   0.223   5.048   6.501
  899SOL    HW2 3597   0.351   5.008   6.407
  900SOL     OW 3598   0.659   6.527   3.149
  900SOL    HW1 3599   0.574   6.507   3.100
  900SOL    HW2 3600   0.642   6.601   3.215
  901SOL     OW 3601   6.438   0.958   4.298
  901SOL    HW1 3602   6.369   0.931   4.365
  901SOL    HW2 3603   6.485   0.877   4.264
  902SOL     OW 3604   6.816   0.451   6.180
  902SOL    HW1 3605   6.736   0.446   6.120
  902SOL    HW2 3606   6.889   0.394   6.142
  903SOL     OW 3607   0.133   4.365   0.990
  903SOL    HW1 3608   0.047   4.407   1.021
  903SOL    HW2 3609   0.207   4.392   1.052
  904SOL     OW 3610   1.724   1.242   3.369
  904SOL    HW1 3611   1.639   1.242   3.317
  904SOL    HW2 3612   1.797   1.202   3.313
  905SOL     OW 3613   5.261   2.294   6.008
  905SOL    HW1 3614   5.268   2.343   6.095
  905SOL    HW2 3615   5.189   2.335   5.952
  906SOL     OW 3616   0.170   4.551   6.043
  906SOL    HW1 3617   0.237   4.536   5.970
  906SOL    HW2 3618   0.125   4.464   6.066
  907SOL     OW 3619   6.086   2.420   2.515
  907SOL    HW1 3620   6.002   2.472   2.499
  907SOL    HW2 3621   6.074   2.362   2.595
  908SOL     OW 3622   1.956   6.983   4.132
  908SOL    HW1 3623   1.937   6.885   4.125
  908SOL    HW2 3624   2.055   6.998   4.127
  909SOL     OW 3625   3.094   0.666   1.002
  909SOL    HW1 3626   3.027   0.737   0.978
  909SOL    HW2 3627   3.074   0.583   0.950
  910SOL     OW 3628   1.811   0.678   0.279
  910SOL    HW1 3629   1.772   0.602   0.227
  910SOL    HW2 3630   1.906   0.658   0.300
  911SOL     OW 3631   0.576   4.272   1.455
  911SOL    HW1 3632   0.486   4.283   1.497
  911SOL    HW2 3633   0.612   4.182   1.479
  912SOL     OW 3634   6.929   1.333   6.013
  912SOL    HW1 3635   6.831   1.341   6.031
  912SOL    HW2 3636   6.974   1.291   6.092
  913SOL     OW 3637   2.504   0.734   3.211
  913SOL    HW1 3638   2.542   0.738   3.119
  913SOL    HW2 3639   2.547   0.803   3.268
  914SOL     OW 3640   2.585   5.940   4.028
  914SOL    HW1 3641   2.645   5.998   4.083
  914SOL    HW2 3642   2.612   5.946   3.931
  915SOL     OW 3643   0.706   2.846   0.132
  915SOL    HW1 3644   0.777   2.775   0.129
  915SOL    HW2 3645   0.736   2.921   0.191
  916SOL     OW 3646   2.653   2.350   3.085
  916SOL    HW1 3647   2.689   2.359   2.993
  916SOL    HW2 3648   2.612   2.436   3.114
  917SOL     OW 3649   3.809   1.004   1.433
  917SOL    HW1 3650   3.772   0.976   1.522
  917SOL    HW2 3651   3.768   1.091   1.405
  918SOL     OW 3652   2.671   6.021   6.266
  918SOL    HW1 3653   2.588   6.045   6.215
  918SOL    HW2 3654   2.666   5.925   6.294
  919SOL     OW 3655   1.131   5.452   1.567
  919SOL    HW1 3656   1.053   5.414   1.615
  919SOL    HW2 3657   1.203   5.475   1.633
  920SOL     OW 3658   2.253   0.256   3.150
  920SOL    HW1 3659   2.289   0.349   3.156
  920SOL    HW2 3660   2.283   0.203   3.229
  921SOL     OW 3661   5.801   4.829   4.746
  921SOL    HW1 3662   5.875   4.833   4.813
  921SOL    HW2 3663   5.834   4.784   4.663
  922SOL     OW 3664   2.789   3.289   6.948
  922SOL    HW1 3665   2.851   3.322   6.876
  922SOL    HW2 3666   2.838   3.226   7.008
  923SOL     OW 3667   2.823   6.294   6.877
  923SOL    HW1 3668   2.774   6.239   6.944
  923SOL    HW2 3669   2.826   6.389   6.908
  924SOL     OW 3670   6.195   3.444   3.011
  924SOL    HW1 3671   6.105   3.485   3.025
  924SOL    HW2 3672   6.205   3.416   2.916
  925SOL     OW 3673   0.145   2.077   5.399
  925SOL    HW1 3674   0.237   2.074   5.360
  925SOL    HW2 3675   0.087   2.136   5.343
  926SOL     OW 3676   4.881   6.147   0.480
  926SOL    HW1 3677   4.954   6.173   0.417
  926SOL    HW2 3678   4.801   6.205   0.464
  927SOL     OW 3679   4.475   4.571   4.395
  927SOL    HW1 3680   4.542   4.553   4.468
  927SOL    HW2 3681   4.487   4.503   4.322
  928SOL     OW 3682   1.594   0.326   0.690
  928SOL    HW1 3683   1.520   0.379   0.733
  928SOL    HW2 3684   1.558   0.280   0.609
  929SOL     OW 3685   0.393   2.974   2.806
  929SOL    HW1 3686   0.298   2.982   2.838
  929SOL    HW2 3687   0.436   3.064   2.809
  930SOL     OW 3688   5.184   4.801   4.342
  930SOL    HW1 3689   5.209   4.734   4.272
  930SOL    HW2 3690   5.221   4.890   4.317
  931SOL     OW 3691   1.114   2.176   3.087
  931SOL    HW1 3692   1.123   2.229   3.003
  931SOL    HW2 3693   1.089   2.237   3.162
  932SOL     OW 3694   4.151   5.752   1.029
  932SOL    HW1 3695   4.154   5.707   0.940
  932SOL    HW2 3696   4.181   5.847   1.020
  933SOL     OW 3697   1.298   5.016   2.592
  933SOL    HW1 3698   1.234   4.939   2.582
  933SOL    HW2 3699   1.294   5.049   2.686
  934SOL     OW 3700   3.515   1.320   5.281
  934SOL    HW1 3701   3.484   1.413   5.301
  934SOL    HW2 3702   3.436   1.259   5.278
  935SOL     OW 3703   4.146   3.418   6.055
  935SOL    HW1 3704   4.128   3.433   5.958
  935SOL    HW2 3705   4.245   3.409   6.069
  936SOL     OW 3706   0.507   0.253   1.030
  936SOL    HW1 3707   0.409   0.248   1.012
  936SOL    HW2 3708   0.543   0.340   0.996
  937SOL     OW 3709   4.331   1.663   4.306
  937SOL    HW1 3710   4.355   1.705   4.393
  937SOL    HW2 3711   4.239   1.692   4.278
  938SOL     OW 3712   0.221   3.052   6.084
  938SOL    HW1 3713   0.145   3.106   6.047
  938SOL    HW2 3714   0.296   3.050   6.018
  939SOL     OW 3715   5.256   1.351   6.061
  939SOL    HW1 3716   5.273   1.255   6.038
  939SOL    HW2 3717   5.343   1.397   6.080
  940SOL     OW 3718   6.964   0.541   2.991
  940SOL    HW1 3719   6.882   0.565   3.043
  940SOL    HW2 3720   6.948   0.559   2.894
  941SOL     OW 3721   5.786   1.462   3.683
  941SOL    HW1 3722   5.870   1.517   3.685
  941SOL    HW2 3723   5.809   1.368   3.709
  942SOL     OW 3724   5.379   6.564   5.617
  942SOL    HW1 3725   5.319   6.575   5.538
  942SOL    HW2 3726   5.371   6.644   5.677
  943SOL     OW 3727   6.353   2.913   2.366
  943SOL    HW1 3728   6.367   2.897   2.268
  943SOL    HW2 3729   6.339   2.825   2.412
  944SOL     OW 3730   5.679   3.364   4.759
  944SOL    HW1 3731   5.699   3.417   4.841
  944SOL    HW2 3732   5.754   3.373   4.694
  945SOL     OW 3733   4.973   4.352   3.882
  945SOL    HW1 3734   4.880   4.391   3.885
  945SOL    HW2 3735   5.023   4.391   3.805
  946SOL     OW 3736   5.699   2.852   6.191
  946SOL    HW1 3737   5.732   2.794   6.117
  946SOL    HW2 3738   5.658   2.935   6.153
  947SOL     OW 3739   3.648   2.348   6.518
  947SOL    HW1 3740   3.571   2.284   6.518
  947SOL    HW2 3741   3.628   2.424   6.455
  948SOL     OW 3742   3.882   1.295   0.869
  948SOL    HW1 3743   3.868   1.237   0.949
  948SOL    HW2 3744   3.980   1.317   0.861
  949SOL     OW 3745   6.169   5.276   6.622
  949SOL    HW1 3746   6.117   5.354   6.657
  949SOL    HW2 3747   6.199   5.219   6.698
  950SOL     OW 3748   4.003   5.397   0.818
  950SOL    HW1 3749   4.083   5.362   0.867
  950SOL    HW2 3750   4.003   5.497   0.822
  951SOL     OW 3751   0.609   0.818   1.547
  951SOL    HW1 3752   0.608   0.851   1.641
  951SOL    HW2 3753   0.687   0.858   1.499
  952SOL     OW 3754   5.169   0.907   3.061
  952SOL    HW1 3755   5.263   0.940   3.063
  952SOL    HW2 3756   5.161   0.835   2.991
  953SOL     OW 3757   4.410   5.951   5.801
  953SOL    HW1 3758   4.409   6.017   5.876
  953SOL    HW2 3759   4.501   5.948   5.760
  954SOL     OW 3760   6.073   6.904   1.240
  954SOL    HW1 3761   6.012   6.982   1.246
  954SOL    HW2 3762   6.145   6.923   1.173
  955SOL     OW 3763   0.458   5.536   3.428
  955SOL    HW1 3764   0.525   5.602   3.394
  955SOL    HW2 3765   0.480   5.445   3.393
  956SOL     OW 3766   1.679   1.505   1.213
  956SOL    HW1 3767   1.720   1.585   1.257
  956SOL    HW2 3768   1.637   1.447   1.283
  957SOL     OW 3769   1.655   4.803   5.046
  957SOL    HW1 3770   1.677   4.705   5.054
  957SOL    HW2 3771   1.575   4.823   5.102
  958SOL     OW 3772   5.430   1.655   1.567
  958SOL    HW1 3773   5.429   1.753   1.586
  958SOL    HW2 3774   5.458   1.640   1.472
  959SOL     OW 3775   2.928   4.867   2.918
  959SOL    HW1 3776   2.842   4.817   2.904
  959SOL    HW2 3777   2.986   4.856   2.837
  960SOL     OW 3778   2.358   5.996   4.660
  960SOL    HW1 3779   2.439   5.957   4.705
  960SOL    HW2 3780   2.366   5.985   4.561
  961SOL     OW 3781   3.837   6.809   2.014
  961SOL    HW1 3782   3.763   6.745   1.992
  961SOL    HW2 3783   3.857   6.866   1.934
  962SOL     OW 3784   1.636   0.829   3.382
  962SOL    HW1 3785   1.601   0.919   3.409
  962SOL    HW2 3786   1.589   0.799   3.299
  963SOL     OW 3787   6.398   0.483   1.325
  963SOL    HW1 3788   6.359   0.457   1.413
  963SOL    HW2 3789   6.351   0.433   1.251
  964SOL     OW 3790   5.598   3.595   1.737
  964SOL    HW1 3791   5.507   3.554   1.729
  964SOL    HW2 3792   5.589   3.695   1.733
  965SOL     OW 3793   0.247   1.752   0.359
  965SOL    HW1 3794   0.215   1.764   0.265
  965SOL    HW2 3795   0.201   1.819   0.418
  966SOL     OW 3796   6.441   1.256   2.617
  966SOL    HW1 3797   6.419   1.315   2.539
  966SOL    HW2 3798   6.528   1.285   2.658
  967SOL     OW 3799   1.064   5.230   0.266
  967SOL    HW1 3800   1.032   5.284   0.344
  967SOL    HW2 3801   1.095   5.140   0.298
  968SOL     OW 3802   4.645   2.703   2.245
  968SOL    HW1 3803   4.672   2.717   2.150
  968SOL    HW2 3804   4.640   2.792   2.292
  969SOL     OW 3805   4.285   6.705   6.187
  969SOL    HW1 3806   4.369   6.651   6.196
  969SOL    HW2 3807   4.223   6.660   6.123
  970SOL     OW 3808   4.496   1.868   5.288
  970SOL    HW1 3809   4.554   1.793   5.318
  970SOL    HW2 3810   4.459   1.916   5.367
  971SOL     OW 3811   6.713   1.477   1.914
  971SOL    HW1 3812   6.675   1.401   1.861
  971SOL    HW2 3813   6.666   1.484   2.001
  972SOL     OW 3814   6.551   5.087   0.815
  972SOL    HW1 3815   6.529   5.093   0.912
  972SOL    HW2 3816   6.476   5.125   0.761
  973SOL     OW 3817   6.486   4.647   6.492
  973SOL    HW1 3818   6.398   4.692   6.478
  973SOL    HW2 3819   6.513   4.600   6.408
  974SOL     OW 3820   3.036   0.036   3.004
  974SOL    HW1 3821   3.058   0.131   3.026
  974SOL    HW2 3822   3.076   6.998   3.073
  975SOL     OW 3823   2.999   6.099   5.724
  975SOL    HW1 3824   3.072   6.052   5.774
  975SOL    HW2 3825   2.911   6.078   5.766
  976SOL     OW 3826   6.874   2.840   3.072
  976SOL    HW1 3827   6.938   2.912   3.045
  976SOL    HW2 3828   6.924   2.768   3.121
  977SOL     OW 3829   1.446   1.162   4.003
  977SOL    HW1 3830   1.472   1.121   3.916
  977SOL    HW2 3831   1.515   1.141   4.072
  978SOL     OW 3832   5.915   4.000   4.407
  978SOL    HW1 3833   6.005   3.966   4.433
  978SOL    HW2 3834   5.916   4.027   4.311
  979SOL     OW 3835   6.055   0.744   2.994
  979SOL    HW1 3836   6.137   0.715   2.946
  979SOL    HW2 3837   6.003   0.809   2.938
  980SOL     OW 3838   5.493   2.556   3.900
  980SOL    HW1 3839   5.430   2.634   3.895
  980SOL    HW2 3840   5.449   2.480   3.947
  981SOL     OW 3841   0.975   1.633   4.199
  981SOL    HW1 3842   1.006   1.725   4.224
  981SOL    HW2 3843   0.981   1.622   4.099
  982SOL     OW 3844   0.818   2.116   1.309
  982SOL    HW1 3845   0.798   2.064   1.226
  982SOL    HW2 3846   0.913   2.147   1.308
  983SOL     OW 3847   6.057   2.090   3.422
  983SOL    HW1 3848   6.053   2.147   3.340
  983SOL    HW2 3849   6.024   2.142   3.500
  984SOL     OW 3850   4.533   0.925   5.182
  984SOL    HW1 3851   4.578   0.852   5.234
  984SOL    HW2 3852   4.437   0.931   5.211
  985SOL     OW 3853   3.576   5.517   0.379
  985SOL    HW1 3854   3.534   5.490   0.293
  985SOL    HW2 3855   3.668   5.479   0.385
  986SOL     OW 3856   5.244   5.244   6.100
  986SOL    HW1 3857   5.223   5.333   6.141
  986SOL    HW2 3858   5.297   5.258   6.016
  987SOL     OW 3859   2.602   6.720   1.318
  987SOL    HW1 3860   2.588   6.703   1.416
  987SOL    HW2 3861   2.527   6.680   1.266
  988SOL     OW 3862   3.892   2.763   0.905
  988SOL    HW1 3863   3.854   2.851   0.879
  988SOL    HW2 3864   3.959   2.734   0.836
  989SOL     OW 3865   0.961   0.270   6.197
  989SOL    HW1 3866   1.010   0.308   6.276
  989SOL    HW2 3867   0.997   0.310   6.113
  990SOL     OW 3868   5.120   0.614   4.099
  990SOL    HW1 3869   5.069   0.574   4.023
  990SOL    HW2 3870   5.207   0.565   4.111
  991SOL     OW 3871   1.470   2.220   4.768
  991SOL    HW1 3872   1.392   2.265   4.724
  991SOL    HW2 3873   1.438   2.165   4.844
  992SOL     OW 3874   0.281   3.120   6.430
  992SOL    HW1 3875   0.188   3.082   6.425
  992SOL    HW2 3876   0.347   3.045   6.425
  993SOL     OW 3877   3.027   4.816   2.578
  993SOL    HW1 3878   3.089   4.859   2.644
  993SOL    HW2 3879   3.065   4.828   2.486
  994SOL     OW 3880   3.940   3.970   2.563
  994SOL    HW1 3881   3.961   4.057   2.608
  994SOL    HW2 3882   3.977   3.894   2.618
  995SOL     OW 3883   1.908   3.461   6.289
  995SOL    HW1 3884   1.817   3.489   6.319
  995SOL    HW2 3885   1.944   3.391   6.351
  996SOL     OW 3886   1.778   3.275   3.012
  996SOL    HW1 3887   1.778   3.353   3.075
  996SOL    HW2 3888   1.787   3.309   2.918
  997SOL     OW 3889   0.450   0.923   1.107
  997SOL    HW1 3890   0.514   0.983   1.154
  997SOL    HW2 3891   0.489   0.893   1.020
  998SOL     OW 3892   3.641   6.221   2.454
  998SOL    HW1 3893   3.576   6.277   2.506
  998SOL    HW2 3894   3.642   6.251   2.358
  999SOL     OW 3895   5.963   5.437   1.160
  999SOL    HW1 3896   5.985   5.534   1.175
  999SOL    HW2 3897   5.907   5.428   1.078
 1000SOL     OW 3898   2.198   2.465   2.974
 1000SOL    HW1 3899   2.158   2.388   2.924
 1000SOL    HW2 3900   2.251   2.431   3.052
 1001SOL     OW 3901   4.551   7.003   7.005
 1001SOL    HW1 3902   4.603   0.029   0.053
 1001SOL    HW2 3903   4.529   0.043   6.930
 1002SOL     OW 3904   5.601   1.802   6.777
 1002SOL    HW1 3905   5.536   1.871   6.744
 1002SOL    HW2 3906   5.662   1.776   6.702
 1003SOL     OW 3907   2.682   6.183   2.739
 1003SOL    HW1 3908   2.584   6.187   2.723
 1003SOL    HW2 3909   2.725   6.125   2.670
 1004SOL     OW 3910   6.727   0.319   6.644
 1004SOL    HW1 3911   6.723   0.297   6.546
 1004SOL    HW2 3912   6.769   0.409   6.656
 1005SOL     OW 3913   0.414   0.142   2.264
 1005SOL    HW1 3914   0.338   0.080   2.278
 1005SOL    HW2 3915   0.488   0.095   2.215
 1006SOL     OW 3916   2.319   5.077   1.797
 1006SOL    HW1 3917   2.334   4.982   1.824
 1006SOL    HW2 3918   2.304   5.082   1.698
 1007SOL     OW 3919   6.839   0.981   3.779
 1007SOL    HW1 3920   6.886   0.921   3.715
 1007SOL    HW2 3921   6.800   0.926   3.853
 1008SOL     OW 3922   0.891   2.357   3.734
 1008SOL    HW1 3923   0.983   2.317   3.733
 1008SOL    HW2 3924   0.895   2.449   3.694
 1009SOL     OW 3925   6.803   5.543   4.346
 1009SOL    HW1 3926   6.783   5.640   4.338
 1009SOL    HW2 3927   6.746   5.503   4.418
 1010SOL     OW 3928   4.336   2.019   0.121
 1010SOL    HW1 3929   4.305   2.109   0.151
 1010SOL    HW2 3930   4.271   1.982   0.055
 1011SOL     OW 3931   2.806   5.750   4.223
 1011SOL    HW1 3932   2.895   5.705   4.233
 1011SOL    HW2 3933   2.816   5.832   4.167
 1012SOL     OW 3934   6.727   5.305   0.898
 1012SOL    HW1 3935   6.649   5.357   0.866
 1012SOL    HW2 3936   6.700   5.210   0.914
 1013SOL     OW 3937   0.905   1.207   6.753
 1013SOL    HW1 3938   0.920   1.133   6.818
 1013SOL    HW2 3939   0.863   1.171   6.670
 1014SOL     OW 3940   4.764   5.607   6.007
 1014SOL    HW1 3941   4.730   5.684   6.061
 1014SOL    HW2 3942   4.791   5.639   5.916
 1015SOL     OW 3943   4.061   0.038   4.725
 1015SOL    HW1 3944   3.997   0.071   4.656
 1015SOL    HW2 3945   4.154   0.041   4.689
 1016SOL     OW 3946   3.402   2.671   1.317
 1016SOL    HW1 3947   3.410   2.748   1.379
 1016SOL    HW2 3948   3.419   2.586   1.367
 1017SOL     OW 3949   5.242   2.593   0.921
 1017SOL    HW1 3950   5.339   2.577   0.938
 1017SOL    HW2 3951   5.197   2.624   1.005
 1018SOL     OW 3952   1.768   3.200   3.693
 1018SOL    HW1 3953   1.812   3.111   3.708
 1018SOL    HW2 3954   1.680   3.201   3.741
 1019SOL     OW 3955   0.378   1.449   0.007
 1019SOL    HW1 3956   0.376   1.443   0.107
 1019SOL    HW2 3957   0.321   1.525   6.999
 1020SOL     OW 3958   1.945   0.588   1.040
 1020SOL    HW1 3959   2.010   0.624   0.974
 1020SOL    HW2 3960   1.995   0.553   1.120
 1021SOL     OW 3961   6.112   1.084   1.862
 1021SOL    HW1 3962   6.108   1.016   1.788
 1021SOL    HW2 3963   6.025   1.133   1.867
 1022SOL     OW 3964   4.405   3.981   6.201
 1022SOL    HW1 3965   4.374   3.928   6.279
 1022SOL    HW2 3966   4.366   3.943   6.117
 1023SOL     OW 3967   5.624   0.188   2.259
 1023SOL    HW1 3968   5.714   0.158   2.291
 1023SOL    HW2 3969   5.616   0.169   2.161
 1024SOL     OW 3970   6.452   1.973   4.119
 1024SOL    HW1 3971   6.537   2.025   4.114
 1024SOL    HW2 3972   6.463   1.886   4.070
 1025SOL     OW 3973   3.441   4.380   0.621
 1025SOL    HW1 3974   3.495   4.463   0.603
 1025SOL    HW2 3975   3.349   4.392   0.584
 1026SOL     OW 3976   1.775   1.277   0.464
 1026SOL    HW1 3977   1.754   1.316   0.554
 1026SOL    HW2 3978   1.698   1.220   0.435
 1027SOL     OW 3979   3.178   5.745   1.393
 1027SOL    HW1 3980   3.170   5.730   1.295
 1027SOL    HW2 3981   3.089   5.733   1.436
 1028SOL     OW 3982   2.414   6.228   6.896
 1028SOL    HW1 3983   2.449   6.226   6.802
 1028SOL    HW2 3984   2.450   6.151   6.948
 1029SOL     OW 3985   1.852   6.910   0.010
 1029SOL    HW1 3986   1.883   7.005   0.007
 1029SOL    HW2 3987   1.832   6.879   6.940
 1030SOL     OW 3988   3.811   3.109   4.982
 1030SOL    HW1 3989   3.807   3.053   5.064
 1030SOL    HW2 3990   3.826   3.051   4.902
 1031SOL     OW 3991   3.226   5.303   1.611
 1031SOL    HW1 3992   3.218   5.221   1.555
 1031SOL    HW2 3993   3.255   5.380   1.554
 1032SOL     OW 3994   2.119   1.130   5.638
 1032SOL    HW1 3995   2.082   1.222   5.648
 1032SOL    HW2 3996   2.213   1.135   5.604
 1033SOL     OW 3997   1.803   5.547   1.607
 1033SOL    HW1 3998   1.854   5.623   1.567
 1033SOL    HW2 3999   1.718   5.533   1.556
 1034SOL     OW 4000   2.121   5.997   4.170
 1034SOL    HW1 4001   2.123   5.907   4.127
 1034SOL    HW2 4002   2.065   5.994   4.252
 1035SOL     OW 4003   2.786   1.741   4.438
 1035SOL    HW1 4004   2.865   1.780   4.392
 1035SOL    HW2 4005   2.702   1.781   4.401
 1036SOL     OW 4006   3.813   1.174   1.106
 1036SOL    HW1 4007   3.908   1.156   1.131
 1036SOL    HW2 4008   3.768   1.088   1.083
 1037SOL     OW 4009   0.852   0.985   0.664
 1037SOL    HW1 4010   0.906   0.902   0.675
 1037SOL    HW2 4011   0.795   0.999   0.745
 1038SOL     OW 4012   0.770   1.394   5.566
 1038SOL    HW1 4013   0.757   1.301   5.601
 1038SOL    HW2 4014   0.689   1.449   5.586
 1039SOL     OW 4015   3.912   1.622   4.569
 1039SOL    HW1 4016   3.941   1.553   4.503
 1039SOL    HW2 4017   3.861   1.693   4.522
 1040SOL     OW 4018   5.940   3.517   3.365
 1040SOL    HW1 4019   5.874   3.443   3.349
 1040SOL    HW2 4020   5.928   3.588   3.296
 1041SOL     OW 4021   6.662   0.328   4.077
 1041SOL    HW1 4022   6.733   0.359   4.140
 1041SOL    HW2 4023   6.656   0.392   4.000
 1042SOL     OW 4024   4.506   4.907   1.572
 1042SOL    HW1 4025   4.559   4.931   1.653
 1042SOL    HW2 4026   4.499   4.988   1.512
 1043SOL     OW 4027   3.934   1.162   6.526
 1043SOL    HW1 4028   3.959   1.225   6.453
 1043SOL    HW2 4029   3.855   1.108   6.498
 1044SOL     OW 4030   3.572   2.020   1.399
 1044SOL    HW1 4031   3.604   2.085   1.467
 1044SOL    HW2 4032   3.631   1.939   1.400
 1045SOL     OW 4033   3.189   1.097   2.121
 1045SOL    HW1 4034   3.200   1.086   2.220
 1045SOL    HW2 4035   3.096   1.071   2.094
 1046SOL     OW 4036   2.546   6.744   0.095
 1046SOL    HW1 4037   2.622   6.789   0.049
 1046SOL    HW2 4038   2.527   6.792   0.181
 1047SOL     OW 4039   1.470   4.896   2.907
 1047SOL    HW1 4040   1.421   4.980   2.884
 1047SOL    HW2 4041   1.409   4.835   2.958
 1048SOL     OW 4042   5.401   5.370   5.120
 1048SOL    HW1 4043   5.307   5.336   5.113
 1048SOL    HW2 4044   5.435   5.355   5.213
 1049SOL     OW 4045   0.185   3.625   5.277
 1049SOL    HW1 4046   0.183   3.637   5.377
 1049SOL    HW2 4047   0.278   3.638   5.244
 1050SOL     OW 4048   3.856   0.146   6.665
 1050SOL    HW1 4049   3.865   0.047   6.676
 1050SOL    HW2 4050   3.877   0.170   6.570
 1051SOL     OW 4051   3.959   4.633   0.147
 1051SOL    HW1 4052   4.034   4.635   0.213
 1051SOL    HW2 4053   3.881   4.584   0.186
 1052SOL     OW 4054   4.111   0.344   4.567
 1052SOL    HW1 4055   4.069   0.420   4.615
 1052SOL    HW2 4056   4.042   0.274   4.548
 1053SOL     OW 4057   4.987   6.046   3.429
 1053SOL    HW1 4058   5.009   5.960   3.476
 1053SOL    HW2 4059   4.888   6.059   3.429
 1054SOL     OW 4060   2.984   4.704   5.582
 1054SOL    HW1 4061   3.046   4.755   5.642
 1054SOL    HW2 4062   2.950   4.624   5.630
 1055SOL     OW 4063   5.575   5.547   4.746
 1055SOL    HW1 4064   5.601   5.558   4.649
 1055SOL    HW2 4065   5.487   5.501   4.752
 1056SOL     OW 4066   1.783   6.405   5.138
 1056SOL    HW1 4067   1.755   6.499   5.119
 1056SOL    HW2 4068   1.789   6.354   5.052
 1057SOL     OW 4069   2.989   3.355   2.947
 1057SOL    HW1 4070   3.067   3.415   2.965
 1057SOL    HW2 4071   2.970   3.352   2.849
 1058SOL     OW 4072   4.152   1.590   2.513
 1058SOL    HW1 4073   4.232   1.575   2.571
 1058SOL    HW2 4074   4.096   1.507   2.511
 1059SOL     OW 4075   4.102   1.029   2.067
 1059SOL    HW1 4076   4.105   1.116   2.115
 1059SOL    HW2 4077   4.020   1.025   2.010
 1060SOL     OW 4078   0.702   3.660   5.805
 1060SOL    HW1 4079   0.622   3.619   5.847
 1060SOL    HW2 4080   0.711   3.627   5.711
 1061SOL     OW 4081   3.273   4.700   1.464
 1061SOL    HW1 4082   3.193   4.735   1.417
 1061SOL    HW2 4083   3.350   4.763   1.450
 1062SOL     OW 4084   6.911   5.471   5.213
 1062SOL    HW1 4085   6.960   5.472   5.126
 1062SOL    HW2 4086   6.890   5.565   5.241
 1063SOL     OW 4087   1.156   3.667   1.200
 1063SOL    HW1 4088   1.228   3.723   1.159
 1063SOL    HW2 4089   1.187   3.632   1.288
 1064SOL     OW 4090   1.582   3.074   2.287
 1064SOL    HW1 4091   1.662   3.133   2.301
 1064SOL    HW2 4092   1.499   3.124   2.313
 1065SOL     OW 4093   5.572   7.003   3.782
 1065SOL    HW1 4094   5.523   0.067   3.771
 1065SOL    HW2 4095   5.658   7.018   3.829
 1066SOL     OW 4096   5.384   0.474   4.340
 1066SOL    HW1 4097   5.295   0.504   4.375
 1066SOL    HW2 4098   5.373   0.433   4.250
 1067SOL     OW 4099   1.766   2.410   1.441
 1067SOL    HW1 4100   1.781   2.503   1.407
 1067SOL    HW2 4101   1.810   2.345   1.378
 1068SOL     OW 4102   0.352   3.885   1.963
 1068SOL    HW1 4103   0.394   3.876   1.872
 1068SOL    HW2 4104   0.258   3.851   1.960
 1069SOL     OW 4105   4.192   4.251   0.778
 1069SOL    HW1 4106   4.246   4.334   0.791
 1069SOL    HW2 4107   4.123   4.244   0.849
 1070SOL     OW 4108   2.216   0.468   0.203
 1070SOL    HW1 4109   2.167   0.385   0.230
 1070SOL    HW2 4110   2.212   0.478   0.104
 1071SOL     OW 4111   4.228   6.768   2.770
 1071SOL    HW1 4112   4.129   6.778   2.759
 1071SOL    HW2 4113   4.256   6.811   2.856
 1072SOL     OW 4114   2.802   6.448   2.298
 1072SOL    HW1 4115   2.809   6.417   2.393
 1072SOL    HW2 4116   2.732   6.395   2.251
 1073SOL     OW 4117   3.155   4.878   2.336
 1073SOL    HW1 4118   3.250   4.902   2.315
 1073SOL    HW2 4119   3.118   4.820   2.264
 1074SOL     OW 4120   1.409   5.218   2.052
 1074SOL    HW1 4121   1.485   5.268   2.093
 1074SOL    HW2 4122   1.445   5.144   1.995
 1075SOL     OW 4123   5.668   4.893   3.214
 1075SOL    HW1 4124   5.736   4.927   3.278
 1075SOL    HW2 4125   5.620   4.970   3.172
 1076SOL     OW 4126   0.790   4.334   4.775
 1076SOL    HW1 4127   0.870   4.372   4.729
 1076SOL    HW2 4128   0.714   4.328   4.710
 1077SOL     OW 4129   5.716   0.233   0.915
 1077SOL    HW1 4130   5.768   0.319   0.914
 1077SOL    HW2 4131   5.618   0.254   0.911
 1078SOL     OW 4132   1.550   1.532   1.621
 1078SOL    HW1 4133   1.626   1.528   1.686
 1078SOL    HW2 4134   1.495   1.449   1.630
 1079SOL     OW 4135   2.627   5.938   3.768
 1079SOL    HW1 4136   2.715   5.932   3.721
 1079SOL    HW2 4137   2.584   6.026   3.747
 1080SOL     OW 4138   2.583   5.662   3.787
 1080SOL    HW1 4139   2.578   5.760   3.764
 1080SOL    HW2 4140   2.589   5.651   3.886
 1081SOL     OW 4141   1.493   1.238   6.062
 1081SOL    HW1 4142   1.464   1.287   6.145
 1081SOL    HW2 4143   1.585   1.203   6.074
 1082SOL     OW 4144   1.543   0.054   5.575
 1082SOL    HW1 4145   1.458   0.041   5.626
 1082SOL    HW2 4146   1.619   0.065   5.639
 1083SOL     OW 4147   3.284   3.369   2.367
 1083SOL    HW1 4148   3.291   3.449   2.306
 1083SOL    HW2 4149   3.374   3.350   2.406
 1084SOL     OW 4150   5.779   5.100   1.115
 1084SOL    HW1 4151   5.766   5.005   1.087
 1084SOL    HW2 4152   5.871   5.130   1.088
 1085SOL     OW 4153   1.799   5.131   3.991
 1085SOL    HW1 4154   1.825   5.219   3.950
 1085SOL    HW2 4155   1.711   5.141   4.036
 1086SOL     OW 4156   5.693   5.946   3.529
 1086SOL    HW1 4157   5.594   5.932   3.527
 1086SOL    HW2 4158   5.734   5.902   3.450
 1087SOL     OW 4159   5.080   3.032   5.307
 1087SOL    HW1 4160   5.082   2.979   5.391
 1087SOL    HW2 4161   5.017   3.109   5.318
 1088SOL     OW 4162   5.082   4.853   3.386
 1088SOL    HW1 4163   5.143   4.920   3.342
 1088SOL    HW2 4164   5.129   4.766   3.394
 1089SOL     OW 4165   0.175   0.486   4.934
 1089SOL    HW1 4166   0.266   0.454   4.962
 1089SOL    HW2 4167   0.144   0.433   4.855
 1090SOL     OW 4168   2.105   1.418   5.597
 1090SOL    HW1 4169   2.131   1.389   5.505
 1090SOL    HW2 4170   2.018   1.468   5.593
 1091SOL     OW 4171   1.693   1.813   4.196
 1091SOL    HW1 4172   1.702   1.730   4.252
 1091SOL    HW2 4173   1.596   1.831   4.180
 1092SOL     OW 4174   2.060   4.062   1.562
 1092SOL    HW1 4175   2.124   4.012   1.504
 1092SOL    HW2 4176   2.003   4.121   1.505
 1093SOL     OW 4177   1.367   2.704   2.254
 1093SOL    HW1 4178   1.412   2.780   2.302
 1093SOL    HW2 4179   1.433   2.660   2.193
 1094SOL     OW 4180   0.396   6.683   1.717
 1094SOL    HW1 4181   0.325   6.715   1.780
 1094SOL    HW2 4182   0.367   6.598   1.673
 1095SOL     OW 4183   6.063   3.148   6.475
 1095SOL    HW1 4184   6.083   3.212   6.549
 1095SOL    HW2 4185   5.995   3.082   6.506
 1096SOL     OW 4186   3.686   5.056   0.991
 1096SOL    HW1 4187   3.608   5.079   0.932
 1096SOL    HW2 4188   3.672   4.965   1.030
 1097SOL     OW 4189   1.727   5.163   5.032
 1097SOL    HW1 4190   1.812   5.184   5.079
 1097SOL    HW2 4191   1.691   5.076   5.066
 1098SOL     OW 4192   4.936   2.112   1.061
 1098SOL    HW1 4193   4.964   2.112   0.965
 1098SOL    HW2 4194   4.949   2.021   1.100
 1099SOL     OW 4195   3.999   2.012   4.199
 1099SOL    HW1 4196   3.944   2.061   4.268
 1099SOL    HW2 4197   4.096   2.030   4.216
 1100SOL     OW 4198   1.277   1.083   6.246
 1100SOL    HW1 4199   1.376   1.086   6.257
 1100SOL    HW2 4200   1.234   1.127   6.325
 1101SOL     OW 4201   5.378   3.305   1.137
 1101SOL    HW1 4202   5.308   3.236   1.121
 1101SOL    HW2 4203   5.453   3.266   1.190
 1102SOL     OW 4204   0.396   4.502   3.860
 1102SOL    HW1 4205   0.479   4.477   3.910
 1102SOL    HW2 4206   0.318   4.449   3.895
 1103SOL     OW 4207   1.490   1.814   1.648
 1103SOL    HW1 4208   1.516   1.718   1.639
 1103SOL    HW2 4209   1.566   1.872   1.621
 1104SOL     OW 4210   2.693   4.588   6.488
 1104SOL    HW1 4211   2.616   4.525   6.475
 1104SOL    HW2 4212   2.762   4.572   6.418
 1105SOL     OW 4213   4.891   4.444   6.882
 1105SOL    HW1 4214   4.922   4.436   6.977
 1105SOL    HW2 4215   4.958   4.402   6.821
 1106SOL     OW 4216   6.678   2.552   6.289
 1106SOL    HW1 4217   6.731   2.495   6.352
 1106SOL    HW2 4218   6.591   2.577   6.331
 1107SOL     OW 4219   0.797   0.514   0.279
 1107SOL    HW1 4220   0.773   0.598   0.229
 1107SOL    HW2 4221   0.861   0.536   0.353
 1108SOL     OW 4222   2.292   1.167   5.938
 1108SOL    HW1 4223   2.318   1.115   5.856
 1108SOL    HW2 4224   2.365   1.160   6.006
 1109SOL     OW 4225   3.795   5.984   4.341
 1109SOL    HW1 4226   3.840   5.895   4.330
 1109SOL    HW2 4227   3.819   6.043   4.264
 1110SOL     OW 4228   2.990   2.735   1.610
 1110SOL    HW1 4229   3.015   2.832   1.609
 1110SOL    HW2 4230   3.065   2.681   1.648
 1111SOL     OW 4231   5.673   0.535   0.095
 1111SOL    HW1 4232   5.742   0.491   0.153
 1111SOL    HW2 4233   5.671   0.490   0.006
 1112SOL     OW 4234   6.358   0.654   2.344
 1112SOL    HW1 4235   6.442   0.606   2.320
 1112SOL    HW2 4236   6.341   0.645   2.442
 1113SOL     OW 4237   6.938   3.377   2.778
 1113SOL    HW1 4238   6.840   3.358   2.781
 1113SOL    HW2 4239   6.964   3.431   2.858
 1114SOL     OW 4240   4.827   0.384   6.205
 1114SOL    HW1 4241   4.898   0.444   6.242
 1114SOL    HW2 4242   4.742   0.435   6.196
 1115SOL     OW 4243   3.851   3.174   0.580
 1115SOL    HW1 4244   3.899   3.103   0.528
 1115SOL    HW2 4245   3.756   3.146   0.594
 1116SOL     OW 4246   4.991   5.978   3.863
 1116SOL    HW1 4247   4.955   5.892   3.899
 1116SOL    HW2 4248   5.050   5.958   3.784
 1117SOL     OW 4249   2.627   2.709   1.524
 1117SOL    HW1 4250   2.612   2.801   1.558
 1117SOL    HW2 4251   2.644   2.647   1.600
 1118SOL     OW 4252   2.142   5.115   2.797
 1118SOL    HW1 4253   2.206   5.065   2.740
 1118SOL    HW2 4254   2.073   5.160   2.739
 1119SOL     OW 4255   4.226   3.904   1.811
 1119SOL    HW1 4256   4.247   3.995   1.848
 1119SOL    HW2 4257   4.133   3.878   1.838
 1120SOL     OW 4258   5.437   0.075   6.527
 1120SOL    HW1 4259   5.350   0.102   6.485
 1120SOL    HW2 4260   5.431   7.002   6.558
 1121SOL     OW 4261   5.060   2.830   1.909
 1121SOL    HW1 4262   5.043   2.900   1.978
 1121SOL    HW2 4263   5.005   2.849   1.828
 1122SOL     OW 4264   6.003   3.324   6.993
 1122SOL    HW1 4265   5.910   3.306   0.004
 1122SOL    HW2 4266   6.070   3.294   0.038
 1123SOL     OW 4267   4.746   1.363   2.263
 1123SOL    HW1 4268   4.781   1.322   2.347
 1123SOL    HW2 4269   4.646   1.374   2.271
 1124SOL     OW 4270   6.826   3.501   5.549
 1124SOL    HW1 4271   6.872   3.506   5.460
 1124SOL    HW2 4272   6.730   3.527   5.537
 1125SOL     OW 4273   2.896   2.858   5.422
 1125SOL    HW1 4274   2.892   2.775   5.367
 1125SOL    HW2 4275   2.809   2.906   5.417
 1126SOL     OW 4276   4.520   0.342   0.537
 1126SOL    HW1 4277   4.533   0.366   0.633
 1126SOL    HW2 4278   4.501   0.425   0.485
 1127SOL     OW 4279   2.998   4.653   0.663
 1127SOL    HW1 4280   2.932   4.677   0.592
 1127SOL    HW2 4281   2.955   4.667   0.753
 1128SOL     OW 4282   3.732   2.018   3.516
 1128SOL    HW1 4283   3.817   2.034   3.465
 1128SOL    HW2 4284   3.701   1.924   3.500
 1129SOL     OW 4285   4.200   0.806   0.036
 1129SOL    HW1 4286   4.190   0.895   0.079
 1129SOL    HW2 4287   4.190   0.734   0.105
 1130SOL     OW 4288   1.634   3.898   0.795
 1130SOL    HW1 4289   1.603   3.964   0.863
 1130SOL    HW2 4290   1.611   3.805   0.824
 1131SOL     OW 4291   0.373   6.238   5.749
 1131SOL    HW1 4292   0.282   6.266   5.718
 1131SOL    HW2 4293   0.364   6.156   5.807
 1132SOL     OW 4294   5.014   0.011   5.969
 1132SOL    HW1 4295   5.010   0.102   6.010
 1132SOL    HW2 4296   5.026   0.018   5.870
 1133SOL     OW 4297   0.613   2.347   1.264
 1133SOL    HW1 4298   0.695   2.298   1.292
 1133SOL    HW2 4299   0.636   2.415   1.194
 1134SOL     OW 4300   5.721   2.637   6.982
 1134SOL    HW1 4301   5.720   2.549   0.006
 1134SOL    HW2 4302   5.704   2.710   0.025
 1135SOL     OW 4303   3.052   2.178   3.467
 1135SOL    HW1 4304   2.968   2.222   3.498
 1135SOL    HW2 4305   3.052   2.172   3.367
 1136SOL     OW 4306   2.743   5.528   3.588
 1136SOL    HW1 4307   2.690   5.569   3.662
 1136SOL    HW2 4308   2.744   5.428   3.599
 1137SOL     OW 4309   1.391   1.974   6.343
 1137SOL    HW1 4310   1.365   2.000   6.436
 1137SOL    HW2 4311   1.479   1.927   6.345
 1138SOL     OW 4312   2.440   3.433   6.116
 1138SOL    HW1 4313   2.378   3.354   6.112
 1138SOL    HW2 4314   2.400   3.508   6.064
 1139SOL     OW 4315   1.035   6.422   2.992
 1139SOL    HW1 4316   0.999   6.513   3.010
 1139SOL    HW2 4317   1.049   6.410   2.894
 1140SOL     OW 4318   3.538   1.469   3.198
 1140SOL    HW1 4319   3.444   1.495   3.217
 1140SOL    HW2 4320   3.588   1.459   3.284
 1141SOL     OW 4321   5.717   5.567   5.261
 1141SOL    HW1 4322   5.661   5.588   5.341
 1141SOL    HW2 4323   5.666   5.589   5.178
 1142SOL     OW 4324   5.535   0.418   4.545
 1142SOL    HW1 4325   5.475   0.440   4.467
 1142SOL    HW2 4326   5.483   0.367   4.613
 1143SOL     OW 4327   4.351   2.333   2.682
 1143SOL    HW1 4328   4.300   2.330   2.596
 1143SOL    HW2 4329   4.291   2.366   2.755
 1144SOL     OW 4330   0.358   4.053   3.984
 1144SOL    HW1 4331   0.317   3.982   3.926
 1144SOL    HW2 4332   0.456   4.036   3.993
 1145SOL     OW 4333   6.413   5.443   4.265
 1145SOL    HW1 4334   6.378   5.391   4.188
 1145SOL    HW2 4335   6.484   5.507   4.234
 1146SOL     OW 4336   6.241   2.408   0.814
 1146SOL    HW1 4337   6.333   2.433   0.844
 1146SOL    HW2 4338   6.187   2.377   0.893
 1147SOL     OW 4339   0.263   3.671   2.481
 1147SOL    HW1 4340   0.195   3.662   2.554
 1147SOL    HW2 4341   0.329   3.741   2.505
 1148SOL     OW 4342   3.568   6.207   6.403
 1148SOL    HW1 4343   3.610   6.278   6.347
 1148SOL    HW2 4344   3.594   6.221   6.499
 1149SOL     OW 4345   6.489   3.470   2.767
 1149SOL    HW1 4346   6.486   3.533   2.845
 1149SOL    HW2 4347   6.408   3.411   2.768
 1150SOL     OW 4348   2.236   5.081   0.920
 1150SOL    HW1 4349   2.306   5.151   0.936
 1150SOL    HW2 4350   2.160   5.095   0.983
 1151SOL     OW 4351   5.794   5.440   6.290
 1151SOL    HW1 4352   5.854   5.445   6.369
 1151SOL    HW2 4353   5.710   5.393   6.314
 1152SOL     OW 4354   1.066   0.039   5.027
 1152SOL    HW1 4355   1.048   0.098   4.948
 1152SOL    HW2 4356   1.013   0.071   5.105
 1153SOL     OW 4357   2.093   6.060   2.599
 1153SOL    HW1 4358   2.148   6.075   2.681
 1153SOL    HW2 4359   2.096   5.962   2.576
 1154SOL     OW 4360   0.451   3.829   2.195
 1154SOL    HW1 4361   0.416   3.853   2.104
 1154SOL    HW2 4362   0.427   3.733   2.215
 1155SOL     OW 4363   3.124   6.144   0.838
 1155SOL    HW1 4364   3.213   6.135   0.883
 1155SOL    HW2 4365   3.136   6.140   0.739
 1156SOL     OW 4366   2.530   0.827   3.926
 1156SOL    HW1 4367   2.590   0.854   3.851
 1156SOL    HW2 4368   2.472   0.904   3.953
 1157SOL     OW 4369   0.014   2.194   4.662
 1157SOL    HW1 4370   6.983   2.160   4.585
 1157SOL    HW2 4371   0.077   2.123   4.693
 1158SOL     OW 4372   5.802   4.699   6.003
 1158SOL    HW1 4373   5.841   4.711   5.912
 1158SOL    HW2 4374   5.705   4.723   6.001
 1159SOL     OW 4375   3.341   5.752   2.550
 1159SOL    HW1 4376   3.411   5.782   2.615
 1159SOL    HW2 4377   3.313   5.658   2.572
 1160SOL     OW 4378   4.032   3.538   2.618
 1160SOL    HW1 4379   4.092   3.614   2.644
 1160SOL    HW2 4380   4.070   3.452   2.651
 1161SOL     OW 4381   5.623   0.320   3.956
 1161SOL    HW1 4382   5.548   0.271   3.912
 1161SOL    HW2 4383   5.616   0.311   4.055
 1162SOL     OW 4384   3.126   3.306   1.826
 1162SOL    HW1 4385   3.199   3.245   1.856
 1162SOL    HW2 4386   3.051   3.304   1.891
 1163SOL     OW 4387   5.098   1.959   1.726
 1163SOL    HW1 4388   4.998   1.962   1.735
 1163SOL    HW2 4389   5.133   1.878   1.774
 1164SOL     OW 4390   5.497   3.005   2.684
 1164SOL    HW1 4391   5.493   3.030   2.781
 1164SOL    HW2 4392   5.437   2.927   2.667
 1165SOL     OW 4393   0.839   3.434   3.416
 1165SOL    HW1 4394   0.843   3.350   3.470
 1165SOL    HW2 4395   0.901   3.426   3.338
 1166SOL     OW 4396   4.122   2.474   6.180
 1166SOL    HW1 4397   4.078   2.477   6.090
 1166SOL    HW2 4398   4.077   2.404   6.236
 1167SOL     OW 4399   4.000   0.647   5.035
 1167SOL    HW1 4400   3.911   0.686   5.014
 1167SOL    HW2 4401   3.990   0.578   5.107
 1168SOL     OW 4402   0.041   6.547   3.168
 1168SOL    HW1 4403   0.053   6.617   3.239
 1168SOL    HW2 4404   0.123   6.490   3.164
 1169SOL     OW 4405   0.461   3.465   1.248
 1169SOL    HW1 4406   0.520   3.508   1.316
 1169SOL    HW2 4407   0.418   3.535   1.190
 1170SOL     OW 4408   3.805   1.268   2.825
 1170SOL    HW1 4409   3.727   1.205   2.827
 1170SOL    HW2 4410   3.815   1.306   2.733
 1171SOL     OW 4411   3.143   6.183   1.306
 1171SOL    HW1 4412   3.175   6.275   1.327
 1171SOL    HW2 4413   3.044   6.177   1.322
 1172SOL     OW 4414   3.528   3.581   3.808
 1172SOL    HW1 4415   3.571   3.659   3.853
 1172SOL    HW2 4416   3.590   3.502   3.812
 1173SOL     OW 4417   3.240   0.508   5.634
 1173SOL    HW1 4418   3.330   0.544   5.658
 1173SOL    HW2 4419   3.174   0.583   5.633
 1174SOL     OW 4420   2.490   5.915   0.646
 1174SOL    HW1 4421   2.405   5.967   0.639
 1174SOL    HW2 4422   2.562   5.965   0.597
 1175SOL     OW 4423   5.805   4.646   6.898
 1175SOL    HW1 4424   5.837   4.718   6.960
 1175SOL    HW2 4425   5.862   4.565   6.908
 1176SOL     OW 4426   5.412   4.579   0.808
 1176SOL    HW1 4427   5.416   4.524   0.724
 1176SOL    HW2 4428   5.471   4.660   0.797
 1177SOL     OW 4429   6.655   2.987   5.730
 1177SOL    HW1 4430   6.660   3.078   5.771
 1177SOL    HW2 4431   6.599   2.927   5.787
 1178SOL     OW 4432   5.495   3.269   2.350
 1178SOL    HW1 4433   5.517   3.350   2.295
 1178SOL    HW2 4434   5.407   3.232   2.319
 1179SOL     OW 4435   2.196   3.820   0.751
 1179SOL    HW1 4436   2.138   3.815   0.832
 1179SOL    HW2 4437   2.188   3.735   0.699
 1180SOL     OW 4438   2.343   1.430   3.712
 1180SOL    HW1 4439   2.294   1.442   3.626
 1180SOL    HW2 4440   2.307   1.350   3.761
 1181SOL     OW 4441   1.254   4.811   4.033
 1181SOL    HW1 4442   1.317   4.771   4.099
 1181SOL    HW2 4443   1.272   4.773   3.942
 1182SOL     OW 4444   2.059   4.179   3.884
 1182SOL    HW1 4445   2.107   4.249   3.938
 1182SOL    HW2 4446   2.016   4.221   3.805
 1183SOL     OW 4447   4.164   6.045   1.662
 1183SOL    HW1 4448   4.234   6.060   1.592
 1183SOL    HW2 4449   4.142   5.947   1.665
 1184SOL     OW 4450   3.137   2.874   5.256
 1184SOL    HW1 4451   3.058   2.907   5.308
 1184SOL    HW2 4452   3.160   2.939   5.184
 1185SOL     OW 4453   2.196   6.884   0.099
 1185SOL    HW1 4454   2.121   6.888   0.164
 1185SOL    HW2 4455   2.189   6.800   0.045
 1186SOL     OW 4456   6.173   0.777   4.729
 1186SOL    HW1 4457   6.182   0.694   4.784
 1186SOL    HW2 4458   6.257   0.831   4.736
 1187SOL     OW 4459   5.927   6.576   4.920
 1187SOL    HW1 4460   5.964   6.567   4.827
 1187SOL    HW2 4461   5.930   6.672   4.948
 1188SOL     OW 4462   2.133   6.638   5.855
 1188SOL    HW1 4463   2.159   6.734   5.846
 1188SOL    HW2 4464   2.071   6.628   5.933
 1189SOL     OW 4465   5.867   1.030   1.394
 1189SOL    HW1 4466   5.847   1.059   1.487
 1189SOL    HW2 4467   5.953   0.979   1.392
 1190SOL     OW 4468   3.909   5.174   3.539
 1190SOL    HW1 4469   3.907   5.090   3.486
 1190SOL    HW2 4470   3.974   5.166   3.614
 1191SOL     OW 4471   3.027   5.603   5.931
 1191SOL    HW1 4472   3.071   5.553   5.856
 1191SOL    HW2 4473   2.999   5.693   5.898
 1192SOL     OW 4474   5.929   5.279   2.998
 1192SOL    HW1 4475   5.901   5.257   3.091
 1192SOL    HW2 4476   5.888   5.214   2.934
 1193SOL     OW 4477   5.464   0.142   4.339
 1193SOL    HW1 4478   5.420   0.221   4.298
 1193SOL    HW2 4479   5.539   0.111   4.280
 1194SOL     OW 4480   6.151   0.218   0.867
 1194SOL    HW1 4481   6.220   0.266   0.922
 1194SOL    HW2 4482   6.127   0.274   0.787
 1195SOL     OW 4483   6.017   0.903   6.107
 1195SOL    HW1 4484   5.926   0.944   6.114
 1195SOL    HW2 4485   6.012   0.819   6.054
 1196SOL     OW 4486   0.275   4.997   2.362
 1196SOL    HW1 4487   0.263   4.902   2.334
 1196SOL    HW2 4488   0.341   5.001   2.438
 1197SOL     OW 4489   4.104   6.280   5.626
 1197SOL    HW1 4490   4.164   6.274   5.706
 1197SOL    HW2 4491   4.141   6.223   5.552
 1198SOL     OW 4492   3.324   2.022   3.156
 1198SOL    HW1 4493   3.410   1.979   3.183
 1198SOL    HW2 4494   3.292   2.083   3.228
 1199SOL     OW 4495   3.005   3.595   2.140
 1199SOL    HW1 4496   3.100   3.576   2.115
 1199SOL    HW2 4497   2.989   3.693   2.139
 1200SOL     OW 4498   4.594   4.096   5.683
 1200SOL    HW1 4499   4.647   4.051   5.754
 1200SOL    HW2 4500   4.540   4.028   5.634
 1201SOL     OW 4501   1.299   1.813   4.840
 1201SOL    HW1 4502   1.339   1.762   4.764
 1201SOL    HW2 4503   1.262   1.749   4.907
 1202SOL     OW 4504   5.553   0.501   5.237
 1202SOL    HW1 4505   5.605   0.496   5.152
 1202SOL    HW2 4506   5.570   0.419   5.292
 1203SOL     OW 4507   5.529   0.698   0.892
 1203SOL    HW1 4508   5.447   0.710   0.947
 1203SOL    HW2 4509   5.547   0.781   0.839
 1204SOL     OW 4510   3.410   1.329   0.463
 1204SOL    HW1 4511   3.366   1.244   0.437
 1204SOL    HW2 4512   3.496   1.340   0.412
 1205SOL     OW 4513   6.167   2.358   6.106
 1205SOL    HW1 4514   6.131   2.382   6.016
 1205SOL    HW2 4515   6.106   2.392   6.177
 1206SOL     OW 4516   1.607   1.475   4.781
 1206SOL    HW1 4517   1.588   1.572   4.769
 1206SOL    HW2 4518   1.524   1.428   4.812
 1207SOL     OW 4519   5.911   0.197   0.404
 1207SOL    HW1 4520   5.999   0.243   0.414
 1207SOL    HW2 4521   5.866   0.191   0.493
 1208SOL     OW 4522   3.662   3.778   2.599
 1208SOL    HW1 4523   3.614   3.865   2.604
 1208SOL    HW2 4524   3.713   3.773   2.513
 1209SOL     OW 4525   6.241   6.207   5.266
 1209SOL    HW1 4526   6.149   6.195   5.304
 1209SOL    HW2 4527   6.309   6.194   5.338
 1210SOL     OW 4528   3.803   7.004   2.582
 1210SOL    HW1 4529   3.867   0.058   2.579
 1210SOL    HW2 4530   3.724   0.002   2.525
 1211SOL     OW 4531   1.686   3.591   3.894
 1211SOL    HW1 4532   1.725   3.683   3.900
 1211SOL    HW2 4533   1.739   3.536   3.829
 1212SOL     OW 4534   1.317   4.179   4.681
 1212SOL    HW1 4535   1.364   4.094   4.704
 1212SOL    HW2 4536   1.263   4.209   4.760
 1213SOL     OW 4537   0.265   2.898   4.927
 1213SOL    HW1 4538   0.329   2.916   5.001
 1213SOL    HW2 4539   0.192   2.839   4.961
 1214SOL     OW 4540   1.603   3.706   4.842
 1214SOL    HW1 4541   1.650   3.678   4.926
 1214SOL    HW2 4542   1.505   3.686   4.850
 1215SOL     OW 4543   2.731   4.667   3.131
 1215SOL    HW1 4544   2.735   4.655   3.032
 1215SOL    HW2 4545   2.704   4.581   3.174
 1216SOL     OW 4546   1.251   6.666   1.706
 1216SOL    HW1 4547   1.305   6.750   1.717
 1216SOL    HW2 4548   1.161   6.689   1.670
 1217SOL     OW 4549   1.095   6.581   0.473
 1217SOL    HW1 4550   1.066   6.657   0.531
 1217SOL    HW2 4551   1.128   6.616   0.385
 1218SOL     OW 4552   0.631   3.736   5.070
 1218SOL    HW1 4553   0.672   3.823   5.042
 1218SOL    HW2 4554   0.686   3.660   5.036
 1219SOL     OW 4555   4.109   5.678   0.768
 1219SOL    HW1 4556   4.107   5.766   0.721
 1219SOL    HW2 4557   4.180   5.620   0.728
 1220SOL     OW 4558   5.638   2.681   2.752
 1220SOL    HW1 4559   5.675   2.737   2.677
 1220SOL    HW2 4560   5.691   2.597   2.760
 1221SOL     OW 4561   5.600   3.478   0.614
 1221SOL    HW1 4562   5.574   3.428   0.531
 1221SOL    HW2 4563   5.582   3.576   0.601
 1222SOL     OW 4564   6.958   6.498   0.615
 1222SOL    HW1 4565   6.960   6.577   0.677
 1222SOL    HW2 4566   0.028   6.476   0.587
 1223SOL     OW 4567   6.098   0.340   6.713
 1223SOL    HW1 4568   6.008   0.304   6.687
 1223SOL    HW2 4569   6.095   0.439   6.714
 1224SOL     OW 4570   4.299   6.032   0.518
 1224SOL    HW1 4571   4.248   5.966   0.463
 1224SOL    HW2 4572   4.314   6.115   0.465
 1225SOL     OW 4573   4.456   2.148   0.892
 1225SOL    HW1 4574   4.411   2.069   0.850
 1225SOL    HW2 4575   4.392   2.225   0.895
 1226SOL     OW 4576   5.850   6.227   1.095
 1226SOL    HW1 4577   5.868   6.301   1.160
 1226SOL    HW2 4578   5.917   6.154   1.109
 1227SOL     OW 4579   5.720   4.167   5.574
 1227SOL    HW1 4580   5.632   4.183   5.618
 1227SOL    HW2 4581   5.713   4.188   5.477
 1228SOL     OW 4582   3.947   3.004   2.310
 1228SOL    HW1 4583   3.944   3.081   2.246
 1228SOL    HW2 4584   4.034   2.956   2.300
 1229SOL     OW 4585   1.855   6.024   2.255
 1229SOL    HW1 4586   1.846   5.968   2.337
 1229SOL    HW2 4587   1.852   5.965   2.174
 1230SOL     OW 4588   4.945   4.992   2.362
 1230SOL    HW1 4589   4.959   4.895   2.381
 1230SOL    HW2 4590   4.878   5.029   2.426
 1231SOL     OW 4591   1.839   2.283   6.268
 1231SOL    HW1 4592   1.805   2.194   6.237
 1231SOL    HW2 4593   1.764   2.349   6.267
 1232SOL     OW 4594   3.366   0.411   5.242
 1232SOL    HW1 4595   3.293   0.352   5.276
 1232SOL    HW2 4596   3.363   0.414   5.142
 1233SOL     OW 4597   0.487   4.982   3.892
 1233SOL    HW1 4598   0.455   4.980   3.797
 1233SOL    HW2 4599   0.500   4.888   3.924
 1234SOL     OW 4600   0.056   3.581   6.625
 1234SOL    HW1 4601   7.011   3.538   6.565
 1234SOL    HW2 4602   0.041   3.551   6.719
 1235SOL     OW 4603   5.537   4.452   0.214
 1235SOL    HW1 4604   5.546   4.552   0.211
 1235SOL    HW2 4605   5.597   4.415   0.285
 1236SOL     OW 4606   2.272   0.729   0.579
 1236SOL    HW1 4607   2.300   0.820   0.548
 1236SOL    HW2 4608   2.189   0.701   0.530
 1237SOL     OW 4609   1.377   0.412   4.666
 1237SOL    HW1 4610   1.411   0.443   4.755
 1237SOL    HW2 4611   1.352   0.490   4.610
 1238SOL     OW 4612   0.439   7.007   3.875
 1238SOL    HW1 4613   0.482   0.074   3.861
 1238SOL    HW2 4614   0.505   6.935   3.854
 1239SOL     OW 4615   6.140   5.676   4.222
 1239SOL    HW1 4616   6.159   5.679   4.321
 1239SOL    HW2 4617   6.058   5.622   4.206
 1240SOL     OW 4618   5.773   5.482   2.757
 1240SOL    HW1 4619   5.864   5.516   2.735
 1240SOL    HW2 4620   5.752   5.502   2.853
 1241SOL     OW 4621   5.651   5.024   4.314
 1241SOL    HW1 4622   5.694   5.069   4.235
 1241SOL    HW2 4623   5.647   5.089   4.390
 1242SOL     OW 4624   1.437   3.582   0.342
 1242SOL    HW1 4625   1.470   3.489   0.327
 1242SOL    HW2 4626   1.484   3.644   0.280
 1243SOL     OW 4627   1.143   4.003   5.032
 1243SOL    HW1 4628   1.158   3.975   5.127
 1243SOL    HW2 4629   1.215   4.065   5.004
 1244SOL     OW 4630   5.929   0.129   4.754
 1244SOL    HW1 4631   5.951   0.175   4.840
 1244SOL    HW2 4632   6.003   0.066   4.730
 1245SOL     OW 4633   5.110   6.187   1.287
 1245SOL    HW1 4634   5.110   6.093   1.319
 1245SOL    HW2 4635   5.015   6.221   1.283
 1246SOL     OW 4636   4.572   1.471   0.933
 1246SOL    HW1 4637   4.593   1.515   0.846
 1246SOL    HW2 4638   4.585   1.372   0.924
 1247SOL     OW 4639   6.820   6.391   3.425
 1247SOL    HW1 4640   6.788   6.469   3.479
 1247SOL    HW2 4641   6.751   6.367   3.356
 1248SOL     OW 4642   0.008   0.167   4.963
 1248SOL    HW1 4643   0.100   0.175   4.923
 1248SOL    HW2 4644   0.015   0.166   5.063
 1249SOL     OW 4645   0.573   4.462   1.227
 1249SOL    HW1 4646   0.601   4.375   1.185
 1249SOL    HW2 4647   0.520   4.443   1.310
 1250SOL     OW 4648   5.581   3.296   5.467
 1250SOL    HW1 4649   5.494   3.246   5.465
 1250SOL    HW2 4650   5.627   3.280   5.554
 1251SOL     OW 4651   3.061   0.442   2.528
 1251SOL    HW1 4652   2.968   0.422   2.557
 1251SOL    HW2 4653   3.117   0.358   2.537
 1252SOL     OW 4654   2.385   5.804   6.903
 1252SOL    HW1 4655   2.330   5.877   6.862
 1252SOL    HW2 4656   2.463   5.784   6.843
 1253SOL     OW 4657   3.498   0.799   0.758
 1253SOL    HW1 4658   3.563   0.820   0.684
 1253SOL    HW2 4659   3.513   0.705   0.789
 1254SOL     OW 4660   6.387   1.498   2.358
 1254SOL    HW1 4661   6.380   1.565   2.284
 1254SOL    HW2 4662   6.335   1.416   2.332
 1255SOL     OW 4663   5.448   2.038   4.963
 1255SOL    HW1 4664   5.357   2.010   4.992
 1255SOL    HW2 4665   5.451   2.040   4.863
 1256SOL     OW 4666   0.057   5.919   3.868
 1256SOL    HW1 4667   0.149   5.883   3.850
 1256SOL    HW2 4668   0.064   6.010   3.908
 1257SOL     OW 4669   0.110   4.576   3.594
 1257SOL    HW1 4670   0.207   4.562   3.573
 1257SOL    HW2 4671   0.099   4.658   3.649
 1258SOL     OW 4672   3.169   6.653   4.551
 1258SOL    HW1 4673   3.224   6.695   4.478
 1258SOL    HW2 4674   3.087   6.707   4.566
 1259SOL     OW 4675   4.786   0.337   5.280
 1259SOL    HW1 4676   4.771   0.359   5.184
 1259SOL    HW2 4677   4.777   0.420   5.335
 1260SOL     OW 4678   2.100   0.440   2.102
 1260SOL    HW1 4679   2.171   0.507   2.126
 1260SOL    HW2 4680   2.142   0.365   2.051
 1261SOL     OW 4681   0.184   4.336   6.520
 1261SOL    HW1 4682   0.195   4.350   6.618
 1261SOL    HW2 4683   0.264   4.370   6.472
 1262SOL     OW 4684   4.819   4.945   0.930
 1262SOL    HW1 4685   4.837   4.948   1.028
 1262SOL    HW2 4686   4.747   5.011   0.908
 1263SOL     OW 4687   6.846   2.263   0.874
 1263SOL    HW1 4688   6.890   2.179   0.907
 1263SOL    HW2 4689   6.762   2.240   0.825
 1264SOL     OW 4690   0.747   3.601   3.206
 1264SOL    HW1 4691   0.753   3.538   3.283
 1264SOL    HW2 4692   0.688   3.562   3.135
 1265SOL     OW 4693   6.964   3.868   4.849
 1265SOL    HW1 4694   6.917   3.836   4.767
 1265SOL    HW2 4695   6.995   3.962   4.836
 1266SOL     OW 4696   3.297   1.859   5.591
 1266SOL    HW1 4697   3.349   1.917   5.529
 1266SOL    HW2 4698   3.290   1.767   5.553
 1267SOL     OW 4699   0.003   5.201   3.358
 1267SOL    HW1 4700   7.008   5.128   3.292
 1267SOL    HW2 4701   7.017   5.290   3.313
 1268SOL     OW 4702   5.504   2.699   6.332
 1268SOL    HW1 4703   5.515   2.776   6.270
 1268SOL    HW2 4704   5.442   2.724   6.407
 1269SOL     OW 4705   6.827   6.252   4.738
 1269SOL    HW1 4706   6.887   6.331   4.723
 1269SOL    HW2 4707   6.738   6.269   4.697
 1270SOL     OW 4708   1.945   3.743   4.797
 1270SOL    HW1 4709   1.886   3.766   4.719
 1270SOL    HW2 4710   1.900   3.771   4.882
 1271SOL     OW 4711   3.228   1.621   2.942
 1271SOL    HW1 4712   3.291   1.695   2.918
 1271SOL    HW2 4713   3.157   1.655   3.003
 1272SOL     OW 4714   6.916   5.514   1.070
 1272SOL    HW1 4715   6.859   5.474   0.999
 1272SOL    HW2 4716   6.973   5.587   1.031
 1273SOL     OW 4717   2.574   4.477   6.879
 1273SOL    HW1 4718   2.641   4.517   6.816
 1273SOL    HW2 4719   2.590   4.378   6.886
 1274SOL     OW 4720   0.136   2.464   1.897
 1274SOL    HW1 4721   0.083   2.529   1.843
 1274SOL    HW2 4722   0.085   2.379   1.906
 1275SOL     OW 4723   4.764   0.881   4.332
 1275SOL    HW1 4724   4.767   0.807   4.399
 1275SOL    HW2 4725   4.740   0.966   4.378
 1276SOL     OW 4726   6.924   0.512   1.901
 1276SOL    HW1 4727   6.921   0.607   1.932
 1276SOL    HW2 4728   7.016   0.490   1.869
 1277SOL     OW 4729   0.199   1.042   4.769
 1277SOL    HW1 4730   0.152   1.122   4.732
 1277SOL    HW2 4731   0.298   1.056   4.764
 1278SOL     OW 4732   1.944   2.076   5.337
 1278SOL    HW1 4733   1.977   2.169   5.351
 1278SOL    HW2 4734   1.993   2.034   5.261
 1279SOL     OW 4735   2.866   6.278   0.954
 1279SOL    HW1 4736   2.910   6.190   0.966
 1279SOL    HW2 4737   2.906   6.326   0.876
 1280SOL     OW 4738   2.120   0.015   2.803
 1280SOL    HW1 4739   2.088   0.003   2.897
 1280SOL    HW2 4740   2.118   6.950   2.755
 1281SOL     OW 4741   1.781   6.142   3.038
 1281SOL    HW1 4742   1.771   6.052   2.995
 1281SOL    HW2 4743   1.862   6.188   3.001
 1282SOL     OW 4744   0.683   1.452   0.923
 1282SOL    HW1 4745   0.677   1.377   0.858
 1282SOL    HW2 4746   0.616   1.439   0.996
 1283SOL     OW 4747   5.646   4.545   5.751
 1283SOL    HW1 4748   5.621   4.493   5.670
 1283SOL    HW2 4749   5.671   4.483   5.825
 1284SOL     OW 4750   2.790   2.558   1.703
 1284SOL    HW1 4751   2.849   2.638   1.693
 1284SOL    HW2 4752   2.819   2.505   1.782
 1285SOL     OW 4753   5.029   2.907   6.259
 1285SOL    HW1 4754   4.996   2.979   6.198
 1285SOL    HW2 4755   5.034   2.942   6.353
 1286SOL     OW 4756   5.264   4.054   2.261
 1286SOL    HW1 4757   5.251   4.152   2.246
 1286SOL    HW2 4758   5.302   4.039   2.352
 1287SOL     OW 4759   6.092   5.020   6.481
 1287SOL    HW1 4760   5.999   5.022   6.516
 1287SOL    HW2 4761   6.149   5.082   6.535
 1288SOL     OW 4762   0.901   2.654   0.117
 1288SOL    HW1 4763   0.976   2.624   0.058
 1288SOL    HW2 4764   0.908   2.609   0.206
 1289SOL     OW 4765   0.105   6.330   2.399
 1289SOL    HW1 4766   0.161   6.253   2.367
 1289SOL    HW2 4767   0.124   6.410   2.343
 1290SOL     OW 4768   0.334   0.411   6.626
 1290SOL    HW1 4769   0.414   0.419   6.566
 1290SOL    HW2 4770   0.256   0.377   6.574
 1291SOL     OW 4771   1.649   4.973   6.168
 1291SOL    HW1 4772   1.559   4.937   6.194
 1291SOL    HW2 4773   1.707   4.897   6.138
 1292SOL     OW 4774   0.072   4.274   1.802
 1292SOL    HW1 4775   0.029   4.246   1.715
 1292SOL    HW2 4776   0.005   4.326   1.855
 1293SOL     OW 4777   2.277   1.646   6.824
 1293SOL    HW1 4778   2.337   1.704   6.768
 1293SOL    HW2 4779   2.197   1.619   6.770
 1294SOL     OW 4780   0.541   3.332   2.146
 1294SOL    HW1 4781   0.601   3.294   2.216
 1294SOL    HW2 4782   0.514   3.425   2.171
 1295SOL     OW 4783   5.880   3.259   2.442
 1295SOL    HW1 4784   5.900   3.184   2.379
 1295SOL    HW2 4785   5.809   3.231   2.507
 1296SOL     OW 4786   3.627   2.044   6.198
 1296SOL    HW1 4787   3.686   2.072   6.122
 1296SOL    HW2 4788   3.613   2.121   6.260
 1297SOL     OW 4789   6.056   1.691   5.636
 1297SOL    HW1 4790   6.060   1.787   5.610
 1297SOL    HW2 4791   6.031   1.683   5.733
 1298SOL     OW 4792   5.753   3.318   3.336
 1298SOL    HW1 4793   5.654   3.304   3.330
 1298SOL    HW2 4794   5.798   3.265   3.265
 1299SOL     OW 4795   1.907   4.266   3.673
 1299SOL    HW1 4796   1.841   4.192   3.657
 1299SOL    HW2 4797   1.995   4.241   3.634
 1300SOL     OW 4798   3.357   3.337   1.384
 1300SOL    HW1 4799   3.356   3.401   1.461
 1300SOL    HW2 4800   3.351   3.244   1.417
 1301SOL     OW 4801   1.298   6.690   3.715
 1301SOL    HW1 4802   1.205   6.700   3.681
 1301SOL    HW2 4803   1.302   6.615   3.781
 1302SOL     OW 4804   2.210   6.625   5.300
 1302SOL    HW1 4805   2.233   6.708   5.351
 1302SOL    HW2 4806   2.275   6.613   5.224
 1303SOL     OW 4807   4.063   1.675   1.023
 1303SOL    HW1 4808   4.141   1.723   1.064
 1303SOL    HW2 4809   4.057   1.583   1.062
 1304SOL     OW 4810   1.488   0.510   5.865
 1304SOL    HW1 4811   1.545   0.486   5.787
 1304SOL    HW2 4812   1.545   0.530   5.944
 1305SOL     OW 4813   5.111   6.370   4.555
 1305SOL    HW1 4814   5.044   6.329   4.617
 1305SOL    HW2 4815   5.137   6.460   4.590
 1306SOL     OW 4816   1.375   3.885   4.677
 1306SOL    HW1 4817   1.430   3.846   4.603
 1306SOL    HW2 4818   1.386   3.828   4.759
 1307SOL     OW 4819   1.258   3.203   4.928
 1307SOL    HW1 4820   1.178   3.157   4.889
 1307SOL    HW2 4821   1.240   3.225   5.024
 1308SOL     OW 4822   4.696   5.927   4.127
 1308SOL    HW1 4823   4.704   6.027   4.135
 1308SOL    HW2 4824   4.614   5.896   4.176
 1309SOL     OW 4825   5.796   2.954   5.461
 1309SOL    HW1 4826   5.736   2.971   5.540
 1309SOL    HW2 4827   5.764   3.008   5.383
 1310SOL     OW 4828   5.893   3.695   4.490
 1310SOL    HW1 4829   5.880   3.732   4.582
 1310SOL    HW2 4830   5.857   3.760   4.422
 1311SOL     OW 4831   5.969   0.190   4.065
 1311SOL    HW1 4832   6.058   0.230   4.088
 1311SOL    HW2 4833   5.932   0.236   3.984
 1312SOL     OW 4834   0.413   0.815   6.892
 1312SOL    HW1 4835   0.510   0.804   6.916
 1312SOL    HW2 4836   0.399   0.906   6.852
 1313SOL     OW 4837   3.474   5.932   5.003
 1313SOL    HW1 4838   3.503   6.026   5.016
 1313SOL    HW2 4839   3.387   5.931   4.953
 1314SOL     OW 4840   1.250   1.523   5.629
 1314SOL    HW1 4841   1.319   1.505   5.560
 1314SOL    HW2 4842   1.272   1.471   5.712
 1315SOL     OW 4843   1.467   1.206   0.642
 1315SOL    HW1 4844   1.412   1.123   0.641
 1315SOL    HW2 4845   1.424   1.276   0.585
 1316SOL     OW 4846   1.876   0.172   3.522
 1316SOL    HW1 4847   1.788   0.181   3.569
 1316SOL    HW2 4848   1.878   0.235   3.444
 1317SOL     OW 4849   0.724   4.642   4.402
 1317SOL    HW1 4850   0.749   4.557   4.448
 1317SOL    HW2 4851   0.776   4.718   4.441
 1318SOL     OW 4852   0.114   0.753   0.319
 1318SOL    HW1 4853   0.184   0.740   0.250
 1318SOL    HW2 4854   0.047   0.820   0.286
 1319SOL     OW 4855   6.700   0.896   0.824
 1319SOL    HW1 4856   6.604   0.869   0.834
 1319SOL    HW2 4857   6.709   0.955   0.744
 1320SOL     OW 4858   5.585   4.493   6.792
 1320SOL    HW1 4859   5.571   4.455   6.883
 1320SOL    HW2 4860   5.644   4.573   6.799
 1321SOL     OW 4861   4.573   3.123   6.961
 1321SOL    HW1 4862   4.481   3.089   6.981
 1321SOL    HW2 4863   4.611   3.073   6.884
 1322SOL     OW 4864   6.220   0.885   3.174
 1322SOL    HW1 4865   6.159   0.850   3.103
 1322SOL    HW2 4866   6.218   0.824   3.254
 1323SOL     OW 4867   5.621   1.884   5.503
 1323SOL    HW1 4868   5.564   1.891   5.585
 1323SOL    HW2 4869   5.677   1.802   5.508
 1324SOL     OW 4870   1.490   2.412   1.368
 1324SOL    HW1 4871   1.578   2.404   1.416
 1324SOL    HW2 4872   1.464   2.322   1.331
 1325SOL     OW 4873   1.769   6.713   3.387
 1325SOL    HW1 4874   1.767   6.809   3.357
 1325SOL    HW2 4875   1.746   6.654   3.309
 1326SOL     OW 4876   5.081   2.346   4.401
 1326SOL    HW1 4877   5.009   2.390   4.347
 1326SOL    HW2 4878   5.103   2.402   4.481
 1327SOL     OW 4879   2.630   5.257   2.943
 1327SOL    HW1 4880   2.604   5.240   2.848
 1327SOL    HW2 4881   2.725   5.287   2.947
 1328SOL     OW 4882   1.490   2.762   6.532
 1328SOL    HW1 4883   1.574   2.719   6.566
 1328SOL    HW2 4884   1.501   2.786   6.436
 1329SOL     OW 4885   0.447   1.549   0.320
 1329SOL    HW1 4886   0.395   1.631   0.344
 1329SOL    HW2 4887   0.524   1.574   0.261
 1330SOL     OW 4888   6.418   0.257   1.028
 1330SOL    HW1 4889   6.478   0.332   1.056
 1330SOL    HW2 4890   6.473   0.186   0.982
 1331SOL     OW 4891   5.687   1.103   2.852
 1331SOL    HW1 4892   5.664   1.144   2.763
 1331SOL    HW2 4893   5.643   1.155   2.925
 1332SOL     OW 4894   4.079   1.418   1.245
 1332SOL    HW1 4895   4.061   1.339   1.303
 1332SOL    HW2 4896   4.166   1.405   1.197
 1333SOL     OW 4897   3.637   4.189   5.326
 1333SOL    HW1 4898   3.709   4.147   5.381
 1333SOL    HW2 4899   3.659   4.178   5.229
 1334SOL     OW 4900   1.480   3.778   5.183
 1334SOL    HW1 4901   1.544   3.773   5.259
 1334SOL    HW2 4902   1.470   3.687   5.142
 1335SOL     OW 4903   2.027   6.418   2.674
 1335SOL    HW1 4904   2.099   6.430   2.605
 1335SOL    HW2 4905   1.968   6.342   2.648
 1336SOL     OW 4906   1.222   1.950   6.620
 1336SOL    HW1 4907   1.208   2.013   6.696
 1336SOL    HW2 4908   1.175   1.864   6.638
 1337SOL     OW 4909   1.970   2.627   6.367
 1337SOL    HW1 4910   1.971   2.619   6.267
 1337SOL    HW2 4911   1.981   2.536   6.408
 1338SOL     OW 4912   4.248   4.299   6.460
 1338SOL    HW1 4913   4.229   4.374   6.396
 1338SOL    HW2 4914   4.286   4.336   6.544
 1339SOL     OW 4915   6.946   4.855   6.332
 1339SOL    HW1 4916   6.868   4.825   6.277
 1339SOL    HW2 4917   0.008   4.827   6.287
 1340SOL     OW 4918   1.166   2.207   0.591
 1340SOL    HW1 4919   1.196   2.280   0.652
 1340SOL    HW2 4920   1.238   2.187   0.525
 1341SOL     OW 4921   3.816   0.897   4.438
 1341SOL    HW1 4922   3.733   0.909   4.384
 1341SOL    HW2 4923   3.840   0.983   4.483
 1342SOL     OW 4924   1.265   6.113   6.042
 1342SOL    HW1 4925   1.334   6.113   6.115
 1342SOL    HW2 4926   1.180   6.074   6.076
 1343SOL     OW 4927   3.570   6.615   2.700
 1343SOL    HW1 4928   3.652   6.646   2.651
 1343SOL    HW2 4929   3.548   6.679   2.773
 1344SOL     OW 4930   6.285   1.859   2.903
 1344SOL    HW1 4931   6.236   1.846   2.817
 1344SOL    HW2 4932   6.220   1.870   2.978
 1345SOL     OW 4933   0.748   0.963   3.042
 1345SOL    HW1 4934   0.712   0.956   2.949
 1345SOL    HW2 4935   0.747   1.059   3.071
 1346SOL     OW 4936   0.809   6.786   3.492
 1346SOL    HW1 4937   0.861   6.821   3.570
 1346SOL    HW2 4938   0.828   6.842   3.411
 1347SOL     OW 4939   6.505   6.738   3.271
 1347SOL    HW1 4940   6.477   6.833   3.256
 1347SOL    HW2 4941   6.591   6.736   3.322
 1348SOL     OW 4942   5.862   4.600   3.986
 1348SOL    HW1 4943   5.797   4.526   3.965
 1348SOL    HW2 4944   5.937   4.599   3.921
 1349SOL     OW 4945   4.273   2.547   0.194
 1349SOL    HW1 4946   4.217   2.608   0.138
 1349SOL    HW2 4947   4.348   2.510   0.139
 1350SOL     OW 4948   3.149   5.106   6.590
 1350SOL    HW1 4949   3.167   5.042   6.515
 1350SOL    HW2 4950   3.129   5.054   6.673
 1351SOL     OW 4951   0.647   0.207   3.385
 1351SOL    HW1 4952   0.653   0.174   3.291
 1351SOL    HW2 4953   0.606   0.298   3.385
 1352SOL     OW 4954   6.704   0.364   3.593
 1352SOL    HW1 4955   6.604   0.365   3.591
 1352SOL    HW2 4956   6.735   0.401   3.681
 1353SOL     OW 4957   0.104   4.110   4.824
 1353SOL    HW1 4958   0.092   4.209   4.827
 1353SOL    HW2 4959   0.172   4.082   4.892
 1354SOL     OW 4960   0.070   0.885   1.011
 1354SOL    HW1 4961   0.133   0.840   1.075
 1354SOL    HW2 4962   0.071   0.984   1.029
 1355SOL     OW 4963   5.415   4.012   0.434
 1355SOL    HW1 4964   5.385   4.043   0.343
 1355SOL    HW2 4965   5.384   4.078   0.503
 1356SOL     OW 4966   3.307   3.902   2.643
 1356SOL    HW1 4967   3.297   3.803   2.649
 1356SOL    HW2 4968   3.235   3.946   2.696
 1357SOL     OW 4969   2.702   2.840   6.450
 1357SOL    HW1 4970   2.752   2.893   6.380
 1357SOL    HW2 4971   2.690   2.896   6.531
 1358SOL     OW 4972   2.300   2.669   6.457
 1358SOL    HW1 4973   2.390   2.670   6.499
 1358SOL    HW2 4974   2.257   2.579   6.471
 1359SOL     OW 4975   5.999   3.586   1.561
 1359SOL    HW1 4976   5.929   3.519   1.536
 1359SOL    HW2 4977   6.049   3.614   1.479
 1360SOL     OW 4978   3.907   3.931   2.931
 1360SOL    HW1 4979   3.809   3.948   2.914
 1360SOL    HW2 4980   3.932   3.969   3.020
 1361SOL     OW 4981   1.005   0.048   6.041
 1361SOL    HW1 4982   0.939   6.999   6.060
 1361SOL    HW2 4983   0.989   0.126   6.102
 1362SOL     OW 4984   2.882   3.186   5.883
 1362SOL    HW1 4985   2.817   3.245   5.836
 1362SOL    HW2 4986   2.916   3.233   5.965
 1363SOL     OW 4987   6.674   5.827   3.173
 1363SOL    HW1 4988   6.711   5.914   3.202
 1363SOL    HW2 4989   6.697   5.756   3.240
 1364SOL     OW 4990   0.309   3.643   0.559
 1364SOL    HW1 4991   0.258   3.568   0.516
 1364SOL    HW2 4992   0.294   3.727   0.508
 1365SOL     OW 4993   1.248   3.439   5.838
 1365SOL    HW1 4994   1.305   3.357   5.844
 1365SOL    HW2 4995   1.293   3.506   5.779
 1366SOL     OW 4996   6.741   2.972   0.825
 1366SOL    HW1 4997   6.837   2.976   0.797
 1366SOL    HW2 4998   6.735   2.992   0.923
 1367SOL     OW 4999   1.243   4.245   3.577
 1367SOL    HW1 5000   1.330   4.281   3.610
 1367SOL    HW2 5001   1.179   4.239   3.653
 1368SOL     OW 5002   6.880   6.576   4.122
 1368SOL    HW1 5003   6.957   6.639   4.113
 1368SOL    HW2 5004   6.904   6.487   4.084
 1369SOL     OW 5005   1.584   5.858   1.845
 1369SOL    HW1 5006   1.549   5.913   1.920
 1369SOL    HW2 5007   1.650   5.911   1.792
 1370SOL     OW 5008   0.187   2.312   3.891
 1370SOL    HW1 5009   0.135   2.251   3.832
 1370SOL    HW2 5010   0.249   2.367   3.836
 1371SOL     OW 5011   6.235   1.113   4.638
 1371SOL    HW1 5012   6.303   1.051   4.678
 1371SOL    HW2 5013   6.279   1.200   4.615
 1372SOL     OW 5014   6.569   3.025   0.624
 1372SOL    HW1 5015   6.637   3.007   0.695
 1372SOL    HW2 5016   6.519   2.941   0.604
 1373SOL     OW 5017   4.581   2.359   1.431
 1373SOL    HW1 5018   4.680   2.348   1.435
 1373SOL    HW2 5019   4.542   2.341   1.522
 1374SOL     OW 5020   5.335   3.398   0.806
 1374SOL    HW1 5021   5.371   3.490   0.788
 1374SOL    HW2 5022   5.329   3.384   0.905
 1375SOL     OW 5023   6.885   5.898   5.717
 1375SOL    HW1 5024   6.833   5.966   5.769
 1375SOL    HW2 5025   6.830   5.866   5.640
 1376SOL     OW 5026   2.781   5.053   6.666
 1376SOL    HW1 5027   2.876   5.058   6.637
 1376SOL    HW2 5028   2.764   4.964   6.709
 1377SOL     OW 5029   0.924   2.646   3.667
 1377SOL    HW1 5030   0.939   2.739   3.701
 1377SOL    HW2 5031   1.007   2.614   3.622
 1378SOL     OW 5032   4.123   2.205   4.733
 1378SOL    HW1 5033   4.193   2.276   4.733
 1378SOL    HW2 5034   4.054   2.226   4.803
 1379SOL     OW 5035   5.119   5.303   2.154
 1379SOL    HW1 5036   5.105   5.314   2.252
 1379SOL    HW2 5037   5.209   5.261   2.138
 1380SOL     OW 5038   6.156   6.251   1.483
 1380SOL    HW1 5039   6.174   6.348   1.468
 1380SOL    HW2 5040   6.188   6.199   1.403
 1381SOL     OW 5041   5.746   2.140   6.112
 1381SOL    HW1 5042   5.774   2.236   6.109
 1381SOL    HW2 5043   5.674   2.128   6.180
 1382SOL     OW 5044   4.456   2.719   1.486
 1382SOL    HW1 5045   4.526   2.649   1.503
 1382SOL    HW2 5046   4.426   2.715   1.391
 1383SOL     OW 5047   1.759   6.354   1.782
 1383SOL    HW1 5048   1.770   6.444   1.826
 1383SOL    HW2 5049   1.706   6.365   1.698
 1384SOL     OW 5050   4.446   0.824   0.369
 1384SOL    HW1 5051   4.362   0.856   0.413
 1384SOL    HW2 5052   4.424   0.787   0.278
 1385SOL     OW 5053   1.939   4.533   3.624
 1385SOL    HW1 5054   1.960   4.440   3.657
 1385SOL    HW2 5055   1.840   4.545   3.618
 1386SOL     OW 5056   3.217   6.196   4.066
 1386SOL    HW1 5057   3.249   6.221   3.974
 1386SOL    HW2 5058   3.244   6.102   4.087
 1387SOL     OW 5059   3.719   5.723   1.633
 1387SOL    HW1 5060   3.671   5.810   1.643
 1387SOL    HW2 5061   3.743   5.709   1.537
 1388SOL     OW 5062   5.723   6.866   1.568
 1388SOL    HW1 5063   5.797   6.932   1.578
 1388SOL    HW2 5064   5.759   6.778   1.538
 1389SOL     OW 5065   5.834   0.788   3.194
 1389SOL    HW1 5066   5.924   0.810   3.231
 1389SOL    HW2 5067   5.774   0.868   3.200
 1390SOL     OW 5068   0.994   3.343   6.599
 1390SOL    HW1 5069   0.959   3.391   6.518
 1390SOL    HW2 5070   1.060   3.401   6.646
 1391SOL     OW 5071   6.734   0.806   3.990
 1391SOL    HW1 5072   6.643   0.798   4.028
 1391SOL    HW2 5073   6.792   0.860   4.051
 1392SOL     OW 5074   5.609   5.579   5.802
 1392SOL    HW1 5075   5.635   5.666   5.845
 1392SOL    HW2 5076   5.624   5.504   5.867
 1393SOL     OW 5077   6.497   5.595   5.513
 1393SOL    HW1 5078   6.540   5.505   5.510
 1393SOL    HW2 5079   6.476   5.619   5.608
 1394SOL     OW 5080   3.054   5.890   5.279
 1394SOL    HW1 5081   3.023   5.972   5.328
 1394SOL    HW2 5082   2.977   5.829   5.263
 1395SOL     OW 5083   2.560   4.732   6.096
 1395SOL    HW1 5084   2.516   4.669   6.161
 1395SOL    HW2 5085   2.555   4.694   6.004
 1396SOL     OW 5086   1.633   0.785   3.870
 1396SOL    HW1 5087   1.549   0.732   3.875
 1396SOL    HW2 5088   1.620   0.863   3.808
 1397SOL     OW 5089   0.270   0.664   4.183
 1397SOL    HW1 5090   0.316   0.722   4.116
 1397SOL    HW2 5091   0.289   0.697   4.275
 1398SOL     OW 5092   1.780   0.950   5.816
 1398SOL    HW1 5093   1.851   1.000   5.867
 1398SOL    HW2 5094   1.691   0.993   5.832
 1399SOL     OW 5095   3.806   6.595   1.110
 1399SOL    HW1 5096   3.874   6.643   1.165
 1399SOL    HW2 5097   3.732   6.563   1.170
 1400SOL     OW 5098   0.081   2.102   2.674
 1400SOL    HW1 5099   0.097   2.060   2.584
 1400SOL    HW2 5100   0.142   2.180   2.686
 1401SOL     OW 5101   6.945   1.801   5.052
 1401SOL    HW1 5102   7.004   1.801   5.133
 1401SOL    HW2 5103   6.889   1.884   5.052
 1402SOL     OW 5104   0.427   4.221   6.943
 1402SOL    HW1 5105   0.462   4.276   7.019
 1402SOL    HW2 5106   0.371   4.278   6.883
 1403SOL     OW 5107   2.905   1.709   1.699
 1403SOL    HW1 5108   2.905   1.776   1.773
 1403SOL    HW2 5109   2.992   1.712   1.651
 1404SOL     OW 5110   5.472   0.335   0.272
 1404SOL    HW1 5111   5.380   0.362   0.243
 1404SOL    HW2 5112   5.505   0.398   0.342
 1405SOL     OW 5113   2.325   3.899   1.072
 1405SOL    HW1 5114   2.410   3.848   1.061
 1405SOL    HW2 5115   2.253   3.837   1.101
 1406SOL     OW 5116   1.457   5.202   1.682
 1406SOL    HW1 5117   1.475   5.151   1.765
 1406SOL    HW2 5118   1.544   5.223   1.636
 1407SOL     OW 5119   0.573   1.998   1.836
 1407SOL    HW1 5120   0.645   1.929   1.833
 1407SOL    HW2 5121   0.603   2.080   1.787
 1408SOL     OW 5122   5.428   0.850   5.923
 1408SOL    HW1 5123   5.357   0.856   5.852
 1408SOL    HW2 5124   5.514   0.822   5.880
 1409SOL     OW 5125   0.554   0.062   5.714
 1409SOL    HW1 5126   0.540   7.008   5.651
 1409SOL    HW2 5127   0.491   0.053   5.791
 1410SOL     OW 5128   2.324   3.766   6.438
 1410SOL    HW1 5129   2.405   3.792   6.492
 1410SOL    HW2 5130   2.335   3.799   6.344
 1411SOL     OW 5131   2.786   6.219   3.115
 1411SOL    HW1 5132   2.807   6.124   3.138
 1411SOL    HW2 5133   2.843   6.247   3.037
 1412SOL     OW 5134   0.418   2.379   6.948
 1412SOL    HW1 5135   0.501   2.381   7.004
 1412SOL    HW2 5136   0.380   2.471   6.943
 1413SOL     OW 5137   1.796   1.010   5.013
 1413SOL    HW1 5138   1.814   0.960   5.098
 1413SOL    HW2 5139   1.806   0.948   4.935
 1414SOL     OW 5140   2.303   1.019   1.669
 1414SOL    HW1 5141   2.246   1.058   1.596
 1414SOL    HW2 5142   2.397   1.009   1.635
 1415SOL     OW 5143   2.430   0.528   4.460
 1415SOL    HW1 5144   2.357   0.593   4.439
 1415SOL    HW2 5145   2.393   0.436   4.464
 1416SOL     OW 5146   4.603   4.407   4.177
 1416SOL    HW1 5147   4.532   4.451   4.122
 1416SOL    HW2 5148   4.641   4.329   4.128
 1417SOL     OW 5149   2.053   2.033   0.105
 1417SOL    HW1 5150   2.007   1.959   0.154
 1417SOL    HW2 5151   2.023   2.121   0.142
 1418SOL     OW 5152   2.935   3.300   3.619
 1418SOL    HW1 5153   2.955   3.290   3.717
 1418SOL    HW2 5154   2.987   3.233   3.567
 1419SOL     OW 5155   3.122   6.434   4.719
 1419SOL    HW1 5156   3.149   6.505   4.655
 1419SOL    HW2 5157   3.139   6.344   4.678
 1420SOL     OW 5158   1.984   6.174   1.790
 1420SOL    HW1 5159   1.899   6.226   1.782
 1420SOL    HW2 5160   2.003   6.128   1.704
 1421SOL     OW 5161   2.215   3.043   3.167
 1421SOL    HW1 5162   2.134   3.037   3.225
 1421SOL    HW2 5163   2.187   3.037   3.071
 1422SOL     OW 5164   2.231   4.281   1.713
 1422SOL    HW1 5165   2.173   4.359   1.734
 1422SOL    HW2 5166   2.183   4.219   1.650
 1423SOL     OW 5167   4.755   6.143   2.490
 1423SOL    HW1 5168   4.822   6.068   2.489
 1423SOL    HW2 5169   4.773   6.202   2.569
 1424SOL     OW 5170   6.431   4.222   4.659
 1424SOL    HW1 5171   6.383   4.300   4.699
 1424SOL    HW2 5172   6.475   4.251   4.573
 1425SOL     OW 5173   1.195   5.995   4.373
 1425SOL    HW1 5174   1.189   5.972   4.276
 1425SOL    HW2 5175   1.275   6.054   4.388
 1426SOL     OW 5176   1.294   2.697   5.694
 1426SOL    HW1 5177   1.343   2.762   5.636
 1426SOL    HW2 5178   1.359   2.653   5.756
 1427SOL     OW 5179   0.056   6.940   3.119
 1427SOL    HW1 5180   0.146   6.896   3.117
 1427SOL    HW2 5181   0.016   6.938   3.027
 1428SOL     OW 5182   5.968   2.551   0.871
 1428SOL    HW1 5183   6.046   2.610   0.890
 1428SOL    HW2 5184   5.912   2.592   0.799
 1429SOL     OW 5185   6.018   2.005   0.137
 1429SOL    HW1 5186   5.988   2.068   0.065
 1429SOL    HW2 5187   5.969   1.918   0.128
 1430SOL     OW 5188   1.723   4.718   4.090
 1430SOL    HW1 5189   1.753   4.771   4.011
 1430SOL    HW2 5190   1.784   4.640   4.102
 1431SOL     OW 5191   1.887   1.552   0.778
 1431SOL    HW1 5192   1.855   1.537   0.872
 1431SOL    HW2 5193   1.835   1.493   0.716
 1432SOL     OW 5194   3.081   1.370   2.921
 1432SOL    HW1 5195   3.156   1.421   2.964
 1432SOL    HW2 5196   2.998   1.381   2.976
 1433SOL     OW 5197   4.658   1.488   3.720
 1433SOL    HW1 5198   4.589   1.500   3.792
 1433SOL    HW2 5199   4.712   1.406   3.739
 1434SOL     OW 5200   7.022   1.025   5.754
 1434SOL    HW1 5201   7.010   1.124   5.763
 1434SOL    HW2 5202   6.962   0.990   5.682
 1435SOL     OW 5203   5.601   1.051   2.539
 1435SOL    HW1 5204   5.696   1.077   2.525
 1435SOL    HW2 5205   5.584   0.961   2.500
 1436SOL     OW 5206   5.312   3.856   0.658
 1436SOL    HW1 5207   5.216   3.879   0.677
 1436SOL    HW2 5208   5.340   3.900   0.573
 1437SOL     OW 5209   2.498   2.588   3.658
 1437SOL    HW1 5210   2.442   2.598   3.740
 1437SOL    HW2 5211   2.446   2.620   3.578
 1438SOL     OW 5212   3.106   6.680   1.316
 1438SOL    HW1 5213   3.132   6.641   1.404
 1438SOL    HW2 5214   3.018   6.727   1.324
 1439SOL     OW 5215   0.035   5.625   1.559
 1439SOL    HW1 5216   0.024   5.527   1.544
 1439SOL    HW2 5217   0.122   5.655   1.520
 1440SOL     OW 5218   2.953   3.799   1.453
 1440SOL    HW1 5219   3.037   3.819   1.504
 1440SOL    HW2 5220   2.893   3.742   1.509
 1441SOL     OW 5221   5.796   0.678   2.426
 1441SOL    HW1 5222   5.707   0.715   2.401
 1441SOL    HW2 5223   5.831   0.623   2.350
 1442SOL     OW 5224   6.342   5.734   0.375
 1442SOL    HW1 5225   6.280   5.776   0.441
 1442SOL    HW2 5226   6.429   5.783   0.376
 1443SOL     OW 5227   0.943   2.358   2.669
 1443SOL    HW1 5228   1.023   2.345   2.610
 1443SOL    HW2 5229   0.892   2.439   2.639
 1444SOL     OW 5230   5.012   0.322   0.568
 1444SOL    HW1 5231   5.039   0.236   0.526
 1444SOL    HW2 5232   5.094   0.373   0.595
 1445SOL     OW 5233   0.857   2.987   2.399
 1445SOL    HW1 5234   0.861   2.929   2.480
 1445SOL    HW2 5235   0.923   3.061   2.407
 1446SOL     OW 5236   6.614   0.958   0.014
 1446SOL    HW1 5237   6.628   1.011   6.953
 1446SOL    HW2 5238   6.593   0.863   7.013
 1447SOL     OW 5239   5.967   5.211   3.969
 1447SOL    HW1 5240   6.058   5.180   3.940
 1447SOL    HW2 5241   5.952   5.304   3.938
 1448SOL     OW 5242   6.706   2.695   4.803
 1448SOL    HW1 5243   6.701   2.755   4.882
 1448SOL    HW2 5244   6.746   2.607   4.831
 1449SOL     OW 5245   0.927   4.140   5.091
 1449SOL    HW1 5246   0.926   4.163   5.189
 1449SOL    HW2 5247   1.007   4.083   5.071
 1450SOL     OW 5248   1.141   2.343   6.186
 1450SOL    HW1 5249   1.082   2.346   6.267
 1450SOL    HW2 5250   1.225   2.294   6.208
 1451SOL     OW 5251   1.510   6.016   2.447
 1451SOL    HW1 5252   1.524   6.114   2.459
 1451SOL    HW2 5253   1.595   5.968   2.465
 1452SOL     OW 5254   4.424   2.634   5.322
 1452SOL    HW1 5255   4.347   2.605   5.264
 1452SOL    HW2 5256   4.389   2.662   5.411
 1453SOL     OW 5257   0.345   4.272   5.685
 1453SOL    HW1 5258   0.402   4.349   5.655
 1453SOL    HW2 5259   0.335   4.275   5.784
 1454SOL     OW 5260   2.004   1.813   2.651
 1454SOL    HW1 5261   1.938   1.842   2.720
 1454SOL    HW2 5262   1.966   1.829   2.560
 1455SOL     OW 5263   1.525   6.502   2.536
 1455SOL    HW1 5264   1.497   6.476   2.628
 1455SOL    HW2 5265   1.624   6.502   2.529
 1456SOL     OW 5266   6.637   6.325   5.927
 1456SOL    HW1 5267   6.640   6.332   5.827
 1456SOL    HW2 5268   6.545   6.302   5.956
 1457SOL     OW 5269   1.436   4.467   0.228
 1457SOL    HW1 5270   1.368   4.413   0.277
 1457SOL    HW2 5271   1.451   4.553   0.277
 1458SOL     OW 5272   5.465   5.108   5.569
 1458SOL    HW1 5273   5.369   5.134   5.584
 1458SOL    HW2 5274   5.470   5.044   5.492
 1459SOL     OW 5275   4.340   6.964   6.211
 1459SOL    HW1 5276   4.344   6.994   6.306
 1459SOL    HW2 5277   4.307   6.870   6.206
 1460SOL     OW 5278   1.740   0.002   4.748
 1460SOL    HW1 5279   1.823   0.029   4.699
 1460SOL    HW2 5280   1.755   0.008   4.846
 1461SOL     OW 5281   0.227   4.034   2.925
 1461SOL    HW1 5282   0.275   4.013   2.840
 1461SOL    HW2 5283   0.292   4.069   2.992
 1462SOL     OW 5284   1.045   0.275   6.763
 1462SOL    HW1 5285   1.034   0.219   6.681
 1462SOL    HW2 5286   0.991   0.235   6.838
 1463SOL     OW 5287   0.783   4.544   5.737
 1463SOL    HW1 5288   0.762   4.473   5.805
 1463SOL    HW2 5289   0.698   4.583   5.702
 1464SOL     OW 5290   6.535   4.676   2.950
 1464SOL    HW1 5291   6.542   4.581   2.980
 1464SOL    HW2 5292   6.621   4.724   2.970
 1465SOL     OW 5293   2.192   1.987   4.197
 1465SOL    HW1 5294   2.159   1.944   4.113
 1465SOL    HW2 5295   2.241   2.072   4.175
 1466SOL     OW 5296   4.064   1.841   2.033
 1466SOL    HW1 5297   4.147   1.851   2.088
 1466SOL    HW2 5298   4.006   1.922   2.045
 1467SOL     OW 5299   1.973   1.298   4.345
 1467SOL    HW1 5300   2.029   1.374   4.378
 1467SOL    HW2 5301   1.947   1.315   4.250
 1468SOL     OW 5302   2.002   5.266   1.781
 1468SOL    HW1 5303   2.065   5.225   1.847
 1468SOL    HW2 5304   1.971   5.355   1.816
 1469SOL     OW 5305   6.901   6.227   2.742
 1469SOL    HW1 5306   6.825   6.291   2.760
 1469SOL    HW2 5307   6.938   6.195   2.829
 1470SOL     OW 5308   0.038   2.285   1.658
 1470SOL    HW1 5309   6.995   2.359   1.647
 1470SOL    HW2 5310   0.035   2.250   1.752
 1471SOL     OW 5311   0.961   0.352   0.097
 1471SOL    HW1 5312   0.916   0.332   0.184
 1471SOL    HW2 5313   0.964   0.269   0.042
 1472SOL     OW 5314   3.190   5.687   0.438
 1472SOL    HW1 5315   3.206   5.589   0.424
 1472SOL    HW2 5316   3.271   5.728   0.482
 1473SOL     OW 5317   2.905   5.590   4.879
 1473SOL    HW1 5318   2.866   5.498   4.887
 1473SOL    HW2 5319   2.921   5.628   4.970
 1474SOL     OW 5320   3.879   4.200   1.343
 1474SOL    HW1 5321   3.899   4.102   1.340
 1474SOL    HW2 5322   3.781   4.213   1.359
 1475SOL     OW 5323   4.898   1.413   6.706
 1475SOL    HW1 5324   4.988   1.450   6.729
 1475SOL    HW2 5325   4.908   1.322   6.668
 1476SOL     OW 5326   2.327   1.332   1.544
 1476SOL    HW1 5327   2.415   1.314   1.587
 1476SOL    HW2 5328   2.318   1.274   1.462
 1477SOL     OW 5329   3.907   0.065   0.172
 1477SOL    HW1 5330   3.962   7.015   0.131
 1477SOL    HW2 5331   3.869   0.033   0.259
 1478SOL     OW 5332   5.511   6.379   5.328
 1478SOL    HW1 5333   5.490   6.313   5.401
 1478SOL    HW2 5334   5.564   6.454   5.366
 1479SOL     OW 5335   3.527   3.548   1.767
 1479SOL    HW1 5336   3.478   3.576   1.684
 1479SOL    HW2 5337   3.534   3.626   1.830
 1480SOL     OW 5338   2.459   0.039   6.583
 1480SOL    HW1 5339   2.436   6.966   6.601
 1480SOL    HW2 5340   2.534   0.044   6.517
 1481SOL     OW 5341   5.860   3.077   5.814
 1481SOL    HW1 5342   5.868   3.049   5.910
 1481SOL    HW2 5343   5.785   3.027   5.771
 1482SOL     OW 5344   4.235   0.512   0.453
 1482SOL    HW1 5345   4.164   0.557   0.508
 1482SOL    HW2 5346   4.220   0.414   0.453
 1483SOL     OW 5347   5.613   2.682   5.702
 1483SOL    HW1 5348   5.668   2.601   5.723
 1483SOL    HW2 5349   5.518   2.654   5.685
 1484SOL     OW 5350   4.695   5.337   3.753
 1484SOL    HW1 5351   4.622   5.357   3.818
 1484SOL    HW2 5352   4.771   5.401   3.767
 1485SOL     OW 5353   5.273   0.752   3.884
 1485SOL    HW1 5354   5.180   0.787   3.885
 1485SOL    HW2 5355   5.316   0.773   3.797
 1486SOL     OW 5356   5.000   0.013   3.223
 1486SOL    HW1 5357   5.072   6.972   3.252
 1486SOL    HW2 5358   4.934   6.987   3.166
 1487SOL     OW 5359   0.221   1.224   6.492
 1487SOL    HW1 5360   0.229   1.318   6.527
 1487SOL    HW2 5361   0.305   1.174   6.512
 1488SOL     OW 5362   5.336   0.754   3.304
 1488SOL    HW1 5363   5.303   0.669   3.263
 1488SOL    HW2 5364   5.281   0.831   3.271
 1489SOL     OW 5365   4.084   4.270   5.833
 1489SOL    HW1 5366   4.161   4.207   5.816
 1489SOL    HW2 5367   4.034   4.285   5.748
 1490SOL     OW 5368   0.520   3.063   0.911
 1490SOL    HW1 5369   0.608   3.016   0.922
 1490SOL    HW2 5370   0.494   3.104   0.998
 1491SOL     OW 5371   6.687   3.857   2.752
 1491SOL    HW1 5372   6.771   3.833   2.704
 1491SOL    HW2 5373   6.635   3.774   2.773
 1492SOL     OW 5374   6.614   0.292   2.160
 1492SOL    HW1 5375   6.668   0.300   2.076
 1492SOL    HW2 5376   6.642   0.210   2.210
 1493SOL     OW 5377   3.846   0.793   6.550
 1493SOL    HW1 5378   3.914   0.826   6.485
 1493SOL    HW2 5379   3.816   0.701   6.524
 1494SOL     OW 5380   5.540   2.979   6.753
 1494SOL    HW1 5381   5.615   2.913   6.760
 1494SOL    HW2 5382   5.517   3.013   6.845
 1495SOL     OW 5383   6.765   4.280   4.346
 1495SOL    HW1 5384   6.686   4.305   4.402
 1495SOL    HW2 5385   6.832   4.233   4.403
 1496SOL     OW 5386   0.097   0.251   0.263
 1496SOL    HW1 5387   0.011   0.204   0.245
 1496SOL    HW2 5388   0.109   0.263   0.362
 1497SOL     OW 5389   4.870   3.154   2.375
 1497SOL    HW1 5390   4.907   3.233   2.424
 1497SOL    HW2 5391   4.777   3.174   2.344
 1498SOL     OW 5392   2.870   4.357   1.299
 1498SOL    HW1 5393   2.801   4.314   1.240
 1498SOL    HW2 5394   2.902   4.290   1.367
 1499SOL     OW 5395   0.743   3.734   6.412
 1499SOL    HW1 5396   0.839   3.712   6.399
 1499SOL    HW2 5397   0.697   3.734   6.323
 1500SOL     OW 5398   1.058   5.973   6.154
 1500SOL    HW1 5399   1.121   5.897   6.170
 1500SOL    HW2 5400   0.977   5.939   6.105
 1501SOL     OW 5401   5.813   1.838   6.600
 1501SOL    HW1 5402   5.824   1.740   6.618
 1501SOL    HW2 5403   5.886   1.869   6.539
 1502SOL     OW 5404   5.564   1.842   6.192
 1502SOL    HW1 5405   5.490   1.797   6.241
 1502SOL    HW2 5406   5.648   1.788   6.202
 1503SOL     OW 5407   0.571   2.909   3.004
 1503SOL    HW1 5408   0.516   2.875   3.080
 1503SOL    HW2 5409   0.511   2.925   2.925
 1504SOL     OW 5410   0.954   0.070   3.409
 1504SOL    HW1 5411   0.973   0.109   3.499
 1504SOL    HW2 5412   0.869   0.107   3.374
 1505SOL     OW 5413   5.247   6.985   5.647
 1505SOL    HW1 5414   5.235   6.972   5.548
 1505SOL    HW2 5415   5.323   6.927   5.679
 1506SOL     OW 5416   1.251   0.439   0.145
 1506SOL    HW1 5417   1.269   0.531   0.182
 1506SOL    HW2 5418   1.153   0.426   0.134
 1507SOL     OW 5419   6.959   1.599   4.387
 1507SOL    HW1 5420   6.884   1.593   4.322
 1507SOL    HW2 5421   6.961   1.690   4.428
 1508SOL     OW 5422   0.400   1.849   1.197
 1508SOL    HW1 5423   0.340   1.772   1.219
 1508SOL    HW2 5424   0.361   1.933   1.236
 1509SOL     OW 5425   4.544   1.460   4.729
 1509SOL    HW1 5426   4.461   1.434   4.679
 1509SOL    HW2 5427   4.601   1.517   4.671
 1510SOL     OW 5428   5.019   6.764   4.590
 1510SOL    HW1 5429   5.063   6.854   4.587
 1510SOL    HW2 5430   4.928   6.774   4.629
 1511SOL     OW 5431   3.607   3.836   4.130
 1511SOL    HW1 5432   3.588   3.761   4.194
 1511SOL    HW2 5433   3.530   3.901   4.132
 1512SOL     OW 5434   6.071   5.272   1.346
 1512SOL    HW1 5435   6.020   5.188   1.363
 1512SOL    HW2 5436   6.015   5.335   1.291
 1513SOL     OW 5437   3.341   0.280   4.595
 1513SOL    HW1 5438   3.281   0.274   4.515
 1513SOL    HW2 5439   3.300   0.230   4.671
 1514SOL     OW 5440   3.559   2.390   5.939
 1514SOL    HW1 5441   3.530   2.450   5.865
 1514SOL    HW2 5442   3.494   2.315   5.949
 1515SOL     OW 5443   6.581   1.409   2.159
 1515SOL    HW1 5444   6.548   1.343   2.092
 1515SOL    HW2 5445   6.519   1.410   2.238
 1516SOL     OW 5446   6.010   5.416   5.159
 1516SOL    HW1 5447   6.028   5.461   5.247
 1516SOL    HW2 5448   6.001   5.317   5.173
 1517SOL     OW 5449   4.322   6.563   2.986
 1517SOL    HW1 5450   4.223   6.572   2.973
 1517SOL    HW2 5451   4.342   6.475   3.029
 1518SOL     OW 5452   6.201   3.736   0.521
 1518SOL    HW1 5453   6.172   3.760   0.613
 1518SOL    HW2 5454   6.211   3.819   0.466
 1519SOL     OW 5455   6.678   4.233   1.069
 1519SOL    HW1 5456   6.658   4.268   1.160
 1519SOL    HW2 5457   6.739   4.153   1.076
 1520SOL     OW 5458   0.854   4.611   1.699
 1520SOL    HW1 5459   0.865   4.512   1.693
 1520SOL    HW2 5460   0.920   4.647   1.765
 1521SOL     OW 5461   1.826   4.600   6.938
 1521SOL    HW1 5462   1.738   4.631   6.974
 1521SOL    HW2 5463   1.885   4.572   7.014
 1522SOL     OW 5464   5.801   5.534   4.430
 1522SOL    HW1 5465   5.830   5.503   4.521
 1522SOL    HW2 5466   5.701   5.538   4.427
 1523SOL     OW 5467   3.713   6.710   6.691
 1523SOL    HW1 5468   3.680   6.660   6.771
 1523SOL    HW2 5469   3.636   6.758   6.649
 1524SOL     OW 5470   2.775   2.050   2.581
 1524SOL    HW1 5471   2.869   2.020   2.565
 1524SOL    HW2 5472   2.711   1.991   2.531
 1525SOL     OW 5473   5.625   2.861   1.047
 1525SOL    HW1 5474   5.645   2.955   1.019
 1525SOL    HW2 5475   5.656   2.847   1.141
 1526SOL     OW 5476   0.148   0.727   6.453
 1526SOL    HW1 5477   0.198   0.782   6.387
 1526SOL    HW2 5478   0.208   0.704   6.530
 1527SOL     OW 5479   3.796   0.672   4.580
 1527SOL    HW1 5480   3.702   0.676   4.612
 1527SOL    HW2 5481   3.820   0.759   4.537
 1528SOL     OW 5482   3.976   5.062   1.619
 1528SOL    HW1 5483   3.956   5.088   1.524
 1528SOL    HW2 5484   4.075   5.061   1.633
 1529SOL     OW 5485   4.916   1.162   6.592
 1529SOL    HW1 5486   4.843   1.102   6.625
 1529SOL    HW2 5487   4.915   1.165   6.493
 1530SOL     OW 5488   2.879   1.302   1.462
 1530SOL    HW1 5489   2.853   1.275   1.369
 1530SOL    HW2 5490   2.908   1.222   1.513
 1531SOL     OW 5491   4.982   0.590   4.653
 1531SOL    HW1 5492   5.034   0.506   4.661
 1531SOL    HW2 5493   4.970   0.631   4.744
 1532SOL     OW 5494   3.351   4.531   5.553
 1532SOL    HW1 5495   3.322   4.610   5.501
 1532SOL    HW2 5496   3.297   4.451   5.527
 1533SOL     OW 5497   5.321   5.728   0.276
 1533SOL    HW1 5498   5.343   5.786   0.355
 1533SOL    HW2 5499   5.378   5.754   0.199
 1534SOL     OW 5500   3.512   5.267   6.650
 1534SOL    HW1 5501   3.577   5.313   6.711
 1534SOL    HW2 5502   3.445   5.217   6.704
 1535SOL     OW 5503   5.388   6.064   4.747
 1535SOL    HW1 5504   5.310   6.086   4.806
 1535SOL    HW2 5505   5.384   6.120   4.664
 1536SOL     OW 5506   3.879   5.015   6.632
 1536SOL    HW1 5507   3.808   5.067   6.585
 1536SOL    HW2 5508   3.851   4.920   6.642
 1537SOL     OW 5509   4.314   5.399   3.485
 1537SOL    HW1 5510   4.353   5.457   3.556
 1537SOL    HW2 5511   4.214   5.405   3.489
 1538SOL     OW 5512   2.869   0.679   6.624
 1538SOL    HW1 5513   2.920   0.594   6.637
 1538SOL    HW2 5514   2.914   0.735   6.555
 1539SOL     OW 5515   4.970   3.002   2.149
 1539SOL    HW1 5516   4.884   3.015   2.100
 1539SOL    HW2 5517   4.970   3.055   2.233
 1540SOL     OW 5518   0.106   6.569   5.515
 1540SOL    HW1 5519   0.186   6.628   5.510
 1540SOL    HW2 5520   0.104   6.522   5.603
 1541SOL     OW 5521   3.035   3.590   4.181
 1541SOL    HW1 5522   3.033   3.632   4.090
 1541SOL    HW2 5523   3.112   3.526   4.187
 1542SOL     OW 5524   6.613   6.937   1.815
 1542SOL    HW1 5525   6.540   6.983   1.866
 1542SOL    HW2 5526   6.600   6.953   1.717
 1543SOL     OW 5527   3.658   5.548   5.726
 1543SOL    HW1 5528   3.597   5.537   5.804
 1543SOL    HW2 5529   3.751   5.525   5.752
 1544SOL     OW 5530   2.974   3.577   3.655
 1544SOL    HW1 5531   2.979   3.481   3.628
 1544SOL    HW2 5532   2.966   3.584   3.754
 1545SOL     OW 5533   5.510   0.543   2.702
 1545SOL    HW1 5534   5.596   0.505   2.667
 1545SOL    HW2 5535   5.525   0.581   2.794
 1546SOL     OW 5536   5.685   6.091   6.119
 1546SOL    HW1 5537   5.774   6.113   6.079
 1546SOL    HW2 5538   5.680   6.130   6.211
 1547SOL     OW 5539   1.313   3.619   1.441
 1547SOL    HW1 5540   1.401   3.573   1.426
 1547SOL    HW2 5541   1.283   3.604   1.535
 1548SOL     OW 5542   4.999   3.866   0.283
 1548SOL    HW1 5543   5.069   3.829   0.344
 1548SOL    HW2 5544   4.914   3.877   0.334
 1549SOL     OW 5545   4.225   1.329   3.190
 1549SOL    HW1 5546   4.281   1.391   3.136
 1549SOL    HW2 5547   4.266   1.238   3.191
 1550SOL     OW 5548   3.717   3.533   1.388
 1550SOL    HW1 5549   3.806   3.579   1.384
 1550SOL    HW2 5550   3.677   3.532   1.296
 1551SOL     OW 5551   1.447   4.878   6.663
 1551SOL    HW1 5552   1.351   4.852   6.663
 1551SOL    HW2 5553   1.494   4.833   6.587
 1552SOL     OW 5554   1.539   5.531   0.562
 1552SOL    HW1 5555   1.554   5.591   0.641
 1552SOL    HW2 5556   1.625   5.489   0.534
 1553SOL     OW 5557   6.828   1.739   6.217
 1553SOL    HW1 5558   6.734   1.742   6.182
 1553SOL    HW2 5559   6.848   1.648   6.251
 1554SOL     OW 5560   3.096   1.932   3.571
 1554SOL    HW1 5561   3.080   1.868   3.496
 1554SOL    HW2 5562   3.054   2.020   3.550
 1555SOL     OW 5563   6.004   3.506   6.795
 1555SOL    HW1 5564   5.908   3.534   6.800
 1555SOL    HW2 5565   6.021   3.436   6.865
 1556SOL     OW 5566   1.994   1.545   6.291
 1556SOL    HW1 5567   1.941   1.553   6.206
 1556SOL    HW2 5568   2.071   1.484   6.276
 1557SOL     OW 5569   2.301   4.273   6.038
 1557SOL    HW1 5570   2.271   4.309   5.949
 1557SOL    HW2 5571   2.231   4.212   6.074
 1558SOL     OW 5572   6.117   0.795   4.333
 1558SOL    HW1 5573   6.106   0.756   4.424
 1558SOL    HW2 5574   6.155   0.887   4.340
 1559SOL     OW 5575   1.633   3.597   6.278
 1559SOL    HW1 5576   1.565   3.537   6.321
 1559SOL    HW2 5577   1.596   3.689   6.269
 1560SOL     OW 5578   0.003   0.304   6.107
 1560SOL    HW1 5579   7.020   0.204   6.119
 1560SOL    HW2 5580   0.098   0.331   6.096
 1561SOL     OW 5581   4.811   6.626   3.711
 1561SOL    HW1 5582   4.853   6.567   3.779
 1561SOL    HW2 5583   4.776   6.709   3.755
 1562SOL     OW 5584   5.080   6.179   2.561
 1562SOL    HW1 5585   5.044   6.270   2.539
 1562SOL    HW2 5586   5.042   6.149   2.648
 1563SOL     OW 5587   2.835   0.532   5.674
 1563SOL    HW1 5588   2.902   0.603   5.694
 1563SOL    HW2 5589   2.750   0.552   5.722
 1564SOL     OW 5590   1.101   0.336   3.316
 1564SOL    HW1 5591   1.200   0.349   3.326
 1564SOL    HW2 5592   1.057   0.353   3.404
 1565SOL     OW 5593   4.607   4.382   2.886
 1565SOL    HW1 5594   4.616   4.364   2.788
 1565SOL    HW2 5595   4.523   4.433   2.903
 1566SOL     OW 5596   5.728   3.803   3.255
 1566SOL    HW1 5597   5.688   3.894   3.242
 1566SOL    HW2 5598   5.697   3.742   3.182
 1567SOL     OW 5599   5.901   6.384   0.414
 1567SOL    HW1 5600   5.958   6.392   0.332
 1567SOL    HW2 5601   5.927   6.455   0.479
 1568SOL     OW 5602   1.183   0.158   0.306
 1568SOL    HW1 5603   1.226   0.096   0.371
 1568SOL    HW2 5604   1.084   0.152   0.315
 1569SOL     OW 5605   4.525   6.230   3.245
 1569SOL    HW1 5606   4.449   6.172   3.218
 1569SOL    HW2 5607   4.501   6.281   3.328
 1570SOL     OW 5608   2.331   0.458   0.637
 1570SOL    HW1 5609   2.311   0.556   0.626
 1570SOL    HW2 5610   2.377   0.424   0.555
 1571SOL     OW 5611   5.620   3.133   1.018
 1571SOL    HW1 5612   5.577   3.153   1.106
 1571SOL    HW2 5613   5.623   3.216   0.962
 1572SOL     OW 5614   0.722   0.360   2.398
 1572SOL    HW1 5615   0.649   0.310   2.445
 1572SOL    HW2 5616   0.797   0.297   2.376
 1573SOL     OW 5617   4.817   1.326   1.593
 1573SOL    HW1 5618   4.771   1.370   1.516
 1573SOL    HW2 5619   4.886   1.263   1.558
 1574SOL     OW 5620   0.289   1.997   1.705
 1574SOL    HW1 5621   0.275   2.096   1.712
 1574SOL    HW2 5622   0.387   1.978   1.703
 1575SOL     OW 5623   2.276   1.784   0.453
 1575SOL    HW1 5624   2.211   1.720   0.494
 1575SOL    HW2 5625   2.353   1.734   0.414
 1576SOL     OW 5626   6.194   6.406   4.201
 1576SOL    HW1 5627   6.274   6.460   4.174
 1576SOL    HW2 5628   6.155   6.361   4.121
 1577SOL     OW 5629   2.587   1.445   4.687
 1577SOL    HW1 5630   2.608   1.420   4.781
 1577SOL    HW2 5631   2.495   1.415   4.663
 1578SOL     OW 5632   6.381   3.324   5.601
 1578SOL    HW1 5633   6.374   3.239   5.549
 1578SOL    HW2 5634   6.360   3.306   5.697
 1579SOL     OW 5635   0.172   1.452   3.249
 1579SOL    HW1 5636   0.115   1.371   3.261
 1579SOL    HW2 5637   0.221   1.471   3.334
 1580SOL     OW 5638   2.855   3.803   5.240
 1580SOL    HW1 5639   2.914   3.881   5.223
 1580SOL    HW2 5640   2.761   3.833   5.253
 1581SOL     OW 5641   6.943   4.587   4.336
 1581SOL    HW1 5642   6.994   4.607   4.420
 1581SOL    HW2 5643   6.999   4.530   4.276
 1582SOL     OW 5644   1.264   5.949   4.830
 1582SOL    HW1 5645   1.173   5.967   4.867
 1582SOL    HW2 5646   1.257   5.920   4.734
 1583SOL     OW 5647   1.964   2.109   3.938
 1583SOL    HW1 5648   2.024   2.165   3.995
 1583SOL    HW2 5649   1.874   2.101   3.982
 1584SOL     OW 5650   2.133   6.933   4.874
 1584SOL    HW1 5651   2.045   6.889   4.892
 1584SOL    HW2 5652   2.199   6.865   4.845
 1585SOL     OW 5653   5.623   1.407   3.469
 1585SOL    HW1 5654   5.533   1.445   3.449
 1585SOL    HW2 5655   5.659   1.447   3.553
 1586SOL     OW 5656   4.022   3.837   2.291
 1586SOL    HW1 5657   4.062   3.868   2.205
 1586SOL    HW2 5658   4.009   3.916   2.352
 1587SOL     OW 5659   2.913   5.312   6.403
 1587SOL    HW1 5660   2.934   5.238   6.339
 1587SOL    HW2 5661   2.992   5.373   6.411
 1588SOL     OW 5662   5.075   1.599   3.575
 1588SOL    HW1 5663   5.113   1.678   3.527
 1588SOL    HW2 5664   5.148   1.546   3.618
 1589SOL     OW 5665   5.735   4.093   3.444
 1589SOL    HW1 5666   5.703   4.005   3.478
 1589SOL    HW2 5667   5.746   4.088   3.345
 1590SOL     OW 5668   1.629   6.519   0.032
 1590SOL    HW1 5669   1.698   6.487   0.097
 1590SOL    HW2 5670   1.632   6.461   6.973
 1591SOL     OW 5671   0.896   4.904   2.992
 1591SOL    HW1 5672   0.971   4.894   3.058
 1591SOL    HW2 5673   0.930   4.882   2.900
 1592SOL     OW 5674   2.619   3.914   1.693
 1592SOL    HW1 5675   2.541   3.974   1.708
 1592SOL    HW2 5676   2.664   3.938   1.606
 1593SOL     OW 5677   1.275   6.549   4.298
 1593SOL    HW1 5678   1.218   6.505   4.229
 1593SOL    HW2 5679   1.257   6.507   4.387
 1594SOL     OW 5680   0.526   5.224   3.603
 1594SOL    HW1 5681   0.512   5.141   3.550
 1594SOL    HW2 5682   0.462   5.225   3.681
 1595SOL     OW 5683   0.250   4.643   6.412
 1595SOL    HW1 5684   0.212   4.703   6.341
 1595SOL    HW2 5685   0.296   4.566   6.369
 1596SOL     OW 5686   1.388   4.183   5.309
 1596SOL    HW1 5687   1.366   4.102   5.256
 1596SOL    HW2 5688   1.392   4.263   5.248
 1597SOL     OW 5689   2.535   5.630   0.559
 1597SOL    HW1 5690   2.509   5.727   0.562
 1597SOL    HW2 5691   2.460   5.575   0.596
 1598SOL     OW 5692   0.463   4.000   0.182
 1598SOL    HW1 5693   0.531   3.950   0.129
 1598SOL    HW2 5694   0.471   4.098   0.163
 1599SOL     OW 5695   4.599   3.392   5.683
 1599SOL    HW1 5696   4.669   3.396   5.611
 1599SOL    HW2 5697   4.636   3.339   5.760
 1600SOL     OW 5698   5.207   1.890   4.494
 1600SOL    HW1 5699   5.144   1.967   4.503
 1600SOL    HW2 5700   5.257   1.878   4.580
 1601SOL     OW 5701   1.665   4.629   4.511
 1601SOL    HW1 5702   1.708   4.539   4.499
 1601SOL    HW2 5703   1.678   4.660   4.605
 1602SOL     OW 5704   1.443   5.526   4.075
 1602SOL    HW1 5705   1.504   5.599   4.046
 1602SOL    HW2 5706   1.349   5.559   4.078
 1603SOL     OW 5707   1.352   6.532   1.952
 1603SOL    HW1 5708   1.339   6.593   2.030
 1603SOL    HW2 5709   1.358   6.586   1.868
 1604SOL     OW 5710   5.779   5.262   6.819
 1604SOL    HW1 5711   5.697   5.228   6.866
 1604SOL    HW2 5712   5.826   5.186   6.774
 1605SOL     OW 5713   6.416   0.327   1.953
 1605SOL    HW1 5714   6.482   0.318   2.028
 1605SOL    HW2 5715   6.325   0.343   1.990
 1606SOL     OW 5716   4.250   1.016   5.281
 1606SOL    HW1 5717   4.212   1.010   5.373
 1606SOL    HW2 5718   4.216   0.939   5.226
 1607SOL     OW 5719   5.191   2.300   1.241
 1607SOL    HW1 5720   5.154   2.239   1.311
 1607SOL    HW2 5721   5.127   2.303   1.163
 1608SOL     OW 5722   1.369   0.499   6.252
 1608SOL    HW1 5723   1.444   0.538   6.199
 1608SOL    HW2 5724   1.282   0.534   6.217
 1609SOL     OW 5725   5.911   1.917   6.303
 1609SOL    HW1 5726   5.992   1.964   6.338
 1609SOL    HW2 5727   5.875   1.967   6.224
 1610SOL     OW 5728   5.743   4.000   5.061
 1610SOL    HW1 5729   5.787   4.017   4.973
 1610SOL    HW2 5730   5.669   3.934   5.049
 1611SOL     OW 5731   4.127   3.211   2.178
 1611SOL    HW1 5732   4.219   3.208   2.138
 1611SOL    HW2 5733   4.076   3.286   2.136
 1612SOL     OW 5734   2.776   1.316   5.467
 1612SOL    HW1 5735   2.680   1.315   5.439
 1612SOL    HW2 5736   2.817   1.226   5.451
 1613SOL     OW 5737   2.463   5.459   0.872
 1613SOL    HW1 5738   2.487   5.385   0.935
 1613SOL    HW2 5739   2.433   5.539   0.925
 1614SOL     OW 5740   0.010   3.721   0.451
 1614SOL    HW1 5741   6.960   3.787   0.470
 1614SOL    HW2 5742   7.001   3.654   0.384
 1615SOL     OW 5743   0.066   4.695   1.575
 1615SOL    HW1 5744   0.093   4.730   1.665
 1615SOL    HW2 5745   7.013   4.749   1.539
 1616SOL     OW 5746   4.214   1.807   6.124
 1616SOL    HW1 5747   4.159   1.856   6.056
 1616SOL    HW2 5748   4.219   1.861   6.208
 1617SOL     OW 5749   5.743   0.492   2.195
 1617SOL    HW1 5750   5.701   0.410   2.233
 1617SOL    HW2 5751   5.819   0.466   2.136
 1618SOL     OW 5752   0.230   3.752   1.483
 1618SOL    HW1 5753   0.204   3.832   1.537
 1618SOL    HW2 5754   0.149   3.718   1.434
 1619SOL     OW 5755   1.533   3.166   3.820
 1619SOL    HW1 5756   1.434   3.181   3.812
 1619SOL    HW2 5757   1.551   3.089   3.881
 1620SOL     OW 5758   2.003   5.537   0.465
 1620SOL    HW1 5759   2.074   5.516   0.397
 1620SOL    HW2 5760   1.995   5.636   0.475
 1621SOL     OW 5761   0.290   0.710   6.661
 1621SOL    HW1 5762   0.310   0.614   6.646
 1621SOL    HW2 5763   0.303   0.732   6.758
 1622SOL     OW 5764   1.598   2.010   5.104
 1622SOL    HW1 5765   1.577   1.935   5.166
 1622SOL    HW2 5766   1.690   1.997   5.066
 1623SOL     OW 5767   2.529   3.000   6.199
 1623SOL    HW1 5768   2.548   2.910   6.239
 1623SOL    HW2 5769   2.603   3.024   6.136
 1624SOL     OW 5770   2.444   0.823   6.673
 1624SOL    HW1 5771   2.411   0.907   6.716
 1624SOL    HW2 5772   2.390   0.805   6.590
 1625SOL     OW 5773   1.190   5.695   2.390
 1625SOL    HW1 5774   1.228   5.636   2.319
 1625SOL    HW2 5775   1.170   5.641   2.471
 1626SOL     OW 5776   2.455   1.877   6.820
 1626SOL    HW1 5777   2.544   1.919   6.838
 1626SOL    HW2 5778   2.383   1.929   6.866
 1627SOL     OW 5779   6.379   1.634   4.512
 1627SOL    HW1 5780   6.447   1.590   4.569
 1627SOL    HW2 5781   6.424   1.685   4.438
 1628SOL     OW 5782   3.905   5.021   0.162
 1628SOL    HW1 5783   3.911   4.955   0.088
 1628SOL    HW2 5784   3.992   5.070   0.171
 1629SOL     OW 5785   2.698   2.417   4.570
 1629SOL    HW1 5786   2.711   2.425   4.669
 1629SOL    HW2 5787   2.784   2.393   4.526
 1630SOL     OW 5788   0.570   5.924   5.431
 1630SOL    HW1 5789   0.590   5.840   5.380
 1630SOL    HW2 5790   0.481   5.915   5.476
 1631SOL     OW 5791   0.116   0.797   5.870
 1631SOL    HW1 5792   0.087   0.769   5.962
 1631SOL    HW2 5793   0.079   0.888   5.849
 1632SOL     OW 5794   6.965   1.281   6.686
 1632SOL    HW1 5795   6.973   1.378   6.706
 1632SOL    HW2 5796   6.878   1.247   6.720
 1633SOL     OW 5797   5.985   2.971   2.591
 1633SOL    HW1 5798   6.025   2.879   2.593
 1633SOL    HW2 5799   5.980   3.003   2.497
 1634SOL     OW 5800   4.158   6.217   6.041
 1634SOL    HW1 5801   4.082   6.274   6.071
 1634SOL    HW2 5802   4.201   6.258   5.960
 1635SOL     OW 5803   6.659   5.895   4.739
 1635SOL    HW1 5804   6.560   5.904   4.738
 1635SOL    HW2 5805   6.700   5.979   4.775
 1636SOL     OW 5806   2.541   4.733   1.520
 1636SOL    HW1 5807   2.605   4.686   1.581
 1636SOL    HW2 5808   2.546   4.832   1.535
 1637SOL     OW 5809   6.681   2.083   2.875
 1637SOL    HW1 5810   6.646   2.168   2.915
 1637SOL    HW2 5811   6.609   2.040   2.820
 1638SOL     OW 5812   0.294   3.601   3.884
 1638SOL    HW1 5813   0.265   3.506   3.899
 1638SOL    HW2 5814   0.215   3.661   3.897
 1639SOL     OW 5815   5.205   5.868   2.836
 1639SOL    HW1 5816   5.248   5.889   2.924
 1639SOL    HW2 5817   5.234   5.778   2.805
 1640SOL     OW 5818   5.860   2.467   0.287
 1640SOL    HW1 5819   5.761   2.461   0.293
 1640SOL    HW2 5820   5.902   2.396   0.343
 1641SOL     OW 5821   5.596   3.058   3.663
 1641SOL    HW1 5822   5.524   3.044   3.594
 1641SOL    HW2 5823   5.611   2.972   3.712
 1642SOL     OW 5824   6.984   3.553   6.889
 1642SOL    HW1 5825   7.009   3.646   6.915
 1642SOL    HW2 5826   6.884   3.543   6.892
 1643SOL     OW 5827   3.693   6.387   4.873
 1643SOL    HW1 5828   3.625   6.421   4.808
 1643SOL    HW2 5829   3.698   6.287   4.866
 1644SOL     OW 5830   2.851   2.742   1.361
 1644SOL    HW1 5831   2.761   2.709   1.391
 1644SOL    HW2 5832   2.913   2.744   1.440
 1645SOL     OW 5833   3.311   6.251   5.745
 1645SOL    HW1 5834   3.312   6.228   5.648
 1645SOL    HW2 5835   3.298   6.168   5.799
 1646SOL     OW 5836   3.100   4.907   1.301
 1646SOL    HW1 5837   3.006   4.884   1.277
 1646SOL    HW2 5838   3.147   4.942   1.220
 1647SOL     OW 5839   6.014   2.544   3.258
 1647SOL    HW1 5840   6.007   2.507   3.350
 1647SOL    HW2 5841   6.088   2.499   3.209
 1648SOL     OW 5842   5.119   6.270   1.882
 1648SOL    HW1 5843   5.217   6.281   1.897
 1648SOL    HW2 5844   5.090   6.179   1.913
 1649SOL     OW 5845   3.455   0.144   3.118
 1649SOL    HW1 5846   3.543   0.170   3.157
 1649SOL    HW2 5847   3.388   0.216   3.135
 1650SOL     OW 5848   2.960   6.968   4.533
 1650SOL    HW1 5849   2.924   0.036   4.512
 1650SOL    HW2 5850   2.979   6.920   4.447
 1651SOL     OW 5851   0.512   0.042   0.337
 1651SOL    HW1 5852   0.508   0.142   0.343
 1651SOL    HW2 5853   0.444   0.010   0.271
 1652SOL     OW 5854   1.833   1.815   0.697
 1652SOL    HW1 5855   1.877   1.731   0.728
 1652SOL    HW2 5856   1.789   1.860   0.775
 1653SOL     OW 5857   0.499   4.842   1.395
 1653SOL    HW1 5858   0.460   4.757   1.430
 1653SOL    HW2 5859   0.427   4.897   1.352
 1654SOL     OW 5860   7.003   2.631   2.424
 1654SOL    HW1 5861   0.015   2.722   2.401
 1654SOL    HW2 5862   0.029   2.563   2.369
 1655SOL     OW 5863   5.444   4.097   6.177
 1655SOL    HW1 5864   5.381   4.090   6.254
 1655SOL    HW2 5865   5.446   4.192   6.145
 1656SOL     OW 5866   1.705   4.100   3.657
 1656SOL    HW1 5867   1.608   4.105   3.634
 1656SOL    HW2 5868   1.721   4.021   3.716
 1657SOL     OW 5869   0.746   0.858   5.636
 1657SOL    HW1 5870   0.668   0.810   5.596
 1657SOL    HW2 5871   0.801   0.898   5.564
 1658SOL     OW 5872   6.561   6.615   2.779
 1658SOL    HW1 5873   6.596   6.529   2.818
 1658SOL    HW2 5874   6.476   6.597   2.729
 1659SOL     OW 5875   3.853   2.154   6.524
 1659SOL    HW1 5876   3.781   2.223   6.532
 1659SOL    HW2 5877   3.814   2.063   6.533
 1660SOL     OW 5878   0.745   5.627   4.340
 1660SOL    HW1 5879   0.817   5.695   4.355
 1660SOL    HW2 5880   0.662   5.673   4.308
 1661SOL     OW 5881   3.472   1.838   2.398
 1661SOL    HW1 5882   3.477   1.938   2.402
 1661SOL    HW2 5883   3.506   1.806   2.310
 1662SOL     OW 5884   6.681   1.568   3.362
 1662SOL    HW1 5885   6.582   1.551   3.355
 1662SOL    HW2 5886   6.727   1.528   3.283
 1663SOL     OW 5887   2.816   0.241   2.944
 1663SOL    HW1 5888   2.747   0.217   3.013
 1663SOL    HW2 5889   2.862   0.158   2.913
 1664SOL     OW 5890   1.801   6.710   4.079
 1664SOL    HW1 5891   1.744   6.737   4.157
 1664SOL    HW2 5892   1.873   6.648   4.111
 1665SOL     OW 5893   6.948   1.398   2.845
 1665SOL    HW1 5894   0.011   1.351   2.824
 1665SOL    HW2 5895   6.965   1.470   2.912
 1666SOL     OW 5896   6.226   2.988   0.097
 1666SOL    HW1 5897   6.277   2.959   0.178
 1666SOL    HW2 5898   6.290   3.013   0.025
 1667SOL     OW 5899   5.610   0.447   0.504
 1667SOL    HW1 5900   5.621   0.358   0.549
 1667SOL    HW2 5901   5.700   0.486   0.486
 1668SOL     OW 5902   4.994   0.044   4.748
 1668SOL    HW1 5903   5.046   7.003   4.805
 1668SOL    HW2 5904   4.900   0.049   4.782
 1669SOL     OW 5905   6.081   6.472   0.226
 1669SOL    HW1 5906   6.160   6.412   0.214
 1669SOL    HW2 5907   6.109   6.558   0.267
 1670SOL     OW 5908   6.458   5.953   5.784
 1670SOL    HW1 5909   6.544   5.960   5.835
 1670SOL    HW2 5910   6.400   6.031   5.805
 1671SOL     OW 5911   4.525   2.556   1.176
 1671SOL    HW1 5912   4.449   2.612   1.208
 1671SOL    HW2 5913   4.499   2.459   1.179
 1672SOL     OW 5914   2.193   4.219   2.643
 1672SOL    HW1 5915   2.141   4.278   2.705
 1672SOL    HW2 5916   2.273   4.269   2.609
 1673SOL     OW 5917   0.074   3.113   4.536
 1673SOL    HW1 5918   0.027   3.041   4.587
 1673SOL    HW2 5919   0.112   3.075   4.452
 1674SOL     OW 5920   1.763   4.178   1.174
 1674SOL    HW1 5921   1.787   4.143   1.083
 1674SOL    HW2 5922   1.680   4.132   1.206
 1675SOL     OW 5923   4.594   0.628   6.488
 1675SOL    HW1 5924   4.665   0.644   6.419
 1675SOL    HW2 5925   4.612   0.542   6.536
 1676SOL     OW 5926   2.403   0.997   2.609
 1676SOL    HW1 5927   2.482   1.030   2.557
 1676SOL    HW2 5928   2.422   0.905   2.643
 1677SOL     OW 5929   5.202   2.041   5.288
 1677SOL    HW1 5930   5.115   2.006   5.253
 1677SOL    HW2 5931   5.219   2.133   5.251
 1678SOL     OW 5932   5.424   5.044   3.870
 1678SOL    HW1 5933   5.426   4.963   3.929
 1678SOL    HW2 5934   5.486   5.113   3.907
 1679SOL     OW 5935   1.675   3.812   5.407
 1679SOL    HW1 5936   1.764   3.837   5.368
 1679SOL    HW2 5937   1.652   3.875   5.481
 1680SOL     OW 5938   0.830   1.395   3.942
 1680SOL    HW1 5939   0.825   1.297   3.962
 1680SOL    HW2 5940   0.818   1.410   3.843
 1681SOL     OW 5941   6.333   5.199   1.286
 1681SOL    HW1 5942   6.240   5.227   1.309
 1681SOL    HW2 5943   6.398   5.268   1.318
 1682SOL     OW 5944   0.598   3.138   4.716
 1682SOL    HW1 5945   0.508   3.139   4.758
 1682SOL    HW2 5946   0.598   3.196   4.635
 1683SOL     OW 5947   3.965   4.798   0.715
 1683SOL    HW1 5948   4.010   4.777   0.628
 1683SOL    HW2 5949   3.963   4.716   0.772
 1684SOL     OW 5950   0.780   6.498   4.267
 1684SOL    HW1 5951   0.847   6.524   4.198
 1684SOL    HW2 5952   0.765   6.575   4.330
 1685SOL     OW 5953   2.067   1.018   6.474
 1685SOL    HW1 5954   2.041   0.935   6.425
 1685SOL    HW2 5955   2.052   1.004   6.572
 1686SOL     OW 5956   1.495   5.905   5.689
 1686SOL    HW1 5957   1.486   6.005   5.681
 1686SOL    HW2 5958   1.465   5.862   5.604
 1687SOL     OW 5959   1.772   3.291   1.914
 1687SOL    HW1 5960   1.726   3.380   1.919
 1687SOL    HW2 5961   1.871   3.304   1.918
 1688SOL     OW 5962   1.860   1.444   3.038
 1688SOL    HW1 5963   1.763   1.445   3.015
 1688SOL    HW2 5964   1.878   1.511   3.111
 1689SOL     OW 5965   3.281   1.686   2.089
 1689SOL    HW1 5966   3.254   1.589   2.089
 1689SOL    HW2 5967   3.371   1.695   2.132
 1690SOL     OW 5968   1.528   2.093   3.367
 1690SOL    HW1 5969   1.616   2.133   3.340
 1690SOL    HW2 5970   1.533   1.994   3.359
 1691SOL     OW 5971   5.329   4.012   2.978
 1691SOL    HW1 5972   5.250   4.031   3.038
 1691SOL    HW2 5973   5.412   4.007   3.034
 1692SOL     OW 5974   6.844   7.014   0.937
 1692SOL    HW1 5975   6.843   0.001   1.037
 1692SOL    HW2 5976   6.929   0.029   0.901
 1693SOL     OW 5977   2.083   2.183   3.248
 1693SOL    HW1 5978   2.053   2.184   3.343
 1693SOL    HW2 5979   2.165   2.239   3.237
 1694SOL     OW 5980   4.377   6.539   4.747
 1694SOL    HW1 5981   4.281   6.524   4.722
 1694SOL    HW2 5982   4.423   6.588   4.673
 1695SOL     OW 5983   2.715   1.842   5.018
 1695SOL    HW1 5984   2.645   1.774   4.996
 1695SOL    HW2 5985   2.720   1.910   4.945
 1696SOL     OW 5986   4.536   5.428   0.545
 1696SOL    HW1 5987   4.529   5.520   0.506
 1696SOL    HW2 5988   4.631   5.397   0.542
 1697SOL     OW 5989   0.880   6.911   1.138
 1697SOL    HW1 5990   0.868   6.846   1.213
 1697SOL    HW2 5991   0.965   6.962   1.151
 1698SOL     OW 5992   4.762   1.672   1.786
 1698SOL    HW1 5993   4.773   1.686   1.688
 1698SOL    HW2 5994   4.667   1.652   1.807
 1699SOL     OW 5995   2.683   2.334   1.100
 1699SOL    HW1 5996   2.659   2.238   1.114
 1699SOL    HW2 5997   2.679   2.355   1.002
 1700SOL     OW 5998   6.679   2.319   3.705
 1700SOL    HW1 5999   6.737   2.309   3.786
 1700SOL    HW2 6000   6.732   2.358   3.630
 1701SOL     OW 6001   5.832   2.574   4.701
 1701SOL    HW1 6002   5.794   2.666   4.710
 1701SOL    HW2 6003   5.915   2.567   4.756
 1702SOL     OW 6004   6.467   3.872   1.447
 1702SOL    HW1 6005   6.403   3.937   1.406
 1702SOL    HW2 6006   6.504   3.911   1.532
 1703SOL     OW 6007   3.057   4.049   2.017
 1703SOL    HW1 6008   3.109   4.133   2.005
 1703SOL    HW2 6009   2.978   4.050   1.956
 1704SOL     OW 6010   0.383   1.147   0.530
 1704SOL    HW1 6011   0.317   1.072   0.532
 1704SOL    HW2 6012   0.462   1.120   0.474
 1705SOL     OW 6013   3.398   2.204   1.616
 1705SOL    HW1 6014   3.382   2.284   1.558
 1705SOL    HW2 6015   3.496   2.192   1.631
 1706SOL     OW 6016   4.283   0.254   1.401
 1706SOL    HW1 6017   4.217   0.264   1.475
 1706SOL    HW2 6018   4.365   0.209   1.436
 1707SOL     OW 6019   4.194   1.390   1.950
 1707SOL    HW1 6020   4.280   1.440   1.961
 1707SOL    HW2 6021   4.198   1.337   1.865
 1708SOL     OW 6022   6.527   6.299   2.598
 1708SOL    HW1 6023   6.543   6.341   2.509
 1708SOL    HW2 6024   6.613   6.296   2.649
 1709SOL     OW 6025   2.487   6.641   2.224
 1709SOL    HW1 6026   2.473   6.561   2.283
 1709SOL    HW2 6027   2.455   6.620   2.131
 1710SOL     OW 6028   0.180   3.617   3.589
 1710SOL    HW1 6029   0.216   3.706   3.616
 1710SOL    HW2 6030   0.210   3.596   3.496
 1711SOL     OW 6031   1.315   4.464   5.151
 1711SOL    HW1 6032   1.388   4.502   5.207
 1711SOL    HW2 6033   1.343   4.463   5.055
 1712SOL     OW 6034   0.619   3.990   6.443
 1712SOL    HW1 6035   0.583   3.984   6.350
 1712SOL    HW2 6036   0.699   3.930   6.451
 1713SOL     OW 6037   2.061   2.185   1.448
 1713SOL    HW1 6038   2.036   2.117   1.516
 1713SOL    HW2 6039   2.101   2.140   1.368
 1714SOL     OW 6040   3.826   1.603   6.613
 1714SOL    HW1 6041   3.763   1.573   6.542
 1714SOL    HW2 6042   3.819   1.702   6.625
 1715SOL     OW 6043   6.852   3.042   3.450
 1715SOL    HW1 6044   6.848   3.121   3.388
 1715SOL    HW2 6045   6.929   2.984   3.425
 1716SOL     OW 6046   5.388   6.846   1.321
 1716SOL    HW1 6047   5.412   6.923   1.380
 1716SOL    HW2 6048   5.463   6.780   1.322
 1717SOL     OW 6049   2.510   6.190   6.646
 1717SOL    HW1 6050   2.453   6.172   6.566
 1717SOL    HW2 6051   2.592   6.133   6.642
 1718SOL     OW 6052   2.194   2.829   0.153
 1718SOL    HW1 6053   2.214   2.903   0.217
 1718SOL    HW2 6054   2.097   2.833   0.127
 1719SOL     OW 6055   2.127   3.353   1.078
 1719SOL    HW1 6056   2.092   3.322   1.167
 1719SOL    HW2 6057   2.149   3.450   1.083
 1720SOL     OW 6058   6.499   2.111   1.007
 1720SOL    HW1 6059   6.510   2.080   0.913
 1720SOL    HW2 6060   6.568   2.068   1.065
 1721SOL     OW 6061   1.129   6.422   2.754
 1721SOL    HW1 6062   1.207   6.360   2.746
 1721SOL    HW2 6063   1.109   6.462   2.665
 1722SOL     OW 6064   5.316   0.367   2.901
 1722SOL    HW1 6065   5.363   0.425   2.967
 1722SOL    HW2 6066   5.226   0.341   2.938
 1723SOL     OW 6067   6.428   2.265   3.295
 1723SOL    HW1 6068   6.433   2.364   3.303
 1723SOL    HW2 6069   6.339   2.238   3.259
 1724SOL     OW 6070   5.991   1.141   0.670
 1724SOL    HW1 6071   6.040   1.187   0.744
 1724SOL    HW2 6072   5.935   1.067   0.707
 1725SOL     OW 6073   3.383   4.517   6.984
 1725SOL    HW1 6074   3.454   4.572   6.939
 1725SOL    HW2 6075   3.425   4.461   0.033
 1726SOL     OW 6076   6.619   4.523   4.693
 1726SOL    HW1 6077   6.520   4.519   4.708
 1726SOL    HW2 6078   6.639   4.536   4.596
 1727SOL     OW 6079   3.800   3.630   4.495
 1727SOL    HW1 6080   3.888   3.649   4.452
 1727SOL    HW2 6081   3.766   3.713   4.539
 1728SOL     OW 6082   4.942   4.637   4.329
 1728SOL    HW1 6083   5.016   4.702   4.342
 1728SOL    HW2 6084   4.967   4.573   4.256
 1729SOL     OW 6085   2.092   3.942   3.352
 1729SOL    HW1 6086   2.132   3.951   3.260
 1729SOL    HW2 6087   2.016   4.006   3.362
 1730SOL     OW 6088   6.551   1.327   5.215
 1730SOL    HW1 6089   6.537   1.319   5.314
 1730SOL    HW2 6090   6.560   1.236   5.175
 1731SOL     OW 6091   1.424   4.384   2.203
 1731SOL    HW1 6092   1.507   4.329   2.213
 1731SOL    HW2 6093   1.383   4.398   2.294
 1732SOL     OW 6094   2.321   4.133   6.849
 1732SOL    HW1 6095   2.415   4.163   6.832
 1732SOL    HW2 6096   2.306   4.043   6.807
 1733SOL     OW 6097   1.820   3.764   2.482
 1733SOL    HW1 6098   1.906   3.736   2.526
 1733SOL    HW2 6099   1.806   3.710   2.399
 1734SOL     OW 6100   4.489   2.964   1.632
 1734SOL    HW1 6101   4.526   2.961   1.725
 1734SOL    HW2 6102   4.468   2.871   1.603
 1735SOL     OW 6103   6.024   5.887   1.458
 1735SOL    HW1 6104   6.088   5.915   1.529
 1735SOL    HW2 6105   5.935   5.866   1.499
 1736SOL     OW 6106   5.037   2.655   0.121
 1736SOL    HW1 6107   4.993   2.588   0.061
 1736SOL    HW2 6108   4.979   2.736   0.128
 1737SOL     OW 6109   2.263   0.586   3.748
 1737SOL    HW1 6110   2.283   0.501   3.796
 1737SOL    HW2 6111   2.204   0.644   3.804
 1738SOL     OW 6112   2.104   2.901   3.542
 1738SOL    HW1 6113   2.018   2.872   3.582
 1738SOL    HW2 6114   2.177   2.893   3.609
 1739SOL     OW 6115   4.570   2.249   4.917
 1739SOL    HW1 6116   4.632   2.257   4.840
 1739SOL    HW2 6117   4.566   2.154   4.948
 1740SOL     OW 6118   6.627   1.271   6.530
 1740SOL    HW1 6119   6.722   1.259   6.501
 1740SOL    HW2 6120   6.565   1.238   6.458
 1741SOL     OW 6121   1.872   0.957   2.548
 1741SOL    HW1 6122   1.908   0.882   2.493
 1741SOL    HW2 6123   1.929   1.038   2.534
 1742SOL     OW 6124   4.407   6.216   6.240
 1742SOL    HW1 6125   4.438   6.122   6.247
 1742SOL    HW2 6126   4.358   6.228   6.153
 1743SOL     OW 6127   1.600   0.774   1.945
 1743SOL    HW1 6128   1.519   0.779   1.886
 1743SOL    HW2 6129   1.631   0.867   1.966
 1744SOL     OW 6130   2.170   0.220   1.958
 1744SOL    HW1 6131   2.216   0.224   1.869
 1744SOL    HW2 6132   2.111   0.139   1.962
 1745SOL     OW 6133   6.522   1.748   4.302
 1745SOL    HW1 6134   6.607   1.695   4.301
 1745SOL    HW2 6135   6.483   1.750   4.209
 1746SOL     OW 6136   2.621   5.860   5.767
 1746SOL    HW1 6137   2.628   5.954   5.731
 1746SOL    HW2 6138   2.538   5.851   5.822
 1747SOL     OW 6139   4.941   6.918   1.854
 1747SOL    HW1 6140   5.034   6.896   1.824
 1747SOL    HW2 6141   4.925   7.016   1.844
 1748SOL     OW 6142   6.554   1.492   3.893
 1748SOL    HW1 6143   6.483   1.426   3.919
 1748SOL    HW2 6144   6.574   1.481   3.795
 1749SOL     OW 6145   4.088   6.565   5.738
 1749SOL    HW1 6146   4.088   6.503   5.660
 1749SOL    HW2 6147   4.001   6.613   5.743
 1750SOL     OW 6148   5.447   0.999   3.079
 1750SOL    HW1 6149   5.536   1.020   3.119
 1750SOL    HW2 6150   5.410   1.082   3.036
 1751SOL     OW 6151   3.242   5.117   4.464
 1751SOL    HW1 6152   3.276   5.023   4.467
 1751SOL    HW2 6153   3.217   5.140   4.370
 1752SOL     OW 6154   6.330   2.724   1.159
 1752SOL    HW1 6155   6.337   2.752   1.063
 1752SOL    HW2 6156   6.417   2.684   1.188
 1753SOL     OW 6157   0.472   0.842   0.362
 1753SOL    HW1 6158   0.392   0.893   0.332
 1753SOL    HW2 6159   0.468   0.748   0.328
 1754SOL     OW 6160   3.739   3.471   0.819
 1754SOL    HW1 6161   3.744   3.555   0.873
 1754SOL    HW2 6162   3.763   3.491   0.724
 1755SOL     OW 6163   5.098   4.950   1.671
 1755SOL    HW1 6164   5.081   4.967   1.768
 1755SOL    HW2 6165   5.096   4.851   1.654
 1756SOL     OW 6166   5.739   4.842   5.040
 1756SOL    HW1 6167   5.718   4.915   5.106
 1756SOL    HW2 6168   5.829   4.803   5.061
 1757SOL     OW 6169   1.935   6.688   4.789
 1757SOL    HW1 6170   2.007   6.738   4.740
 1757SOL    HW2 6171   1.906   6.740   4.869
 1758SOL     OW 6172   2.761   0.957   3.702
 1758SOL    HW1 6173   2.802   0.950   3.611
 1758SOL    HW2 6174   2.833   0.957   3.771
 1759SOL     OW 6175   0.407   4.962   6.246
 1759SOL    HW1 6176   0.442   4.869   6.262
 1759SOL    HW2 6177   0.462   5.006   6.175
 1760SOL     OW 6178   6.247   2.039   1.054
 1760SOL    HW1 6179   6.338   2.079   1.045
 1760SOL    HW2 6180   6.180   2.112   1.069
 1761SOL     OW 6181   6.665   0.013   0.557
 1761SOL    HW1 6182   6.593   0.082   0.557
 1761SOL    HW2 6183   6.624   6.944   0.551
 1762SOL     OW 6184   6.171   2.137   5.467
 1762SOL    HW1 6185   6.101   2.069   5.489
 1762SOL    HW2 6186   6.188   2.195   5.546
 1763SOL     OW 6187   1.842   3.818   4.339
 1763SOL    HW1 6188   1.810   3.889   4.275
 1763SOL    HW2 6189   1.926   3.849   4.383
 1764SOL     OW 6190   1.970   4.219   2.414
 1764SOL    HW1 6191   1.943   4.299   2.467
 1764SOL    HW2 6192   2.029   4.161   2.469
 1765SOL     OW 6193   3.098   1.644   6.857
 1765SOL    HW1 6194   3.194   1.641   6.829
 1765SOL    HW2 6195   3.090   1.609   6.951
 1766SOL     OW 6196   5.043   2.729   4.041
 1766SOL    HW1 6197   5.018   2.635   4.015
 1766SOL    HW2 6198   5.013   2.746   4.135
 1767SOL     OW 6199   5.506   3.802   2.818
 1767SOL    HW1 6200   5.419   3.851   2.811
 1767SOL    HW2 6201   5.490   3.708   2.848
 1768SOL     OW 6202   4.452   0.390   4.781
 1768SOL    HW1 6203   4.378   0.338   4.824
 1768SOL    HW2 6204   4.530   0.329   4.764
 1769SOL     OW 6205   4.250   2.124   4.215
 1769SOL    HW1 6206   4.225   2.184   4.139
 1769SOL    HW2 6207   4.255   2.177   4.299
 1770SOL     OW 6208   1.942   5.800   4.990
 1770SOL    HW1 6209   1.984   5.823   4.902
 1770SOL    HW2 6210   1.941   5.881   5.048
 1771SOL     OW 6211   2.894   5.782   6.537
 1771SOL    HW1 6212   2.891   5.699   6.593
 1771SOL    HW2 6213   2.983   5.825   6.545
 1772SOL     OW 6214   3.065   0.097   4.194
 1772SOL    HW1 6215   3.006   0.114   4.115
 1772SOL    HW2 6216   3.076   7.021   4.206
 1773SOL     OW 6217   2.681   5.149   5.523
 1773SOL    HW1 6218   2.645   5.079   5.461
 1773SOL    HW2 6219   2.690   5.111   5.615
 1774SOL     OW 6220   3.925   6.038   1.836
 1774SOL    HW1 6221   3.914   6.107   1.908
 1774SOL    HW2 6222   4.008   6.058   1.784
 1775SOL     OW 6223   1.432   4.030   3.608
 1775SOL    HW1 6224   1.404   3.934   3.611
 1775SOL    HW2 6225   1.351   4.088   3.604
 1776SOL     OW 6226   3.259   6.740   4.319
 1776SOL    HW1 6227   3.333   6.801   4.292
 1776SOL    HW2 6228   3.278   6.647   4.286
 1777SOL     OW 6229   3.715   5.171   6.481
 1777SOL    HW1 6230   3.633   5.207   6.525
 1777SOL    HW2 6231   3.777   5.246   6.459
 1778SOL     OW 6232   4.208   3.473   5.791
 1778SOL    HW1 6233   4.160   3.515   5.714
 1778SOL    HW2 6234   4.241   3.383   5.764
 1779SOL     OW 6235   4.610   0.791   4.680
 1779SOL    HW1 6236   4.565   0.881   4.673
 1779SOL    HW2 6237   4.545   0.720   4.652
 1780SOL     OW 6238   3.589   2.678   6.648
 1780SOL    HW1 6239   3.524   2.748   6.619
 1780SOL    HW2 6240   3.683   2.711   6.633
 1781SOL     OW 6241   4.121   5.772   2.952
 1781SOL    HW1 6242   4.073   5.840   2.897
 1781SOL    HW2 6243   4.083   5.681   2.934
 1782SOL     OW 6244   3.239   1.463   2.661
 1782SOL    HW1 6245   3.199   1.437   2.749
 1782SOL    HW2 6246   3.198   1.549   2.631
 1783SOL     OW 6247   1.949   5.923   5.907
 1783SOL    HW1 6248   1.996   6.011   5.897
 1783SOL    HW2 6249   2.017   5.850   5.915
 1784SOL     OW 6250   4.412   1.557   6.363
 1784SOL    HW1 6251   4.346   1.483   6.361
 1784SOL    HW2 6252   4.502   1.521   6.387
 1785SOL     OW 6253   6.064   3.995   3.178
 1785SOL    HW1 6254   6.058   3.998   3.278
 1785SOL    HW2 6255   6.081   4.087   3.143
 1786SOL     OW 6256   2.338   2.641   0.009
 1786SOL    HW1 6257   2.276   2.565   7.011
 1786SOL    HW2 6258   2.288   2.714   0.055
 1787SOL     OW 6259   2.849   1.052   5.405
 1787SOL    HW1 6260   2.900   1.051   5.319
 1787SOL    HW2 6261   2.759   1.012   5.392
 1788SOL     OW 6262   2.892   3.131   0.133
 1788SOL    HW1 6263   2.931   3.153   0.222
 1788SOL    HW2 6264   2.915   3.037   0.108
 1789SOL     OW 6265   6.061   1.756   3.269
 1789SOL    HW1 6266   6.060   1.846   3.225
 1789SOL    HW2 6267   6.122   1.758   3.348
 1790SOL     OW 6268   4.292   6.339   3.693
 1790SOL    HW1 6269   4.283   6.400   3.772
 1790SOL    HW2 6270   4.367   6.275   3.709
 1791SOL     OW 6271   5.810   0.366   3.045
 1791SOL    HW1 6272   5.801   0.455   3.001
 1791SOL    HW2 6273   5.907   0.348   3.064
 1792SOL     OW 6274   6.576   3.081   5.214
 1792SOL    HW1 6275   6.626   3.166   5.198
 1792SOL    HW2 6276   6.478   3.099   5.209
 1793SOL     OW 6277   6.480   0.228   3.432
 1793SOL    HW1 6278   6.401   0.238   3.492
 1793SOL    HW2 6279   6.524   0.317   3.421
 1794SOL     OW 6280   5.507   6.237   5.558
 1794SOL    HW1 6281   5.493   6.146   5.598
 1794SOL    HW2 6282   5.561   6.292   5.622
 1795SOL     OW 6283   1.426   1.806   0.768
 1795SOL    HW1 6284   1.478   1.822   0.853
 1795SOL    HW2 6285   1.339   1.856   0.772
 1796SOL     OW 6286   2.683   0.958   4.936
 1796SOL    HW1 6287   2.600   0.949   4.992
 1796SOL    HW2 6288   2.690   0.881   4.873
 1797SOL     OW 6289   1.343   6.748   0.727
 1797SOL    HW1 6290   1.409   6.730   0.654
 1797SOL    HW2 6291   1.349   6.844   0.755
 1798SOL     OW 6292   4.615   2.198   3.879
 1798SOL    HW1 6293   4.647   2.259   3.952
 1798SOL    HW2 6294   4.561   2.251   3.813
 1799SOL     OW 6295   7.011   2.592   5.464
 1799SOL    HW1 6296   0.048   2.544   5.400
 1799SOL    HW2 6297   0.043   2.655   5.519
 1800SOL     OW 6298   4.178   4.710   2.092
 1800SOL    HW1 6299   4.185   4.639   2.022
 1800SOL    HW2 6300   4.116   4.782   2.061
 1801SOL     OW 6301   0.073   6.975   1.679
 1801SOL    HW1 6302   0.150   0.016   1.671
 1801SOL    HW2 6303   0.099   6.886   1.641
 1802SOL     OW 6304   5.069   5.478   3.949
 1802SOL    HW1 6305   5.134   5.552   3.966
 1802SOL    HW2 6306   5.110   5.411   3.888
 1803SOL     OW 6307   0.510   5.753   6.807
 1803SOL    HW1 6308   0.530   5.659   6.778
 1803SOL    HW2 6309   0.425   5.783   6.765
 1804SOL     OW 6310   2.610   3.824   5.328
 1804SOL    HW1 6311   2.615   3.881   5.409
 1804SOL    HW2 6312   2.528   3.847   5.275
 1805SOL     OW 6313   5.696   4.371   5.971
 1805SOL    HW1 6314   5.721   4.276   5.952
 1805SOL    HW2 6315   5.728   4.396   6.062
 1806SOL     OW 6316   0.427   0.065   0.048
 1806SOL    HW1 6317   0.399   0.157   0.022
 1806SOL    HW2 6318   0.349   0.003   0.041
 1807SOL     OW 6319   5.303   2.901   5.043
 1807SOL    HW1 6320   5.244   2.881   4.965
 1807SOL    HW2 6321   5.314   2.999   5.052
 1808SOL     OW 6322   6.978   4.362   5.597
 1808SOL    HW1 6323   0.006   4.279   5.573
 1808SOL    HW2 6324   6.956   4.360   5.695
 1809SOL     OW 6325   2.072   2.459   5.108
 1809SOL    HW1 6326   2.122   2.516   5.043
 1809SOL    HW2 6327   2.117   2.370   5.116
 1810SOL     OW 6328   2.537   6.648   3.515
 1810SOL    HW1 6329   2.606   6.704   3.561
 1810SOL    HW2 6330   2.492   6.702   3.445
 1811SOL     OW 6331   6.175   5.455   3.584
 1811SOL    HW1 6332   6.222   5.377   3.625
 1811SOL    HW2 6333   6.224   5.539   3.607
 1812SOL     OW 6334   4.255   6.067   4.834
 1812SOL    HW1 6335   4.253   5.971   4.807
 1812SOL    HW2 6336   4.275   6.124   4.755
 1813SOL     OW 6337   6.107   4.312   0.803
 1813SOL    HW1 6338   6.133   4.227   0.848
 1813SOL    HW2 6339   6.158   4.388   0.844
 1814SOL     OW 6340   5.447   0.196   1.682
 1814SOL    HW1 6341   5.392   0.280   1.687
 1814SOL    HW2 6342   5.532   0.210   1.732
 1815SOL     OW 6343   0.556   2.008   2.599
 1815SOL    HW1 6344   0.517   1.999   2.508
 1815SOL    HW2 6345   0.646   2.053   2.593
 1816SOL     OW 6346   2.829   3.403   1.131
 1816SOL    HW1 6347   2.923   3.369   1.129
 1816SOL    HW2 6348   2.767   3.328   1.108
 1817SOL     OW 6349   2.469   6.996   2.609
 1817SOL    HW1 6350   2.498   0.068   2.624
 1817SOL    HW2 6351   2.548   6.935   2.618
 1818SOL     OW 6352   1.286   6.986   2.736
 1818SOL    HW1 6353   1.226   6.950   2.665
 1818SOL    HW2 6354   1.232   7.003   2.819
 1819SOL     OW 6355   1.153   3.909   1.827
 1819SOL    HW1 6356   1.147   3.998   1.873
 1819SOL    HW2 6357   1.160   3.836   1.895
 1820SOL     OW 6358   3.956   1.102   3.029
 1820SOL    HW1 6359   3.903   1.020   3.008
 1820SOL    HW2 6360   3.942   1.170   2.956
 1821SOL     OW 6361   0.778   1.230   2.019
 1821SOL    HW1 6362   0.692   1.214   2.068
 1821SOL    HW2 6363   0.834   1.147   2.021
 1822SOL     OW 6364   3.227   2.267   1.164
 1822SOL    HW1 6365   3.168   2.344   1.138
 1822SOL    HW2 6366   3.292   2.299   1.233
 1823SOL     OW 6367   3.455   5.803   3.369
 1823SOL    HW1 6368   3.396   5.724   3.355
 1823SOL    HW2 6369   3.431   5.875   3.303
 1824SOL     OW 6370   3.811   2.115   0.931
 1824SOL    HW1 6371   3.746   2.107   1.006
 1824SOL    HW2 6372   3.832   2.023   0.896
 1825SOL     OW 6373   1.534   0.427   2.034
 1825SOL    HW1 6374   1.614   0.483   2.053
 1825SOL    HW2 6375   1.508   0.435   1.938
 1826SOL     OW 6376   3.522   0.995   1.509
 1826SOL    HW1 6377   3.527   1.030   1.415
 1826SOL    HW2 6378   3.492   0.900   1.508
 1827SOL     OW 6379   0.301   5.179   2.147
 1827SOL    HW1 6380   0.227   5.245   2.158
 1827SOL    HW2 6381   0.302   5.116   2.225
 1828SOL     OW 6382   0.202   2.277   0.049
 1828SOL    HW1 6383   0.240   2.269   0.141
 1828SOL    HW2 6384   0.270   2.319   7.012
 1829SOL     OW 6385   4.778   0.354   2.962
 1829SOL    HW1 6386   4.683   0.325   2.970
 1829SOL    HW2 6387   4.815   0.323   2.874
 1830SOL     OW 6388   5.426   5.770   4.266
 1830SOL    HW1 6389   5.385   5.843   4.320
 1830SOL    HW2 6390   5.356   5.727   4.210
 1831SOL     OW 6391   6.237   7.015   2.961
 1831SOL    HW1 6392   6.311   6.961   2.922
 1831SOL    HW2 6393   6.201   6.969   3.042
 1832SOL     OW 6394   5.820   2.054   1.133
 1832SOL    HW1 6395   5.794   2.133   1.078
 1832SOL    HW2 6396   5.800   2.072   1.229
 1833SOL     OW 6397   5.662   0.890   5.273
 1833SOL    HW1 6398   5.586   0.950   5.296
 1833SOL    HW2 6399   5.716   0.931   5.201
 1834SOL     OW 6400   3.441   4.134   0.113
 1834SOL    HW1 6401   3.497   4.076   0.172
 1834SOL    HW2 6402   3.344   4.118   0.133
 1835SOL     OW 6403   1.565   4.545   1.981
 1835SOL    HW1 6404   1.565   4.462   1.924
 1835SOL    HW2 6405   1.490   4.539   2.047
 1836SOL     OW 6406   6.892   1.788   1.078
 1836SOL    HW1 6407   6.927   1.695   1.085
 1836SOL    HW2 6408   6.967   1.850   1.055
 1837SOL     OW 6409   0.610   2.459   3.565
 1837SOL    HW1 6410   0.604   2.540   3.508
 1837SOL    HW2 6411   0.700   2.417   3.555
 1838SOL     OW 6412   0.251   1.832   3.747
 1838SOL    HW1 6413   0.216   1.792   3.662
 1838SOL    HW2 6414   0.183   1.895   3.785
 1839SOL     OW 6415   4.572   2.626   4.744
 1839SOL    HW1 6416   4.527   2.609   4.831
 1839SOL    HW2 6417   4.640   2.699   4.756
 1840SOL     OW 6418   3.492   6.347   1.525
 1840SOL    HW1 6419   3.531   6.256   1.521
 1840SOL    HW2 6420   3.565   6.415   1.533
 1841SOL     OW 6421   2.095   3.317   4.552
 1841SOL    HW1 6422   2.077   3.393   4.614
 1841SOL    HW2 6423   2.148   3.246   4.600
 1842SOL     OW 6424   0.751   5.546   0.226
 1842SOL    HW1 6425   0.748   5.646   0.234
 1842SOL    HW2 6426   0.831   5.519   0.172
 1843SOL     OW 6427   1.743   2.387   4.477
 1843SOL    HW1 6428   1.778   2.446   4.404
 1843SOL    HW2 6429   1.730   2.441   4.560
 1844SOL     OW 6430   3.902   0.954   5.780
 1844SOL    HW1 6431   3.963   1.018   5.826
 1844SOL    HW2 6432   3.829   1.004   5.734
 1845SOL     OW 6433   2.262   0.699   6.267
 1845SOL    HW1 6434   2.273   0.736   6.175
 1845SOL    HW2 6435   2.348   0.709   6.317
 1846SOL     OW 6436   3.857   2.043   6.836
 1846SOL    HW1 6437   3.893   2.136   6.848
 1846SOL    HW2 6438   3.863   1.994   6.923
 1847SOL     OW 6439   1.322   1.004   6.773
 1847SOL    HW1 6440   1.301   0.961   6.686
 1847SOL    HW2 6441   1.294   1.101   6.770
 1848SOL     OW 6442   1.869   6.222   2.614
 1848SOL    HW1 6443   1.949   6.163   2.607
 1848SOL    HW2 6444   1.793   6.172   2.656
 1849SOL     OW 6445   4.098   1.709   0.440
 1849SOL    HW1 6446   4.020   1.673   0.490
 1849SOL    HW2 6447   4.089   1.686   0.343
 1850SOL     OW 6448   6.462   2.021   2.752
 1850SOL    HW1 6449   6.402   1.967   2.811
 1850SOL    HW2 6450   6.435   2.008   2.656
 1851SOL     OW 6451   0.365   1.508   0.824
 1851SOL    HW1 6452   0.345   1.477   0.731
 1851SOL    HW2 6453   0.448   1.564   0.823
 1852SOL     OW 6454   5.008   4.130   1.219
 1852SOL    HW1 6455   4.995   4.162   1.313
 1852SOL    HW2 6456   5.103   4.100   1.208
 1853SOL     OW 6457   0.950   3.210   2.076
 1853SOL    HW1 6458   0.901   3.292   2.047
 1853SOL    HW2 6459   0.996   3.228   2.162
 1854SOL     OW 6460   2.744   6.303   3.749
 1854SOL    HW1 6461   2.658   6.258   3.727
 1854SOL    HW2 6462   2.816   6.270   3.688
 1855SOL     OW 6463   4.507   4.356   6.629
 1855SOL    HW1 6464   4.465   4.349   6.719
 1855SOL    HW2 6465   4.585   4.418   6.634
 1856SOL     OW 6466   6.390   3.006   5.456
 1856SOL    HW1 6467   6.377   3.069   5.379
 1856SOL    HW2 6468   6.346   2.919   5.435
 1857SOL     OW 6469   3.682   1.089   5.679
 1857SOL    HW1 6470   3.586   1.061   5.678
 1857SOL    HW2 6471   3.701   1.146   5.599
 1858SOL     OW 6472   5.933   3.152   3.531
 1858SOL    HW1 6473   5.883   3.228   3.490
 1858SOL    HW2 6474   5.887   3.066   3.508
 1859SOL     OW 6475   4.044   1.428   3.718
 1859SOL    HW1 6476   4.115   1.493   3.742
 1859SOL    HW2 6477   4.086   1.343   3.686
 1860SOL     OW 6478   0.076   0.783   3.222
 1860SOL    HW1 6479   7.005   0.777   3.256
 1860SOL    HW2 6480   0.099   0.697   3.176
 1861SOL     OW 6481   4.795   6.373   1.806
 1861SOL    HW1 6482   4.767   6.279   1.824
 1861SOL    HW2 6483   4.895   6.379   1.801
 1862SOL     OW 6484   2.192   6.690   6.746
 1862SOL    HW1 6485   2.120   6.708   6.813
 1862SOL    HW2 6486   2.281   6.696   6.792
 1863SOL     OW 6487   2.326   2.494   0.764
 1863SOL    HW1 6488   2.346   2.535   0.853
 1863SOL    HW2 6489   2.369   2.548   0.691
 1864SOL     OW 6490   1.175   0.117   5.545
 1864SOL    HW1 6491   1.165   0.110   5.644
 1864SOL    HW2 6492   1.106   0.061   5.500
 1865SOL     OW 6493   3.510   0.612   5.701
 1865SOL    HW1 6494   3.504   0.614   5.601
 1865SOL    HW2 6495   3.599   0.650   5.729
 1866SOL     OW 6496   4.680   4.559   2.390
 1866SOL    HW1 6497   4.653   4.632   2.327
 1866SOL    HW2 6498   4.728   4.488   2.339
 1867SOL     OW 6499   0.733   4.291   0.665
 1867SOL    HW1 6500   0.727   4.196   0.633
 1867SOL    HW2 6501   0.827   4.312   0.691
 1868SOL     OW 6502   4.681   4.631   0.452
 1868SOL    HW1 6503   4.758   4.648   0.513
 1868SOL    HW2 6504   4.715   4.596   0.364
 1869SOL     OW 6505   6.569   2.199   4.631
 1869SOL    HW1 6506   6.523   2.288   4.637
 1869SOL    HW2 6507   6.531   2.147   4.554
 1870SOL     OW 6508   2.230   4.010   5.795
 1870SOL    HW1 6509   2.289   4.070   5.850
 1870SOL    HW2 6510   2.284   3.969   5.722
 1871SOL     OW 6511   1.265   6.562   6.956
 1871SOL    HW1 6512   1.235   6.608   0.018
 1871SOL    HW2 6513   1.260   6.627   6.880
 1872SOL     OW 6514   3.796   4.063   6.897
 1872SOL    HW1 6515   3.788   3.976   6.848
 1872SOL    HW2 6516   3.881   4.109   6.869
 1873SOL     OW 6517   4.325   1.467   4.963
 1873SOL    HW1 6518   4.324   1.376   5.006
 1873SOL    HW2 6519   4.235   1.508   4.969
 1874SOL     OW 6520   2.342   1.125   0.936
 1874SOL    HW1 6521   2.407   1.141   1.010
 1874SOL    HW2 6522   2.310   1.030   0.940
 1875SOL     OW 6523   1.010   1.025   6.291
 1875SOL    HW1 6524   1.092   1.019   6.235
 1875SOL    HW2 6525   1.036   1.036   6.387
 1876SOL     OW 6526   3.526   0.404   5.875
 1876SOL    HW1 6527   3.527   0.491   5.825
 1876SOL    HW2 6528   3.441   0.396   5.928
 1877SOL     OW 6529   0.763   0.110   3.131
 1877SOL    HW1 6530   0.772   0.024   3.181
 1877SOL    HW2 6531   0.853   0.142   3.102
 1878SOL     OW 6532   6.851   1.685   3.963
 1878SOL    HW1 6533   6.818   1.663   3.871
 1878SOL    HW2 6534   6.934   1.633   3.982
 1879SOL     OW 6535   0.929   3.959   4.131
 1879SOL    HW1 6536   0.980   3.956   4.045
 1879SOL    HW2 6537   0.940   3.873   4.180
 1880SOL     OW 6538   6.765   1.420   4.880
 1880SOL    HW1 6539   6.765   1.329   4.838
 1880SOL    HW2 6540   6.787   1.489   4.810
 1881SOL     OW 6541   5.731   2.122   2.479
 1881SOL    HW1 6542   5.666   2.079   2.416
 1881SOL    HW2 6543   5.701   2.214   2.501
 1882SOL     OW 6544   0.925   3.996   6.724
 1882SOL    HW1 6545   0.846   3.952   6.769
 1882SOL    HW2 6546   0.985   4.035   6.794
 1883SOL     OW 6547   6.129   2.237   2.757
 1883SOL    HW1 6548   6.185   2.279   2.828
 1883SOL    HW2 6549   6.109   2.142   2.782
 1884SOL     OW 6550   0.802   2.133   0.421
 1884SOL    HW1 6551   0.705   2.109   0.421
 1884SOL    HW2 6552   0.842   2.112   0.332
 1885SOL     OW 6553   2.179   1.775   6.124
 1885SOL    HW1 6554   2.146   1.692   6.170
 1885SOL    HW2 6555   2.259   1.753   6.068
 1886SOL     OW 6556   1.533   0.106   1.977
 1886SOL    HW1 6557   1.449   0.159   1.970
 1886SOL    HW2 6558   1.511   0.008   1.973
 1887SOL     OW 6559   0.583   5.412   5.891
 1887SOL    HW1 6560   0.651   5.477   5.858
 1887SOL    HW2 6561   0.565   5.430   5.988
 1888SOL     OW 6562   3.169   2.092   7.001
 1888SOL    HW1 6563   3.162   2.025   6.926
 1888SOL    HW2 6564   3.184   2.183   6.963
 1889SOL     OW 6565   0.216   3.816   4.428
 1889SOL    HW1 6566   0.289   3.823   4.497
 1889SOL    HW2 6567   0.211   3.902   4.377
 1890SOL     OW 6568   1.172   5.589   4.014
 1890SOL    HW1 6569   1.108   5.515   4.033
 1890SOL    HW2 6570   1.164   5.617   3.919
 1891SOL     OW 6571   4.716   2.682   1.574
 1891SOL    HW1 6572   4.750   2.756   1.631
 1891SOL    HW2 6573   4.721   2.708   1.477
 1892SOL     OW 6574   0.296   0.068   1.988
 1892SOL    HW1 6575   0.259   0.027   2.071
 1892SOL    HW2 6576   0.235   0.142   1.957
 1893SOL     OW 6577   3.618   2.825   2.048
 1893SOL    HW1 6578   3.600   2.921   2.023
 1893SOL    HW2 6579   3.532   2.778   2.066
 1894SOL     OW 6580   3.855   3.434   4.297
 1894SOL    HW1 6581   3.797   3.387   4.230
 1894SOL    HW2 6582   3.797   3.471   4.370
 1895SOL     OW 6583   4.175   0.033   0.764
 1895SOL    HW1 6584   4.109   0.104   0.738
 1895SOL    HW2 6585   4.151   7.019   0.854
 1896SOL     OW 6586   6.016   1.817   0.910
 1896SOL    HW1 6587   6.019   1.845   1.006
 1896SOL    HW2 6588   5.927   1.842   0.871
 1897SOL     OW 6589   2.005   5.030   2.118
 1897SOL    HW1 6590   2.076   4.961   2.133
 1897SOL    HW2 6591   1.955   5.009   2.035
 1898SOL     OW 6592   1.956   4.470   3.147
 1898SOL    HW1 6593   2.019   4.466   3.224
 1898SOL    HW2 6594   1.934   4.565   3.126
 1899SOL     OW 6595   0.244   1.670   6.933
 1899SOL    HW1 6596   0.212   1.721   7.013
 1899SOL    HW2 6597   0.339   1.695   6.914
 1900SOL     OW 6598   2.328   0.742   6.973
 1900SOL    HW1 6599   2.394   0.810   7.004
 1900SOL    HW2 6600   2.369   0.684   6.903
 1901SOL     OW 6601   2.064   2.004   0.725
 1901SOL    HW1 6602   1.973   1.965   0.710
 1901SOL    HW2 6603   2.056   2.102   0.744
 1902SOL     OW 6604   2.430   0.815   4.236
 1902SOL    HW1 6605   2.372   0.811   4.154
 1902SOL    HW2 6606   2.387   0.762   4.309
 1903SOL     OW 6607   0.945   3.525   2.484
 1903SOL    HW1 6608   0.856   3.540   2.440
 1903SOL    HW2 6609   0.930   3.488   2.576
 1904SOL     OW 6610   5.626   5.158   3.160
 1904SOL    HW1 6611   5.557   5.182   3.227
 1904SOL    HW2 6612   5.717   5.179   3.197
 1905SOL     OW 6613   0.502   0.494   3.376
 1905SOL    HW1 6614   0.479   0.585   3.410
 1905SOL    HW2 6615   0.420   0.436   3.376
 1906SOL     OW 6616   3.151   1.125   6.173
 1906SOL    HW1 6617   3.205   1.125   6.257
 1906SOL    HW2 6618   3.143   1.032   6.138
 1907SOL     OW 6619   4.858   2.528   1.236
 1907SOL    HW1 6620   4.767   2.568   1.226
 1907SOL    HW2 6621   4.852   2.447   1.295
 1908SOL     OW 6622   4.113   6.262   6.464
 1908SOL    HW1 6623   4.203   6.297   6.490
 1908SOL    HW2 6624   4.045   6.292   6.532
 1909SOL     OW 6625   0.806   3.146   3.531
 1909SOL    HW1 6626   0.773   3.075   3.468
 1909SOL    HW2 6627   0.769   3.130   3.622
 1910SOL     OW 6628   6.858   6.690   5.409
 1910SOL    HW1 6629   6.847   6.789   5.418
 1910SOL    HW2 6630   6.906   6.656   5.490
 1911SOL     OW 6631   6.679   3.424   4.876
 1911SOL    HW1 6632   6.648   3.519   4.883
 1911SOL    HW2 6633   6.720   3.409   4.786
 1912SOL     OW 6634   2.700   5.672   2.343
 1912SOL    HW1 6635   2.713   5.579   2.307
 1912SOL    HW2 6636   2.613   5.709   2.310
 1913SOL     OW 6637   2.387   0.316   5.145
 1913SOL    HW1 6638   2.313   0.365   5.194
 1913SOL    HW2 6639   2.347   0.253   5.079
 1914SOL     OW 6640   4.101   3.468   0.290
 1914SOL    HW1 6641   4.022   3.517   0.255
 1914SOL    HW2 6642   4.128   3.507   0.378
 1915SOL     OW 6643   5.050   2.990   5.802
 1915SOL    HW1 6644   5.112   3.024   5.873
 1915SOL    HW2 6645   5.006   3.068   5.757
 1916SOL     OW 6646   4.512   6.198   1.118
 1916SOL    HW1 6647   4.485   6.157   1.206
 1916SOL    HW2 6648   4.476   6.291   1.112
 1917SOL     OW 6649   3.035   3.446   0.139
 1917SOL    HW1 6650   2.937   3.446   0.117
 1917SOL    HW2 6651   3.047   3.423   0.236
 1918SOL     OW 6652   0.645   0.920   4.633
 1918SOL    HW1 6653   0.669   0.972   4.551
 1918SOL    HW2 6654   0.726   0.906   4.689
 1919SOL     OW 6655   1.862   1.675   1.404
 1919SOL    HW1 6656   1.953   1.638   1.423
 1919SOL    HW2 6657   1.808   1.677   1.488
 1920SOL     OW 6658   6.330   3.088   2.573
 1920SOL    HW1 6659   6.265   3.039   2.631
 1920SOL    HW2 6660   6.325   3.052   2.480
 1921SOL     OW 6661   1.288   3.163   6.993
 1921SOL    HW1 6662   1.280   3.260   6.973
 1921SOL    HW2 6663   1.300   3.112   6.907
 1922SOL     OW 6664   2.912   3.378   2.021
 1922SOL    HW1 6665   2.912   3.321   2.103
 1922SOL    HW2 6666   2.951   3.467   2.044
 1923SOL     OW 6667   4.297   1.131   0.028
 1923SOL    HW1 6668   4.223   1.095   6.993
 1923SOL    HW2 6669   4.331   1.217   7.013
 1924SOL     OW 6670   4.427   0.130   0.791
 1924SOL    HW1 6671   4.449   0.225   0.814
 1924SOL    HW2 6672   4.330   0.112   0.811
 1925SOL     OW 6673   1.133   4.647   1.814
 1925SOL    HW1 6674   1.175   4.646   1.723
 1925SOL    HW2 6675   1.066   4.722   1.819
 1926SOL     OW 6676   3.081   0.455   1.923
 1926SOL    HW1 6677   3.148   0.474   1.994
 1926SOL    HW2 6678   3.100   0.366   1.881
 1927SOL     OW 6679   2.466   3.935   0.812
 1927SOL    HW1 6680   2.381   3.883   0.823
 1927SOL    HW2 6681   2.497   3.929   0.717
 1928SOL     OW 6682   5.264   5.055   4.306
 1928SOL    HW1 6683   5.192   5.109   4.262
 1928SOL    HW2 6684   5.271   5.080   4.403
 1929SOL     OW 6685   2.841   0.612   1.969
 1929SOL    HW1 6686   2.801   0.568   2.050
 1929SOL    HW2 6687   2.917   0.556   1.936
 1930SOL     OW 6688   5.516   3.489   6.653
 1930SOL    HW1 6689   5.600   3.454   6.611
 1930SOL    HW2 6690   5.458   3.413   6.680
 1931SOL     OW 6691   0.966   2.180   6.722
 1931SOL    HW1 6692   0.968   2.279   6.737
 1931SOL    HW2 6693   0.941   2.161   6.627
 1932SOL     OW 6694   4.547   2.537   3.325
 1932SOL    HW1 6695   4.588   2.626   3.306
 1932SOL    HW2 6696   4.537   2.526   3.424
 1933SOL     OW 6697   0.433   1.988   0.254
 1933SOL    HW1 6698   0.394   1.899   0.232
 1933SOL    HW2 6699   0.507   2.009   0.189
 1934SOL     OW 6700   0.550   0.657   5.301
 1934SOL    HW1 6701   0.463   0.655   5.250
 1934SOL    HW2 6702   0.540   0.715   5.382
 1935SOL     OW 6703   4.500   4.817   3.779
 1935SOL    HW1 6704   4.408   4.810   3.816
 1935SOL    HW2 6705   4.566   4.791   3.849
 1936SOL     OW 6706   4.903   3.664   3.987
 1936SOL    HW1 6707   4.892   3.590   4.053
 1936SOL    HW2 6708   5.000   3.678   3.968
 1937SOL     OW 6709   4.599   6.314   6.726
 1937SOL    HW1 6710   4.612   6.248   6.652
 1937SOL    HW2 6711   4.608   6.407   6.691
 1938SOL     OW 6712   1.220   2.542   0.317
 1938SOL    HW1 6713   1.218   2.641   0.301
 1938SOL    HW2 6714   1.267   2.523   0.403
 1939SOL     OW 6715   0.036   5.436   4.399
 1939SOL    HW1 6716   0.094   5.484   4.464
 1939SOL    HW2 6717   6.988   5.498   4.364
 1940SOL     OW 6718   5.774   4.501   1.870
 1940SOL    HW1 6719   5.756   4.591   1.910
 1940SOL    HW2 6720   5.752   4.430   1.936
 1941SOL     OW 6721   0.071   2.674   3.508
 1941SOL    HW1 6722   0.057   2.742   3.579
 1941SOL    HW2 6723   0.166   2.645   3.507
 1942SOL     OW 6724   5.619   4.120   2.756
 1942SOL    HW1 6725   5.541   4.181   2.772
 1942SOL    HW2 6726   5.656   4.089   2.844
 1943SOL     OW 6727   1.563   1.566   2.040
 1943SOL    HW1 6728   1.512   1.625   2.101
 1943SOL    HW2 6729   1.569   1.474   2.079
 1944SOL     OW 6730   6.552   4.213   0.477
 1944SOL    HW1 6731   6.590   4.139   0.532
 1944SOL    HW2 6732   6.542   4.182   0.382
 1945SOL     OW 6733   3.941   6.392   0.965
 1945SOL    HW1 6734   3.890   6.464   1.012
 1945SOL    HW2 6735   3.986   6.431   0.885
 1946SOL     OW 6736   5.470   6.328   1.706
 1946SOL    HW1 6737   5.443   6.418   1.671
 1946SOL    HW2 6738   5.569   6.319   1.700
 1947SOL     OW 6739   6.532   5.650   4.125
 1947SOL    HW1 6740   6.612   5.684   4.077
 1947SOL    HW2 6741   6.461   5.720   4.126
 1948SOL     OW 6742   5.842   4.054   2.646
 1948SOL    HW1 6743   5.748   4.075   2.671
 1948SOL    HW2 6744   5.875   3.977   2.701
 1949SOL     OW 6745   4.133   3.960   0.415
 1949SOL    HW1 6746   4.154   3.946   0.318
 1949SOL    HW2 6747   4.181   4.041   0.448
 1950SOL     OW 6748   3.674   3.282   4.136
 1950SOL    HW1 6749   3.693   3.187   4.157
 1950SOL    HW2 6750   3.713   3.305   4.047
 1951SOL     OW 6751   6.616   4.113   5.326
 1951SOL    HW1 6752   6.625   4.016   5.306
 1951SOL    HW2 6753   6.625   4.129   5.424
 1952SOL     OW 6754   4.864   4.319   1.105
 1952SOL    HW1 6755   4.893   4.225   1.122
 1952SOL    HW2 6756   4.840   4.363   1.192
 1953SOL     OW 6757   6.875   1.515   6.335
 1953SOL    HW1 6758   6.872   1.580   6.410
 1953SOL    HW2 6759   6.791   1.460   6.334
 1954SOL     OW 6760   5.449   1.369   1.674
 1954SOL    HW1 6761   5.489   1.329   1.756
 1954SOL    HW2 6762   5.356   1.336   1.662
 1955SOL     OW 6763   0.406   1.459   1.575
 1955SOL    HW1 6764   0.506   1.461   1.568
 1955SOL    HW2 6765   0.374   1.542   1.620
 1956SOL     OW 6766   4.957   0.641   2.760
 1956SOL    HW1 6767   5.043   0.690   2.773
 1956SOL    HW2 6768   4.954   0.562   2.821
 1957SOL     OW 6769   4.881   3.320   4.091
 1957SOL    HW1 6770   4.974   3.341   4.059
 1957SOL    HW2 6771   4.851   3.392   4.154
 1958SOL     OW 6772   4.510   1.769   1.418
 1958SOL    HW1 6773   4.452   1.843   1.453
 1958SOL    HW2 6774   4.475   1.681   1.450
 1959SOL     OW 6775   6.445   6.885   3.958
 1959SOL    HW1 6776   6.498   6.924   4.033
 1959SOL    HW2 6777   6.504   6.830   3.899
 1960SOL     OW 6778   7.017   2.658   3.234
 1960SOL    HW1 6779   0.017   2.678   3.330
 1960SOL    HW2 6780   6.946   2.588   3.232
 1961SOL     OW 6781   6.330   4.482   4.704
 1961SOL    HW1 6782   6.246   4.521   4.665
 1961SOL    HW2 6783   6.337   4.508   4.800
 1962SOL     OW 6784   1.278   5.923   2.541
 1962SOL    HW1 6785   1.357   5.965   2.495
 1962SOL    HW2 6786   1.241   5.850   2.483
 1963SOL     OW 6787   0.652   1.350   1.731
 1963SOL    HW1 6788   0.736   1.338   1.679
 1963SOL    HW2 6789   0.661   1.307   1.820
 1964SOL     OW 6790   5.175   4.649   1.587
 1964SOL    HW1 6791   5.274   4.640   1.580
 1964SOL    HW2 6792   5.133   4.617   1.502
 1965SOL     OW 6793   0.976   3.598   4.004
 1965SOL    HW1 6794   0.978   3.656   3.922
 1965SOL    HW2 6795   1.057   3.539   4.004
 1966SOL     OW 6796   1.427   4.688   0.860
 1966SOL    HW1 6797   1.373   4.619   0.908
 1966SOL    HW2 6798   1.522   4.656   0.852
 1967SOL     OW 6799   6.527   2.153   3.869
 1967SOL    HW1 6800   6.548   2.202   3.784
 1967SOL    HW2 6801   6.434   2.117   3.865
 1968SOL     OW 6802   2.591   0.991   5.310
 1968SOL    HW1 6803   2.619   0.938   5.230
 1968SOL    HW2 6804   2.491   0.997   5.313
 1969SOL     OW 6805   3.400   0.932   2.043
 1969SOL    HW1 6806   3.407   0.869   2.121
 1969SOL    HW2 6807   3.316   0.986   2.052
 1970SOL     OW 6808   6.487   6.700   5.038
 1970SOL    HW1 6809   6.451   6.643   5.111
 1970SOL    HW2 6810   6.545   6.772   5.076
 1971SOL     OW 6811   0.826   6.912   5.861
 1971SOL    HW1 6812   0.885   6.875   5.789
 1971SOL    HW2 6813   0.794   7.002   5.834
 1972SOL     OW 6814   5.427   2.142   1.486
 1972SOL    HW1 6815   5.347   2.172   1.539
 1972SOL    HW2 6816   5.508   2.189   1.518
 1973SOL     OW 6817   2.579   3.646   1.642
 1973SOL    HW1 6818   2.667   3.610   1.613
 1973SOL    HW2 6819   2.587   3.744   1.660
 1974SOL     OW 6820   4.480   6.634   4.498
 1974SOL    HW1 6821   4.452   6.558   4.439
 1974SOL    HW2 6822   4.420   6.712   4.483
 1975SOL     OW 6823   2.273   2.870   3.752
 1975SOL    HW1 6824   2.209   2.874   3.830
 1975SOL    HW2 6825   2.361   2.835   3.783
 1976SOL     OW 6826   6.022   6.955   0.066
 1976SOL    HW1 6827   6.106   6.941   0.012
 1976SOL    HW2 6828   5.944   6.920   0.014
 1977SOL     OW 6829   2.711   2.933   6.710
 1977SOL    HW1 6830   2.639   2.982   6.760
 1977SOL    HW2 6831   2.796   2.985   6.715
 1978SOL     OW 6832   2.147   6.131   2.945
 1978SOL    HW1 6833   2.120   6.227   2.938
 1978SOL    HW2 6834   2.239   6.125   2.983
 1979SOL     OW 6835   6.160   5.074   6.824
 1979SOL    HW1 6836   6.133   4.980   6.803
 1979SOL    HW2 6837   6.115   5.104   6.908
 1980SOL     OW 6838   3.347   0.252   2.208
 1980SOL    HW1 6839   3.305   0.210   2.127
 1980SOL    HW2 6840   3.439   0.283   2.186
 1981SOL     OW 6841   5.282   2.791   2.692
 1981SOL    HW1 6842   5.213   2.794   2.765
 1981SOL    HW2 6843   5.300   2.696   2.667
 1982SOL     OW 6844   6.775   3.848   3.943
 1982SOL    HW1 6845   6.771   3.933   3.890
 1982SOL    HW2 6846   6.685   3.806   3.946
 1983SOL     OW 6847   0.805   6.964   0.868
 1983SOL    HW1 6848   0.804   6.962   0.968
 1983SOL    HW2 6849   0.726   6.914   0.832
 1984SOL     OW 6850   5.213   2.610   5.149
 1984SOL    HW1 6851   5.117   2.588   5.163
 1984SOL    HW2 6852   5.221   2.701   5.108
 1985SOL     OW 6853   6.370   4.916   2.069
 1985SOL    HW1 6854   6.423   5.001   2.065
 1985SOL    HW2 6855   6.424   4.845   2.113
 1986SOL     OW 6856   3.062   1.273   6.448
 1986SOL    HW1 6857   3.092   1.356   6.495
 1986SOL    HW2 6858   3.138   1.236   6.395
 1987SOL     OW 6859   1.700   1.143   4.233
 1987SOL    HW1 6860   1.729   1.152   4.329
 1987SOL    HW2 6861   1.724   1.052   4.199
 1988SOL     OW 6862   0.278   1.612   1.234
 1988SOL    HW1 6863   0.186   1.610   1.273
 1988SOL    HW2 6864   0.322   1.523   1.249
 1989SOL     OW 6865   2.944   5.859   4.823
 1989SOL    HW1 6866   2.916   5.763   4.818
 1989SOL    HW2 6867   2.946   5.889   4.918
 1990SOL     OW 6868   4.136   0.389   0.006
 1990SOL    HW1 6869   4.109   0.357   6.938
 1990SOL    HW2 6870   4.214   0.335   0.038
 1991SOL     OW 6871   2.762   5.549   0.016
 1991SOL    HW1 6872   2.668   5.533   0.045
 1991SOL    HW2 6873   2.787   5.484   6.966
 1992SOL     OW 6874   6.970   6.402   0.137
 1992SOL    HW1 6875   6.916   6.446   0.209
 1992SOL    HW2 6876   7.008   6.472   0.076
 1993SOL     OW 6877   2.279   2.931   4.578
 1993SOL    HW1 6878   2.270   3.003   4.647
 1993SOL    HW2 6879   2.241   2.963   4.491
 1994SOL     OW 6880   4.529   2.558   0.753
 1994SOL    HW1 6881   4.582   2.501   0.816
 1994SOL    HW2 6882   4.591   2.607   0.692
 1995SOL     OW 6883   5.529   2.457   4.427
 1995SOL    HW1 6884   5.517   2.505   4.340
 1995SOL    HW2 6885   5.579   2.372   4.412
 1996SOL     OW 6886   2.952   2.092   1.188
 1996SOL    HW1 6887   3.032   2.152   1.197
 1996SOL    HW2 6888   2.888   2.111   1.263
 1997SOL     OW 6889   3.326   1.254   3.982
 1997SOL    HW1 6890   3.408   1.289   3.939
 1997SOL    HW2 6891   3.298   1.169   3.937
 1998SOL     OW 6892   1.330   2.823   1.144
 1998SOL    HW1 6893   1.334   2.921   1.129
 1998SOL    HW2 6894   1.234   2.793   1.146
 1999SOL     OW 6895   0.165   0.825   4.932
 1999SOL    HW1 6896   0.087   0.770   4.903
 1999SOL    HW2 6897   0.180   0.899   4.867
 2000SOL     OW 6898   4.257   3.900   5.991
 2000SOL    HW1 6899   4.286   3.806   5.977
 2000SOL    HW2 6900   4.161   3.901   6.019
 2001SOL     OW 6901   1.682   1.902   6.434
 2001SOL    HW1 6902   1.682   1.803   6.449
 2001SOL    HW2 6903   1.711   1.948   6.518
 2002SOL     OW 6904   0.378   5.318   1.296
 2002SOL    HW1 6905   0.279   5.331   1.292
 2002SOL    HW2 6906   0.419   5.396   1.343
 2003SOL     OW 6907   6.167   5.417   2.264
 2003SOL    HW1 6908   6.095   5.445   2.327
 2003SOL    HW2 6909   6.181   5.488   2.195
 2004SOL     OW 6910   4.067   0.724   3.625
 2004SOL    HW1 6911   4.089   0.633   3.590
 2004SOL    HW2 6912   4.047   0.718   3.723
 2005SOL     OW 6913   0.124   5.946   0.169
 2005SOL    HW1 6914   0.117   5.868   0.108
 2005SOL    HW2 6915   0.216   5.986   0.162
 2006SOL     OW 6916   5.348   0.305   4.112
 2006SOL    HW1 6917   5.294   0.224   4.086
 2006SOL    HW2 6918   5.334   0.377   4.044
 2007SOL     OW 6919   4.772   4.521   1.287
 2007SOL    HW1 6920   4.706   4.578   1.238
 2007SOL    HW2 6921   4.724   4.445   1.332
 2008SOL     OW 6922   2.046   3.546   3.954
 2008SOL    HW1 6923   2.124   3.527   3.895
 2008SOL    HW2 6924   1.967   3.571   3.898
 2009SOL     OW 6925   5.920   6.222   1.625
 2009SOL    HW1 6926   5.899   6.311   1.664
 2009SOL    HW2 6927   6.008   6.227   1.576
 2010SOL     OW 6928   1.248   2.268   1.273
 2010SOL    HW1 6929   1.320   2.198   1.274
 2010SOL    HW2 6930   1.274   2.342   1.211
 2011SOL     OW 6931   0.031   0.065   5.765
 2011SOL    HW1 6932   6.991   0.143   5.773
 2011SOL    HW2 6933   7.001   7.003   5.761
 2012SOL     OW 6934   1.381   3.651   1.995
 2012SOL    HW1 6935   1.456   3.604   1.948
 2012SOL    HW2 6936   1.414   3.739   2.029
 2013SOL     OW 6937   0.259   2.594   3.145
 2013SOL    HW1 6938   0.168   2.605   3.183
 2013SOL    HW2 6939   0.316   2.672   3.170
 2014SOL     OW 6940   3.195   0.179   3.546
 2014SOL    HW1 6941   3.113   0.185   3.602
 2014SOL    HW2 6942   3.195   0.254   3.480
 2015SOL     OW 6943   3.811   0.722   1.154
 2015SOL    HW1 6944   3.791   0.818   1.132
 2015SOL    HW2 6945   3.738   0.685   1.212
 2016SOL     OW 6946   1.608   6.229   5.264
 2016SOL    HW1 6947   1.669   6.296   5.221
 2016SOL    HW2 6948   1.634   6.217   5.360
 2017SOL     OW 6949   4.498   0.223   3.305
 2017SOL    HW1 6950   4.598   0.231   3.313
 2017SOL    HW2 6951   4.466   0.151   3.366
 2018SOL     OW 6952   6.881   2.084   3.591
 2018SOL    HW1 6953   6.898   2.110   3.496
 2018SOL    HW2 6954   6.783   2.089   3.610
 2019SOL     OW 6955   6.063   4.829   6.817
 2019SOL    HW1 6956   6.135   4.768   6.851
 2019SOL    HW2 6957   6.007   4.779   6.751
 2020SOL     OW 6958   1.123   5.991   5.577
 2020SOL    HW1 6959   1.142   5.965   5.671
 2020SOL    HW2 6960   1.047   5.936   5.542
 2021SOL     OW 6961   6.624   6.370   3.247
 2021SOL    HW1 6962   6.575   6.429   3.182
 2021SOL    HW2 6963   6.561   6.341   3.319
 2022SOL     OW 6964   2.062   4.048   5.118
 2022SOL    HW1 6965   2.151   4.021   5.082
 2022SOL    HW2 6966   2.055   4.021   5.215
 2023SOL     OW 6967   6.864   6.985   7.016
 2023SOL    HW1 6968   6.765   6.995   7.021
 2023SOL    HW2 6969   6.902   6.979   0.085
 2024SOL     OW 6970   0.179   5.503   4.036
 2024SOL    HW1 6971   0.083   5.474   4.030
 2024SOL    HW2 6972   0.201   5.524   4.132
 2025SOL     OW 6973   2.721   0.719   4.074
 2025SOL    HW1 6974   2.628   0.746   4.048
 2025SOL    HW2 6975   2.751   0.775   4.152
 2026SOL     OW 6976   5.735   0.735   6.491
 2026SOL    HW1 6977   5.697   0.748   6.583
 2026SOL    HW2 6978   5.734   0.822   6.442
 2027SOL     OW 6979   0.549   5.841   1.372
 2027SOL    HW1 6980   0.615   5.816   1.443
 2027SOL    HW2 6981   0.489   5.914   1.407
 2028SOL     OW 6982   3.959   5.918   2.794
 2028SOL    HW1 6983   3.869   5.876   2.788
 2028SOL    HW2 6984   3.955   6.010   2.754
 2029SOL     OW 6985   6.976   1.975   6.612
 2029SOL    HW1 6986   0.039   1.935   6.644
 2029SOL    HW2 6987   6.994   2.065   6.571
 2030SOL     OW 6988   3.097   6.019   2.803
 2030SOL    HW1 6989   3.060   5.926   2.813
 2030SOL    HW2 6990   3.185   6.024   2.849
 2031SOL     OW 6991   6.757   5.633   2.904
 2031SOL    HW1 6992   6.815   5.707   2.939
 2031SOL    HW2 6993   6.770   5.624   2.806
 2032SOL     OW 6994   3.509   1.500   0.213
 2032SOL    HW1 6995   3.544   1.446   0.136
 2032SOL    HW2 6996   3.409   1.496   0.213
 2033SOL     OW 6997   1.140   0.977   0.830
 2033SOL    HW1 6998   1.066   0.910   0.824
 2033SOL    HW2 6999   1.207   0.959   0.758
 2034SOL     OW 7000   1.576   5.296   5.762
 2034SOL    HW1 7001   1.476   5.285   5.765
 2034SOL    HW2 7002   1.619   5.209   5.740
 2035SOL     OW 7003   6.660   6.710   1.619
 2035SOL    HW1 7004   6.653   6.785   1.685
 2035SOL    HW2 7005   6.675   6.747   1.527
 2036SOL     OW 7006   1.084   3.399   3.297
 2036SOL    HW1 7007   1.039   3.316   3.263
 2036SOL    HW2 7008   1.171   3.411   3.250
 2037SOL     OW 7009   0.090   2.927   6.336
 2037SOL    HW1 7010   0.017   2.995   6.343
 2037SOL    HW2 7011   0.153   2.953   6.263
 2038SOL     OW 7012   2.810   1.111   0.192
 2038SOL    HW1 7013   2.869   1.067   0.260
 2038SOL    HW2 7014   2.827   1.070   0.102
 2039SOL     OW 7015   0.028   5.790   2.471
 2039SOL    HW1 7016   0.038   5.742   2.558
 2039SOL    HW2 7017   6.989   5.867   2.482
 2040SOL     OW 7018   2.100   2.416   6.931
 2040SOL    HW1 7019   2.133   2.373   6.847
 2040SOL    HW2 7020   2.107   2.350   7.006
 2041SOL     OW 7021   1.741   0.080   5.785
 2041SOL    HW1 7022   1.752   0.087   5.884
 2041SOL    HW2 7023   1.814   0.024   5.746
 2042SOL     OW 7024   4.716   0.119   6.243
 2042SOL    HW1 7025   4.783   0.190   6.220
 2042SOL    HW2 7026   4.666   0.145   6.326
 2043SOL     OW 7027   6.821   2.498   1.370
 2043SOL    HW1 7028   6.785   2.405   1.359
 2043SOL    HW2 7029   6.895   2.513   1.305
 2044SOL     OW 7030   5.889   1.206   1.154
 2044SOL    HW1 7031   5.870   1.255   1.238
 2044SOL    HW2 7032   5.833   1.122   1.151
 2045SOL     OW 7033   1.986   5.572   5.741
 2045SOL    HW1 7034   2.019   5.623   5.821
 2045SOL    HW2 7035   1.888   5.556   5.751
 2046SOL     OW 7036   0.347   1.652   5.390
 2046SOL    HW1 7037   0.396   1.682   5.471
 2046SOL    HW2 7038   0.340   1.552   5.390
 2047SOL     OW 7039   6.457   2.475   0.304
 2047SOL    HW1 7040   6.542   2.476   0.252
 2047SOL    HW2 7041   6.382   2.443   0.246
 2048SOL     OW 7042   0.663   1.493   4.133
 2048SOL    HW1 7043   0.734   1.472   4.067
 2048SOL    HW2 7044   0.693   1.570   4.190
 2049SOL     OW 7045   4.219   1.303   4.588
 2049SOL    HW1 7046   4.120   1.314   4.588
 2049SOL    HW2 7047   4.248   1.260   4.674
 2050SOL     OW 7048   0.186   1.503   4.269
 2050SOL    HW1 7049   0.111   1.562   4.299
 2050SOL    HW2 7050   0.150   1.430   4.210
 2051SOL     OW 7051   2.911   6.902   0.624
 2051SOL    HW1 7052   2.950   6.872   0.712
 2051SOL    HW2 7053   2.963   6.980   0.590
 2052SOL     OW 7054   2.025   3.971   0.371
 2052SOL    HW1 7055   1.958   3.976   0.445
 2052SOL    HW2 7056   2.109   4.017   0.400
 2053SOL     OW 7057   1.152   5.056   4.517
 2053SOL    HW1 7058   1.195   5.020   4.599
 2053SOL    HW2 7059   1.109   5.144   4.538
 2054SOL     OW 7060   3.491   3.133   2.710
 2054SOL    HW1 7061   3.440   3.053   2.678
 2054SOL    HW2 7062   3.587   3.124   2.684
 2055SOL     OW 7063   1.079   2.663   4.683
 2055SOL    HW1 7064   1.077   2.742   4.745
 2055SOL    HW2 7065   0.995   2.661   4.629
 2056SOL     OW 7066   3.965   5.058   0.812
 2056SOL    HW1 7067   3.874   5.096   0.826
 2056SOL    HW2 7068   3.959   4.975   0.756
 2057SOL     OW 7069   5.841   2.575   4.420
 2057SOL    HW1 7070   5.940   2.571   4.406
 2057SOL    HW2 7071   5.821   2.583   4.518
 2058SOL     OW 7072   0.996   6.230   3.281
 2058SOL    HW1 7073   1.022   6.251   3.187
 2058SOL    HW2 7074   1.074   6.243   3.342
 2059SOL     OW 7075   2.551   0.369   5.404
 2059SOL    HW1 7076   2.456   0.346   5.425
 2059SOL    HW2 7077   2.599   0.286   5.373
 2060SOL     OW 7078   1.203   3.446   0.623
 2060SOL    HW1 7079   1.138   3.458   0.698
 2060SOL    HW2 7080   1.159   3.397   0.548
 2061SOL     OW 7081   2.013   2.561   2.566
 2061SOL    HW1 7082   1.941   2.529   2.629
 2061SOL    HW2 7083   2.071   2.484   2.541
 2062SOL     OW 7084   6.700   5.305   5.241
 2062SOL    HW1 7085   6.664   5.259   5.160
 2062SOL    HW2 7086   6.776   5.365   5.216
 2063SOL     OW 7087   1.707   0.014   5.040
 2063SOL    HW1 7088   1.624   6.994   5.076
 2063SOL    HW2 7089   1.722   0.102   5.087
 2064SOL     OW 7090   0.929   3.680   4.243
 2064SOL    HW1 7091   0.854   3.634   4.290
 2064SOL    HW2 7092   0.944   3.637   4.154
 2065SOL     OW 7093   4.805   2.813   5.501
 2065SOL    HW1 7094   4.802   2.910   5.477
 2065SOL    HW2 7095   4.752   2.760   5.436
 2066SOL     OW 7096   6.120   3.170   5.407
 2066SOL    HW1 7097   6.049   3.148   5.340
 2066SOL    HW2 7098   6.098   3.127   5.494
 2067SOL     OW 7099   6.580   4.676   1.282
 2067SOL    HW1 7100   6.629   4.609   1.337
 2067SOL    HW2 7101   6.503   4.712   1.334
 2068SOL     OW 7102   3.497   1.021   3.884
 2068SOL    HW1 7103   3.571   0.997   3.946
 2068SOL    HW2 7104   3.508   1.116   3.853
 2069SOL     OW 7105   6.741   1.606   4.206
 2069SOL    HW1 7106   6.706   1.513   4.195
 2069SOL    HW2 7107   6.760   1.646   4.116
 2070SOL     OW 7108   1.295   3.075   1.806
 2070SOL    HW1 7109   1.243   3.035   1.881
 2070SOL    HW2 7110   1.336   3.161   1.837
 2071SOL     OW 7111   6.234   1.438   5.652
 2071SOL    HW1 7112   6.225   1.381   5.734
 2071SOL    HW2 7113   6.184   1.523   5.665
 2072SOL     OW 7114   3.986   4.891   5.269
 2072SOL    HW1 7115   4.051   4.815   5.270
 2072SOL    HW2 7116   3.930   4.887   5.352
 2073SOL     OW 7117   3.955   6.342   6.800
 2073SOL    HW1 7118   3.987   6.295   6.882
 2073SOL    HW2 7119   3.901   6.279   6.744
 2074SOL     OW 7120   2.039   3.651   5.618
 2074SOL    HW1 7121   1.958   3.603   5.586
 2074SOL    HW2 7122   2.089   3.593   5.683
 2075SOL     OW 7123   6.823   2.117   2.021
 2075SOL    HW1 7124   6.844   2.021   2.040
 2075SOL    HW2 7125   6.745   2.146   2.077
 2076SOL     OW 7126   5.628   6.935   4.736
 2076SOL    HW1 7127   5.701   6.995   4.704
 2076SOL    HW2 7128   5.554   6.933   4.668
 2077SOL     OW 7129   0.308   3.128   1.467
 2077SOL    HW1 7130   0.375   3.064   1.429
 2077SOL    HW2 7131   0.319   3.132   1.566
 2078SOL     OW 7132   2.099   4.823   5.930
 2078SOL    HW1 7133   2.058   4.799   5.842
 2078SOL    HW2 7134   2.165   4.753   5.957
 2079SOL     OW 7135   5.113   1.410   2.230
 2079SOL    HW1 7136   5.205   1.418   2.192
 2079SOL    HW2 7137   5.085   1.499   2.268
 2080SOL     OW 7138   2.871   2.290   5.055
 2080SOL    HW1 7139   2.813   2.329   4.984
 2080SOL    HW2 7140   2.967   2.309   5.033
 2081SOL     OW 7141   0.344   6.977   3.156
 2081SOL    HW1 7142   0.352   0.041   3.108
 2081SOL    HW2 7143   0.429   6.925   3.145
 2082SOL     OW 7144   0.550   6.034   2.277
 2082SOL    HW1 7145   0.495   6.063   2.198
 2082SOL    HW2 7146   0.541   5.935   2.288
 2083SOL     OW 7147   0.343   6.245   3.674
 2083SOL    HW1 7148   0.254   6.254   3.719
 2083SOL    HW2 7149   0.364   6.329   3.623
 2084SOL     OW 7150   1.105   1.388   1.846
 2084SOL    HW1 7151   1.187   1.424   1.891
 2084SOL    HW2 7152   1.079   1.449   1.771
 2085SOL     OW 7153   5.080   6.088   6.917
 2085SOL    HW1 7154   5.124   5.999   6.930
 2085SOL    HW2 7155   5.117   6.132   6.835
 2086SOL     OW 7156   4.489   0.168   0.255
 2086SOL    HW1 7157   4.516   0.074   0.272
 2086SOL    HW2 7158   4.519   0.226   0.331
 2087SOL     OW 7159   4.145   1.900   6.977
 2087SOL    HW1 7160   4.067   1.962   6.969
 2087SOL    HW2 7161   4.145   1.837   6.900
 2088SOL     OW 7162   0.144   5.631   5.616
 2088SOL    HW1 7163   0.051   5.596   5.623
 2088SOL    HW2 7164   0.154   5.712   5.673
 2089SOL     OW 7165   3.542   3.041   5.971
 2089SOL    HW1 7166   3.517   3.029   5.875
 2089SOL    HW2 7167   3.471   3.094   6.017
 2090SOL     OW 7168   4.642   3.521   5.368
 2090SOL    HW1 7169   4.681   3.528   5.276
 2090SOL    HW2 7170   4.717   3.517   5.435
 2091SOL     OW 7171   6.330   5.780   1.337
 2091SOL    HW1 7172   6.292   5.759   1.428
 2091SOL    HW2 7173   6.309   5.705   1.275
 2092SOL     OW 7174   4.748   3.681   1.503
 2092SOL    HW1 7175   4.824   3.716   1.448
 2092SOL    HW2 7176   4.773   3.681   1.599
 2093SOL     OW 7177   3.973   2.091   2.376
 2093SOL    HW1 7178   3.990   2.005   2.425
 2093SOL    HW2 7179   3.876   2.095   2.350
 2094SOL     OW 7180   5.778   3.206   0.099
 2094SOL    HW1 7181   5.775   3.223   0.198
 2094SOL    HW2 7182   5.835   3.126   0.081
 2095SOL     OW 7183   6.035   6.307   3.975
 2095SOL    HW1 7184   6.026   6.210   3.955
 2095SOL    HW2 7185   5.953   6.338   4.024
 2096SOL     OW 7186   4.308   6.684   2.110
 2096SOL    HW1 7187   4.252   6.685   2.027
 2096SOL    HW2 7188   4.282   6.606   2.166
 2097SOL     OW 7189   1.916   4.572   6.677
 2097SOL    HW1 7190   1.857   4.589   6.755
 2097SOL    HW2 7191   1.932   4.658   6.628
 2098SOL     OW 7192   3.859   6.297   3.108
 2098SOL    HW1 7193   3.900   6.302   3.017
 2098SOL    HW2 7194   3.929   6.270   3.174
 2099SOL     OW 7195   4.669   1.427   6.888
 2099SOL    HW1 7196   4.617   1.342   6.887
 2099SOL    HW2 7197   4.743   1.422   6.821
 2100SOL     OW 7198   5.628   1.099   0.363
 2100SOL    HW1 7199   5.722   1.132   0.370
 2100SOL    HW2 7200   5.565   1.177   0.367
 2101SOL     OW 7201   6.986   6.465   1.545
 2101SOL    HW1 7202   6.938   6.496   1.627
 2101SOL    HW2 7203   0.018   6.385   1.567
 2102SOL     OW 7204   4.236   3.243   1.274
 2102SOL    HW1 7205   4.168   3.231   1.347
 2102SOL    HW2 7206   4.237   3.161   1.216
 2103SOL     OW 7207   3.021   5.489   0.099
 2103SOL    HW1 7208   2.931   5.525   0.074
 2103SOL    HW2 7209   3.012   5.392   0.122
 2104SOL     OW 7210   1.236   4.805   3.020
 2104SOL    HW1 7211   1.174   4.867   3.067
 2104SOL    HW2 7212   1.233   4.715   3.065
 2105SOL     OW 7213   5.042   4.498   0.115
 2105SOL    HW1 7214   5.074   4.580   0.069
 2105SOL    HW2 7215   5.119   4.436   0.131
 2106SOL     OW 7216   4.904   3.449   2.232
 2106SOL    HW1 7217   4.946   3.465   2.321
 2106SOL    HW2 7218   4.948   3.370   2.189
 2107SOL     OW 7219   5.332   3.987   5.657
 2107SOL    HW1 7220   5.389   4.055   5.705
 2107SOL    HW2 7221   5.242   4.028   5.637
 2108SOL     OW 7222   5.755   6.751   6.327
 2108SOL    HW1 7223   5.794   6.730   6.417
 2108SOL    HW2 7224   5.660   6.722   6.324
 2109SOL     OW 7225   3.117   5.763   2.893
 2109SOL    HW1 7226   3.073   5.701   2.828
 2109SOL    HW2 7227   3.204   5.723   2.923
 2110SOL     OW 7228   3.683   0.371   6.710
 2110SOL    HW1 7229   3.739   0.291   6.689
 2110SOL    HW2 7230   3.628   0.394   6.630
 2111SOL     OW 7231   0.850   3.174   5.597
 2111SOL    HW1 7232   0.815   3.110   5.665
 2111SOL    HW2 7233   0.949   3.184   5.610
 2112SOL     OW 7234   0.086   1.536   0.487
 2112SOL    HW1 7235   0.096   1.632   0.459
 2112SOL    HW2 7236   0.171   1.505   0.529
 2113SOL     OW 7237   1.638   6.750   4.345
 2113SOL    HW1 7238   1.722   6.785   4.388
 2113SOL    HW2 7239   1.630   6.653   4.364
 2114SOL     OW 7240   1.704   2.779   6.973
 2114SOL    HW1 7241   1.753   2.692   6.985
 2114SOL    HW2 7242   1.750   2.834   6.903
 2115SOL     OW 7243   0.421   5.305   3.257
 2115SOL    HW1 7244   0.473   5.307   3.171
 2115SOL    HW2 7245   0.469   5.249   3.324
 2116SOL     OW 7246   1.249   2.133   6.905
 2116SOL    HW1 7247   1.191   2.054   6.891
 2116SOL    HW2 7248   1.253   2.154   7.003
 2117SOL     OW 7249   5.581   1.790   2.418
 2117SOL    HW1 7250   5.496   1.749   2.384
 2117SOL    HW2 7251   5.604   1.870   2.363
 2118SOL     OW 7252   6.817   3.402   2.437
 2118SOL    HW1 7253   6.890   3.410   2.369
 2118SOL    HW2 7254   6.849   3.438   2.524
 2119SOL     OW 7255   2.344   0.445   6.733
 2119SOL    HW1 7256   2.345   0.390   6.816
 2119SOL    HW2 7257   2.399   0.401   6.662
 2120SOL     OW 7258   6.025   1.901   1.165
 2120SOL    HW1 7259   5.949   1.966   1.156
 2120SOL    HW2 7260   6.105   1.938   1.117
 2121SOL     OW 7261   2.208   1.450   5.849
 2121SOL    HW1 7262   2.183   1.428   5.755
 2121SOL    HW2 7263   2.220   1.366   5.901
 2122SOL     OW 7264   6.256   0.459   5.003
 2122SOL    HW1 7265   6.321   0.525   5.040
 2122SOL    HW2 7266   6.276   0.368   5.040
 2123SOL     OW 7267   0.759   5.771   2.624
 2123SOL    HW1 7268   0.702   5.830   2.681
 2123SOL    HW2 7269   0.802   5.825   2.552
 2124SOL     OW 7270   3.145   2.841   5.560
 2124SOL    HW1 7271   3.056   2.854   5.515
 2124SOL    HW2 7272   3.218   2.856   5.495
 2125SOL     OW 7273   1.615   5.834   3.510
 2125SOL    HW1 7274   1.589   5.753   3.456
 2125SOL    HW2 7275   1.710   5.825   3.539
 2126SOL     OW 7276   3.772   3.877   0.110
 2126SOL    HW1 7277   3.686   3.879   0.059
 2126SOL    HW2 7278   3.844   3.841   0.051
 2127SOL     OW 7279   0.401   3.006   5.886
 2127SOL    HW1 7280   0.477   3.064   5.859
 2127SOL    HW2 7281   0.423   2.910   5.866
 2128SOL     OW 7282   5.338   3.501   1.671
 2128SOL    HW1 7283   5.269   3.563   1.707
 2128SOL    HW2 7284   5.359   3.525   1.576
 2129SOL     OW 7285   4.997   4.016   3.553
 2129SOL    HW1 7286   5.075   3.977   3.601
 2129SOL    HW2 7287   5.021   4.107   3.518
 2130SOL     OW 7288   1.731   1.031   1.956
 2130SOL    HW1 7289   1.801   1.091   1.917
 2130SOL    HW2 7290   1.749   1.018   2.053
 2131SOL     OW 7291   5.612   1.666   5.927
 2131SOL    HW1 7292   5.677   1.717   5.985
 2131SOL    HW2 7293   5.536   1.727   5.902
 2132SOL     OW 7294   2.524   1.811   0.099
 2132SOL    HW1 7295   2.560   1.839   0.188
 2132SOL    HW2 7296   2.592   1.755   0.051
 2133SOL     OW 7297   2.460   1.578   1.636
 2133SOL    HW1 7298   2.399   1.625   1.700
 2133SOL    HW2 7299   2.553   1.575   1.673
 2134SOL     OW 7300   0.674   6.432   4.711
 2134SOL    HW1 7301   0.714   6.373   4.781
 2134SOL    HW2 7302   0.710   6.406   4.621
 2135SOL     OW 7303   0.918   0.972   3.497
 2135SOL    HW1 7304   0.879   0.975   3.589
 2135SOL    HW2 7305   0.966   0.886   3.484
 2136SOL     OW 7306   0.832   3.476   4.679
 2136SOL    HW1 7307   0.918   3.525   4.697
 2136SOL    HW2 7308   0.783   3.464   4.765
 2137SOL     OW 7309   1.220   6.834   5.126
 2137SOL    HW1 7310   1.191   6.929   5.113
 2137SOL    HW2 7311   1.196   6.804   5.218
 2138SOL     OW 7312   6.779   2.769   0.525
 2138SOL    HW1 7313   6.844   2.697   0.552
 2138SOL    HW2 7314   6.691   2.752   0.568
 2139SOL     OW 7315   3.330   0.613   4.644
 2139SOL    HW1 7316   3.251   0.675   4.636
 2139SOL    HW2 7317   3.398   0.654   4.704
 2140SOL     OW 7318   2.466   6.196   3.801
 2140SOL    HW1 7319   2.429   6.271   3.745
 2140SOL    HW2 7320   2.403   6.178   3.877
 2141SOL     OW 7321   6.128   2.770   0.870
 2141SOL    HW1 7322   6.074   2.804   0.794
 2141SOL    HW2 7323   6.212   2.825   0.878
 2142SOL     OW 7324   1.679   1.784   3.580
 2142SOL    HW1 7325   1.641   1.735   3.658
 2142SOL    HW2 7326   1.719   1.871   3.610
 2143SOL     OW 7327   3.478   6.962   1.592
 2143SOL    HW1 7328   3.440   0.020   1.547
 2143SOL    HW2 7329   3.569   6.943   1.557
 2144SOL     OW 7330   1.285   0.617   3.543
 2144SOL    HW1 7331   1.249   0.597   3.634
 2144SOL    HW2 7332   1.382   0.640   3.550
 2145SOL     OW 7333   3.572   5.547   3.692
 2145SOL    HW1 7334   3.527   5.462   3.668
 2145SOL    HW2 7335   3.511   5.624   3.672
 2146SOL     OW 7336   3.106   2.912   1.996
 2146SOL    HW1 7337   3.161   2.851   1.939
 2146SOL    HW2 7338   3.017   2.870   2.015
 2147SOL     OW 7339   0.526   1.764   6.308
 2147SOL    HW1 7340   0.463   1.829   6.266
 2147SOL    HW2 7341   0.501   1.671   6.279
 2148SOL     OW 7342   4.867   3.659   3.699
 2148SOL    HW1 7343   4.869   3.564   3.667
 2148SOL    HW2 7344   4.886   3.662   3.797
 2149SOL     OW 7345   4.110   1.233   2.281
 2149SOL    HW1 7346   4.100   1.254   2.378
 2149SOL    HW2 7347   4.061   1.301   2.226
 2150SOL     OW 7348   3.583   2.118   3.304
 2150SOL    HW1 7349   3.500   2.142   3.353
 2150SOL    HW2 7350   3.654   2.091   3.369
 2151SOL     OW 7351   3.866   2.543   5.784
 2151SOL    HW1 7352   3.801   2.543   5.708
 2151SOL    HW2 7353   3.821   2.577   5.867
 2152SOL     OW 7354   5.892   6.818   2.190
 2152SOL    HW1 7355   5.898   6.842   2.093
 2152SOL    HW2 7356   5.972   6.854   2.238
 2153SOL     OW 7357   4.489   1.721   3.865
 2153SOL    HW1 7358   4.471   1.705   3.962
 2153SOL    HW2 7359   4.407   1.703   3.812
 2154SOL     OW 7360   2.989   5.848   4.481
 2154SOL    HW1 7361   3.037   5.779   4.536
 2154SOL    HW2 7362   2.891   5.843   4.501
 2155SOL     OW 7363   1.674   4.300   0.300
 2155SOL    HW1 7364   1.623   4.374   0.257
 2155SOL    HW2 7365   1.615   4.253   0.367
 2156SOL     OW 7366   1.710   0.428   2.487
 2156SOL    HW1 7367   1.627   0.413   2.433
 2156SOL    HW2 7368   1.702   0.516   2.535
 2157SOL     OW 7369   6.828   1.267   5.207
 2157SOL    HW1 7370   6.901   1.284   5.140
 2157SOL    HW2 7371   6.793   1.354   5.241
 2158SOL     OW 7372   3.913   0.208   1.055
 2158SOL    HW1 7373   3.853   0.277   1.095
 2158SOL    HW2 7374   4.005   0.246   1.043
 2159SOL     OW 7375   1.451   6.961   4.461
 2159SOL    HW1 7376   1.396   6.917   4.531
 2159SOL    HW2 7377   1.515   6.894   4.422
 2160SOL     OW 7378   3.184   4.407   1.190
 2160SOL    HW1 7379   3.270   4.396   1.239
 2160SOL    HW2 7380   3.188   4.489   1.133
 2161SOL     OW 7381   4.936   3.403   3.619
 2161SOL    HW1 7382   4.899   3.323   3.666
 2161SOL    HW2 7383   4.923   3.393   3.520
 2162SOL     OW 7384   2.003   0.807   6.666
 2162SOL    HW1 7385   2.078   0.744   6.648
 2162SOL    HW2 7386   1.937   0.803   6.590
 2163SOL     OW 7387   1.683   0.466   0.146
 2163SOL    HW1 7388   1.647   0.373   0.156
 2163SOL    HW2 7389   1.764   0.463   0.086
 2164SOL     OW 7390   2.089   0.482   6.320
 2164SOL    HW1 7391   2.160   0.552   6.310
 2164SOL    HW2 7392   2.023   0.491   6.246
 2165SOL     OW 7393   1.487   0.421   2.322
 2165SOL    HW1 7394   1.419   0.495   2.324
 2165SOL    HW2 7395   1.521   0.409   2.229
 2166SOL     OW 7396   1.663   2.265   5.111
 2166SOL    HW1 7397   1.657   2.275   5.210
 2166SOL    HW2 7398   1.614   2.182   5.083
 2167SOL     OW 7399   3.278   0.546   2.073
 2167SOL    HW1 7400   3.249   0.549   2.168
 2167SOL    HW2 7401   3.369   0.585   2.064
 2168SOL     OW 7402   5.848   3.360   4.532
 2168SOL    HW1 7403   5.914   3.293   4.566
 2168SOL    HW2 7404   5.897   3.437   4.492
 2169SOL     OW 7405   5.079   2.673   6.155
 2169SOL    HW1 7406   5.016   2.608   6.198
 2169SOL    HW2 7407   5.056   2.766   6.185
 2170SOL     OW 7408   4.551   5.057   4.910
 2170SOL    HW1 7409   4.487   5.022   4.979
 2170SOL    HW2 7410   4.516   5.036   4.819
 2171SOL     OW 7411   6.960   3.512   0.261
 2171SOL    HW1 7412   7.005   3.459   0.189
 2171SOL    HW2 7413   6.869   3.475   0.278
 2172SOL     OW 7414   3.266   1.145   0.904
 2172SOL    HW1 7415   3.338   1.124   0.969
 2172SOL    HW2 7416   3.245   1.242   0.907
 2173SOL     OW 7417   4.491   1.349   5.257
 2173SOL    HW1 7418   4.495   1.273   5.322
 2173SOL    HW2 7419   4.530   1.320   5.170
 2174SOL     OW 7420   6.394   4.816   4.620
 2174SOL    HW1 7421   6.435   4.786   4.533
 2174SOL    HW2 7422   6.449   4.891   4.658
 2175SOL     OW 7423   2.907   0.098   3.952
 2175SOL    HW1 7424   2.905   0.041   3.870
 2175SOL    HW2 7425   2.924   0.193   3.927
 2176SOL     OW 7426   2.136   2.580   3.299
 2176SOL    HW1 7427   2.109   2.625   3.214
 2176SOL    HW2 7428   2.197   2.503   3.278
 2177SOL     OW 7429   0.137   2.111   0.914
 2177SOL    HW1 7430   0.101   2.128   0.823
 2177SOL    HW2 7431   0.207   2.040   0.909
 2178SOL     OW 7432   0.777   4.719   0.563
 2178SOL    HW1 7433   0.718   4.677   0.494
 2178SOL    HW2 7434   0.828   4.647   0.611
 2179SOL     OW 7435   1.732   5.161   4.629
 2179SOL    HW1 7436   1.784   5.232   4.676
 2179SOL    HW2 7437   1.783   5.130   4.548
 2180SOL     OW 7438   3.055   3.977   2.459
 2180SOL    HW1 7439   3.055   3.921   2.541
 2180SOL    HW2 7440   3.034   4.072   2.483
 2181SOL     OW 7441   5.176   5.980   5.551
 2181SOL    HW1 7442   5.144   5.982   5.456
 2181SOL    HW2 7443   5.136   5.901   5.598
 2182SOL     OW 7444   6.969   3.788   6.165
 2182SOL    HW1 7445   6.935   3.750   6.079
 2182SOL    HW2 7446   0.011   3.724   6.207
 2183SOL     OW 7447   3.208   2.804   0.636
 2183SOL    HW1 7448   3.298   2.777   0.670
 2183SOL    HW2 7449   3.219   2.855   0.550
 2184SOL     OW 7450   3.951   2.266   6.294
 2184SOL    HW1 7451   3.862   2.297   6.260
 2184SOL    HW2 7452   3.938   2.221   6.382
 2185SOL     OW 7453   1.724   0.568   0.669
 2185SOL    HW1 7454   1.816   0.565   0.629
 2185SOL    HW2 7455   1.684   0.477   0.667
 2186SOL     OW 7456   7.001   5.426   3.161
 2186SOL    HW1 7457   6.926   5.409   3.097
 2186SOL    HW2 7458   0.065   5.413   3.114
 2187SOL     OW 7459   6.363   1.607   0.430
 2187SOL    HW1 7460   6.382   1.514   0.401
 2187SOL    HW2 7461   6.378   1.615   0.529
 2188SOL     OW 7462   5.666   6.640   3.547
 2188SOL    HW1 7463   5.725   6.638   3.627
 2188SOL    HW2 7464   5.620   6.728   3.541
 2189SOL     OW 7465   2.167   6.910   5.929
 2189SOL    HW1 7466   2.249   6.918   5.871
 2189SOL    HW2 7467   2.186   6.847   6.004
 2190SOL     OW 7468   6.065   2.201   1.339
 2190SOL    HW1 7469   6.163   2.198   1.316
 2190SOL    HW2 7470   6.043   2.291   1.377
 2191SOL     OW 7471   3.439   3.123   6.468
 2191SOL    HW1 7472   3.393   3.037   6.489
 2191SOL    HW2 7473   3.372   3.190   6.435
 2192SOL     OW 7474   4.138   5.963   5.124
 2192SOL    HW1 7475   4.215   5.959   5.189
 2192SOL    HW2 7476   4.166   6.017   5.044
 2193SOL     OW 7477   0.923   5.210   5.914
 2193SOL    HW1 7478   0.887   5.221   6.006
 2193SOL    HW2 7479   0.928   5.113   5.891
 2194SOL     OW 7480   2.422   6.049   0.965
 2194SOL    HW1 7481   2.400   5.961   0.921
 2194SOL    HW2 7482   2.456   6.032   1.058
 2195SOL     OW 7483   1.371   5.476   2.988
 2195SOL    HW1 7484   1.289   5.418   2.989
 2195SOL    HW2 7485   1.452   5.419   2.975
 2196SOL     OW 7486   3.575   1.685   6.018
 2196SOL    HW1 7487   3.630   1.603   6.036
 2196SOL    HW2 7488   3.604   1.727   5.932
 2197SOL     OW 7489   4.833   5.046   1.547
 2197SOL    HW1 7490   4.925   5.013   1.565
 2197SOL    HW2 7491   4.815   5.044   1.449
 2198SOL     OW 7492   6.516   4.151   0.200
 2198SOL    HW1 7493   6.609   4.126   0.173
 2198SOL    HW2 7494   6.458   4.156   0.119
 2199SOL     OW 7495   4.553   6.953   1.190
 2199SOL    HW1 7496   4.582   0.018   1.152
 2199SOL    HW2 7497   4.606   6.933   1.273
 2200SOL     OW 7498   3.599   0.869   4.263
 2200SOL    HW1 7499   3.544   0.791   4.293
 2200SOL    HW2 7500   3.635   0.851   4.171
 2201SOL     OW 7501   6.194   3.231   2.081
 2201SOL    HW1 7502   6.164   3.138   2.100
 2201SOL    HW2 7503   6.224   3.238   1.986
 2202SOL     OW 7504   4.334   5.601   3.711
 2202SOL    HW1 7505   4.279   5.644   3.639
 2202SOL    HW2 7506   4.298   5.628   3.801
 2203SOL     OW 7507   3.697   2.098   3.030
 2203SOL    HW1 7508   3.679   2.186   3.075
 2203SOL    HW2 7509   3.610   2.051   3.013
 2204SOL     OW 7510   3.255   2.263   0.436
 2204SOL    HW1 7511   3.286   2.357   0.430
 2204SOL    HW2 7512   3.309   2.214   0.505
 2205SOL     OW 7513   2.678   6.731   0.591
 2205SOL    HW1 7514   2.642   6.664   0.526
 2205SOL    HW2 7515   2.772   6.754   0.566
 2206SOL     OW 7516   3.137   3.155   6.748
 2206SOL    HW1 7517   3.083   3.234   6.717
 2206SOL    HW2 7518   3.149   3.091   6.672
 2207SOL     OW 7519   1.457   4.643   6.273
 2207SOL    HW1 7520   1.510   4.563   6.244
 2207SOL    HW2 7521   1.371   4.612   6.315
 2208SOL     OW 7522   0.482   3.880   1.706
 2208SOL    HW1 7523   0.455   3.828   1.625
 2208SOL    HW2 7524   0.548   3.950   1.680
 2209SOL     OW 7525   1.022   5.619   6.082
 2209SOL    HW1 7526   0.980   5.579   6.164
 2209SOL    HW2 7527   1.117   5.642   6.103
 2210SOL     OW 7528   1.175   5.614   3.721
 2210SOL    HW1 7529   1.256   5.671   3.710
 2210SOL    HW2 7530   1.182   5.533   3.663
 2211SOL     OW 7531   5.842   0.966   5.494
 2211SOL    HW1 7532   5.771   0.966   5.564
 2211SOL    HW2 7533   5.800   0.983   5.404
 2212SOL     OW 7534   1.548   0.389   6.437
 2212SOL    HW1 7535   1.491   0.422   6.362
 2212SOL    HW2 7536   1.489   0.353   6.510
 2213SOL     OW 7537   3.889   2.097   3.301
 2213SOL    HW1 7538   3.823   2.081   3.229
 2213SOL    HW2 7539   3.946   2.176   3.279
 2214SOL     OW 7540   5.428   0.059   4.594
 2214SOL    HW1 7541   5.397   0.128   4.660
 2214SOL    HW2 7542   5.430   0.100   4.503
 2215SOL     OW 7543   6.882   2.408   4.982
 2215SOL    HW1 7544   6.967   2.415   4.930
 2215SOL    HW2 7545   6.822   2.340   4.939
 2216SOL     OW 7546   1.263   6.633   1.331
 2216SOL    HW1 7547   1.315   6.569   1.387
 2216SOL    HW2 7548   1.323   6.671   1.260
 2217SOL     OW 7549   4.346   6.961   1.507
 2217SOL    HW1 7550   4.360   6.975   1.605
 2217SOL    HW2 7551   4.434   6.962   1.460
 2218SOL     OW 7552   0.787   5.637   6.652
 2218SOL    HW1 7553   0.716   5.574   6.684
 2218SOL    HW2 7554   0.756   5.685   6.570
 2219SOL     OW 7555   2.189   3.994   3.085
 2219SOL    HW1 7556   2.249   4.060   3.131
 2219SOL    HW2 7557   2.211   3.993   2.988
 2220SOL     OW 7558   0.455   1.536   5.891
 2220SOL    HW1 7559   0.509   1.459   5.925
 2220SOL    HW2 7560   0.393   1.505   5.819
 2221SOL     OW 7561   6.407   2.202   1.373
 2221SOL    HW1 7562   6.383   2.105   1.366
 2221SOL    HW2 7563   6.497   2.212   1.414
 2222SOL     OW 7564   4.575   6.814   2.099
 2222SOL    HW1 7565   4.502   6.750   2.074
 2222SOL    HW2 7566   4.662   6.782   2.061
 2223SOL     OW 7567   5.504   5.211   3.622
 2223SOL    HW1 7568   5.428   5.183   3.681
 2223SOL    HW2 7569   5.538   5.301   3.651
 2224SOL     OW 7570   2.133   4.548   1.824
 2224SOL    HW1 7571   2.035   4.566   1.835
 2224SOL    HW2 7572   2.176   4.625   1.778
 2225SOL     OW 7573   6.201   4.665   2.246
 2225SOL    HW1 7574   6.214   4.567   2.259
 2225SOL    HW2 7575   6.290   4.711   2.251
 2226SOL     OW 7576   3.816   3.514   1.103
 2226SOL    HW1 7577   3.901   3.539   1.056
 2226SOL    HW2 7578   3.792   3.420   1.082
 2227SOL     OW 7579   6.609   3.848   5.219
 2227SOL    HW1 7580   6.697   3.851   5.172
 2227SOL    HW2 7581   6.547   3.786   5.170
 2228SOL     OW 7582   2.873   4.841   6.225
 2228SOL    HW1 7583   2.935   4.859   6.302
 2228SOL    HW2 7584   2.797   4.905   6.228
 2229SOL     OW 7585   4.458   1.037   3.227
 2229SOL    HW1 7586   4.388   1.014   3.159
 2229SOL    HW2 7587   4.537   0.977   3.216
 2230SOL     OW 7588   0.725   6.260   6.063
 2230SOL    HW1 7589   0.665   6.212   6.000
 2230SOL    HW2 7590   0.783   6.324   6.013
 2231SOL     OW 7591   2.405   7.006   1.984
 2231SOL    HW1 7592   2.363   0.074   1.984
 2231SOL    HW2 7593   2.389   6.961   2.072
 2232SOL     OW 7594   6.365   2.626   2.212
 2232SOL    HW1 7595   6.296   2.556   2.229
 2232SOL    HW2 7596   6.414   2.646   2.297
 2233SOL     OW 7597   3.475   6.958   0.242
 2233SOL    HW1 7598   3.505   6.912   0.158
 2233SOL    HW2 7599   3.550   6.957   0.309
 2234SOL     OW 7600   3.705   1.421   0.683
 2234SOL    HW1 7601   3.608   1.408   0.700
 2234SOL    HW2 7602   3.758   1.383   0.759
 2235SOL     OW 7603   0.975   6.777   0.667
 2235SOL    HW1 7604   1.039   6.785   0.744
 2235SOL    HW2 7605   0.961   6.867   0.625
 2236SOL     OW 7606   0.586   4.219   1.093
 2236SOL    HW1 7607   0.593   4.267   1.005
 2236SOL    HW2 7608   0.677   4.189   1.121
 2237SOL     OW 7609   5.994   2.866   4.703
 2237SOL    HW1 7610   6.013   2.847   4.606
 2237SOL    HW2 7611   5.895   2.870   4.717
 2238SOL     OW 7612   0.448   5.749   2.004
 2238SOL    HW1 7613   0.393   5.824   2.041
 2238SOL    HW2 7614   0.415   5.662   2.040
 2239SOL     OW 7615   4.326   5.158   3.071
 2239SOL    HW1 7616   4.270   5.138   3.151
 2239SOL    HW2 7617   4.277   5.132   2.988
 2240SOL     OW 7618   5.782   5.049   2.516
 2240SOL    HW1 7619   5.784   4.949   2.515
 2240SOL    HW2 7620   5.708   5.081   2.458
 2241SOL     OW 7621   0.242   6.815   1.908
 2241SOL    HW1 7622   0.262   6.913   1.907
 2241SOL    HW2 7623   0.157   6.799   1.958
 2242SOL     OW 7624   4.984   1.980   3.103
 2242SOL    HW1 7625   4.920   2.022   3.039
 2242SOL    HW2 7626   4.946   1.983   3.195
 2243SOL     OW 7627   2.496   5.757   4.986
 2243SOL    HW1 7628   2.550   5.836   4.961
 2243SOL    HW2 7629   2.519   5.728   5.079
 2244SOL     OW 7630   2.708   0.545   4.447
 2244SOL    HW1 7631   2.609   0.542   4.462
 2244SOL    HW2 7632   2.727   0.541   4.349
 2245SOL     OW 7633   0.998   0.897   2.351
 2245SOL    HW1 7634   0.981   0.810   2.398
 2245SOL    HW2 7635   1.086   0.892   2.303
 2246SOL     OW 7636   0.852   4.034   6.253
 2246SOL    HW1 7637   0.916   3.958   6.259
 2246SOL    HW2 7638   0.889   4.112   6.304
 2247SOL     OW 7639   2.458   3.112   6.436
 2247SOL    HW1 7640   2.361   3.089   6.446
 2247SOL    HW2 7641   2.495   3.066   6.356
 2248SOL     OW 7642   4.587   3.669   5.761
 2248SOL    HW1 7643   4.668   3.696   5.813
 2248SOL    HW2 7644   4.604   3.581   5.716
 2249SOL     OW 7645   5.288   5.820   3.383
 2249SOL    HW1 7646   5.205   5.816   3.328
 2249SOL    HW2 7647   5.347   5.742   3.360
 2250SOL     OW 7648   6.969   4.209   0.799
 2250SOL    HW1 7649   7.013   4.122   0.822
 2250SOL    HW2 7650   7.002   4.281   0.861
 2251SOL     OW 7651   5.502   0.984   0.131
 2251SOL    HW1 7652   5.415   1.031   0.118
 2251SOL    HW2 7653   5.549   1.024   0.210
 2252SOL     OW 7654   4.956   2.464   5.623
 2252SOL    HW1 7655   4.876   2.411   5.651
 2252SOL    HW2 7656   4.930   2.560   5.612
 2253SOL     OW 7657   2.486   3.191   0.238
 2253SOL    HW1 7658   2.557   3.189   0.308
 2253SOL    HW2 7659   2.487   3.105   0.187
 2254SOL     OW 7660   2.595   3.920   6.202
 2254SOL    HW1 7661   2.500   3.891   6.192
 2254SOL    HW2 7662   2.642   3.859   6.266
 2255SOL     OW 7663   5.864   2.918   1.625
 2255SOL    HW1 7664   5.892   2.967   1.708
 2255SOL    HW2 7665   5.940   2.915   1.561
 2256SOL     OW 7666   4.428   4.702   2.242
 2256SOL    HW1 7667   4.349   4.724   2.185
 2256SOL    HW2 7668   4.489   4.640   2.191
 2257SOL     OW 7669   1.840   4.480   3.914
 2257SOL    HW1 7670   1.840   4.430   3.828
 2257SOL    HW2 7671   1.844   4.578   3.896
 2258SOL     OW 7672   1.848   5.690   4.668
 2258SOL    HW1 7673   1.758   5.699   4.711
 2258SOL    HW2 7674   1.909   5.638   4.727
 2259SOL     OW 7675   5.008   3.968   6.797
 2259SOL    HW1 7676   5.012   3.870   6.778
 2259SOL    HW2 7677   4.932   4.009   6.747
 2260SOL     OW 7678   5.509   4.850   1.455
 2260SOL    HW1 7679   5.455   4.883   1.532
 2260SOL    HW2 7680   5.507   4.919   1.382
 2261SOL     OW 7681   5.310   6.944   0.179
 2261SOL    HW1 7682   5.386   7.009   0.176
 2261SOL    HW2 7683   5.298   6.911   0.273
 2262SOL     OW 7684   4.822   2.065   3.727
 2262SOL    HW1 7685   4.772   2.125   3.789
 2262SOL    HW2 7686   4.804   1.969   3.751
 2263SOL     OW 7687   1.079   5.405   5.801
 2263SOL    HW1 7688   1.010   5.345   5.842
 2263SOL    HW2 7689   1.046   5.436   5.711
 2264SOL     OW 7690   3.291   3.249   4.474
 2264SOL    HW1 7691   3.358   3.299   4.420
 2264SOL    HW2 7692   3.321   3.247   4.570
 2265SOL     OW 7693   6.846   0.089   1.788
 2265SOL    HW1 7694   6.764   0.033   1.795
 2265SOL    HW2 7695   6.926   0.030   1.777
 2266SOL     OW 7696   5.855   0.589   0.518
 2266SOL    HW1 7697   5.828   0.683   0.497
 2266SOL    HW2 7698   5.896   0.586   0.609
 2267SOL     OW 7699   6.484   2.858   5.908
 2267SOL    HW1 7700   6.439   2.784   5.857
 2267SOL    HW2 7701   6.414   2.922   5.942
 2268SOL     OW 7702   6.843   5.784   6.802
 2268SOL    HW1 7703   6.928   5.761   6.755
 2268SOL    HW2 7704   6.829   5.883   6.799
 2269SOL     OW 7705   6.576   5.263   6.076
 2269SOL    HW1 7706   6.631   5.183   6.051
 2269SOL    HW2 7707   6.636   5.340   6.096
 2270SOL     OW 7708   4.035   3.456   2.051
 2270SOL    HW1 7709   4.076   3.469   1.960
 2270SOL    HW2 7710   3.939   3.485   2.049
 2271SOL     OW 7711   6.507   4.606   2.457
 2271SOL    HW1 7712   6.573   4.587   2.529
 2271SOL    HW2 7713   6.433   4.538   2.460
 2272SOL     OW 7714   5.764   2.143   5.729
 2272SOL    HW1 7715   5.670   2.175   5.739
 2272SOL    HW2 7716   5.788   2.138   5.632
 2273SOL     OW 7717   0.678   1.476   3.332
 2273SOL    HW1 7718   0.669   1.565   3.286
 2273SOL    HW2 7719   0.673   1.489   3.431
 2274SOL     OW 7720   1.333   3.502   4.284
 2274SOL    HW1 7721   1.373   3.465   4.368
 2274SOL    HW2 7722   1.400   3.562   4.240
 2275SOL     OW 7723   5.306   6.660   3.863
 2275SOL    HW1 7724   5.230   6.650   3.928
 2275SOL    HW2 7725   5.282   6.727   3.793
 2276SOL     OW 7726   3.923   4.465   1.689
 2276SOL    HW1 7727   3.903   4.552   1.735
 2276SOL    HW2 7728   4.012   4.472   1.643
 2277SOL     OW 7729   3.640   3.208   0.179
 2277SOL    HW1 7730   3.738   3.223   0.166
 2277SOL    HW2 7731   3.589   3.282   0.136
 2278SOL     OW 7732   5.165   5.707   1.499
 2278SOL    HW1 7733   5.183   5.657   1.584
 2278SOL    HW2 7734   5.252   5.722   1.451
 2279SOL     OW 7735   5.549   3.217   5.002
 2279SOL    HW1 7736   5.453   3.195   4.988
 2279SOL    HW2 7737   5.583   3.270   4.925
 2280SOL     OW 7738   6.235   6.180   6.133
 2280SOL    HW1 7739   6.204   6.103   6.189
 2280SOL    HW2 7740   6.158   6.239   6.112
 2281SOL     OW 7741   3.886   2.265   1.374
 2281SOL    HW1 7742   3.956   2.273   1.303
 2281SOL    HW2 7743   3.912   2.192   1.437
 2282SOL     OW 7744   4.821   5.734   3.213
 2282SOL    HW1 7745   4.884   5.689   3.276
 2282SOL    HW2 7746   4.730   5.694   3.223
 2283SOL     OW 7747   0.062   3.270   3.454
 2283SOL    HW1 7748   7.016   3.308   3.516
 2283SOL    HW2 7749   0.058   3.170   3.456
 2284SOL     OW 7750   2.211   2.373   1.597
 2284SOL    HW1 7751   2.186   2.299   1.534
 2284SOL    HW2 7752   2.273   2.436   1.550
 2285SOL     OW 7753   1.858   4.065   0.955
 2285SOL    HW1 7754   1.879   4.113   0.870
 2285SOL    HW2 7755   1.905   3.977   0.957
 2286SOL     OW 7756   6.594   6.491   4.895
 2286SOL    HW1 7757   6.654   6.537   4.830
 2286SOL    HW2 7758   6.555   6.559   4.958
 2287SOL     OW 7759   2.376   2.454   1.840
 2287SOL    HW1 7760   2.307   2.495   1.900
 2287SOL    HW2 7761   2.358   2.480   1.745
 2288SOL     OW 7762   0.406   6.512   3.055
 2288SOL    HW1 7763   0.349   6.532   3.135
 2288SOL    HW2 7764   0.379   6.425   3.015
 2289SOL     OW 7765   5.634   1.992   2.241
 2289SOL    HW1 7766   5.555   1.976   2.182
 2289SOL    HW2 7767   5.715   2.008   2.185
 2290SOL     OW 7768   2.926   3.390   2.663
 2290SOL    HW1 7769   2.995   3.401   2.592
 2290SOL    HW2 7770   2.841   3.436   2.635
 2291SOL     OW 7771   1.863   3.123   0.689
 2291SOL    HW1 7772   1.914   3.056   0.634
 2291SOL    HW2 7773   1.767   3.095   0.694
 2292SOL     OW 7774   4.401   2.135   3.300
 2292SOL    HW1 7775   4.381   2.218   3.247
 2292SOL    HW2 7776   4.332   2.124   3.371
 2293SOL     OW 7777   6.146   1.287   0.029
 2293SOL    HW1 7778   6.138   1.187   0.024
 2293SOL    HW2 7779   6.079   1.322   0.094
 2294SOL     OW 7780   0.923   2.214   5.745
 2294SOL    HW1 7781   0.870   2.141   5.789
 2294SOL    HW2 7782   0.954   2.279   5.814
 2295SOL     OW 7783   6.254   6.652   1.706
 2295SOL    HW1 7784   6.220   6.693   1.621
 2295SOL    HW2 7785   6.292   6.562   1.686
 2296SOL     OW 7786   2.680   5.587   4.040
 2296SOL    HW1 7787   2.695   5.503   4.092
 2296SOL    HW2 7788   2.723   5.664   4.087
 2297SOL     OW 7789   4.125   4.663   5.300
 2297SOL    HW1 7790   4.180   4.604   5.241
 2297SOL    HW2 7791   4.081   4.609   5.371
 2298SOL     OW 7792   3.629   3.340   5.000
 2298SOL    HW1 7793   3.564   3.309   5.069
 2298SOL    HW2 7794   3.685   3.263   4.970
 2299SOL     OW 7795   5.767   2.877   4.981
 2299SOL    HW1 7796   5.690   2.857   4.921
 2299SOL    HW2 7797   5.734   2.916   5.067
 2300SOL     OW 7798   3.821   6.361   2.638
 2300SOL    HW1 7799   3.778   6.305   2.567
 2300SOL    HW2 7800   3.820   6.457   2.609
 2301SOL     OW 7801   3.654   3.822   4.642
 2301SOL    HW1 7802   3.590   3.895   4.619
 2301SOL    HW2 7803   3.694   3.839   4.732
 2302SOL     OW 7804   4.860   2.192   0.238
 2302SOL    HW1 7805   4.887   2.102   0.273
 2302SOL    HW2 7806   4.760   2.200   0.242
 2303SOL     OW 7807   3.275   2.235   0.892
 2303SOL    HW1 7808   3.267   2.211   0.988
 2303SOL    HW2 7809   3.307   2.156   0.840
 2304SOL     OW 7810   6.051   5.854   2.208
 2304SOL    HW1 7811   5.988   5.813   2.142
 2304SOL    HW2 7812   6.010   5.850   2.299
 2305SOL     OW 7813   1.574   1.134   5.095
 2305SOL    HW1 7814   1.652   1.077   5.070
 2305SOL    HW2 7815   1.599   1.194   5.171
 2306SOL     OW 7816   2.449   4.957   3.645
 2306SOL    HW1 7817   2.464   4.909   3.559
 2306SOL    HW2 7818   2.537   4.982   3.686
 2307SOL     OW 7819   0.615   2.193   5.211
 2307SOL    HW1 7820   0.670   2.263   5.257
 2307SOL    HW2 7821   0.603   2.115   5.272
 2308SOL     OW 7822   2.554   4.397   1.475
 2308SOL    HW1 7823   2.624   4.410   1.545
 2308SOL    HW2 7824   2.507   4.484   1.458
 2309SOL     OW 7825   1.559   6.471   4.414
 2309SOL    HW1 7826   1.463   6.485   4.388
 2309SOL    HW2 7827   1.563   6.432   4.506
 2310SOL     OW 7828   4.522   6.621   1.482
 2310SOL    HW1 7829   4.560   6.711   1.463
 2310SOL    HW2 7830   4.566   6.552   1.424
 2311SOL     OW 7831   2.384   5.976   1.261
 2311SOL    HW1 7832   2.348   5.911   1.194
 2311SOL    HW2 7833   2.316   5.991   1.333
 2312SOL     OW 7834   3.341   4.883   2.575
 2312SOL    HW1 7835   3.298   4.863   2.664
 2312SOL    HW2 7836   3.305   4.969   2.540
 2313SOL     OW 7837   5.219   4.933   2.216
 2313SOL    HW1 7838   5.170   4.951   2.302
 2313SOL    HW2 7839   5.184   4.849   2.175
 2314SOL     OW 7840   2.894   6.062   4.087
 2314SOL    HW1 7841   2.962   6.126   4.122
 2314SOL    HW2 7842   2.934   6.011   4.010
 2315SOL     OW 7843   4.019   3.204   6.728
 2315SOL    HW1 7844   3.979   3.141   6.661
 2315SOL    HW2 7845   4.118   3.197   6.725
 2316SOL     OW 7846   5.479   2.825   3.067
 2316SOL    HW1 7847   5.537   2.823   3.149
 2316SOL    HW2 7848   5.525   2.877   2.995
 2317SOL     OW 7849   1.615   4.584   3.323
 2317SOL    HW1 7850   1.627   4.493   3.285
 2317SOL    HW2 7851   1.630   4.652   3.251
 2318SOL     OW 7852   0.220   0.592   3.599
 2318SOL    HW1 7853   0.309   0.625   3.566
 2318SOL    HW2 7854   0.204   0.499   3.565
 2319SOL     OW 7855   1.478   4.093   3.965
 2319SOL    HW1 7856   1.483   4.190   3.988
 2319SOL    HW2 7857   1.434   4.044   4.040
 2320SOL     OW 7858   6.689   2.743   4.293
 2320SOL    HW1 7859   6.648   2.775   4.379
 2320SOL    HW2 7860   6.751   2.813   4.258
 2321SOL     OW 7861   2.936   6.750   5.100
 2321SOL    HW1 7862   2.957   6.842   5.066
 2321SOL    HW2 7863   2.993   6.729   5.179
 2322SOL     OW 7864   1.809   0.472   4.919
 2322SOL    HW1 7865   1.752   0.411   4.864
 2322SOL    HW2 7866   1.764   0.561   4.927
 2323SOL     OW 7867   4.388   5.952   1.837
 2323SOL    HW1 7868   4.460   5.987   1.897
 2323SOL    HW2 7869   4.301   5.995   1.861
 2324SOL     OW 7870   0.218   5.398   3.451
 2324SOL    HW1 7871   0.297   5.458   3.461
 2324SOL    HW2 7872   0.244   5.318   3.396
 2325SOL     OW 7873   0.475   3.188   1.176
 2325SOL    HW1 7874   0.463   3.275   1.223
 2325SOL    HW2 7875   0.484   3.115   1.243
 2326SOL     OW 7876   1.269   5.387   6.656
 2326SOL    HW1 7877   1.306   5.295   6.663
 2326SOL    HW2 7878   1.178   5.390   6.699
 2327SOL     OW 7879   4.778   2.841   4.358
 2327SOL    HW1 7880   4.767   2.880   4.267
 2327SOL    HW2 7881   4.787   2.915   4.425
 2328SOL     OW 7882   4.358   0.647   3.241
 2328SOL    HW1 7883   4.325   0.714   3.308
 2328SOL    HW2 7884   4.282   0.589   3.212
 2329SOL     OW 7885   1.251   6.069   3.865
 2329SOL    HW1 7886   1.202   5.996   3.818
 2329SOL    HW2 7887   1.234   6.156   3.819
 2330SOL     OW 7888   0.539   4.371   2.633
 2330SOL    HW1 7889   0.553   4.447   2.569
 2330SOL    HW2 7890   0.527   4.408   2.725
 2331SOL     OW 7891   0.906   4.632   5.344
 2331SOL    HW1 7892   0.869   4.701   5.407
 2331SOL    HW2 7893   0.922   4.674   5.255
 2332SOL     OW 7894   5.940   2.439   6.246
 2332SOL    HW1 7895   5.894   2.428   6.158
 2332SOL    HW2 7896   5.916   2.527   6.287
 2333SOL     OW 7897   1.244   5.960   3.511
 2333SOL    HW1 7898   1.158   5.973   3.560
 2333SOL    HW2 7899   1.307   6.034   3.534
 2334SOL     OW 7900   3.145   6.957   6.781
 2334SOL    HW1 7901   3.112   0.026   6.805
 2334SOL    HW2 7902   3.179   6.912   6.864
 2335SOL     OW 7903   5.392   6.939   3.987
 2335SOL    HW1 7904   5.390   6.839   3.985
 2335SOL    HW2 7905   5.455   6.972   3.917
 2336SOL     OW 7906   4.971   1.560   5.842
 2336SOL    HW1 7907   5.008   1.471   5.868
 2336SOL    HW2 7908   5.019   1.632   5.891
 2337SOL     OW 7909   5.224   6.987   2.913
 2337SOL    HW1 7910   5.293   0.008   2.856
 2337SOL    HW2 7911   5.140   0.019   2.911
 2338SOL     OW 7912   0.944   6.733   6.574
 2338SOL    HW1 7913   0.929   6.726   6.475
 2338SOL    HW2 7914   0.896   6.813   6.610
 2339SOL     OW 7915   3.518   4.393   0.208
 2339SOL    HW1 7916   3.617   4.409   0.210
 2339SOL    HW2 7917   3.499   4.299   0.181
 2340SOL     OW 7918   3.340   5.521   4.722
 2340SOL    HW1 7919   3.322   5.450   4.791
 2340SOL    HW2 7920   3.302   5.492   4.634
 2341SOL     OW 7921   5.169   5.131   0.846
 2341SOL    HW1 7922   5.093   5.162   0.789
 2341SOL    HW2 7923   5.255   5.169   0.811
 2342SOL     OW 7924   6.210   0.683   5.198
 2342SOL    HW1 7925   6.192   0.589   5.171
 2342SOL    HW2 7926   6.304   0.690   5.232
 2343SOL     OW 7927   1.554   6.454   1.189
 2343SOL    HW1 7928   1.491   6.384   1.156
 2343SOL    HW2 7929   1.648   6.427   1.167
 2344SOL     OW 7930   1.653   2.226   2.630
 2344SOL    HW1 7931   1.578   2.244   2.693
 2344SOL    HW2 7932   1.729   2.184   2.680
 2345SOL     OW 7933   2.094   1.049   4.339
 2345SOL    HW1 7934   2.110   1.004   4.427
 2345SOL    HW2 7935   2.052   1.138   4.355
 2346SOL     OW 7936   5.225   4.296   5.842
 2346SOL    HW1 7937   5.212   4.252   5.931
 2346SOL    HW2 7938   5.191   4.390   5.847
 2347SOL     OW 7939   1.327   2.783   1.905
 2347SOL    HW1 7940   1.393   2.793   1.978
 2347SOL    HW2 7941   1.295   2.688   1.901
 2348SOL     OW 7942   2.790   0.116   2.283
 2348SOL    HW1 7943   2.792   0.017   2.298
 2348SOL    HW2 7944   2.695   0.147   2.276
 2349SOL     OW 7945   5.853   6.431   5.430
 2349SOL    HW1 7946   5.934   6.484   5.453
 2349SOL    HW2 7947   5.812   6.467   5.345
 2350SOL     OW 7948   2.581   6.980   5.998
 2350SOL    HW1 7949   2.483   7.000   6.011
 2350SOL    HW2 7950   2.616   0.011   5.922
 2351SOL     OW 7951   2.440   5.280   4.141
 2351SOL    HW1 7952   2.342   5.289   4.125
 2351SOL    HW2 7953   2.490   5.297   4.056
 2352SOL     OW 7954   0.751   3.591   2.859
 2352SOL    HW1 7955   0.735   3.686   2.883
 2352SOL    HW2 7956   0.681   3.533   2.902
 2353SOL     OW 7957   3.144   4.889   5.705
 2353SOL    HW1 7958   3.219   4.920   5.647
 2353SOL    HW2 7959   3.178   4.869   5.797
 2354SOL     OW 7960   3.743   2.070   0.630
 2354SOL    HW1 7961   3.714   2.123   0.711
 2354SOL    HW2 7962   3.840   2.085   0.614
 2355SOL     OW 7963   0.188   6.243   0.995
 2355SOL    HW1 7964   0.283   6.273   0.996
 2355SOL    HW2 7965   0.145   6.265   1.083
 2356SOL     OW 7966   2.667   5.032   3.777
 2356SOL    HW1 7967   2.719   5.072   3.853
 2356SOL    HW2 7968   2.707   4.943   3.753
 2357SOL     OW 7969   6.560   4.010   2.016
 2357SOL    HW1 7970   6.602   3.922   2.037
 2357SOL    HW2 7971   6.607   4.052   1.938
 2358SOL     OW 7972   3.881   1.926   6.000
 2358SOL    HW1 7973   3.920   1.882   5.919
 2358SOL    HW2 7974   3.810   1.991   5.971
 2359SOL     OW 7975   1.408   1.756   5.663
 2359SOL    HW1 7976   1.448   1.729   5.751
 2359SOL    HW2 7977   1.319   1.713   5.652
 2360SOL     OW 7978   3.978   4.505   0.856
 2360SOL    HW1 7979   3.883   4.477   0.871
 2360SOL    HW2 7980   3.995   4.513   0.758
 2361SOL     OW 7981   3.364   6.477   1.807
 2361SOL    HW1 7982   3.279   6.433   1.835
 2361SOL    HW2 7983   3.391   6.443   1.717
 2362SOL     OW 7984   3.953   5.641   4.157
 2362SOL    HW1 7985   3.978   5.702   4.082
 2362SOL    HW2 7986   3.953   5.546   4.125
 2363SOL     OW 7987   3.460   3.456   0.673
 2363SOL    HW1 7988   3.402   3.533   0.648
 2363SOL    HW2 7989   3.548   3.462   0.625
 2364SOL     OW 7990   4.329   1.866   2.130
 2364SOL    HW1 7991   4.303   1.917   2.212
 2364SOL    HW2 7992   4.402   1.915   2.082
 2365SOL     OW 7993   5.427   3.782   4.041
 2365SOL    HW1 7994   5.431   3.708   4.108
 2365SOL    HW2 7995   5.451   3.868   4.085
 2366SOL     OW 7996   2.459   4.513   5.165
 2366SOL    HW1 7997   2.468   4.434   5.226
 2366SOL    HW2 7998   2.363   4.541   5.162
 2367SOL     OW 7999   0.603   4.117   5.877
 2367SOL    HW1 8000   0.569   4.052   5.809
 2367SOL    HW2 8001   0.702   4.109   5.886
 2368SOL     OW 8002   5.635   6.534   4.190
 2368SOL    HW1 8003   5.627   6.625   4.229
 2368SOL    HW2 8004   5.548   6.486   4.199
 2369SOL     OW 8005   2.889   1.472   3.608
 2369SOL    HW1 8006   2.794   1.479   3.638
 2369SOL    HW2 8007   2.891   1.454   3.509
 2370SOL     OW 8008   5.401   2.393   1.892
 2370SOL    HW1 8009   5.369   2.481   1.856
 2370SOL    HW2 8010   5.328   2.352   1.948
 2371SOL     OW 8011   1.165   0.013   2.995
 2371SOL    HW1 8012   1.080   7.008   2.949
 2371SOL    HW2 8013   1.144   0.048   3.086
 2372SOL     OW 8014   6.459   1.358   5.888
 2372SOL    HW1 8015   6.373   1.333   5.844
 2372SOL    HW2 8016   6.528   1.375   5.818
 2373SOL     OW 8017   6.027   6.527   5.826
 2373SOL    HW1 8018   6.027   6.621   5.791
 2373SOL    HW2 8019   6.040   6.463   5.751
 2374SOL     OW 8020   6.160   6.112   2.383
 2374SOL    HW1 8021   6.250   6.153   2.396
 2374SOL    HW2 8022   6.166   6.013   2.395
 2375SOL     OW 8023   1.067   0.896   3.956
 2375SOL    HW1 8024   1.098   0.880   3.862
 2375SOL    HW2 8025   1.137   0.948   4.006
 2376SOL     OW 8026   6.093   1.576   2.856
 2376SOL    HW1 8027   6.047   1.500   2.901
 2376SOL    HW2 8028   6.188   1.581   2.887
 2377SOL     OW 8029   3.906   5.008   5.892
 2377SOL    HW1 8030   3.884   4.984   5.987
 2377SOL    HW2 8031   3.984   5.070   5.890
 2378SOL     OW 8032   0.157   1.265   0.047
 2378SOL    HW1 8033   0.203   1.274   0.135
 2378SOL    HW2 8034   0.225   1.262   6.996
 2379SOL     OW 8035   6.628   5.525   1.114
 2379SOL    HW1 8036   6.604   5.489   1.024
 2379SOL    HW2 8037   6.727   5.540   1.119
 2380SOL     OW 8038   5.134   4.720   5.066
 2380SOL    HW1 8039   5.073   4.736   4.988
 2380SOL    HW2 8040   5.174   4.807   5.094
 2381SOL     OW 8041   3.282   5.302   4.902
 2381SOL    HW1 8042   3.235   5.214   4.911
 2381SOL    HW2 8043   3.295   5.342   4.993
 2382SOL     OW 8044   1.295   6.432   1.552
 2382SOL    HW1 8045   1.325   6.495   1.624
 2382SOL    HW2 8046   1.195   6.431   1.548
 2383SOL     OW 8047   5.180   5.853   4.968
 2383SOL    HW1 8048   5.169   5.952   4.963
 2383SOL    HW2 8049   5.270   5.831   5.006
 2384SOL     OW 8050   0.998   1.830   1.702
 2384SOL    HW1 8051   0.973   1.838   1.798
 2384SOL    HW2 8052   1.095   1.853   1.690
 2385SOL     OW 8053   0.590   1.906   0.768
 2385SOL    HW1 8054   0.536   1.906   0.684
 2385SOL    HW2 8055   0.686   1.887   0.745
 2386SOL     OW 8056   4.628   6.261   3.851
 2386SOL    HW1 8057   4.560   6.188   3.856
 2386SOL    HW2 8058   4.711   6.227   3.806
 2387SOL     OW 8059   1.297   1.396   3.387
 2387SOL    HW1 8060   1.235   1.474   3.383
 2387SOL    HW2 8061   1.257   1.324   3.443
 2388SOL     OW 8062   6.482   2.073   5.513
 2388SOL    HW1 8063   6.532   2.157   5.489
 2388SOL    HW2 8064   6.386   2.082   5.485
 2389SOL     OW 8065   5.484   4.473   3.785
 2389SOL    HW1 8066   5.417   4.519   3.843
 2389SOL    HW2 8067   5.445   4.388   3.749
 2390SOL     OW 8068   4.595   4.593   5.935
 2390SOL    HW1 8069   4.535   4.669   5.911
 2390SOL    HW2 8070   4.543   4.508   5.933
 2391SOL     OW 8071   3.647   3.716   6.538
 2391SOL    HW1 8072   3.747   3.707   6.535
 2391SOL    HW2 8073   3.609   3.636   6.585
 2392SOL     OW 8074   3.222   5.788   4.769
 2392SOL    HW1 8075   3.143   5.805   4.828
 2392SOL    HW2 8076   3.226   5.691   4.745
 2393SOL     OW 8077   3.077   5.276   1.358
 2393SOL    HW1 8078   3.016   5.200   1.335
 2393SOL    HW2 8079   3.030   5.338   1.420
 2394SOL     OW 8080   0.693   2.682   3.309
 2394SOL    HW1 8081   0.641   2.601   3.282
 2394SOL    HW2 8082   0.782   2.681   3.263
 2395SOL     OW 8083   0.686   2.343   5.640
 2395SOL    HW1 8084   0.721   2.434   5.663
 2395SOL    HW2 8085   0.606   2.352   5.582
 2396SOL     OW 8086   6.494   1.248   5.472
 2396SOL    HW1 8087   6.548   1.301   5.537
 2396SOL    HW2 8088   6.542   1.163   5.451
 2397SOL     OW 8089   0.626   4.864   5.032
 2397SOL    HW1 8090   0.693   4.795   5.061
 2397SOL    HW2 8091   0.603   4.850   4.936
 2398SOL     OW 8092   2.922   5.407   4.070
 2398SOL    HW1 8093   2.941   5.397   3.972
 2398SOL    HW2 8094   2.973   5.486   4.105
 2399SOL     OW 8095   2.833   2.220   3.626
 2399SOL    HW1 8096   2.893   2.197   3.703
 2399SOL    HW2 8097   2.737   2.212   3.655
 2400SOL     OW 8098   1.378   3.680   0.597
 2400SOL    HW1 8099   1.321   3.602   0.623
 2400SOL    HW2 8100   1.429   3.658   0.514
 2401SOL     OW 8101   3.742   6.760   6.060
 2401SOL    HW1 8102   3.646   6.761   6.030
 2401SOL    HW2 8103   3.787   6.843   6.029
 2402SOL     OW 8104   1.028   2.404   2.047
 2402SOL    HW1 8105   1.077   2.362   1.971
 2402SOL    HW2 8106   1.024   2.503   2.034
 2403SOL     OW 8107   3.652   4.006   2.964
 2403SOL    HW1 8108   3.602   3.956   3.035
 2403SOL    HW2 8109   3.594   4.078   2.926
 2404SOL     OW 8110   6.897   1.630   0.793
 2404SOL    HW1 8111   6.797   1.632   0.786
 2404SOL    HW2 8112   6.926   1.539   0.823
 2405SOL     OW 8113   2.826   3.790   0.770
 2405SOL    HW1 8114   2.803   3.774   0.674
 2405SOL    HW2 8115   2.813   3.706   0.822
 2406SOL     OW 8116   2.391   6.876   5.088
 2406SOL    HW1 8117   2.445   6.905   5.009
 2406SOL    HW2 8118   2.386   6.776   5.090
 2407SOL     OW 8119   3.805   1.307   3.804
 2407SOL    HW1 8120   3.830   1.231   3.744
 2407SOL    HW2 8121   3.886   1.363   3.822
 2408SOL     OW 8122   2.486   6.299   4.644
 2408SOL    HW1 8123   2.508   6.389   4.682
 2408SOL    HW2 8124   2.412   6.257   4.697
 2409SOL     OW 8125   2.624   2.613   0.868
 2409SOL    HW1 8126   2.536   2.642   0.908
 2409SOL    HW2 8127   2.626   2.514   0.861
 2410SOL     OW 8128   6.216   4.100   5.688
 2410SOL    HW1 8129   6.154   4.131   5.616
 2410SOL    HW2 8130   6.162   4.061   5.763
 2411SOL     OW 8131   2.649   3.404   0.130
 2411SOL    HW1 8132   2.704   3.378   0.051
 2411SOL    HW2 8133   2.596   3.325   0.161
 2412SOL     OW 8134   2.920   2.231   6.455
 2412SOL    HW1 8135   2.842   2.171   6.439
 2412SOL    HW2 8136   2.897   2.297   6.527
 2413SOL     OW 8137   0.336   2.676   6.588
 2413SOL    HW1 8138   0.302   2.744   6.523
 2413SOL    HW2 8139   0.432   2.656   6.567
 2414SOL     OW 8140   6.125   2.619   4.535
 2414SOL    HW1 8141   6.129   2.596   4.632
 2414SOL    HW2 8142   6.216   2.645   4.503
 2415SOL     OW 8143   2.634   6.079   1.301
 2415SOL    HW1 8144   2.642   6.179   1.296
 2415SOL    HW2 8145   2.537   6.054   1.313
 2416SOL     OW 8146   6.583   3.066   2.978
 2416SOL    HW1 8147   6.577   2.997   3.050
 2416SOL    HW2 8148   6.584   3.157   3.019
 2417SOL     OW 8149   3.996   3.215   0.803
 2417SOL    HW1 8150   3.958   3.236   0.713
 2417SOL    HW2 8151   3.933   3.246   0.874
 2418SOL     OW 8152   5.081   4.158   5.578
 2418SOL    HW1 8153   5.031   4.112   5.652
 2418SOL    HW2 8154   5.065   4.256   5.584
 2419SOL     OW 8155   2.004   6.090   4.442
 2419SOL    HW1 8156   1.928   6.052   4.494
 2419SOL    HW2 8157   2.091   6.057   4.479
 2420SOL     OW 8158   2.744   4.966   2.580
 2420SOL    HW1 8159   2.693   4.946   2.497
 2420SOL    HW2 8160   2.807   4.891   2.599
 2421SOL     OW 8161   3.395   0.051   4.412
 2421SOL    HW1 8162   3.359   0.132   4.366
 2421SOL    HW2 8163   3.390   6.995   4.351
 2422SOL     OW 8164   3.838   6.743   1.713
 2422SOL    HW1 8165   3.748   6.775   1.744
 2422SOL    HW2 8166   3.876   6.680   1.780
 2423SOL     OW 8167   1.822   4.874   2.275
 2423SOL    HW1 8168   1.784   4.953   2.227
 2423SOL    HW2 8169   1.813   4.887   2.374
 2424SOL     OW 8170   5.145   0.771   6.190
 2424SOL    HW1 8171   5.222   0.745   6.132
 2424SOL    HW2 8172   5.179   0.798   6.280
 2425SOL     OW 8173   4.425   5.527   5.552
 2425SOL    HW1 8174   4.360   5.458   5.521
 2425SOL    HW2 8175   4.388   5.574   5.633
 2426SOL     OW 8176   1.356   4.877   5.523
 2426SOL    HW1 8177   1.273   4.835   5.560
 2426SOL    HW2 8178   1.356   4.975   5.542
 2427SOL     OW 8179   5.063   0.522   6.259
 2427SOL    HW1 8180   5.154   0.482   6.248
 2427SOL    HW2 8181   5.067   0.620   6.239
 2428SOL     OW 8182   0.621   0.928   3.434
 2428SOL    HW1 8183   0.613   0.960   3.339
 2428SOL    HW2 8184   0.716   0.907   3.455
 2429SOL     OW 8185   5.659   5.588   2.097
 2429SOL    HW1 8186   5.711   5.523   2.152
 2429SOL    HW2 8187   5.564   5.588   2.127
 2430SOL     OW 8188   6.561   3.283   0.542
 2430SOL    HW1 8189   6.470   3.291   0.501
 2430SOL    HW2 8190   6.579   3.187   0.565
 2431SOL     OW 8191   6.628   1.740   0.950
 2431SOL    HW1 8192   6.614   1.788   0.864
 2431SOL    HW2 8193   6.726   1.727   0.966
 2432SOL     OW 8194   3.786   5.133   2.236
 2432SOL    HW1 8195   3.711   5.188   2.271
 2432SOL    HW2 8196   3.871   5.186   2.239
 2433SOL     OW 8197   6.949   4.463   0.137
 2433SOL    HW1 8198   6.903   4.475   0.225
 2433SOL    HW2 8199   6.938   4.545   0.081
 2434SOL     OW 8200   4.242   1.808   2.742
 2434SOL    HW1 8201   4.230   1.731   2.805
 2434SOL    HW2 8202   4.154   1.834   2.703
 2435SOL     OW 8203   5.704   0.328   6.777
 2435SOL    HW1 8204   5.646   0.300   6.854
 2435SOL    HW2 8205   5.733   0.423   6.790
 2436SOL     OW 8206   1.247   1.412   1.077
 2436SOL    HW1 8207   1.158   1.374   1.052
 2436SOL    HW2 8208   1.282   1.469   1.003
 2437SOL     OW 8209   6.842   5.917   2.155
 2437SOL    HW1 8210   6.852   5.918   2.056
 2437SOL    HW2 8211   6.880   6.002   2.193
 2438SOL     OW 8212   3.242   1.640   4.565
 2438SOL    HW1 8213   3.222   1.725   4.613
 2438SOL    HW2 8214   3.187   1.566   4.603
 2439SOL     OW 8215   0.282   5.377   0.086
 2439SOL    HW1 8216   0.368   5.418   0.117
 2439SOL    HW2 8217   0.299   5.320   0.006
 2440SOL     OW 8218   3.995   1.035   4.650
 2440SOL    HW1 8219   3.996   1.135   4.653
 2440SOL    HW2 8220   4.069   1.001   4.593
 2441SOL     OW 8221   6.302   0.523   6.722
 2441SOL    HW1 8222   6.360   0.524   6.803
 2441SOL    HW2 8223   6.297   0.430   6.685
 2442SOL     OW 8224   4.870   3.542   1.974
 2442SOL    HW1 8225   4.827   3.484   1.904
 2442SOL    HW2 8226   4.862   3.498   2.063
 2443SOL     OW 8227   2.116   1.505   0.253
 2443SOL    HW1 8228   2.129   1.410   0.227
 2443SOL    HW2 8229   2.204   1.552   0.254
 2444SOL     OW 8230   3.426   5.631   0.586
 2444SOL    HW1 8231   3.364   5.554   0.600
 2444SOL    HW2 8232   3.476   5.620   0.500
 2445SOL     OW 8233   0.574   2.159   0.875
 2445SOL    HW1 8234   0.595   2.066   0.844
 2445SOL    HW2 8235   0.553   2.217   0.796
 2446SOL     OW 8236   1.031   3.714   1.661
 2446SOL    HW1 8237   1.066   3.629   1.700
 2446SOL    HW2 8238   1.080   3.791   1.700
 2447SOL     OW 8239   2.196   0.552   0.885
 2447SOL    HW1 8240   2.251   0.540   0.968
 2447SOL    HW2 8241   2.230   0.490   0.814
 2448SOL     OW 8242   6.248   2.152   4.107
 2448SOL    HW1 8243   6.230   2.234   4.160
 2448SOL    HW2 8244   6.335   2.112   4.135
 2449SOL     OW 8245   1.414   3.909   2.095
 2449SOL    HW1 8246   1.479   3.983   2.077
 2449SOL    HW2 8247   1.381   3.916   2.189
 2450SOL     OW 8248   2.137   5.320   6.624
 2450SOL    HW1 8249   2.047   5.280   6.641
 2450SOL    HW2 8250   2.130   5.387   6.550
 2451SOL     OW 8251   1.030   0.050   4.478
 2451SOL    HW1 8252   0.971   0.030   4.399
 2451SOL    HW2 8253   1.003   7.014   4.555
 2452SOL     OW 8254   2.576   2.366   3.480
 2452SOL    HW1 8255   2.590   2.309   3.561
 2452SOL    HW2 8256   2.521   2.445   3.505
 2453SOL     OW 8257   0.119   1.799   0.120
 2453SOL    HW1 8258   0.099   1.896   0.103
 2453SOL    HW2 8259   0.034   1.746   0.120
 2454SOL     OW 8260   3.741   5.306   0.783
 2454SOL    HW1 8261   3.718   5.261   0.869
 2454SOL    HW2 8262   3.832   5.347   0.790
 2455SOL     OW 8263   3.386   1.212   0.056
 2455SOL    HW1 8264   3.350   1.291   0.107
 2455SOL    HW2 8265   3.439   1.154   0.119
 2456SOL     OW 8266   1.298   4.305   7.005
 2456SOL    HW1 8267   1.350   4.298   6.920
 2456SOL    HW2 8268   1.355   4.343   0.055
 2457SOL     OW 8269   5.508   1.225   5.457
 2457SOL    HW1 8270   5.550   1.176   5.533
 2457SOL    HW2 8271   5.576   1.282   5.412
 2458SOL     OW 8272   0.944   0.204   2.678
 2458SOL    HW1 8273   0.990   0.275   2.730
 2458SOL    HW2 8274   0.846   0.209   2.693
 2459SOL     OW 8275   2.568   6.103   0.315
 2459SOL    HW1 8276   2.531   6.031   0.255
 2459SOL    HW2 8277   2.507   6.183   0.312
 2460SOL     OW 8278   1.189   1.238   6.765
 2460SOL    HW1 8279   1.203   1.332   6.795
 2460SOL    HW2 8280   1.091   1.219   6.760
 2461SOL     OW 8281   4.336   0.094   4.631
 2461SOL    HW1 8282   4.339   0.159   4.555
 2461SOL    HW2 8283   4.429   0.075   4.663
 2462SOL     OW 8284   0.622   5.328   0.692
 2462SOL    HW1 8285   0.532   5.298   0.722
 2462SOL    HW2 8286   0.688   5.254   0.706
 2463SOL     OW 8287   6.576   1.244   0.194
 2463SOL    HW1 8288   6.612   1.161   0.236
 2463SOL    HW2 8289   6.509   1.221   0.125
 2464SOL     OW 8290   0.123   2.566   2.668
 2464SOL    HW1 8291   0.210   2.531   2.636
 2464SOL    HW2 8292   0.067   2.593   2.590
 2465SOL     OW 8293   0.204   5.450   6.027
 2465SOL    HW1 8294   0.181   5.369   6.082
 2465SOL    HW2 8295   0.244   5.421   5.940
 2466SOL     OW 8296   1.701   2.158   1.889
 2466SOL    HW1 8297   1.792   2.193   1.912
 2466SOL    HW2 8298   1.651   2.139   1.973
 2467SOL     OW 8299   4.830   1.617   6.133
 2467SOL    HW1 8300   4.761   1.549   6.107
 2467SOL    HW2 8301   4.826   1.694   6.070
 2468SOL     OW 8302   3.565   0.407   6.469
 2468SOL    HW1 8303   3.503   0.331   6.450
 2468SOL    HW2 8304   3.552   0.478   6.399
 2469SOL     OW 8305   4.676   2.469   5.566
 2469SOL    HW1 8306   4.668   2.565   5.590
 2469SOL    HW2 8307   4.608   2.415   5.617
 2470SOL     OW 8308   3.909   4.954   6.149
 2470SOL    HW1 8309   3.976   4.977   6.220
 2470SOL    HW2 8310   3.831   4.909   6.191
 2471SOL     OW 8311   3.624   6.705   0.942
 2471SOL    HW1 8312   3.704   6.688   1.001
 2471SOL    HW2 8313   3.596   6.619   0.899
 2472SOL     OW 8314   4.675   2.659   3.844
 2472SOL    HW1 8315   4.640   2.668   3.938
 2472SOL    HW2 8316   4.761   2.608   3.846
 2473SOL     OW 8317   1.139   4.265   4.877
 2473SOL    HW1 8318   1.111   4.325   4.952
 2473SOL    HW2 8319   1.073   4.191   4.866
 2474SOL     OW 8320   1.032   5.359   0.512
 2474SOL    HW1 8321   0.968   5.435   0.525
 2474SOL    HW2 8322   1.125   5.391   0.525
 2475SOL     OW 8323   4.574   0.649   0.580
 2475SOL    HW1 8324   4.554   0.709   0.503
 2475SOL    HW2 8325   4.510   0.668   0.654
 2476SOL     OW 8326   5.320   0.702   2.557
 2476SOL    HW1 8327   5.242   0.734   2.611
 2476SOL    HW2 8328   5.370   0.633   2.609
 2477SOL     OW 8329   4.072   0.352   3.425
 2477SOL    HW1 8330   4.045   0.316   3.335
 2477SOL    HW2 8331   4.150   0.300   3.460
 2478SOL     OW 8332   4.180   1.216   2.758
 2478SOL    HW1 8333   4.278   1.198   2.771
 2478SOL    HW2 8334   4.155   1.300   2.805
 2479SOL     OW 8335   0.891   2.825   1.331
 2479SOL    HW1 8336   0.872   2.733   1.363
 2479SOL    HW2 8337   0.813   2.858   1.276
 2480SOL     OW 8338   3.945   2.728   1.388
 2480SOL    HW1 8339   3.982   2.674   1.312
 2480SOL    HW2 8340   3.895   2.667   1.450
 2481SOL     OW 8341   2.819   0.396   1.640
 2481SOL    HW1 8342   2.913   0.363   1.633
 2481SOL    HW2 8343   2.757   0.333   1.592
 2482SOL     OW 8344   4.996   3.688   6.775
 2482SOL    HW1 8345   5.043   3.618   6.830
 2482SOL    HW2 8346   4.897   3.678   6.786
 2483SOL     OW 8347   1.570   1.881   0.298
 2483SOL    HW1 8348   1.569   1.791   0.256
 2483SOL    HW2 8349   1.601   1.873   0.393
 2484SOL     OW 8350   3.492   0.992   1.175
 2484SOL    HW1 8351   3.575   0.977   1.122
 2484SOL    HW2 8352   3.417   0.938   1.137
 2485SOL     OW 8353   5.380   2.789   6.979
 2485SOL    HW1 8354   5.358   2.724   0.028
 2485SOL    HW2 8355   5.468   2.765   6.938
 2486SOL     OW 8356   0.343   5.589   5.427
 2486SOL    HW1 8357   0.264   5.626   5.477
 2486SOL    HW2 8358   0.311   5.544   5.344
 2487SOL     OW 8359   3.982   6.255   0.590
 2487SOL    HW1 8360   3.995   6.227   0.495
 2487SOL    HW2 8361   3.885   6.276   0.605
 2488SOL     OW 8362   0.537   3.500   1.515
 2488SOL    HW1 8363   0.460   3.525   1.574
 2488SOL    HW2 8364   0.579   3.416   1.549
 2489SOL     OW 8365   1.281   6.288   3.727
 2489SOL    HW1 8366   1.366   6.336   3.747
 2489SOL    HW2 8367   1.204   6.340   3.762
 2490SOL     OW 8368   0.777   5.660   1.063
 2490SOL    HW1 8369   0.760   5.754   1.033
 2490SOL    HW2 8370   0.735   5.596   0.999
 2491SOL     OW 8371   3.876   3.925   1.303
 2491SOL    HW1 8372   3.807   3.923   1.230
 2491SOL    HW2 8373   3.843   3.872   1.381
 2492SOL     OW 8374   4.798   3.554   1.012
 2492SOL    HW1 8375   4.761   3.493   0.942
 2492SOL    HW2 8376   4.744   3.639   1.013
 2493SOL     OW 8377   6.594   0.090   0.883
 2493SOL    HW1 8378   6.564   0.117   0.792
 2493SOL    HW2 8379   6.687   0.054   0.879
 2494SOL     OW 8380   6.173   3.836   2.082
 2494SOL    HW1 8381   6.079   3.811   2.107
 2494SOL    HW2 8382   6.218   3.877   2.162
 2495SOL     OW 8383   5.406   6.037   3.491
 2495SOL    HW1 8384   5.354   5.974   3.432
 2495SOL    HW2 8385   5.386   6.131   3.464
 2496SOL     OW 8386   0.667   3.537   6.957
 2496SOL    HW1 8387   0.636   3.596   0.009
 2496SOL    HW2 8388   0.621   3.562   6.872
 2497SOL     OW 8389   0.523   0.268   0.571
 2497SOL    HW1 8390   0.530   0.175   0.606
 2497SOL    HW2 8391   0.579   0.276   0.488
 2498SOL     OW 8392   3.367   2.042   5.791
 2498SOL    HW1 8393   3.334   1.958   5.747
 2498SOL    HW2 8394   3.327   2.121   5.745
 2499SOL     OW 8395   5.810   2.781   1.999
 2499SOL    HW1 8396   5.766   2.824   2.076
 2499SOL    HW2 8397   5.851   2.850   1.939
 2500SOL     OW 8398   4.130   3.558   6.630
 2500SOL    HW1 8399   4.216   3.518   6.599
 2500SOL    HW2 8400   4.074   3.488   6.674
 2501SOL     OW 8401   5.390   5.565   6.879
 2501SOL    HW1 8402   5.484   5.544   6.852
 2501SOL    HW2 8403   5.369   5.520   6.966
 2502SOL     OW 8404   2.262   0.149   4.952
 2502SOL    HW1 8405   2.233   0.054   4.937
 2502SOL    HW2 8406   2.186   0.211   4.933
 2503SOL     OW 8407   3.372   6.549   4.905
 2503SOL    HW1 8408   3.402   6.511   4.817
 2503SOL    HW2 8409   3.341   6.475   4.964
 2504SOL     OW 8410   3.704   5.198   3.066
 2504SOL    HW1 8411   3.799   5.169   3.055
 2504SOL    HW2 8412   3.644   5.119   3.053
 2505SOL     OW 8413   0.358   5.630   2.950
 2505SOL    HW1 8414   0.411   5.713   2.966
 2505SOL    HW2 8415   0.296   5.614   3.027
 2506SOL     OW 8416   6.375   3.199   6.151
 2506SOL    HW1 8417   6.462   3.151   6.164
 2506SOL    HW2 8418   6.357   3.258   6.230
 2507SOL     OW 8419   0.428   3.201   0.135
 2507SOL    HW1 8420   0.491   3.192   0.057
 2507SOL    HW2 8421   0.442   3.289   0.179
 2508SOL     OW 8422   2.332   1.813   4.511
 2508SOL    HW1 8423   2.245   1.827   4.463
 2508SOL    HW2 8424   2.406   1.804   4.444
 2509SOL     OW 8425   6.949   4.558   1.031
 2509SOL    HW1 8426   6.883   4.522   1.098
 2509SOL    HW2 8427   6.998   4.635   1.071
 2510SOL     OW 8428   3.633   4.629   0.741
 2510SOL    HW1 8429   3.612   4.642   0.838
 2510SOL    HW2 8430   3.549   4.634   0.687
 2511SOL     OW 8431   2.349   1.502   4.904
 2511SOL    HW1 8432   2.260   1.502   4.949
 2511SOL    HW2 8433   2.338   1.514   4.806
 2512SOL     OW 8434   4.209   4.117   5.464
 2512SOL    HW1 8435   4.163   4.177   5.399
 2512SOL    HW2 8436   4.281   4.168   5.511
 2513SOL     OW 8437   2.011   5.560   4.833
 2513SOL    HW1 8438   2.103   5.522   4.842
 2513SOL    HW2 8439   2.002   5.638   4.896
 2514SOL     OW 8440   0.546   4.170   4.261
 2514SOL    HW1 8441   0.500   4.105   4.321
 2514SOL    HW2 8442   0.644   4.170   4.280
 2515SOL     OW 8443   2.019   6.281   0.923
 2515SOL    HW1 8444   1.954   6.356   0.921
 2515SOL    HW2 8445   1.991   6.210   0.859
 2516SOL     OW 8446   5.496   1.242   2.386
 2516SOL    HW1 8447   5.539   1.179   2.451
 2516SOL    HW2 8448   5.410   1.276   2.423
 2517SOL     OW 8449   1.589   0.608   6.076
 2517SOL    HW1 8450   1.631   0.698   6.064
 2517SOL    HW2 8451   1.660   0.538   6.072
 2518SOL     OW 8452   1.091   5.587   0.742
 2518SOL    HW1 8453   1.142   5.615   0.823
 2518SOL    HW2 8454   0.998   5.562   0.768
 2519SOL     OW 8455   3.442   0.730   1.829
 2519SOL    HW1 8456   3.427   0.821   1.869
 2519SOL    HW2 8457   3.355   0.680   1.827
 2520SOL     OW 8458   3.355   1.849   0.363
 2520SOL    HW1 8459   3.453   1.867   0.359
 2520SOL    HW2 8460   3.306   1.912   0.303
 2521SOL     OW 8461   3.150   1.330   5.411
 2521SOL    HW1 8462   3.230   1.275   5.389
 2521SOL    HW2 8463   3.117   1.307   5.502
 2522SOL     OW 8464   1.406   1.457   5.415
 2522SOL    HW1 8465   1.392   1.454   5.316
 2522SOL    HW2 8466   1.463   1.380   5.443
 2523SOL     OW 8467   1.237   3.125   1.123
 2523SOL    HW1 8468   1.199   3.180   1.049
 2523SOL    HW2 8469   1.162   3.089   1.180
 2524SOL     OW 8470   7.018   6.442   4.337
 2524SOL    HW1 8471   7.011   6.388   4.420
 2524SOL    HW2 8472   6.935   6.430   4.282
 2525SOL     OW 8473   1.228   2.969   4.474
 2525SOL    HW1 8474   1.243   2.898   4.543
 2525SOL    HW2 8475   1.303   3.036   4.479
 2526SOL     OW 8476   1.761   4.325   6.862
 2526SOL    HW1 8477   1.751   4.315   6.961
 2526SOL    HW2 8478   1.854   4.355   6.840
 2527SOL     OW 8479   5.775   6.392   5.701
 2527SOL    HW1 8480   5.866   6.350   5.706
 2527SOL    HW2 8481   5.768   6.446   5.618
 2528SOL     OW 8482   5.918   4.791   5.768
 2528SOL    HW1 8483   5.959   4.876   5.801
 2528SOL    HW2 8484   5.844   4.812   5.704
 2529SOL     OW 8485   0.010   6.651   0.024
 2529SOL    HW1 8486   6.981   6.658   6.962
 2529SOL    HW2 8487   6.992   6.712   0.092
 2530SOL     OW 8488   2.620   6.042   4.966
 2530SOL    HW1 8489   2.659   6.134   4.956
 2530SOL    HW2 8490   2.657   5.999   5.048
 2531SOL     OW 8491   6.272   6.401   5.078
 2531SOL    HW1 8492   6.255   6.342   5.156
 2531SOL    HW2 8493   6.315   6.348   5.005
 2532SOL     OW 8494   6.867   6.248   0.699
 2532SOL    HW1 8495   6.877   6.347   0.688
 2532SOL    HW2 8496   6.951   6.210   0.738
 2533SOL     OW 8497   4.516   0.346   3.669
 2533SOL    HW1 8498   4.597   0.321   3.617
 2533SOL    HW2 8499   4.436   0.302   3.629
 2534SOL     OW 8500   3.287   1.495   1.701
 2534SOL    HW1 8501   3.286   1.447   1.613
 2534SOL    HW2 8502   3.375   1.479   1.746
 2535SOL     OW 8503   3.444   2.875   6.232
 2535SOL    HW1 8504   3.467   2.817   6.154
 2535SOL    HW2 8505   3.411   2.964   6.199
 2536SOL     OW 8506   1.275   0.828   6.523
 2536SOL    HW1 8507   1.189   0.800   6.480
 2536SOL    HW2 8508   1.347   0.828   6.454
 2537SOL     OW 8509   3.161   6.967   6.516
 2537SOL    HW1 8510   3.240   6.934   6.465
 2537SOL    HW2 8511   3.175   6.952   6.613
 2538SOL     OW 8512   0.380   3.861   3.581
 2538SOL    HW1 8513   0.423   3.804   3.511
 2538SOL    HW2 8514   0.450   3.897   3.643
 2539SOL     OW 8515   5.127   1.229   4.145
 2539SOL    HW1 8516   5.195   1.179   4.092
 2539SOL    HW2 8517   5.106   1.316   4.101
 2540SOL     OW 8518   4.656   1.733   2.789
 2540SOL    HW1 8519   4.633   1.644   2.829
 2540SOL    HW2 8520   4.731   1.723   2.725
 2541SOL     OW 8521   3.569   0.313   5.415
 2541SOL    HW1 8522   3.496   0.368   5.372
 2541SOL    HW2 8523   3.619   0.263   5.344
 2542SOL     OW 8524   3.849   3.630   6.236
 2542SOL    HW1 8525   3.855   3.532   6.254
 2542SOL    HW2 8526   3.755   3.654   6.213
 2543SOL     OW 8527   0.497   0.636   3.773
 2543SOL    HW1 8528   0.439   0.562   3.806
 2543SOL    HW2 8529   0.511   0.703   3.847
 2544SOL     OW 8530   0.136   5.710   0.024
 2544SOL    HW1 8531   0.235   5.693   0.017
 2544SOL    HW2 8532   0.098   5.657   0.100
 2545SOL     OW 8533   2.066   6.632   1.766
 2545SOL    HW1 8534   2.008   6.690   1.823
 2545SOL    HW2 8535   2.021   6.543   1.754
 2546SOL     OW 8536   0.269   1.739   1.593
 2546SOL    HW1 8537   0.267   1.826   1.642
 2546SOL    HW2 8538   0.184   1.690   1.607
 2547SOL     OW 8539   0.698   4.730   6.638
 2547SOL    HW1 8540   0.722   4.635   6.621
 2547SOL    HW2 8541   0.619   4.734   6.700
 2548SOL     OW 8542   1.014   6.769   4.913
 2548SOL    HW1 8543   1.090   6.827   4.941
 2548SOL    HW2 8544   0.930   6.823   4.911
 2549SOL     OW 8545   0.848   0.186   1.269
 2549SOL    HW1 8546   0.770   0.147   1.318
 2549SOL    HW2 8547   0.834   0.284   1.257
 2550SOL     OW 8548   5.914   6.748   0.301
 2550SOL    HW1 8549   5.970   6.774   0.223
 2550SOL    HW2 8550   5.849   6.821   0.322
 2551SOL     OW 8551   3.221   4.497   0.250
 2551SOL    HW1 8552   3.317   4.474   0.231
 2551SOL    HW2 8553   3.217   4.590   0.288
 2552SOL     OW 8554   1.507   6.106   4.332
 2552SOL    HW1 8555   1.520   6.149   4.243
 2552SOL    HW2 8556   1.535   6.010   4.327
 2553SOL     OW 8557   3.938   3.666   5.824
 2553SOL    HW1 8558   3.980   3.708   5.744
 2553SOL    HW2 8559   3.972   3.710   5.907
 2554SOL     OW 8560   2.717   0.228   0.402
 2554SOL    HW1 8561   2.691   0.132   0.415
 2554SOL    HW2 8562   2.634   0.284   0.404
 2555SOL     OW 8563   6.056   1.550   4.789
 2555SOL    HW1 8564   6.044   1.475   4.724
 2555SOL    HW2 8565   6.104   1.626   4.744
 2556SOL     OW 8566   4.567   6.618   0.575
 2556SOL    HW1 8567   4.621   6.545   0.617
 2556SOL    HW2 8568   4.569   6.699   0.633
 2557SOL     OW 8569   1.714   3.655   0.928
 2557SOL    HW1 8570   1.712   3.565   0.885
 2557SOL    HW2 8571   1.653   3.656   1.007
 2558SOL     OW 8572   4.700   1.098   4.492
 2558SOL    HW1 8573   4.655   1.067   4.576
 2558SOL    HW2 8574   4.655   1.181   4.459
 2559SOL     OW 8575   1.121   4.339   5.316
 2559SOL    HW1 8576   1.135   4.323   5.414
 2559SOL    HW2 8577   1.209   4.361   5.273
 2560SOL     OW 8578   5.782   2.437   6.014
 2560SOL    HW1 8579   5.682   2.441   6.018
 2560SOL    HW2 8580   5.813   2.456   5.921
 2561SOL     OW 8581   2.607   4.687   5.007
 2561SOL    HW1 8582   2.564   4.622   5.070
 2561SOL    HW2 8583   2.706   4.673   5.008
 2562SOL     OW 8584   2.545   5.000   1.566
 2562SOL    HW1 8585   2.586   5.032   1.651
 2562SOL    HW2 8586   2.459   5.049   1.551
 2563SOL     OW 8587   3.431   1.380   0.709
 2563SOL    HW1 8588   3.429   1.357   0.612
 2563SOL    HW2 8589   3.348   1.431   0.733
 2564SOL     OW 8590   1.883   5.811   6.719
 2564SOL    HW1 8591   1.956   5.744   6.705
 2564SOL    HW2 8592   1.808   5.767   6.769
 2565SOL     OW 8593   1.574   0.125   6.920
 2565SOL    HW1 8594   1.632   0.195   6.878
 2565SOL    HW2 8595   1.526   0.164   6.998
 2566SOL     OW 8596   2.555   0.064   1.236
 2566SOL    HW1 8597   2.521   0.156   1.256
 2566SOL    HW2 8598   2.481   0.009   1.198
 2567SOL     OW 8599   0.821   0.609   0.707
 2567SOL    HW1 8600   0.881   0.534   0.679
 2567SOL    HW2 8601   0.737   0.605   0.652
 2568SOL     OW 8602   4.617   1.952   6.351
 2568SOL    HW1 8603   4.579   1.905   6.271
 2568SOL    HW2 8604   4.644   2.045   6.325
 2569SOL     OW 8605   2.563   0.622   2.950
 2569SOL    HW1 8606   2.643   0.569   2.922
 2569SOL    HW2 8607   2.482   0.565   2.944
 2570SOL     OW 8608   5.387   0.618   5.758
 2570SOL    HW1 8609   5.473   0.651   5.718
 2570SOL    HW2 8610   5.407   0.546   5.825
 2571SOL     OW 8611   2.256   4.983   4.311
 2571SOL    HW1 8612   2.252   5.051   4.384
 2571SOL    HW2 8613   2.177   4.995   4.250
 2572SOL     OW 8614   2.690   5.740   1.818
 2572SOL    HW1 8615   2.745   5.783   1.890
 2572SOL    HW2 8616   2.631   5.809   1.777
 2573SOL     OW 8617   0.904   1.780   1.043
 2573SOL    HW1 8618   0.821   1.787   1.099
 2573SOL    HW2 8619   0.922   1.868   0.999
 2574SOL     OW 8620   5.411   3.972   1.042
 2574SOL    HW1 8621   5.492   3.920   1.016
 2574SOL    HW2 8622   5.338   3.956   0.975
 2575SOL     OW 8623   5.690   5.557   6.966
 2575SOL    HW1 8624   5.680   5.643   6.916
 2575SOL    HW2 8625   5.785   5.528   6.965
 2576SOL     OW 8626   4.608   6.409   4.078
 2576SOL    HW1 8627   4.613   6.355   3.994
 2576SOL    HW2 8628   4.648   6.499   4.062
 2577SOL     OW 8629   3.291   5.176   2.210
 2577SOL    HW1 8630   3.303   5.244   2.137
 2577SOL    HW2 8631   3.227   5.105   2.178
 2578SOL     OW 8632   3.814   1.665   3.878
 2578SOL    HW1 8633   3.714   1.663   3.883
 2578SOL    HW2 8634   3.843   1.681   3.783
 2579SOL     OW 8635   1.062   6.423   3.810
 2579SOL    HW1 8636   1.013   6.335   3.812
 2579SOL    HW2 8637   1.018   6.486   3.875
 2580SOL     OW 8638   2.525   4.842   0.029
 2580SOL    HW1 8639   2.584   4.921   0.044
 2580SOL    HW2 8640   2.493   4.807   0.118
 2581SOL     OW 8641   2.266   5.415   1.178
 2581SOL    HW1 8642   2.293   5.462   1.261
 2581SOL    HW2 8643   2.171   5.436   1.156
 2582SOL     OW 8644   0.347   4.303   1.813
 2582SOL    HW1 8645   0.248   4.304   1.797
 2582SOL    HW2 8646   0.367   4.238   1.887
 2583SOL     OW 8647   0.786   0.889   6.402
 2583SOL    HW1 8648   0.733   0.830   6.341
 2583SOL    HW2 8649   0.858   0.934   6.350
 2584SOL     OW 8650   3.878   5.399   5.822
 2584SOL    HW1 8651   3.959   5.454   5.843
 2584SOL    HW2 8652   3.900   5.334   5.749
 2585SOL     OW 8653   3.120   3.673   0.470
 2585SOL    HW1 8654   3.132   3.587   0.421
 2585SOL    HW2 8655   3.161   3.665   0.561
 2586SOL     OW 8656   2.905   0.982   5.641
 2586SOL    HW1 8657   2.819   0.981   5.692
 2586SOL    HW2 8658   2.886   1.009   5.546
 2587SOL     OW 8659   6.686   1.082   3.387
 2587SOL    HW1 8660   6.691   0.983   3.380
 2587SOL    HW2 8661   6.726   1.123   3.304
 2588SOL     OW 8662   4.018   2.278   5.793
 2588SOL    HW1 8663   4.004   2.214   5.869
 2588SOL    HW2 8664   3.945   2.347   5.795
 2589SOL     OW 8665   1.346   6.892   5.908
 2589SOL    HW1 8666   1.367   6.891   6.006
 2589SOL    HW2 8667   1.408   6.830   5.860
 2590SOL     OW 8668   2.791   4.954   0.277
 2590SOL    HW1 8669   2.702   4.993   0.303
 2590SOL    HW2 8670   2.821   4.996   0.191
 2591SOL     OW 8671   6.667   5.097   3.448
 2591SOL    HW1 8672   6.755   5.055   3.467
 2591SOL    HW2 8673   6.628   5.056   3.365
 2592SOL     OW 8674   2.798   4.561   6.749
 2592SOL    HW1 8675   2.774   4.556   6.652
 2592SOL    HW2 8676   2.898   4.557   6.759
 2593SOL     OW 8677   3.128   5.616   0.741
 2593SOL    HW1 8678   3.214   5.665   0.755
 2593SOL    HW2 8679   3.104   5.616   0.644
 2594SOL     OW 8680   2.457   4.177   5.737
 2594SOL    HW1 8681   2.405   4.257   5.708
 2594SOL    HW2 8682   2.511   4.201   5.818
 2595SOL     OW 8683   0.014   1.262   3.839
 2595SOL    HW1 8684   6.995   1.306   3.760
 2595SOL    HW2 8685   0.078   1.192   3.808
 2596SOL     OW 8686   2.534   2.518   1.245
 2596SOL    HW1 8687   2.584   2.598   1.278
 2596SOL    HW2 8688   2.598   2.451   1.209
 2597SOL     OW 8689   0.791   5.385   6.503
 2597SOL    HW1 8690   0.818   5.296   6.466
 2597SOL    HW2 8691   0.709   5.375   6.560
 2598SOL     OW 8692   6.354   1.330   1.706
 2598SOL    HW1 8693   6.328   1.425   1.717
 2598SOL    HW2 8694   6.381   1.313   1.611
 2599SOL     OW 8695   1.681   5.799   0.477
 2599SOL    HW1 8696   1.681   5.739   0.397
 2599SOL    HW2 8697   1.598   5.856   0.476
 2600SOL     OW 8698   5.926   2.885   4.178
 2600SOL    HW1 8699   5.892   2.979   4.187
 2600SOL    HW2 8700   5.848   2.822   4.175
 2601SOL     OW 8701   1.343   1.850   1.277
 2601SOL    HW1 8702   1.397   1.877   1.357
 2601SOL    HW2 8703   1.304   1.760   1.292
 2602SOL     OW 8704   1.692   4.340   4.838
 2602SOL    HW1 8705   1.769   4.290   4.879
 2602SOL    HW2 8706   1.665   4.295   4.753
 2603SOL     OW 8707   2.717   0.858   3.010
 2603SOL    HW1 8708   2.704   0.765   2.976
 2603SOL    HW2 8709   2.718   0.922   2.933
 2604SOL     OW 8710   5.323   1.819   2.851
 2604SOL    HW1 8711   5.275   1.857   2.772
 2604SOL    HW2 8712   5.381   1.742   2.822
 2605SOL     OW 8713   1.612   3.424   2.521
 2605SOL    HW1 8714   1.695   3.373   2.543
 2605SOL    HW2 8715   1.601   3.428   2.421
 2606SOL     OW 8716   5.758   5.277   1.868
 2606SOL    HW1 8717   5.846   5.324   1.873
 2606SOL    HW2 8718   5.748   5.217   1.947
 2607SOL     OW 8719   0.861   1.623   0.816
 2607SOL    HW1 8720   0.895   1.664   0.900
 2607SOL    HW2 8721   0.788   1.558   0.837
 2608SOL     OW 8722   3.058   5.590   6.699
 2608SOL    HW1 8723   3.047   5.490   6.694
 2608SOL    HW2 8724   3.155   5.612   6.711
 2609SOL     OW 8725   6.684   1.335   1.592
 2609SOL    HW1 8726   6.648   1.423   1.623
 2609SOL    HW2 8727   6.757   1.305   1.654
 2610SOL     OW 8728   1.000   4.375   4.148
 2610SOL    HW1 8729   0.994   4.448   4.216
 2610SOL    HW2 8730   1.074   4.396   4.084
 2611SOL     OW 8731   4.507   6.392   0.091
 2611SOL    HW1 8732   4.557   6.329   0.150
 2611SOL    HW2 8733   4.566   6.471   0.070
 2612SOL     OW 8734   5.620   0.010   4.147
 2612SOL    HW1 8735   5.535   6.984   4.125
 2612SOL    HW2 8736   5.677   0.016   4.065
 2613SOL     OW 8737   2.079   4.858   6.643
 2613SOL    HW1 8738   2.066   4.842   6.740
 2613SOL    HW2 8739   2.174   4.880   6.625
 2614SOL     OW 8740   5.970   1.080   6.395
 2614SOL    HW1 8741   5.946   0.991   6.358
 2614SOL    HW2 8742   5.897   1.145   6.376
 2615SOL     OW 8743   0.445   2.595   1.765
 2615SOL    HW1 8744   0.364   2.632   1.812
 2615SOL    HW2 8745   0.430   2.497   1.747
 2616SOL     OW 8746   0.934   1.874   5.541
 2616SOL    HW1 8747   0.890   1.890   5.453
 2616SOL    HW2 8748   0.941   1.776   5.558
 2617SOL     OW 8749   4.838   0.402   0.760
 2617SOL    HW1 8750   4.891   0.424   0.842
 2617SOL    HW2 8751   4.898   0.361   0.692
 2618SOL     OW 8752   1.381   5.818   5.048
 2618SOL    HW1 8753   1.348   5.851   4.959
 2618SOL    HW2 8754   1.318   5.848   5.119
 2619SOL     OW 8755   3.848   1.938   1.796
 2619SOL    HW1 8756   3.803   1.921   1.883
 2619SOL    HW2 8757   3.911   2.015   1.804
 2620SOL     OW 8758   6.212   6.330   1.758
 2620SOL    HW1 8759   6.293   6.304   1.810
 2620SOL    HW2 8760   6.218   6.293   1.665
 2621SOL     OW 8761   0.420   4.866   3.059
 2621SOL    HW1 8762   0.511   4.889   3.025
 2621SOL    HW2 8763   0.418   4.771   3.089
 2622SOL     OW 8764   3.101   3.019   5.777
 2622SOL    HW1 8765   3.019   3.077   5.780
 2622SOL    HW2 8766   3.112   2.983   5.684
 2623SOL     OW 8767   0.478   0.285   3.866
 2623SOL    HW1 8768   0.406   0.353   3.881
 2623SOL    HW2 8769   0.502   0.243   3.954
 2624SOL     OW 8770   6.854   2.021   4.538
 2624SOL    HW1 8771   6.845   2.091   4.467
 2624SOL    HW2 8772   6.764   1.988   4.564
 2625SOL     OW 8773   2.183   5.390   5.730
 2625SOL    HW1 8774   2.124   5.470   5.724
 2625SOL    HW2 8775   2.278   5.419   5.740
 2626SOL     OW 8776   6.243   6.924   5.312
 2626SOL    HW1 8777   6.196   7.006   5.278
 2626SOL    HW2 8778   6.234   6.850   5.247
 2627SOL     OW 8779   1.241   0.296   6.521
 2627SOL    HW1 8780   1.281   0.213   6.482
 2627SOL    HW2 8781   1.272   0.307   6.615
 2628SOL     OW 8782   1.888   3.454   3.738
 2628SOL    HW1 8783   1.849   3.366   3.710
 2628SOL    HW2 8784   1.986   3.455   3.718
 2629SOL     OW 8785   3.405   3.674   3.346
 2629SOL    HW1 8786   3.325   3.616   3.355
 2629SOL    HW2 8787   3.459   3.645   3.267
 2630SOL     OW 8788   3.427   0.940   3.439
 2630SOL    HW1 8789   3.516   0.900   3.462
 2630SOL    HW2 8790   3.440   1.036   3.414
 2631SOL     OW 8791   5.959   0.643   6.338
 2631SOL    HW1 8792   6.031   0.612   6.400
 2631SOL    HW2 8793   5.880   0.672   6.392
 2632SOL     OW 8794   5.533   4.366   1.595
 2632SOL    HW1 8795   5.482   4.452   1.601
 2632SOL    HW2 8796   5.631   4.385   1.593
 2633SOL     OW 8797   6.756   2.603   5.725
 2633SOL    HW1 8798   6.788   2.557   5.642
 2633SOL    HW2 8799   6.754   2.536   5.800
 2634SOL     OW 8800   0.618   6.147   4.529
 2634SOL    HW1 8801   0.529   6.184   4.500
 2634SOL    HW2 8802   0.624   6.051   4.500
 2635SOL     OW 8803   5.647   5.326   3.883
 2635SOL    HW1 8804   5.687   5.248   3.933
 2635SOL    HW2 8805   5.692   5.411   3.913
 2636SOL     OW 8806   3.479   1.334   6.357
 2636SOL    HW1 8807   3.460   1.373   6.448
 2636SOL    HW2 8808   3.462   1.403   6.287
 2637SOL     OW 8809   0.113   1.681   3.540
 2637SOL    HW1 8810   0.146   1.588   3.523
 2637SOL    HW2 8811   0.019   1.677   3.575
 2638SOL     OW 8812   0.528   0.644   4.830
 2638SOL    HW1 8813   0.547   0.722   4.890
 2638SOL    HW2 8814   0.534   0.559   4.883
 2639SOL     OW 8815   4.892   5.166   5.097
 2639SOL    HW1 8816   4.937   5.253   5.077
 2639SOL    HW2 8817   4.871   5.119   5.012
 2640SOL     OW 8818   0.363   6.994   5.374
 2640SOL    HW1 8819   0.302   0.030   5.428
 2640SOL    HW2 8820   0.350   6.899   5.400
 2641SOL     OW 8821   5.137   2.886   0.293
 2641SOL    HW1 8822   5.082   2.807   0.319
 2641SOL    HW2 8823   5.198   2.911   0.368
 2642SOL     OW 8824   0.016   0.650   3.750
 2642SOL    HW1 8825   0.098   0.633   3.694
 2642SOL    HW2 8826   6.961   0.668   3.689
 2643SOL     OW 8827   0.713   3.031   3.787
 2643SOL    HW1 8828   0.638   2.993   3.841
 2643SOL    HW2 8829   0.720   3.129   3.803
 2644SOL     OW 8830   4.851   5.530   5.114
 2644SOL    HW1 8831   4.790   5.495   5.043
 2644SOL    HW2 8832   4.799   5.586   5.178
 2645SOL     OW 8833   4.987   4.859   3.832
 2645SOL    HW1 8834   5.052   4.880   3.905
 2645SOL    HW2 8835   4.942   4.943   3.803
 2646SOL     OW 8836   0.691   4.183   6.625
 2646SOL    HW1 8837   0.665   4.125   6.702
 2646SOL    HW2 8838   0.661   4.140   6.539
 2647SOL     OW 8839   4.929   0.186   1.844
 2647SOL    HW1 8840   4.930   0.181   1.944
 2647SOL    HW2 8841   4.989   0.260   1.814
 2648SOL     OW 8842   0.988   0.127   3.664
 2648SOL    HW1 8843   1.053   0.160   3.734
 2648SOL    HW2 8844   0.895   0.131   3.701
 2649SOL     OW 8845   5.230   3.115   1.931
 2649SOL    HW1 8846   5.262   3.022   1.913
 2649SOL    HW2 8847   5.200   3.158   1.846
 2650SOL     OW 8848   3.016   5.578   4.590
 2650SOL    HW1 8849   2.971   5.497   4.552
 2650SOL    HW2 8850   2.973   5.603   4.677
 2651SOL     OW 8851   3.532   1.799   6.370
 2651SOL    HW1 8852   3.570   1.865   6.306
 2651SOL    HW2 8853   3.577   1.710   6.358
 2652SOL     OW 8854   4.387   3.498   5.445
 2652SOL    HW1 8855   4.481   3.499   5.410
 2652SOL    HW2 8856   4.382   3.556   5.526
 2653SOL     OW 8857   3.489   6.015   5.900
 2653SOL    HW1 8858   3.517   5.972   5.814
 2653SOL    HW2 8859   3.560   6.001   5.969
 2654SOL     OW 8860   4.882   6.546   0.539
 2654SOL    HW1 8861   4.845   6.489   0.611
 2654SOL    HW2 8862   4.970   6.509   0.508
 2655SOL     OW 8863   4.638   6.268   3.559
 2655SOL    HW1 8864   4.729   6.235   3.584
 2655SOL    HW2 8865   4.621   6.357   3.603
 2656SOL     OW 8866   3.694   5.931   3.782
 2656SOL    HW1 8867   3.694   5.847   3.835
 2656SOL    HW2 8868   3.608   5.939   3.731
 2657SOL     OW 8869   1.751   3.644   0.509
 2657SOL    HW1 8870   1.666   3.621   0.555
 2657SOL    HW2 8871   1.755   3.743   0.494
 2658SOL     OW 8872   4.362   4.049   6.517
 2658SOL    HW1 8873   4.349   4.145   6.496
 2658SOL    HW2 8874   4.376   4.038   6.616
 2659SOL     OW 8875   5.649   2.530   5.070
 2659SOL    HW1 8876   5.627   2.578   5.154
 2659SOL    HW2 8877   5.747   2.513   5.066
 2660SOL     OW 8878   0.604   1.233   0.731
 2660SOL    HW1 8879   0.530   1.166   0.729
 2660SOL    HW2 8880   0.625   1.264   0.638
 2661SOL     OW 8881   1.096   0.813   1.845
 2661SOL    HW1 8882   1.002   0.847   1.850
 2661SOL    HW2 8883   1.095   0.717   1.815
 2662SOL     OW 8884   3.192   0.777   3.700
 2662SOL    HW1 8885   3.177   0.820   3.611
 2662SOL    HW2 8886   3.196   0.847   3.771
 2663SOL     OW 8887   3.133   0.112   5.813
 2663SOL    HW1 8888   3.231   0.090   5.817
 2663SOL    HW2 8889   3.093   0.099   5.904
 2664SOL     OW 8890   3.856   2.423   5.390
 2664SOL    HW1 8891   3.930   2.489   5.405
 2664SOL    HW2 8892   3.774   2.454   5.437
 2665SOL     OW 8893   2.429   3.513   5.380
 2665SOL    HW1 8894   2.472   3.424   5.364
 2665SOL    HW2 8895   2.487   3.567   5.440
 2666SOL     OW 8896   1.966   3.080   2.243
 2666SOL    HW1 8897   1.915   2.995   2.235
 2666SOL    HW2 8898   1.907   3.157   2.222
 2667SOL     OW 8899   6.579   4.524   3.956
 2667SOL    HW1 8900   6.556   4.560   3.866
 2667SOL    HW2 8901   6.498   4.526   4.014
 2668SOL     OW 8902   5.400   2.258   4.578
 2668SOL    HW1 8903   5.362   2.221   4.493
 2668SOL    HW2 8904   5.438   2.349   4.560
 2669SOL     OW 8905   2.737   5.942   6.799
 2669SOL    HW1 8906   2.773   5.974   6.711
 2669SOL    HW2 8907   2.699   5.850   6.788
 2670SOL     OW 8908   6.223   1.792   5.115
 2670SOL    HW1 8909   6.274   1.779   5.200
 2670SOL    HW2 8910   6.153   1.862   5.128
 2671SOL     OW 8911   4.460   5.957   6.348
 2671SOL    HW1 8912   4.479   5.860   6.336
 2671SOL    HW2 8913   4.363   5.970   6.369
 2672SOL     OW 8914   3.553   1.136   1.959
 2672SOL    HW1 8915   3.504   1.050   1.974
 2672SOL    HW2 8916   3.634   1.138   2.018
 2673SOL     OW 8917   5.341   6.799   2.738
 2673SOL    HW1 8918   5.291   6.798   2.825
 2673SOL    HW2 8919   5.276   6.800   2.662
 2674SOL     OW 8920   1.347   5.082   4.017
 2674SOL    HW1 8921   1.321   5.072   3.921
 2674SOL    HW2 8922   1.272   5.050   4.075
 2675SOL     OW 8923   0.446   6.591   3.737
 2675SOL    HW1 8924   0.421   6.537   3.657
 2675SOL    HW2 8925   0.493   6.674   3.709
 2676SOL     OW 8926   3.069   3.855   2.186
 2676SOL    HW1 8927   3.047   3.888   2.278
 2676SOL    HW2 8928   3.053   3.928   2.120
 2677SOL     OW 8929   2.627   4.576   1.052
 2677SOL    HW1 8930   2.574   4.645   1.001
 2677SOL    HW2 8931   2.573   4.545   1.130
 2678SOL     OW 8932   6.970   2.282   2.281
 2678SOL    HW1 8933   0.041   2.249   2.280
 2678SOL    HW2 8934   6.913   2.221   2.337
 2679SOL     OW 8935   1.786   5.561   2.045
 2679SOL    HW1 8936   1.692   5.569   2.013
 2679SOL    HW2 8937   1.789   5.496   2.121
 2680SOL     OW 8938   1.418   2.468   7.013
 2680SOL    HW1 8939   1.353   2.432   0.057
 2680SOL    HW2 8940   1.468   2.545   0.031
 2681SOL     OW 8941   1.490   2.687   5.214
 2681SOL    HW1 8942   1.473   2.764   5.152
 2681SOL    HW2 8943   1.483   2.601   5.163
 2682SOL     OW 8944   4.865   4.102   1.998
 2682SOL    HW1 8945   4.863   4.025   1.935
 2682SOL    HW2 8946   4.796   4.170   1.970
 2683SOL     OW 8947   2.451   4.351   2.639
 2683SOL    HW1 8948   2.543   4.313   2.644
 2683SOL    HW2 8949   2.434   4.410   2.718
 2684SOL     OW 8950   5.271   6.282   2.213
 2684SOL    HW1 8951   5.244   6.191   2.242
 2684SOL    HW2 8952   5.276   6.286   2.113
 2685SOL     OW 8953   6.679   4.642   4.985
 2685SOL    HW1 8954   6.764   4.637   5.036
 2685SOL    HW2 8955   6.692   4.696   4.902
 2686SOL     OW 8956   1.348   1.393   4.807
 2686SOL    HW1 8957   1.285   1.349   4.871
 2686SOL    HW2 8958   1.320   1.372   4.713
 2687SOL     OW 8959   3.890   1.009   1.855
 2687SOL    HW1 8960   3.894   0.911   1.836
 2687SOL    HW2 8961   3.818   1.050   1.799
 2688SOL     OW 8962   3.396   1.983   0.767
 2688SOL    HW1 8963   3.441   1.986   0.857
 2688SOL    HW2 8964   3.416   1.895   0.724
 2689SOL     OW 8965   0.756   4.209   2.610
 2689SOL    HW1 8966   0.674   4.263   2.626
 2689SOL    HW2 8967   0.754   4.170   2.518
 2690SOL     OW 8968   3.305   2.326   6.323
 2690SOL    HW1 8969   3.393   2.331   6.274
 2690SOL    HW2 8970   3.313   2.377   6.409
 2691SOL     OW 8971   0.389   4.523   3.568
 2691SOL    HW1 8972   0.400   4.527   3.667
 2691SOL    HW2 8973   0.436   4.442   3.532
 2692SOL     OW 8974   2.730   5.926   3.353
 2692SOL    HW1 8975   2.651   5.869   3.370
 2692SOL    HW2 8976   2.703   6.023   3.358
 2693SOL     OW 8977   1.722   4.943   3.777
 2693SOL    HW1 8978   1.750   4.976   3.687
 2693SOL    HW2 8979   1.735   5.016   3.844
 2694SOL     OW 8980   4.097   6.182   3.571
 2694SOL    HW1 8981   4.069   6.114   3.639
 2694SOL    HW2 8982   4.150   6.253   3.616
 2695SOL     OW 8983   6.602   6.948   2.671
 2695SOL    HW1 8984   6.645   6.970   2.759
 2695SOL    HW2 8985   6.650   6.871   2.630
 2696SOL     OW 8986   4.529   3.793   6.581
 2696SOL    HW1 8987   4.497   3.810   6.488
 2696SOL    HW2 8988   4.494   3.865   6.642
 2697SOL     OW 8989   4.335   1.501   1.135
 2697SOL    HW1 8990   4.420   1.502   1.081
 2697SOL    HW2 8991   4.316   1.593   1.169
 2698SOL     OW 8992   1.375   4.821   5.955
 2698SOL    HW1 8993   1.370   4.730   5.915
 2698SOL    HW2 8994   1.348   4.816   6.051
 2699SOL     OW 8995   2.828   5.921   1.994
 2699SOL    HW1 8996   2.749   5.965   2.035
 2699SOL    HW2 8997   2.897   5.989   1.971
 2700SOL     OW 8998   2.617   2.075   1.052
 2700SOL    HW1 8999   2.519   2.057   1.039
 2700SOL    HW2 9000   2.668   1.990   1.047
 2701SOL     OW 9001   5.066   2.477   4.845
 2701SOL    HW1 9002   4.988   2.441   4.896
 2701SOL    HW2 9003   5.142   2.412   4.852
 2702SOL     OW 9004   2.021   1.358   4.012
 2702SOL    HW1 9005   2.032   1.274   3.959
 2702SOL    HW2 9006   2.111   1.399   4.029
 2703SOL     OW 9007   1.554   5.519   1.443
 2703SOL    HW1 9008   1.490   5.581   1.488
 2703SOL    HW2 9009   1.504   5.457   1.383
 2704SOL     OW 9010   0.197   5.680   3.173
 2704SOL    HW1 9011   0.192   5.747   3.248
 2704SOL    HW2 9012   0.133   5.605   3.191
 2705SOL     OW 9013   6.928   1.527   5.533
 2705SOL    HW1 9014   6.982   1.609   5.553
 2705SOL    HW2 9015   6.871   1.543   5.452
 2706SOL     OW 9016   5.901   4.389   4.215
 2706SOL    HW1 9017   5.904   4.300   4.169
 2706SOL    HW2 9018   5.869   4.459   4.152
 2707SOL     OW 9019   4.062   6.775   3.260
 2707SOL    HW1 9020   4.052   6.819   3.171
 2707SOL    HW2 9021   4.122   6.829   3.318
 2708SOL     OW 9022   5.933   3.221   0.395
 2708SOL    HW1 9023   5.924   3.314   0.429
 2708SOL    HW2 9024   6.026   3.207   0.361
 2709SOL     OW 9025   5.268   6.782   6.328
 2709SOL    HW1 9026   5.316   6.775   6.416
 2709SOL    HW2 9027   5.169   6.775   6.344
 2710SOL     OW 9028   1.711   2.762   3.884
 2710SOL    HW1 9029   1.723   2.678   3.938
 2710SOL    HW2 9030   1.636   2.749   3.819
 2711SOL     OW 9031   3.306   1.855   3.709
 2711SOL    HW1 9032   3.381   1.922   3.712
 2711SOL    HW2 9033   3.221   1.902   3.687
 2712SOL     OW 9034   3.398   5.475   2.296
 2712SOL    HW1 9035   3.357   5.444   2.210
 2712SOL    HW2 9036   3.439   5.565   2.282
 2713SOL     OW 9037   4.510   4.602   6.252
 2713SOL    HW1 9038   4.573   4.545   6.199
 2713SOL    HW2 9039   4.485   4.682   6.198
 2714SOL     OW 9040   3.537   3.933   6.685
 2714SOL    HW1 9041   3.581   3.867   6.624
 2714SOL    HW2 9042   3.540   4.024   6.644
 2715SOL     OW 9043   5.374   1.833   0.975
 2715SOL    HW1 9044   5.459   1.885   0.988
 2715SOL    HW2 9045   5.325   1.828   1.062
 2716SOL     OW 9046   4.565   2.298   2.520
 2716SOL    HW1 9047   4.487   2.315   2.581
 2716SOL    HW2 9048   4.560   2.359   2.441
 2717SOL     OW 9049   0.633   0.593   1.907
 2717SOL    HW1 9050   0.690   0.519   1.870
 2717SOL    HW2 9051   0.602   0.568   1.998
 2718SOL     OW 9052   0.563   0.876   5.894
 2718SOL    HW1 9053   0.601   0.885   5.801
 2718SOL    HW2 9054   0.610   0.939   5.955
 2719SOL     OW 9055   1.403   4.479   2.765
 2719SOL    HW1 9056   1.426   4.433   2.851
 2719SOL    HW2 9057   1.425   4.418   2.688
 2720SOL     OW 9058   0.622   0.020   5.012
 2720SOL    HW1 9059   0.671   0.108   5.013
 2720SOL    HW2 9060   0.524   0.036   5.023
 2721SOL     OW 9061   3.245   6.404   1.398
 2721SOL    HW1 9062   3.337   6.383   1.429
 2721SOL    HW2 9063   3.204   6.472   1.460
 2722SOL     OW 9064   4.858   5.958   6.662
 2722SOL    HW1 9065   4.882   5.998   6.574
 2722SOL    HW2 9066   4.899   6.011   6.735
 2723SOL     OW 9067   3.238   6.885   0.014
 2723SOL    HW1 9068   3.334   6.856   0.009
 2723SOL    HW2 9069   3.224   6.940   0.095
 2724SOL     OW 9070   1.336   6.027   6.357
 2724SOL    HW1 9071   1.326   5.933   6.323
 2724SOL    HW2 9072   1.397   6.027   6.436
 2725SOL     OW 9073   5.243   4.136   4.089
 2725SOL    HW1 9074   5.324   4.193   4.075
 2725SOL    HW2 9075   5.202   4.116   4.000
 2726SOL     OW 9076   0.966   1.568   1.219
 2726SOL    HW1 9077   0.942   1.630   1.144
 2726SOL    HW2 9078   1.036   1.610   1.276
 2727SOL     OW 9079   2.203   4.168   4.293
 2727SOL    HW1 9080   2.217   4.116   4.378
 2727SOL    HW2 9081   2.171   4.106   4.222
 2728SOL     OW 9082   5.654   6.116   6.544
 2728SOL    HW1 9083   5.723   6.086   6.477
 2728SOL    HW2 9084   5.698   6.129   6.633
 2729SOL     OW 9085   5.900   6.482   0.008
 2729SOL    HW1 9086   5.917   6.578   7.006
 2729SOL    HW2 9087   5.956   6.458   0.087
 2730SOL     OW 9088   0.519   5.255   1.618
 2730SOL    HW1 9089   0.523   5.322   1.692
 2730SOL    HW2 9090   0.432   5.206   1.623
 2731SOL     OW 9091   3.052   3.117   3.394
 2731SOL    HW1 9092   3.134   3.112   3.451
 2731SOL    HW2 9093   3.078   3.126   3.298
 2732SOL     OW 9094   4.825   1.189   1.208
 2732SOL    HW1 9095   4.872   1.101   1.216
 2732SOL    HW2 9096   4.831   1.221   1.113
 2733SOL     OW 9097   6.907   1.328   5.742
 2733SOL    HW1 9098   6.938   1.343   5.836
 2733SOL    HW2 9099   6.878   1.414   5.702
 2734SOL     OW 9100   3.646   6.535   1.617
 2734SOL    HW1 9101   3.745   6.535   1.610
 2734SOL    HW2 9102   3.618   6.590   1.696
 2735SOL     OW 9103   1.355   2.107   0.379
 2735SOL    HW1 9104   1.401   2.033   0.329
 2735SOL    HW2 9105   1.412   2.189   0.378
 2736SOL     OW 9106   5.693   5.876   4.215
 2736SOL    HW1 9107   5.724   5.847   4.306
 2736SOL    HW2 9108   5.598   5.845   4.202
 2737SOL     OW 9109   2.857   2.183   6.083
 2737SOL    HW1 9110   2.943   2.191   6.133
 2737SOL    HW2 9111   2.789   2.243   6.125
 2738SOL     OW 9112   5.890   0.073   1.608
 2738SOL    HW1 9113   5.977   0.108   1.642
 2738SOL    HW2 9114   5.860   0.128   1.530
 2739SOL     OW 9115   1.194   5.410   1.151
 2739SOL    HW1 9116   1.153   5.501   1.149
 2739SOL    HW2 9117   1.145   5.349   1.089
 2740SOL     OW 9118   0.085   5.169   2.449
 2740SOL    HW1 9119   0.038   5.112   2.517
 2740SOL    HW2 9120   0.134   5.111   2.385
 2741SOL     OW 9121   1.379   2.128   4.304
 2741SOL    HW1 9122   1.395   2.224   4.280
 2741SOL    HW2 9123   1.307   2.123   4.374
 2742SOL     OW 9124   3.264   4.657   1.709
 2742SOL    HW1 9125   3.273   4.691   1.616
 2742SOL    HW2 9126   3.355   4.651   1.751
 2743SOL     OW 9127   7.013   4.787   2.138
 2743SOL    HW1 9128   6.995   4.690   2.151
 2743SOL    HW2 9129   0.063   4.799   2.070
 2744SOL     OW 9130   3.500   3.218   2.454
 2744SOL    HW1 9131   3.456   3.206   2.543
 2744SOL    HW2 9132   3.584   3.271   2.466
 2745SOL     OW 9133   6.450   1.675   5.689
 2745SOL    HW1 9134   6.512   1.753   5.702
 2745SOL    HW2 9135   6.389   1.669   5.768
 2746SOL     OW 9136   0.811   1.108   4.203
 2746SOL    HW1 9137   0.752   1.154   4.269
 2746SOL    HW2 9138   0.900   1.088   4.245
 2747SOL     OW 9139   3.889   5.880   6.853
 2747SOL    HW1 9140   3.900   5.812   6.926
 2747SOL    HW2 9141   3.797   5.874   6.815
 2748SOL     OW 9142   4.353   0.687   1.360
 2748SOL    HW1 9143   4.317   0.708   1.451
 2748SOL    HW2 9144   4.297   0.616   1.318
 2749SOL     OW 9145   0.977   3.747   0.395
 2749SOL    HW1 9146   0.946   3.678   0.460
 2749SOL    HW2 9147   1.052   3.710   0.341
 2750SOL     OW 9148   2.601   5.139   1.789
 2750SOL    HW1 9149   2.643   5.227   1.809
 2750SOL    HW2 9150   2.505   5.139   1.817
 2751SOL     OW 9151   2.106   1.801   1.569
 2751SOL    HW1 9152   2.149   1.799   1.659
 2751SOL    HW2 9153   2.165   1.755   1.502
 2752SOL     OW 9154   4.129   4.500   6.032
 2752SOL    HW1 9155   4.102   4.585   5.986
 2752SOL    HW2 9156   4.075   4.424   5.994
 2753SOL     OW 9157   6.180   6.128   5.009
 2753SOL    HW1 9158   6.083   6.136   4.988
 2753SOL    HW2 9159   6.196   6.158   5.103
 2754SOL     OW 9160   0.853   6.499   6.659
 2754SOL    HW1 9161   0.820   6.512   6.753
 2754SOL    HW2 9162   0.902   6.582   6.630
 2755SOL     OW 9163   2.674   6.824   2.613
 2755SOL    HW1 9164   2.660   6.729   2.584
 2755SOL    HW2 9165   2.770   6.849   2.602
 2756SOL     OW 9166   4.499   6.285   0.706
 2756SOL    HW1 9167   4.402   6.260   0.716
 2756SOL    HW2 9168   4.521   6.293   0.608
 2757SOL     OW 9169   1.686   5.291   0.291
 2757SOL    HW1 9170   1.741   5.358   0.342
 2757SOL    HW2 9171   1.645   5.226   0.355
 2758SOL     OW 9172   5.393   0.272   4.760
 2758SOL    HW1 9173   5.396   0.224   4.847
 2758SOL    HW2 9174   5.384   0.371   4.777
 2759SOL     OW 9175   5.336   6.157   4.183
 2759SOL    HW1 9176   5.292   6.077   4.225
 2759SOL    HW2 9177   5.432   6.161   4.211
 2760SOL     OW 9178   1.309   5.444   2.247
 2760SOL    HW1 9179   1.249   5.364   2.256
 2760SOL    HW2 9180   1.402   5.419   2.275
 2761SOL     OW 9181   1.890   4.757   3.886
 2761SOL    HW1 9182   1.988   4.779   3.888
 2761SOL    HW2 9183   1.843   4.823   3.827
 2762SOL     OW 9184   0.764   0.499   5.367
 2762SOL    HW1 9185   0.754   0.483   5.465
 2762SOL    HW2 9186   0.684   0.547   5.332
 2763SOL     OW 9187   5.695   2.228   4.068
 2763SOL    HW1 9188   5.737   2.144   4.101
 2763SOL    HW2 9189   5.627   2.205   3.998
 2764SOL     OW 9190   5.544   0.179   1.362
 2764SOL    HW1 9191   5.476   0.210   1.295
 2764SOL    HW2 9192   5.497   0.134   1.438
 2765SOL     OW 9193   5.296   0.724   1.328
 2765SOL    HW1 9194   5.207   0.716   1.373
 2765SOL    HW2 9195   5.348   0.799   1.370
 2766SOL     OW 9196   5.684   1.935   0.602
 2766SOL    HW1 9197   5.765   1.989   0.582
 2766SOL    HW2 9198   5.664   1.874   0.525
 2767SOL     OW 9199   6.895   4.668   7.011
 2767SOL    HW1 9200   6.821   4.729   6.983
 2767SOL    HW2 9201   6.919   4.608   6.934
 2768SOL     OW 9202   5.715   1.433   0.315
 2768SOL    HW1 9203   5.784   1.364   0.338
 2768SOL    HW2 9204   5.719   1.508   0.381
 2769SOL     OW 9205   6.222   4.366   3.770
 2769SOL    HW1 9206   6.176   4.312   3.699
 2769SOL    HW2 9207   6.311   4.396   3.738
 2770SOL     OW 9208   1.708   5.625   6.866
 2770SOL    HW1 9209   1.668   5.589   6.782
 2770SOL    HW2 9210   1.779   5.562   6.898
 2771SOL     OW 9211   5.219   1.222   1.415
 2771SOL    HW1 9212   5.204   1.307   1.464
 2771SOL    HW2 9213   5.297   1.173   1.455
 2772SOL     OW 9214   4.773   2.387   0.502
 2772SOL    HW1 9215   4.831   2.418   0.427
 2772SOL    HW2 9216   4.677   2.402   0.479
 2773SOL     OW 9217   4.419   3.251   5.980
 2773SOL    HW1 9218   4.481   3.327   5.957
 2773SOL    HW2 9219   4.359   3.233   5.902
 2774SOL     OW 9220   6.279   2.996   2.966
 2774SOL    HW1 9221   6.332   3.080   2.956
 2774SOL    HW2 9222   6.183   3.018   2.983
 2775SOL     OW 9223   6.968   5.769   0.705
 2775SOL    HW1 9224   6.998   5.748   0.798
 2775SOL    HW2 9225   6.874   5.802   0.707
 2776SOL     OW 9226   4.168   5.692   5.370
 2776SOL    HW1 9227   4.104   5.632   5.417
 2776SOL    HW2 9228   4.228   5.638   5.312
 2777SOL     OW 9229   3.149   1.045   2.384
 2777SOL    HW1 9230   3.134   0.950   2.410
 2777SOL    HW2 9231   3.214   1.088   2.448
 2778SOL     OW 9232   1.868   1.193   5.390
 2778SOL    HW1 9233   1.951   1.189   5.335
 2778SOL    HW2 9234   1.875   1.126   5.464
 2779SOL     OW 9235   4.263   0.240   0.498
 2779SOL    HW1 9236   4.351   0.249   0.544
 2779SOL    HW2 9237   4.266   0.163   0.434
 2780SOL     OW 9238   6.074   5.840   5.560
 2780SOL    HW1 9239   6.026   5.789   5.631
 2780SOL    HW2 9240   6.145   5.781   5.520
 2781SOL     OW 9241   6.140   5.222   1.739
 2781SOL    HW1 9242   6.110   5.287   1.808
 2781SOL    HW2 9243   6.196   5.269   1.670
 2782SOL     OW 9244   3.304   2.471   6.558
 2782SOL    HW1 9245   3.254   2.555   6.580
 2782SOL    HW2 9246   3.385   2.464   6.616
 2783SOL     OW 9247   6.034   2.882   5.043
 2783SOL    HW1 9248   5.962   2.865   4.976
 2783SOL    HW2 9249   6.114   2.919   4.997
 2784SOL     OW 9250   2.336   2.342   1.151
 2784SOL    HW1 9251   2.396   2.396   1.211
 2784SOL    HW2 9252   2.249   2.391   1.139
 2785SOL     OW 9253   6.439   1.007   0.230
 2785SOL    HW1 9254   6.343   1.009   0.202
 2785SOL    HW2 9255   6.494   0.966   0.158
 2786SOL     OW 9256   3.411   0.104   1.360
 2786SOL    HW1 9257   3.328   0.115   1.305
 2786SOL    HW2 9258   3.487   0.078   1.301
 2787SOL     OW 9259   2.558   3.234   6.651
 2787SOL    HW1 9260   2.510   3.214   6.736
 2787SOL    HW2 9261   2.519   3.177   6.578
 2788SOL     OW 9262   2.384   4.090   0.182
 2788SOL    HW1 9263   2.344   4.119   0.269
 2788SOL    HW2 9264   2.348   4.147   0.108
 2789SOL     OW 9265   1.746   1.835   3.940
 2789SOL    HW1 9266   1.684   1.774   3.891
 2789SOL    HW2 9267   1.759   1.801   4.033
 2790SOL     OW 9268   3.476   5.223   2.637
 2790SOL    HW1 9269   3.388   5.209   2.591
 2790SOL    HW2 9270   3.543   5.157   2.602
 2791SOL     OW 9271   1.739   4.100   5.092
 2791SOL    HW1 9272   1.745   4.013   5.043
 2791SOL    HW2 9273   1.791   4.169   5.043
 2792SOL     OW 9274   1.376   0.267   5.110
 2792SOL    HW1 9275   1.457   0.238   5.161
 2792SOL    HW2 9276   1.304   0.294   5.173
 2793SOL     OW 9277   4.992   2.164   2.229
 2793SOL    HW1 9278   4.964   2.068   2.231
 2793SOL    HW2 9279   5.069   2.175   2.165
 2794SOL     OW 9280   0.022   2.831   0.380
 2794SOL    HW1 9281   6.955   2.837   0.334
 2794SOL    HW2 9282   0.078   2.763   0.333
 2795SOL     OW 9283   2.975   4.171   1.464
 2795SOL    HW1 9284   3.009   4.218   1.545
 2795SOL    HW2 9285   3.051   4.146   1.405
 2796SOL     OW 9286   6.377   4.111   2.684
 2796SOL    HW1 9287   6.424   4.145   2.765
 2796SOL    HW2 9288   6.278   4.116   2.698
 2797SOL     OW 9289   5.500   5.819   5.036
 2797SOL    HW1 9290   5.575   5.816   4.970
 2797SOL    HW2 9291   5.503   5.905   5.086
 2798SOL     OW 9292   1.026   4.230   2.528
 2798SOL    HW1 9293   0.933   4.251   2.557
 2798SOL    HW2 9294   1.041   4.132   2.534
 2799SOL     OW 9295   0.382   6.090   6.948
 2799SOL    HW1 9296   0.437   6.158   6.900
 2799SOL    HW2 9297   0.348   6.022   6.883
 2800SOL     OW 9298   4.660   4.265   6.431
 2800SOL    HW1 9299   4.623   4.247   6.340
 2800SOL    HW2 9300   4.587   4.257   6.499
 2801SOL     OW 9301   4.394   6.106   3.827
 2801SOL    HW1 9302   4.397   6.030   3.891
 2801SOL    HW2 9303   4.405   6.072   3.733
 2802SOL     OW 9304   4.502   3.223   6.456
 2802SOL    HW1 9305   4.424   3.183   6.408
 2802SOL    HW2 9306   4.487   3.321   6.470
 2803SOL     OW 9307   2.325   6.354   5.850
 2803SOL    HW1 9308   2.288   6.356   5.943
 2803SOL    HW2 9309   2.396   6.424   5.841
 2804SOL     OW 9310   6.629   4.404   3.615
 2804SOL    HW1 9311   6.635   4.362   3.524
 2804SOL    HW2 9312   6.677   4.347   3.682
 2805SOL     OW 9313   4.472   3.696   1.412
 2805SOL    HW1 9314   4.444   3.785   1.377
 2805SOL    HW2 9315   4.569   3.700   1.439
 2806SOL     OW 9316   5.732   5.094   3.510
 2806SOL    HW1 9317   5.643   5.105   3.554
 2806SOL    HW2 9318   5.772   5.006   3.538
 2807SOL     OW 9319   5.403   4.742   3.601
 2807SOL    HW1 9320   5.388   4.700   3.512
 2807SOL    HW2 9321   5.387   4.841   3.595
 2808SOL     OW 9322   3.946   1.383   3.099
 2808SOL    HW1 9323   4.044   1.385   3.119
 2808SOL    HW2 9324   3.902   1.314   3.155
 2809SOL     OW 9325   6.563   2.640   1.262
 2809SOL    HW1 9326   6.566   2.697   1.344
 2809SOL    HW2 9327   6.652   2.595   1.250
 2810SOL     OW 9328   3.528   6.484   4.657
 2810SOL    HW1 9329   3.535   6.575   4.616
 2810SOL    HW2 9330   3.562   6.415   4.592
 2811SOL     OW 9331   0.845   0.746   2.903
 2811SOL    HW1 9332   0.886   0.802   2.831
 2811SOL    HW2 9333   0.856   0.792   2.991
 2812SOL     OW 9334   5.144   3.510   1.960
 2812SOL    HW1 9335   5.186   3.592   1.923
 2812SOL    HW2 9336   5.045   3.516   1.950
 2813SOL     OW 9337   6.066   6.853   5.747
 2813SOL    HW1 9338   6.145   6.877   5.690
 2813SOL    HW2 9339   5.982   6.868   5.696
 2814SOL     OW 9340   4.346   3.033   0.022
 2814SOL    HW1 9341   4.252   3.065   0.010
 2814SOL    HW2 9342   4.355   2.988   0.110
 2815SOL     OW 9343   0.051   1.252   4.736
 2815SOL    HW1 9344   0.006   1.291   4.816
 2815SOL    HW2 9345   7.016   1.266   4.655
 2816SOL     OW 9346   6.700   6.119   3.759
 2816SOL    HW1 9347   6.776   6.099   3.697
 2816SOL    HW2 9348   6.619   6.070   3.728
 2817SOL     OW 9349   1.449   0.057   1.563
 2817SOL    HW1 9350   1.538   0.092   1.590
 2817SOL    HW2 9351   1.457   0.008   1.476
 2818SOL     OW 9352   6.911   5.395   0.028
 2818SOL    HW1 9353   6.849   5.459   7.004
 2818SOL    HW2 9354   6.863   5.349   0.102
 2819SOL     OW 9355   0.512   2.239   0.619
 2819SOL    HW1 9356   0.438   2.303   0.641
 2819SOL    HW2 9357   0.476   2.164   0.564
 2820SOL     OW 9358   0.831   2.578   2.549
 2820SOL    HW1 9359   0.819   2.591   2.451
 2820SOL    HW2 9360   0.858   2.665   2.591
 2821SOL     OW 9361   3.239   4.212   6.554
 2821SOL    HW1 9362   3.266   4.244   6.646
 2821SOL    HW2 9363   3.190   4.286   6.507
 2822SOL     OW 9364   3.795   2.410   0.374
 2822SOL    HW1 9365   3.891   2.381   0.367
 2822SOL    HW2 9366   3.737   2.329   0.383
 2823SOL     OW 9367   2.225   6.464   1.449
 2823SOL    HW1 9368   2.222   6.561   1.474
 2823SOL    HW2 9369   2.136   6.422   1.467
 2824SOL     OW 9370   2.466   1.321   5.093
 2824SOL    HW1 9371   2.563   1.337   5.071
 2824SOL    HW2 9372   2.409   1.371   5.028
 2825SOL     OW 9373   6.301   6.834   0.538
 2825SOL    HW1 9374   6.263   6.817   0.447
 2825SOL    HW2 9375   6.275   6.760   0.600
 2826SOL     OW 9376   5.326   2.207   6.261
 2826SOL    HW1 9377   5.315   2.213   6.162
 2826SOL    HW2 9378   5.416   2.171   6.283
 2827SOL     OW 9379   6.804   1.165   5.518
 2827SOL    HW1 9380   6.778   1.228   5.592
 2827SOL    HW2 9381   6.845   1.217   5.443
 2828SOL     OW 9382   3.677   1.083   6.407
 2828SOL    HW1 9383   3.654   1.055   6.500
 2828SOL    HW2 9384   3.636   1.173   6.388
 2829SOL     OW 9385   4.037   4.131   6.284
 2829SOL    HW1 9386   3.961   4.094   6.338
 2829SOL    HW2 9387   4.092   4.191   6.341
 2830SOL     OW 9388   6.922   4.509   6.796
 2830SOL    HW1 9389   6.941   4.529   6.700
 2830SOL    HW2 9390   6.918   4.410   6.809
 2831SOL     OW 9391   7.021   6.117   4.305
 2831SOL    HW1 9392   0.004   6.018   4.312
 2831SOL    HW2 9393   0.053   6.159   4.378
 2832SOL     OW 9394   0.669   1.087   1.274
 2832SOL    HW1 9395   0.625   1.132   1.351
 2832SOL    HW2 9396   0.758   1.052   1.302
 2833SOL     OW 9397   5.362   1.660   2.343
 2833SOL    HW1 9398   5.385   1.597   2.269
 2833SOL    HW2 9399   5.263   1.669   2.349
 2834SOL     OW 9400   2.719   0.724   5.857
 2834SOL    HW1 9401   2.686   0.767   5.773
 2834SOL    HW2 9402   2.661   0.752   5.934
 2835SOL     OW 9403   0.344   7.022   1.590
 2835SOL    HW1 9404   0.411   6.966   1.639
 2835SOL    HW2 9405   0.391   0.054   1.520
 2836SOL     OW 9406   6.809   0.069   1.192
 2836SOL    HW1 9407   6.843   0.156   1.156
 2836SOL    HW2 9408   6.846   0.055   1.284
 2837SOL     OW 9409   5.844   3.166   3.134
 2837SOL    HW1 9410   5.837   3.068   3.119
 2837SOL    HW2 9411   5.853   3.213   3.047
 2838SOL     OW 9412   1.941   4.042   1.806
 2838SOL    HW1 9413   1.846   4.032   1.779
 2838SOL    HW2 9414   1.999   4.045   1.724
 2839SOL     OW 9415   5.832   1.301   2.109
 2839SOL    HW1 9416   5.856   1.364   2.035
 2839SOL    HW2 9417   5.789   1.353   2.183
 2840SOL     OW 9418   0.578   0.831   4.226
 2840SOL    HW1 9419   0.677   0.848   4.222
 2840SOL    HW2 9420   0.530   0.918   4.238
 2841SOL     OW 9421   6.935   0.938   6.205
 2841SOL    HW1 9422   6.849   0.961   6.160
 2841SOL    HW2 9423   6.935   0.841   6.229
 2842SOL     OW 9424   0.149   2.010   4.043
 2842SOL    HW1 9425   0.082   1.991   3.971
 2842SOL    HW2 9426   0.237   2.033   4.001
 2843SOL     OW 9427   3.115   1.607   4.006
 2843SOL    HW1 9428   3.099   1.703   3.983
 2843SOL    HW2 9429   3.143   1.600   4.101
 2844SOL     OW 9430   1.061   3.975   0.479
 2844SOL    HW1 9431   1.032   3.883   0.454
 2844SOL    HW2 9432   1.160   3.983   0.473
 2845SOL     OW 9433   1.016   3.470   0.826
 2845SOL    HW1 9434   0.977   3.561   0.836
 2845SOL    HW2 9435   1.050   3.438   0.914
 2846SOL     OW 9436   5.034   1.684   6.931
 2846SOL    HW1 9437   4.977   1.632   6.995
 2846SOL    HW2 9438   5.071   1.621   6.862
 2847SOL     OW 9439   5.166   3.613   3.660
 2847SOL    HW1 9440   5.093   3.559   3.618
 2847SOL    HW2 9441   5.138   3.639   3.753
 2848SOL     OW 9442   0.167   4.795   6.201
 2848SOL    HW1 9443   0.173   4.718   6.137
 2848SOL    HW2 9444   0.235   4.864   6.177
 2849SOL     OW 9445   3.449   0.454   1.135
 2849SOL    HW1 9446   3.388   0.519   1.181
 2849SOL    HW2 9447   3.426   0.450   1.038
 2850SOL     OW 9448   3.591   0.546   1.705
 2850SOL    HW1 9449   3.545   0.478   1.648
 2850SOL    HW2 9450   3.523   0.604   1.750
 2851SOL     OW 9451   0.843   4.295   5.378
 2851SOL    HW1 9452   0.788   4.238   5.439
 2851SOL    HW2 9453   0.937   4.300   5.412
 2852SOL     OW 9454   5.547   4.249   7.011
 2852SOL    HW1 9455   5.564   4.299   0.074
 2852SOL    HW2 9456   5.455   4.210   7.014
 2853SOL     OW 9457   2.925   2.296   6.801
 2853SOL    HW1 9458   2.883   2.321   6.889
 2853SOL    HW2 9459   2.909   2.199   6.783
 2854SOL     OW 9460   3.008   1.445   4.285
 2854SOL    HW1 9461   3.026   1.371   4.220
 2854SOL    HW2 9462   2.910   1.450   4.304
 2855SOL     OW 9463   1.890   0.988   5.563
 2855SOL    HW1 9464   1.984   1.016   5.583
 2855SOL    HW2 9465   1.834   1.000   5.644
 2856SOL     OW 9466   1.994   2.933   6.042
 2856SOL    HW1 9467   1.922   2.973   6.099
 2856SOL    HW2 9468   2.083   2.967   6.073
 2857SOL     OW 9469   3.207   1.766   1.770
 2857SOL    HW1 9470   3.179   1.779   1.865
 2857SOL    HW2 9471   3.241   1.673   1.758
 2858SOL     OW 9472   6.313   3.591   2.035
 2858SOL    HW1 9473   6.267   3.673   2.067
 2858SOL    HW2 9474   6.319   3.525   2.110
 2859SOL     OW 9475   5.230   2.013   0.777
 2859SOL    HW1 9476   5.285   2.026   0.694
 2859SOL    HW2 9477   5.278   1.951   0.839
 2860SOL     OW 9478   3.803   1.738   1.019
 2860SOL    HW1 9479   3.770   1.767   1.108
 2860SOL    HW2 9480   3.903   1.726   1.023
 2861SOL     OW 9481   4.690   5.607   5.534
 2861SOL    HW1 9482   4.596   5.584   5.561
 2861SOL    HW2 9483   4.747   5.525   5.540
 2862SOL     OW 9484   5.585   1.449   3.127
 2862SOL    HW1 9485   5.638   1.365   3.127
 2862SOL    HW2 9486   5.645   1.527   3.148
 2863SOL     OW 9487   5.742   1.319   6.940
 2863SOL    HW1 9488   5.799   1.399   6.960
 2863SOL    HW2 9489   5.798   1.237   6.943
 2864SOL     OW 9490   3.924   0.496   1.234
 2864SOL    HW1 9491   3.843   0.445   1.206
 2864SOL    HW2 9492   3.915   0.592   1.206
 2865SOL     OW 9493   4.950   4.659   5.538
 2865SOL    HW1 9494   4.852   4.655   5.522
 2865SOL    HW2 9495   4.999   4.619   5.462
 2866SOL     OW 9496   6.353   6.567   0.285
 2866SOL    HW1 9497   6.452   6.575   0.280
 2866SOL    HW2 9498   6.323   6.581   0.380
 2867SOL     OW 9499   5.805   3.835   1.979
 2867SOL    HW1 9500   5.851   3.788   1.903
 2867SOL    HW2 9501   5.832   3.793   2.065
 2868SOL     OW 9502   0.448   3.244   5.220
 2868SOL    HW1 9503   0.529   3.297   5.194
 2868SOL    HW2 9504   0.367   3.283   5.177
 2869SOL     OW 9505   6.272   1.245   3.093
 2869SOL    HW1 9506   6.213   1.326   3.089
 2869SOL    HW2 9507   6.258   1.198   3.180
 2870SOL     OW 9508   6.943   1.348   4.499
 2870SOL    HW1 9509   6.980   1.282   4.433
 2870SOL    HW2 9510   6.961   1.441   4.466
 2871SOL     OW 9511   2.155   1.529   6.594
 2871SOL    HW1 9512   2.122   1.618   6.563
 2871SOL    HW2 9513   2.217   1.490   6.526
 2872SOL     OW 9514   2.607   1.644   4.070
 2872SOL    HW1 9515   2.554   1.655   3.986
 2872SOL    HW2 9516   2.697   1.606   4.049
 2873SOL     OW 9517   1.052   5.141   3.567
 2873SOL    HW1 9518   1.015   5.220   3.617
 2873SOL    HW2 9519   1.057   5.163   3.470
 2874SOL     OW 9520   4.729   5.546   2.365
 2874SOL    HW1 9521   4.820   5.533   2.403
 2874SOL    HW2 9522   4.735   5.600   2.281
 2875SOL     OW 9523   4.389   6.384   6.486
 2875SOL    HW1 9524   4.368   6.409   6.392
 2875SOL    HW2 9525   4.453   6.307   6.486
 2876SOL     OW 9526   0.596   0.169   1.787
 2876SOL    HW1 9527   0.573   0.072   1.775
 2876SOL    HW2 9528   0.653   0.199   1.710
 2877SOL     OW 9529   3.411   2.820   5.435
 2877SOL    HW1 9530   3.359   2.745   5.395
 2877SOL    HW2 9531   3.473   2.785   5.505
 2878SOL     OW 9532   3.768   4.967   4.489
 2878SOL    HW1 9533   3.744   4.973   4.586
 2878SOL    HW2 9534   3.685   4.959   4.434
 2879SOL     OW 9535   5.117   5.340   0.200
 2879SOL    HW1 9536   5.168   5.355   0.284
 2879SOL    HW2 9537   5.019   5.339   0.220
 2880SOL     OW 9538   5.974   6.632   0.545
 2880SOL    HW1 9539   5.903   6.626   0.615
 2880SOL    HW2 9540   5.939   6.682   0.465
 2881SOL     OW 9541   5.501   5.915   0.743
 2881SOL    HW1 9542   5.515   5.869   0.830
 2881SOL    HW2 9543   5.475   6.010   0.759
 2882SOL     OW 9544   0.848   3.387   2.708
 2882SOL    HW1 9545   0.800   3.301   2.728
 2882SOL    HW2 9546   0.818   3.458   2.773
 2883SOL     OW 9547   4.844   6.848   3.881
 2883SOL    HW1 9548   4.924   6.875   3.935
 2883SOL    HW2 9549   4.813   6.926   3.827
 2884SOL     OW 9550   0.715   5.755   3.150
 2884SOL    HW1 9551   0.803   5.800   3.140
 2884SOL    HW2 9552   0.695   5.740   3.247
 2885SOL     OW 9553   6.953   2.559   2.866
 2885SOL    HW1 9554   0.003   2.541   2.799
 2885SOL    HW2 9555   6.942   2.478   2.924
 2886SOL     OW 9556   2.189   3.331   6.728
 2886SOL    HW1 9557   2.239   3.391   6.666
 2886SOL    HW2 9558   2.112   3.382   6.768
 2887SOL     OW 9559   2.188   7.008   5.246
 2887SOL    HW1 9560   2.208   0.082   5.235
 2887SOL    HW2 9561   2.242   6.955   5.180
 2888SOL     OW 9562   0.060   5.036   6.490
 2888SOL    HW1 9563   0.001   4.976   6.438
 2888SOL    HW2 9564   0.035   5.032   6.587
 2889SOL     OW 9565   1.691   0.653   2.189
 2889SOL    HW1 9566   1.634   0.670   2.269
 2889SOL    HW2 9567   1.672   0.722   2.119
 2890SOL     OW 9568   2.816   0.628   1.324
 2890SOL    HW1 9569   2.777   0.685   1.395
 2890SOL    HW2 9570   2.776   0.651   1.236
 2891SOL     OW 9571   2.252   4.503   3.230
 2891SOL    HW1 9572   2.272   4.572   3.161
 2891SOL    HW2 9573   2.212   4.547   3.310
 2892SOL     OW 9574   5.123   4.133   0.296
 2892SOL    HW1 9575   5.062   4.195   0.347
 2892SOL    HW2 9576   5.084   4.041   0.297
 2893SOL     OW 9577   1.662   6.676   5.105
 2893SOL    HW1 9578   1.603   6.669   5.186
 2893SOL    HW2 9579   1.628   6.750   5.046
 2894SOL     OW 9580   3.178   2.387   6.875
 2894SOL    HW1 9581   3.084   2.363   6.851
 2894SOL    HW2 9582   3.239   2.365   6.799
 2895SOL     OW 9583   4.231   3.119   6.365
 2895SOL    HW1 9584   4.211   3.038   6.311
 2895SOL    HW2 9585   4.211   3.101   6.461
 2896SOL     OW 9586   2.450   5.177   6.186
 2896SOL    HW1 9587   2.482   5.205   6.095
 2896SOL    HW2 9588   2.418   5.257   6.237
 2897SOL     OW 9589   2.342   6.092   4.039
 2897SOL    HW1 9590   2.267   6.048   4.088
 2897SOL    HW2 9591   2.429   6.054   4.071
 2898SOL     OW 9592   4.623   4.864   2.863
 2898SOL    HW1 9593   4.623   4.842   2.766
 2898SOL    HW2 9594   4.630   4.964   2.875
 2899SOL     OW 9595   0.243   1.760   6.455
 2899SOL    HW1 9596   0.313   1.830   6.445
 2899SOL    HW2 9597   0.153   1.800   6.436
 2900SOL     OW 9598   1.615   4.960   5.334
 2900SOL    HW1 9599   1.577   5.019   5.405
 2900SOL    HW2 9600   1.713   4.947   5.351
 2901SOL     OW 9601   1.719   6.789   2.636
 2901SOL    HW1 9602   1.790   6.858   2.625
 2901SOL    HW2 9603   1.653   6.796   2.561
 2902SOL     OW 9604   5.353   6.454   0.609
 2902SOL    HW1 9605   5.321   6.368   0.649
 2902SOL    HW2 9606   5.385   6.515   0.682
 2903SOL     OW 9607   3.118   6.923   1.897
 2903SOL    HW1 9608   3.180   6.852   1.930
 2903SOL    HW2 9609   3.133   6.938   1.799
 2904SOL     OW 9610   2.482   3.246   5.358
 2904SOL    HW1 9611   2.490   3.172   5.292
 2904SOL    HW2 9612   2.417   3.221   5.429
 2905SOL     OW 9613   1.423   1.604   2.903
 2905SOL    HW1 9614   1.411   1.680   2.840
 2905SOL    HW2 9615   1.335   1.558   2.917
 2906SOL     OW 9616   5.132   5.262   2.453
 2906SOL    HW1 9617   5.053   5.257   2.515
 2906SOL    HW2 9618   5.190   5.181   2.467
 2907SOL     OW 9619   6.452   0.926   4.722
 2907SOL    HW1 9620   6.490   0.850   4.776
 2907SOL    HW2 9621   6.484   1.013   4.760
 2908SOL     OW 9622   4.238   6.526   3.908
 2908SOL    HW1 9623   4.257   6.479   3.994
 2908SOL    HW2 9624   4.145   6.505   3.879
 2909SOL     OW 9625   0.325   5.123   4.670
 2909SOL    HW1 9626   0.326   5.081   4.579
 2909SOL    HW2 9627   0.383   5.204   4.670
 2910SOL     OW 9628   3.911   6.482   4.502
 2910SOL    HW1 9629   3.812   6.496   4.503
 2910SOL    HW2 9630   3.956   6.559   4.457
 2911SOL     OW 9631   2.408   5.295   3.809
 2911SOL    HW1 9632   2.328   5.270   3.864
 2911SOL    HW2 9633   2.489   5.295   3.867
 2912SOL     OW 9634   3.327   6.241   6.989
 2912SOL    HW1 9635   3.306   6.238   0.064
 2912SOL    HW2 9636   3.250   6.278   6.938
 2913SOL     OW 9637   1.974   4.890   2.858
 2913SOL    HW1 9638   2.045   4.951   2.892
 2913SOL    HW2 9639   1.884   4.924   2.887
 2914SOL     OW 9640   5.642   5.202   6.333
 2914SOL    HW1 9641   5.552   5.232   6.363
 2914SOL    HW2 9642   5.638   5.105   6.307
 2915SOL     OW 9643   4.700   2.076   4.276
 2915SOL    HW1 9644   4.610   2.032   4.267
 2915SOL    HW2 9645   4.714   2.106   4.370
 2916SOL     OW 9646   6.251   4.947   6.030
 2916SOL    HW1 9647   6.212   5.002   6.103
 2916SOL    HW2 9648   6.177   4.912   5.972
 2917SOL     OW 9649   3.876   0.449   1.491
 2917SOL    HW1 9650   3.834   0.533   1.525
 2917SOL    HW2 9651   3.905   0.462   1.396
 2918SOL     OW 9652   0.106   2.966   3.424
 2918SOL    HW1 9653   0.200   2.935   3.409
 2918SOL    HW2 9654   0.072   2.929   3.510
 2919SOL     OW 9655   6.312   0.571   0.281
 2919SOL    HW1 9656   6.309   0.480   0.238
 2919SOL    HW2 9657   6.394   0.619   0.253
 2920SOL     OW 9658   3.498   2.090   2.490
 2920SOL    HW1 9659   3.400   2.106   2.507
 2920SOL    HW2 9660   3.550   2.111   2.572
 2921SOL     OW 9661   0.115   0.754   2.800
 2921SOL    HW1 9662   0.077   0.826   2.859
 2921SOL    HW2 9663   0.191   0.791   2.747
 2922SOL     OW 9664   5.671   6.585   0.256
 2922SOL    HW1 9665   5.665   6.508   0.320
 2922SOL    HW2 9666   5.745   6.646   0.283
 2923SOL     OW 9667   0.063   5.369   2.048
 2923SOL    HW1 9668   0.029   5.402   2.136
 2923SOL    HW2 9669   0.011   5.411   1.973
 2924SOL     OW 9670   0.036   1.934   6.289
 2924SOL    HW1 9671   0.121   1.938   6.236
 2924SOL    HW2 9672   6.982   1.912   6.227
 2925SOL     OW 9673   5.435   0.790   2.885
 2925SOL    HW1 9674   5.452   0.855   2.960
 2925SOL    HW2 9675   5.465   0.831   2.799
 2926SOL     OW 9676   6.821   1.563   5.118
 2926SOL    HW1 9677   6.815   1.512   5.032
 2926SOL    HW2 9678   6.890   1.635   5.110
 2927SOL     OW 9679   1.704   1.848   2.175
 2927SOL    HW1 9680   1.732   1.759   2.138
 2927SOL    HW2 9681   1.604   1.854   2.177
 2928SOL     OW 9682   6.208   2.244   6.563
 2928SOL    HW1 9683   6.200   2.295   6.649
 2928SOL    HW2 9684   6.295   2.268   6.519
 2929SOL     OW 9685   1.029   1.278   5.671
 2929SOL    HW1 9686   0.954   1.220   5.641
 2929SOL    HW2 9687   0.993   1.356   5.723
 2930SOL     OW 9688   4.788   6.656   5.037
 2930SOL    HW1 9689   4.736   6.570   5.038
 2930SOL    HW2 9690   4.739   6.726   5.088
 2931SOL     OW 9691   4.916   6.077   6.384
 2931SOL    HW1 9692   4.918   6.148   6.314
 2931SOL    HW2 9693   4.997   6.084   6.441
 2932SOL     OW 9694   1.390   4.956   2.319
 2932SOL    HW1 9695   1.484   4.989   2.315
 2932SOL    HW2 9696   1.347   4.984   2.404
 2933SOL     OW 9697   5.259   2.774   3.889
 2933SOL    HW1 9698   5.228   2.772   3.794
 2933SOL    HW2 9699   5.180   2.783   3.949
 2934SOL     OW 9700   3.709   0.915   0.652
 2934SOL    HW1 9701   3.729   1.013   0.656
 2934SOL    HW2 9702   3.788   0.866   0.616
 2935SOL     OW 9703   6.546   2.794   1.482
 2935SOL    HW1 9704   6.510   2.887   1.478
 2935SOL    HW2 9705   6.646   2.798   1.489
 2936SOL     OW 9706   4.874   5.627   1.616
 2936SOL    HW1 9707   4.902   5.658   1.525
 2936SOL    HW2 9708   4.835   5.536   1.609
 2937SOL     OW 9709   3.485   5.072   0.793
 2937SOL    HW1 9710   3.440   5.159   0.777
 2937SOL    HW2 9711   3.499   5.024   0.706
 2938SOL     OW 9712   4.615   4.891   5.252
 2938SOL    HW1 9713   4.633   4.793   5.258
 2938SOL    HW2 9714   4.529   4.907   5.205
 2939SOL     OW 9715   0.579   6.418   4.097
 2939SOL    HW1 9716   0.634   6.353   4.045
 2939SOL    HW2 9717   0.633   6.455   4.173
 2940SOL     OW 9718   6.019   0.326   4.961
 2940SOL    HW1 9719   6.086   0.387   5.004
 2940SOL    HW2 9720   5.927   0.362   4.977
 2941SOL     OW 9721   1.874   2.332   5.642
 2941SOL    HW1 9722   1.932   2.374   5.573
 2941SOL    HW2 9723   1.845   2.241   5.611
 2942SOL     OW 9724   2.649   0.923   2.174
 2942SOL    HW1 9725   2.726   0.861   2.187
 2942SOL    HW2 9726   2.589   0.888   2.102
 2943SOL     OW 9727   5.329   3.226   3.109
 2943SOL    HW1 9728   5.251   3.270   3.064
 2943SOL    HW2 9729   5.297   3.158   3.175
 2944SOL     OW 9730   3.146   5.592   5.656
 2944SOL    HW1 9731   3.141   5.579   5.557
 2944SOL    HW2 9732   3.232   5.636   5.680
 2945SOL     OW 9733   4.150   3.467   3.459
 2945SOL    HW1 9734   4.247   3.460   3.436
 2945SOL    HW2 9735   4.095   3.450   3.377
 2946SOL     OW 9736   6.879   5.634   5.730
 2946SOL    HW1 9737   6.879   5.734   5.741
 2946SOL    HW2 9738   6.860   5.591   5.818
 2947SOL     OW 9739   0.838   4.025   0.619
 2947SOL    HW1 9740   0.794   3.948   0.573
 2947SOL    HW2 9741   0.929   4.038   0.580
 2948SOL     OW 9742   6.272   4.016   5.313
 2948SOL    HW1 9743   6.177   4.043   5.298
 2948SOL    HW2 9744   6.318   4.086   5.367
 2949SOL     OW 9745   1.939   6.099   1.229
 2949SOL    HW1 9746   1.864   6.075   1.167
 2949SOL    HW2 9747   2.019   6.126   1.175
 2950SOL     OW 9748   5.609   3.408   4.410
 2950SOL    HW1 9749   5.690   3.359   4.441
 2950SOL    HW2 9750   5.607   3.412   4.310
 2951SOL     OW 9751   0.031   2.509   6.939
 2951SOL    HW1 9752   0.064   2.447   7.010
 2951SOL    HW2 9753   0.015   2.459   6.855
 2952SOL     OW 9754   1.768   4.939   4.276
 2952SOL    HW1 9755   1.756   4.846   4.239
 2952SOL    HW2 9756   1.698   4.999   4.237
 2953SOL     OW 9757   5.215   2.576   2.341
 2953SOL    HW1 9758   5.144   2.560   2.410
 2953SOL    HW2 9759   5.180   2.639   2.272
 2954SOL     OW 9760   1.126   5.878   1.631
 2954SOL    HW1 9761   1.214   5.853   1.671
 2954SOL    HW2 9762   1.125   5.976   1.611
 2955SOL     OW 9763   0.788   3.001   0.372
 2955SOL    HW1 9764   0.710   3.041   0.421
 2955SOL    HW2 9765   0.808   3.054   0.290
 2956SOL     OW 9766   6.870   5.952   2.650
 2956SOL    HW1 9767   6.912   5.890   2.716
 2956SOL    HW2 9768   6.885   6.047   2.678
 2957SOL     OW 9769   6.804   3.523   1.065
 2957SOL    HW1 9770   6.843   3.562   0.982
 2957SOL    HW2 9771   6.807   3.423   1.059
 2958SOL     OW 9772   2.443   4.673   4.753
 2958SOL    HW1 9773   2.407   4.758   4.713
 2958SOL    HW2 9774   2.530   4.692   4.798
 2959SOL     OW 9775   5.171   4.651   6.930
 2959SOL    HW1 9776   5.190   4.599   6.846
 2959SOL    HW2 9777   5.157   4.747   6.908
 2960SOL     OW 9778   3.041   1.104   6.713
 2960SOL    HW1 9779   3.098   1.160   6.773
 2960SOL    HW2 9780   3.062   1.125   6.617
 2961SOL     OW 9781   4.981   2.558   4.578
 2961SOL    HW1 9782   5.004   2.533   4.672
 2961SOL    HW2 9783   4.882   2.573   4.570
 2962SOL     OW 9784   4.710   0.827   3.844
 2962SOL    HW1 9785   4.656   0.792   3.921
 2962SOL    HW2 9786   4.766   0.903   3.874
 2963SOL     OW 9787   1.890   1.655   5.771
 2963SOL    HW1 9788   1.977   1.685   5.731
 2963SOL    HW2 9789   1.832   1.735   5.786
 2964SOL     OW 9790   1.373   0.519   1.801
 2964SOL    HW1 9791   1.322   0.448   1.753
 2964SOL    HW2 9792   1.414   0.582   1.735
 2965SOL     OW 9793   0.028   1.305   5.436
 2965SOL    HW1 9794   7.015   1.380   5.492
 2965SOL    HW2 9795   6.996   1.298   5.353
 2966SOL     OW 9796   6.095   4.619   3.757
 2966SOL    HW1 9797   6.143   4.532   3.769
 2966SOL    HW2 9798   6.147   4.692   3.800
 2967SOL     OW 9799   6.097   3.053   3.776
 2967SOL    HW1 9800   6.030   3.109   3.727
 2967SOL    HW2 9801   6.053   2.970   3.810
 2968SOL     OW 9802   0.872   4.030   5.926
 2968SOL    HW1 9803   0.915   4.086   5.997
 2968SOL    HW2 9804   0.873   3.934   5.954
 2969SOL     OW 9805   5.349   1.045   5.042
 2969SOL    HW1 9806   5.265   1.096   5.026
 2969SOL    HW2 9807   5.427   1.094   5.002
 2970SOL     OW 9808   1.091   4.158   0.065
 2970SOL    HW1 9809   1.172   4.209   0.035
 2970SOL    HW2 9810   1.092   4.149   0.164
 2971SOL     OW 9811   5.715   2.867   4.695
 2971SOL    HW1 9812   5.650   2.791   4.704
 2971SOL    HW2 9813   5.695   2.919   4.611
 2972SOL     OW 9814   6.543   4.606   6.743
 2972SOL    HW1 9815   6.533   4.628   6.646
 2972SOL    HW2 9816   6.562   4.508   6.752
 2973SOL     OW 9817   5.674   0.628   4.480
 2973SOL    HW1 9818   5.659   0.705   4.542
 2973SOL    HW2 9819   5.618   0.550   4.509
 2974SOL     OW 9820   6.672   3.560   3.527
 2974SOL    HW1 9821   6.577   3.573   3.500
 2974SOL    HW2 9822   6.703   3.638   3.580
 2975SOL     OW 9823   0.362   1.848   5.089
 2975SOL    HW1 9824   0.319   1.933   5.057
 2975SOL    HW2 9825   0.308   1.810   5.164
 2976SOL     OW 9826   4.014   1.577   2.901
 2976SOL    HW1 9827   3.972   1.500   2.949
 2976SOL    HW2 9828   3.944   1.643   2.874
 2977SOL     OW 9829   2.196   0.187   4.468
 2977SOL    HW1 9830   2.212   0.237   4.382
 2977SOL    HW2 9831   2.243   0.233   4.543
 2978SOL     OW 9832   4.461   4.693   6.767
 2978SOL    HW1 9833   4.503   4.671   6.679
 2978SOL    HW2 9834   4.478   4.790   6.788
 2979SOL     OW 9835   4.342   6.883   4.010
 2979SOL    HW1 9836   4.317   6.963   4.064
 2979SOL    HW2 9837   4.434   6.852   4.036
 2980SOL     OW 9838   1.653   6.187   4.046
 2980SOL    HW1 9839   1.726   6.236   3.998
 2980SOL    HW2 9840   1.610   6.123   3.983
 2981SOL     OW 9841   0.777   0.146   6.404
 2981SOL    HW1 9842   0.788   0.140   6.305
 2981SOL    HW2 9843   0.708   0.080   6.434
 2982SOL     OW 9844   4.673   6.359   3.073
 2982SOL    HW1 9845   4.601   6.308   3.121
 2982SOL    HW2 9846   4.728   6.409   3.140
 2983SOL     OW 9847   0.901   0.593   3.788
 2983SOL    HW1 9848   0.845   0.517   3.821
 2983SOL    HW2 9849   0.950   0.634   3.866
 2984SOL     OW 9850   4.833   5.875   1.362
 2984SOL    HW1 9851   4.848   5.946   1.430
 2984SOL    HW2 9852   4.777   5.911   1.287
 2985SOL     OW 9853   0.994   2.159   4.275
 2985SOL    HW1 9854   0.962   2.223   4.345
 2985SOL    HW2 9855   0.927   2.154   4.201
 2986SOL     OW 9856   2.271   4.210   6.327
 2986SOL    HW1 9857   2.200   4.153   6.284
 2986SOL    HW2 9858   2.244   4.306   6.321
 2987SOL     OW 9859   4.838   1.348   3.889
 2987SOL    HW1 9860   4.845   1.253   3.858
 2987SOL    HW2 9861   4.929   1.386   3.904
 2988SOL     OW 9862   0.081   6.803   2.373
 2988SOL    HW1 9863   0.043   6.777   2.462
 2988SOL    HW2 9864   0.153   6.739   2.347
 2989SOL     OW 9865   5.677   5.864   0.996
 2989SOL    HW1 9866   5.752   5.868   0.930
 2989SOL    HW2 9867   5.702   5.805   1.072
 2990SOL     OW 9868   4.223   1.087   3.418
 2990SOL    HW1 9869   4.300   1.108   3.357
 2990SOL    HW2 9870   4.140   1.131   3.383
 2991SOL     OW 9871   0.146   3.775   0.196
 2991SOL    HW1 9872   0.131   3.772   0.295
 2991SOL    HW2 9873   0.213   3.706   0.170
 2992SOL     OW 9874   2.465   5.675   5.376
 2992SOL    HW1 9875   2.505   5.583   5.377
 2992SOL    HW2 9876   2.430   5.696   5.467
 2993SOL     OW 9877   1.110   4.659   2.121
 2993SOL    HW1 9878   1.090   4.662   2.023
 2993SOL    HW2 9879   1.161   4.741   2.147
 2994SOL     OW 9880   4.109   1.234   0.410
 2994SOL    HW1 9881   4.180   1.232   0.480
 2994SOL    HW2 9882   4.105   1.325   0.369
 2995SOL     OW 9883   0.891   2.813   6.846
 2995SOL    HW1 9884   0.942   2.770   6.920
 2995SOL    HW2 9885   0.816   2.867   6.884
 2996SOL     OW 9886   3.289   6.233   4.412
 2996SOL    HW1 9887   3.197   6.200   4.432
 2996SOL    HW2 9888   3.356   6.162   4.432
 2997SOL     OW 9889   5.067   6.016   1.894
 2997SOL    HW1 9890   5.063   5.942   1.960
 2997SOL    HW2 9891   5.116   5.986   1.812
 2998SOL     OW 9892   4.980   6.311   4.782
 2998SOL    HW1 9893   4.997   6.374   4.857
 2998SOL    HW2 9894   4.886   6.279   4.786
 2999SOL     OW 9895   3.903   6.215   3.913
 2999SOL    HW1 9896   3.823   6.230   3.971
 2999SOL    HW2 9897   3.953   6.135   3.946
 3000SOL     OW 9898   1.754   4.105   6.170
 3000SOL    HW1 9899   1.811   4.153   6.237
 3000SOL    HW2 9900   1.813   4.065   6.099
 3001SOL     OW 9901   5.439   0.074   6.870
 3001SOL    HW1 9902   5.368   0.143   6.854
 3001SOL    HW2 9903   5.523   0.118   6.900
 3002SOL     OW 9904   4.130   0.338   5.483
 3002SOL    HW1 9905   4.038   0.300   5.497
 3002SOL    HW2 9906   4.186   0.320   5.563
 3003SOL     OW 9907   2.822   6.297   6.600
 3003SOL    HW1 9908   2.802   6.208   6.558
 3003SOL    HW2 9909   2.840   6.284   6.697
 3004SOL     OW 9910   6.743   4.654   4.141
 3004SOL    HW1 9911   6.677   4.614   4.078
 3004SOL    HW2 9912   6.791   4.581   4.190
 3005SOL     OW 9913   3.658   3.183   1.212
 3005SOL    HW1 9914   3.735   3.221   1.264
 3005SOL    HW2 9915   3.633   3.094   1.249
 3006SOL     OW 9916   6.157   2.148   0.689
 3006SOL    HW1 9917   6.121   2.218   0.750
 3006SOL    HW2 9918   6.215   2.190   0.619
 3007SOL     OW 9919   6.027   5.520   2.462
 3007SOL    HW1 9920   6.048   5.563   2.550
 3007SOL    HW2 9921   5.991   5.428   2.477
 3008SOL     OW 9922   4.031   0.300   6.162
 3008SOL    HW1 9923   4.010   0.241   6.084
 3008SOL    HW2 9924   4.053   0.392   6.129
 3009SOL     OW 9925   0.501   6.539   2.399
 3009SOL    HW1 9926   0.500   6.500   2.491
 3009SOL    HW2 9927   0.566   6.489   2.342
 3010SOL     OW 9928   3.736   5.734   3.137
 3010SOL    HW1 9929   3.650   5.713   3.184
 3010SOL    HW2 9930   3.755   5.832   3.146
 3011SOL     OW 9931   5.629   1.018   6.387
 3011SOL    HW1 9932   5.550   1.080   6.388
 3011SOL    HW2 9933   5.632   0.969   6.300
 3012SOL     OW 9934   0.458   3.760   4.296
 3012SOL    HW1 9935   0.364   3.793   4.292
 3012SOL    HW2 9936   0.484   3.726   4.206
 3013SOL     OW 9937   5.186   5.905   3.662
 3013SOL    HW1 9938   5.165   5.844   3.586
 3013SOL    HW2 9939   5.276   5.947   3.647
 3014SOL     OW 9940   5.082   2.441   4.013
 3014SOL    HW1 9941   5.143   2.388   3.954
 3014SOL    HW2 9942   5.064   2.390   4.097
 3015SOL     OW 9943   3.708   2.597   0.595
 3015SOL    HW1 9944   3.732   2.536   0.519
 3015SOL    HW2 9945   3.706   2.692   0.561
 3016SOL     OW 9946   3.148   5.936   4.281
 3016SOL    HW1 9947   3.074   5.886   4.326
 3016SOL    HW2 9948   3.132   5.938   4.182
 3017SOL     OW 9949   1.264   5.680   0.916
 3017SOL    HW1 9950   1.324   5.734   0.858
 3017SOL    HW2 9951   1.308   5.663   1.004
 3018SOL     OW 9952   3.383   0.233   6.384
 3018SOL    HW1 9953   3.289   0.266   6.378
 3018SOL    HW2 9954   3.405   0.183   6.300
 3019SOL     OW 9955   2.736   6.502   1.067
 3019SOL    HW1 9956   2.783   6.587   1.045
 3019SOL    HW2 9957   2.796   6.424   1.049
 3020SOL     OW 9958   3.775   3.798   1.532
 3020SOL    HW1 9959   3.805   3.736   1.605
 3020SOL    HW2 9960   3.760   3.889   1.570
 3021SOL     OW 9961   2.490   1.675   0.341
 3021SOL    HW1 9962   2.522   1.586   0.373
 3021SOL    HW2 9963   2.566   1.739   0.338
 3022SOL     OW 9964   4.125   6.208   2.598
 3022SOL    HW1 9965   4.155   6.284   2.656
 3022SOL    HW2 9966   4.085   6.245   2.514
 3023SOL     OW 9967   3.443   6.107   3.223
 3023SOL    HW1 9968   3.491   6.122   3.137
 3023SOL    HW2 9969   3.507   6.112   3.299
 3024SOL     OW 9970   3.296   0.691   6.558
 3024SOL    HW1 9971   3.264   0.629   6.630
 3024SOL    HW2 9972   3.218   0.739   6.518
 3025SOL     OW 9973   3.457   2.700   0.688
 3025SOL    HW1 9974   3.539   2.667   0.641
 3025SOL    HW2 9975   3.420   2.628   0.746
 3026SOL     OW 9976   1.506   3.210   1.219
 3026SOL    HW1 9977   1.580   3.154   1.256
 3026SOL    HW2 9978   1.420   3.160   1.224
 3027SOL     OW 9979   3.798   1.113   2.090
 3027SOL    HW1 9980   3.831   1.069   2.007
 3027SOL    HW2 9981   3.836   1.205   2.097
 3028SOL     OW 9982   1.239   4.545   6.377
 3028SOL    HW1 9983   1.148   4.543   6.335
 3028SOL    HW2 9984   1.249   4.466   6.438
 3029SOL     OW 9985   6.947   5.142   5.176
 3029SOL    HW1 9986   6.927   5.046   5.192
 3029SOL    HW2 9987   6.892   5.176   5.100
 3030SOL     OW 9988   0.445   1.759   5.610
 3030SOL    HW1 9989   0.372   1.825   5.629
 3030SOL    HW2 9990   0.532   1.794   5.647
 3031SOL     OW 9991   0.543   3.627   0.653
 3031SOL    HW1 9992   0.463   3.617   0.594
 3031SOL    HW2 9993   0.539   3.559   0.727
 3032SOL     OW 9994   5.104   0.718   0.316
 3032SOL    HW1 9995   5.124   0.738   0.411
 3032SOL    HW2 9996   5.077   0.802   0.269
 3033SOL     OW 9997   0.949   2.624   0.426
 3033SOL    HW1 9998   0.859   2.581   0.419
 3033SOL    HW2 9999   1.020   2.553   0.425
 3034SOL     OW10000   2.220   5.717   3.890
 3034SOL    HW110001   2.287   5.698   3.961
 3034SOL    HW210002   2.251   5.794   3.834
 3035SOL     OW10003   6.753   2.354   0.465
 3035SOL    HW110004   6.672   2.375   0.521
 3035SOL    HW210005   6.724   2.326   0.374
 3036SOL     OW10006   1.760   3.500   6.976
 3036SOL    HW110007   1.767   3.404   7.005
 3036SOL    HW210008   1.664   3.528   6.979
 3037SOL     OW10009   6.399   5.870   4.667
 3037SOL    HW110010   6.405   5.802   4.593
 3037SOL    HW210011   6.345   5.948   4.636
 3038SOL     OW10012   6.111   6.847   6.592
 3038SOL    HW110013   6.100   6.755   6.553
 3038SOL    HW210014   6.159   6.905   6.527
 3039SOL     OW10015   6.774   3.991   2.326
 3039SOL    HW110016   6.821   4.004   2.239
 3039SOL    HW210017   6.754   3.894   2.340
 3040SOL     OW10018   4.791   4.248   6.004
 3040SOL    HW110019   4.879   4.269   6.046
 3040SOL    HW210020   4.720   4.245   6.074
 3041SOL     OW10021   1.646   2.504   5.641
 3041SOL    HW110022   1.673   2.572   5.573
 3041SOL    HW210023   1.727   2.455   5.674
 3042SOL     OW10024   4.942   6.072   1.525
 3042SOL    HW110025   4.931   6.169   1.547
 3042SOL    HW210026   5.025   6.037   1.569
 3043SOL     OW10027   0.180   5.471   0.862
 3043SOL    HW110028   0.248   5.399   0.880
 3043SOL    HW210029   0.098   5.430   0.823
 3044SOL     OW10030   3.014   4.638   6.132
 3044SOL    HW110031   2.981   4.710   6.193
 3044SOL    HW210032   2.943   4.613   6.067
 3045SOL     OW10033   4.493   0.290   2.284
 3045SOL    HW110034   4.464   0.204   2.325
 3045SOL    HW210035   4.547   0.272   2.201
 3046SOL     OW10036   1.644   2.787   5.437
 3046SOL    HW110037   1.587   2.736   5.372
 3046SOL    HW210038   1.679   2.869   5.392
 3047SOL     OW10039   5.020   5.796   2.041
 3047SOL    HW110040   4.968   5.736   1.981
 3047SOL    HW210041   5.110   5.755   2.058
 3048SOL     OW10042   3.696   3.375   1.611
 3048SOL    HW110043   3.625   3.391   1.679
 3048SOL    HW210044   3.689   3.443   1.538
 3049SOL     OW10045   0.861   6.027   1.332
 3049SOL    HW110046   0.852   5.989   1.424
 3049SOL    HW210047   0.943   5.989   1.289
 3050SOL     OW10048   3.355   7.008   3.426
 3050SOL    HW110049   3.307   0.073   3.420
 3050SOL    HW210050   3.424   7.013   3.497
 3051SOL     OW10051   2.671   3.665   0.201
 3051SOL    HW110052   2.643   3.576   0.165
 3051SOL    HW210053   2.726   3.652   0.283
 3052SOL     OW10054   4.338   0.807   2.870
 3052SOL    HW110055   4.425   0.757   2.869
 3052SOL    HW210056   4.346   0.885   2.931
 3053SOL     OW10057   6.295   0.777   0.032
 3053SOL    HW110058   6.300   0.722   0.116
 3053SOL    HW210059   6.340   0.727   6.980
 3054SOL     OW10060   0.606   2.503   0.088
 3054SOL    HW110061   0.580   2.496   0.185
 3054SOL    HW210062   0.667   2.580   0.075
 3055SOL     OW10063   5.340   0.409   3.622
 3055SOL    HW110064   5.361   0.388   3.526
 3055SOL    HW210065   5.267   0.477   3.625
 3056SOL     OW10066   6.869   0.539   6.621
 3056SOL    HW110067   6.886   0.634   6.594
 3056SOL    HW210068   6.956   0.490   6.627
 3057SOL     OW10069   4.113   5.513   2.887
 3057SOL    HW110070   4.203   5.471   2.887
 3057SOL    HW210071   4.076   5.512   2.794
 3058SOL     OW10072   6.500   5.440   1.334
 3058SOL    HW110073   6.572   5.429   1.402
 3058SOL    HW210074   6.538   5.482   1.252
 3059SOL     OW10075   1.764   2.738   5.061
 3059SOL    HW110076   1.849   2.775   5.024
 3059SOL    HW210077   1.784   2.654   5.112
 3060SOL     OW10078   0.388   6.051   0.194
 3060SOL    HW110079   0.394   6.043   0.094
 3060SOL    HW210080   0.465   6.104   0.228
 3061SOL     OW10081   6.631   1.100   5.088
 3061SOL    HW110082   6.723   1.130   5.111
 3061SOL    HW210083   6.617   1.106   4.990
 3062SOL     OW10084   1.628   6.580   0.863
 3062SOL    HW110085   1.528   6.573   0.873
 3062SOL    HW210086   1.655   6.546   0.773
 3063SOL     OW10087   2.327   5.041   2.248
 3063SOL    HW110088   2.293   4.991   2.168
 3063SOL    HW210089   2.400   5.103   2.220
 3064SOL     OW10090   6.002   3.505   3.643
 3064SOL    HW110091   6.098   3.480   3.649
 3064SOL    HW210092   5.978   3.526   3.549
 3065SOL     OW10093   2.034   0.249   6.482
 3065SOL    HW110094   2.062   0.320   6.417
 3065SOL    HW210095   1.937   0.230   6.470
 3066SOL     OW10096   5.699   4.410   0.461
 3066SOL    HW110097   5.619   4.412   0.521
 3066SOL    HW210098   5.733   4.503   0.448
 3067SOL     OW10099   3.341   1.285   4.329
 3067SOL    HW110100   3.282   1.215   4.371
 3067SOL    HW210101   3.297   1.320   4.246
 3068SOL     OW10102   5.440   5.928   0.455
 3068SOL    HW110103   5.484   5.888   0.536
 3068SOL    HW210104   5.498   6.000   0.417
 3069SOL     OW10105   6.838   5.724   1.689
 3069SOL    HW110106   6.916   5.706   1.630
 3069SOL    HW210107   6.753   5.717   1.636
 3070SOL     OW10108   2.083   0.739   1.982
 3070SOL    HW110109   2.138   0.816   1.949
 3070SOL    HW210110   1.996   0.737   1.934
 3071SOL     OW10111   6.561   6.774   3.664
 3071SOL    HW110112   6.648   6.732   3.690
 3071SOL    HW210113   6.577   6.869   3.637
 3072SOL     OW10114   0.986   6.093   0.928
 3072SOL    HW110115   0.937   6.121   0.845
 3072SOL    HW210116   1.078   6.062   0.903
 3073SOL     OW10117   0.992   3.774   5.186
 3073SOL    HW110118   0.909   3.809   5.230
 3073SOL    HW210119   1.068   3.837   5.203
 3074SOL     OW10120   5.587   2.724   0.798
 3074SOL    HW110121   5.572   2.804   0.857
 3074SOL    HW210122   5.570   2.641   0.851
 3075SOL     OW10123   1.940   6.125   1.515
 3075SOL    HW110124   1.925   6.110   1.417
 3075SOL    HW210125   1.866   6.082   1.566
 3076SOL     OW10126   6.763   0.840   4.304
 3076SOL    HW110127   6.757   0.884   4.394
 3076SOL    HW210128   6.857   0.845   4.270
 3077SOL     OW10129   5.351   4.508   2.753
 3077SOL    HW110130   5.356   4.554   2.842
 3077SOL    HW210131   5.265   4.530   2.709
 3078SOL     OW10132   2.106   3.725   1.141
 3078SOL    HW110133   2.180   3.683   1.195
 3078SOL    HW210134   2.018   3.692   1.175
 3079SOL     OW10135   1.930   2.589   4.756
 3079SOL    HW110136   1.887   2.506   4.791
 3079SOL    HW210137   2.017   2.604   4.803
 3080SOL     OW10138   5.495   4.942   2.256
 3080SOL    HW110139   5.524   4.906   2.345
 3080SOL    HW210140   5.396   4.929   2.245
 3081SOL     OW10141   0.688   4.388   5.940
 3081SOL    HW110142   0.664   4.291   5.945
 3081SOL    HW210143   0.606   4.444   5.956
 3082SOL     OW10144   3.857   6.921   3.559
 3082SOL    HW110145   3.802   6.973   3.624
 3082SOL    HW210146   3.840   6.823   3.572
 3083SOL     OW10147   3.991   6.430   2.879
 3083SOL    HW110148   3.946   6.391   2.798
 3083SOL    HW210149   3.982   6.529   2.878
 3084SOL     OW10150   4.848   4.754   4.554
 3084SOL    HW110151   4.865   4.702   4.470
 3084SOL    HW210152   4.843   4.691   4.632
 3085SOL     OW10153   0.086   4.475   2.861
 3085SOL    HW110154   0.084   4.476   2.961
 3085SOL    HW210155   0.053   4.386   2.829
 3086SOL     OW10156   4.392   1.560   1.562
 3086SOL    HW110157   4.295   1.578   1.576
 3086SOL    HW210158   4.443   1.580   1.646
 3087SOL     OW10159   0.078   4.778   3.774
 3087SOL    HW110160   0.080   4.878   3.763
 3087SOL    HW210161   0.073   4.755   3.871
 3088SOL     OW10162   2.880   5.068   5.784
 3088SOL    HW110163   2.939   5.022   5.719
 3088SOL    HW210164   2.851   5.004   5.856
 3089SOL     OW10165   1.214   2.807   0.227
 3089SOL    HW110166   1.265   2.887   0.196
 3089SOL    HW210167   1.116   2.824   0.217
 3090SOL     OW10168   1.823   1.813   1.651
 3090SOL    HW110169   1.923   1.808   1.638
 3090SOL    HW210170   1.799   1.770   1.738
 3091SOL     OW10171   2.679   6.552   0.358
 3091SOL    HW110172   2.686   6.474   0.295
 3091SOL    HW210173   2.730   6.629   0.321
 3092SOL     OW10174   5.158   0.160   0.102
 3092SOL    HW110175   5.192   0.075   0.144
 3092SOL    HW210176   5.118   0.218   0.173
 3093SOL     OW10177   5.708   5.097   5.678
 3093SOL    HW110178   5.688   5.084   5.776
 3093SOL    HW210179   5.622   5.109   5.629
 3094SOL     OW10180   3.467   0.048   4.957
 3094SOL    HW110181   3.524   0.054   5.039
 3094SOL    HW210182   3.466   6.976   4.924
 3095SOL     OW10183   2.656   4.733   4.448
 3095SOL    HW110184   2.591   4.661   4.475
 3095SOL    HW210185   2.678   4.722   4.351
 3096SOL     OW10186   0.499   0.433   4.321
 3096SOL    HW110187   0.518   0.490   4.401
 3096SOL    HW210188   0.401   0.415   4.316
 3097SOL     OW10189   0.751   2.414   0.404
 3097SOL    HW110190   0.768   2.324   0.444
 3097SOL    HW210191   0.653   2.424   0.386
 3098SOL     OW10192   2.204   3.381   1.368
 3098SOL    HW110193   2.224   3.310   1.435
 3098SOL    HW210194   2.284   3.395   1.310
 3099SOL     OW10195   0.342   6.041   5.064
 3099SOL    HW110196   0.363   6.027   4.967
 3099SOL    HW210197   0.423   6.078   5.110
 3100SOL     OW10198   6.842   0.184   4.496
 3100SOL    HW110199   6.832   0.251   4.569
 3100SOL    HW210200   6.772   0.113   4.506
 3101SOL     OW10201   4.291   6.386   5.336
 3101SOL    HW110202   4.210   6.437   5.368
 3101SOL    HW210203   4.353   6.449   5.290
 3102SOL     OW10204   1.194   4.906   2.151
 3102SOL    HW110205   1.125   4.977   2.158
 3102SOL    HW210206   1.272   4.929   2.210
 3103SOL     OW10207   3.418   1.705   1.323
 3103SOL    HW110208   3.432   1.657   1.410
 3103SOL    HW210209   3.370   1.791   1.339
 3104SOL     OW10210   5.824   6.365   4.121
 3104SOL    HW110211   5.774   6.290   4.076
 3104SOL    HW210212   5.760   6.438   4.143
 3105SOL     OW10213   6.211   5.760   3.648
 3105SOL    HW110214   6.204   5.813   3.733
 3105SOL    HW210215   6.305   5.727   3.637
 3106SOL     OW10216   0.069   1.745   2.624
 3106SOL    HW110217   0.119   1.796   2.554
 3106SOL    HW210218   7.007   1.793   2.645
 3107SOL     OW10219   3.524   0.438   4.454
 3107SOL    HW110220   3.609   0.386   4.461
 3107SOL    HW210221   3.460   0.407   4.525
 3108SOL     OW10222   1.749   0.485   4.550
 3108SOL    HW110223   1.715   0.558   4.609
 3108SOL    HW210224   1.706   0.398   4.575
 3109SOL     OW10225   5.870   5.759   2.945
 3109SOL    HW110226   5.907   5.769   2.853
 3109SOL    HW210227   5.929   5.810   3.009
 3110SOL     OW10228   0.726   1.864   4.030
 3110SOL    HW110229   0.636   1.827   4.008
 3110SOL    HW210230   0.741   1.859   4.129
 3111SOL     OW10231   6.137   5.351   4.309
 3111SOL    HW110232   6.215   5.412   4.295
 3111SOL    HW210233   6.068   5.368   4.239
 3112SOL     OW10234   5.038   2.466   5.948
 3112SOL    HW110235   5.029   2.538   5.878
 3112SOL    HW210236   5.014   2.504   6.037
 3113SOL     OW10237   1.853   6.985   4.395
 3113SOL    HW110238   1.861   7.009   4.299
 3113SOL    HW210239   1.945   6.967   4.432
 3114SOL     OW10240   4.964   3.462   6.935
 3114SOL    HW110241   5.008   3.386   6.889
 3114SOL    HW210242   4.944   3.437   0.008
 3115SOL     OW10243   4.559   3.531   0.655
 3115SOL    HW110244   4.632   3.594   0.628
 3115SOL    HW210245   4.591   3.472   0.729
 3116SOL     OW10246   0.365   3.774   6.920
 3116SOL    HW110247   0.386   3.756   7.016
 3116SOL    HW210248   0.390   3.694   6.865
 3117SOL     OW10249   4.591   3.786   5.363
 3117SOL    HW110250   4.502   3.818   5.331
 3117SOL    HW210251   4.590   3.686   5.370
 3118SOL     OW10252   6.900   4.508   6.334
 3118SOL    HW110253   6.828   4.576   6.320
 3118SOL    HW210254   6.881   4.456   6.417
 3119SOL     OW10255   1.925   3.835   5.329
 3119SOL    HW110256   1.972   3.746   5.330
 3119SOL    HW210257   1.988   3.906   5.361
 3120SOL     OW10258   2.265   6.236   4.770
 3120SOL    HW110259   2.278   6.143   4.735
 3120SOL    HW210260   2.176   6.243   4.814
 3121SOL     OW10261   0.679   1.332   2.450
 3121SOL    HW110262   0.626   1.377   2.521
 3121SOL    HW210263   0.777   1.345   2.467
 3122SOL     OW10264   3.654   5.943   6.124
 3122SOL    HW110265   3.571   5.923   6.175
 3122SOL    HW210266   3.710   5.860   6.117
 3123SOL     OW10267   3.316   6.393   3.797
 3123SOL    HW110268   3.357   6.302   3.804
 3123SOL    HW210269   3.384   6.457   3.760
 3124SOL     OW10270   3.702   0.597   5.352
 3124SOL    HW110271   3.763   0.647   5.415
 3124SOL    HW210272   3.757   0.543   5.288
 3125SOL     OW10273   6.112   2.094   6.311
 3125SOL    HW110274   6.121   2.151   6.230
 3125SOL    HW210275   6.141   2.146   6.392
 3126SOL     OW10276   4.935   4.868   6.553
 3126SOL    HW110277   4.934   4.920   6.638
 3126SOL    HW210278   4.891   4.922   6.481
 3127SOL     OW10279   0.553   2.335   3.021
 3127SOL    HW110280   0.632   2.317   2.961
 3127SOL    HW210281   0.493   2.402   2.977
 3128SOL     OW10282   1.466   0.421   0.404
 3128SOL    HW110283   1.479   0.519   0.417
 3128SOL    HW210284   1.419   0.405   0.317
 3129SOL     OW10285   0.671   4.565   6.340
 3129SOL    HW110286   0.760   4.544   6.381
 3129SOL    HW210287   0.601   4.506   6.381
 3130SOL     OW10288   2.519   4.457   2.365
 3130SOL    HW110289   2.595   4.420   2.312
 3130SOL    HW210290   2.488   4.390   2.432
 3131SOL     OW10291   1.301   2.962   2.750
 3131SOL    HW110292   1.278   2.897   2.678
 3131SOL    HW210293   1.302   2.915   2.839
 3132SOL     OW10294   5.396   6.311   5.078
 3132SOL    HW110295   5.454   6.353   5.148
 3132SOL    HW210296   5.337   6.242   5.120
 3133SOL     OW10297   2.541   2.057   4.224
 3133SOL    HW110298   2.526   2.102   4.311
 3133SOL    HW210299   2.619   2.100   4.177
 3134SOL     OW10300   5.258   3.731   1.829
 3134SOL    HW110301   5.220   3.782   1.752
 3134SOL    HW210302   5.254   3.787   1.912
 3135SOL     OW10303   4.049   1.978   4.587
 3135SOL    HW110304   4.115   1.907   4.563
 3135SOL    HW210305   4.093   2.045   4.648
 3136SOL     OW10306   6.034   6.605   5.546
 3136SOL    HW110307   6.128   6.610   5.578
 3136SOL    HW210308   6.006   6.695   5.512
 3137SOL     OW10309   5.350   1.133   4.008
 3137SOL    HW110310   5.405   1.090   4.080
 3137SOL    HW210311   5.367   1.086   3.921
 3138SOL     OW10312   6.074   1.887   4.475
 3138SOL    HW110313   6.010   1.964   4.473
 3138SOL    HW210314   6.146   1.902   4.408
 3139SOL     OW10315   5.145   0.120   6.602
 3139SOL    HW110316   5.142   0.149   6.698
 3139SOL    HW210317   5.175   0.195   6.544
 3140SOL     OW10318   6.554   5.794   6.299
 3140SOL    HW110319   6.532   5.716   6.357
 3140SOL    HW210320   6.469   5.835   6.264
 3141SOL     OW10321   0.829   6.485   6.389
 3141SOL    HW110322   0.805   6.486   6.486
 3141SOL    HW210323   0.839   6.391   6.357
 3142SOL     OW10324   4.964   6.445   6.888
 3142SOL    HW110325   5.053   6.480   6.861
 3142SOL    HW210326   4.912   6.518   6.933
 3143SOL     OW10327   6.871   2.478   6.600
 3143SOL    HW110328   6.945   2.511   6.659
 3143SOL    HW210329   6.903   2.470   6.506
 3144SOL     OW10330   2.527   3.306   0.988
 3144SOL    HW110331   2.448   3.252   0.958
 3144SOL    HW210332   2.610   3.253   0.972
 3145SOL     OW10333   2.610   5.770   2.714
 3145SOL    HW110334   2.683   5.830   2.681
 3145SOL    HW210335   2.635   5.731   2.802
 3146SOL     OW10336   1.445   6.231   3.360
 3146SOL    HW110337   1.519   6.266   3.304
 3146SOL    HW210338   1.471   6.142   3.399
 3147SOL     OW10339   4.187   5.266   6.953
 3147SOL    HW110340   4.275   5.309   6.972
 3147SOL    HW210341   4.164   5.279   6.857
 3148SOL     OW10342   4.295   5.505   4.181
 3148SOL    HW110343   4.276   5.412   4.150
 3148SOL    HW210344   4.384   5.534   4.146
 3149SOL     OW10345   3.174   0.326   5.423
 3149SOL    HW110346   3.210   0.375   5.503
 3149SOL    HW210347   3.074   0.325   5.426
 3150SOL     OW10348   5.253   5.941   4.408
 3150SOL    HW110349   5.155   5.928   4.394
 3150SOL    HW210350   5.272   6.036   4.430
 3151SOL     OW10351   4.832   1.571   6.390
 3151SOL    HW110352   4.782   1.486   6.407
 3151SOL    HW210353   4.842   1.584   6.291
 3152SOL     OW10354   0.960   5.304   1.737
 3152SOL    HW110355   0.924   5.212   1.719
 3152SOL    HW210356   0.991   5.311   1.831
 3153SOL     OW10357   6.302   4.220   1.901
 3153SOL    HW110358   6.210   4.215   1.941
 3153SOL    HW210359   6.346   4.130   1.905
 3154SOL     OW10360   6.299   2.260   0.249
 3154SOL    HW110361   6.299   2.280   0.151
 3154SOL    HW210362   6.321   2.163   0.264
 3155SOL     OW10363   0.532   4.952   1.900
 3155SOL    HW110364   0.598   5.027   1.902
 3155SOL    HW210365   0.551   4.892   1.823
 3156SOL     OW10366   3.982   3.650   3.901
 3156SOL    HW110367   3.993   3.646   3.802
 3156SOL    HW210368   4.008   3.563   3.942
 3157SOL     OW10369   1.530   2.930   4.449
 3157SOL    HW110370   1.486   3.020   4.442
 3157SOL    HW210371   1.460   2.860   4.467
 3158SOL     OW10372   4.632   0.238   1.447
 3158SOL    HW110373   4.696   0.316   1.442
 3158SOL    HW210374   4.665   0.164   1.389
 3159SOL     OW10375   5.009   6.295   6.650
 3159SOL    HW110376   5.009   6.384   6.604
 3159SOL    HW210377   4.974   6.305   6.743
 3160SOL     OW10378   6.130   4.427   6.247
 3160SOL    HW110379   6.096   4.333   6.242
 3160SOL    HW210380   6.164   4.455   6.158
 3161SOL     OW10381   1.677   1.237   2.789
 3161SOL    HW110382   1.738   1.158   2.801
 3161SOL    HW210383   1.602   1.212   2.727
 3162SOL     OW10384   6.874   5.243   0.383
 3162SOL    HW110385   6.955   5.284   0.425
 3162SOL    HW210386   6.810   5.214   0.453
 3163SOL     OW10387   3.734   2.879   6.338
 3163SOL    HW110388   3.793   2.947   6.294
 3163SOL    HW210389   3.639   2.898   6.313
 3164SOL     OW10390   5.007   4.198   1.548
 3164SOL    HW110391   4.967   4.256   1.620
 3164SOL    HW210392   5.089   4.241   1.512
 3165SOL     OW10393   1.057   6.691   1.973
 3165SOL    HW110394   1.123   6.746   1.923
 3165SOL    HW210395   0.981   6.667   1.912
 3166SOL     OW10396   5.170   3.136   6.131
 3166SOL    HW110397   5.074   3.162   6.129
 3166SOL    HW210398   5.220   3.195   6.194
 3167SOL     OW10399   6.670   4.699   1.756
 3167SOL    HW110400   6.650   4.796   1.742
 3167SOL    HW210401   6.601   4.658   1.815
 3168SOL     OW10402   5.165   2.863   0.831
 3168SOL    HW110403   5.097   2.790   0.833
 3168SOL    HW210404   5.223   2.855   0.913
 3169SOL     OW10405   0.999   3.546   5.835
 3169SOL    HW110406   0.943   3.490   5.774
 3169SOL    HW210407   1.089   3.504   5.847
 3170SOL     OW10408   3.876   0.471   0.019
 3170SOL    HW110409   3.971   0.446   0.038
 3170SOL    HW210410   3.817   0.393   0.035
 3171SOL     OW10411   6.400   6.949   1.483
 3171SOL    HW110412   6.495   6.978   1.496
 3171SOL    HW210413   6.361   6.998   1.404
 3172SOL     OW10414   6.804   6.389   5.119
 3172SOL    HW110415   6.756   6.474   5.096
 3172SOL    HW210416   6.762   6.347   5.199
 3173SOL     OW10417   2.212   0.502   2.464
 3173SOL    HW110418   2.188   0.430   2.530
 3173SOL    HW210419   2.166   0.587   2.489
 3174SOL     OW10420   2.723   3.218   6.333
 3174SOL    HW110421   2.628   3.187   6.334
 3174SOL    HW210422   2.741   3.268   6.248
 3175SOL     OW10423   0.933   6.238   6.643
 3175SOL    HW110424   0.971   6.209   6.731
 3175SOL    HW210425   0.919   6.337   6.644
 3176SOL     OW10426   1.820   4.365   6.042
 3176SOL    HW110427   1.810   4.444   5.981
 3176SOL    HW210428   1.771   4.287   6.002
 3177SOL     OW10429   5.954   4.946   5.995
 3177SOL    HW110430   5.954   4.855   6.037
 3177SOL    HW210431   5.912   5.011   6.058
 3178SOL     OW10432   0.400   4.154   2.036
 3178SOL    HW110433   0.347   4.148   2.120
 3178SOL    HW210434   0.399   4.065   1.990
 3179SOL     OW10435   2.158   2.220   1.867
 3179SOL    HW110436   2.183   2.278   1.790
 3179SOL    HW210437   2.231   2.221   1.935
 3180SOL     OW10438   4.587   0.698   5.322
 3180SOL    HW110439   4.677   0.664   5.351
 3180SOL    HW210440   4.515   0.652   5.373
 3181SOL     OW10441   0.751   0.848   3.722
 3181SOL    HW110442   0.701   0.850   3.808
 3181SOL    HW210443   0.809   0.767   3.719
 3182SOL     OW10444   0.501   0.326   5.611
 3182SOL    HW110445   0.512   0.228   5.630
 3182SOL    HW210446   0.591   0.370   5.614
 3183SOL     OW10447   4.037   4.754   1.342
 3183SOL    HW110448   4.132   4.729   1.361
 3183SOL    HW210449   3.986   4.757   1.427
 3184SOL     OW10450   2.370   1.761   2.255
 3184SOL    HW110451   2.335   1.739   2.345
 3184SOL    HW210452   2.455   1.813   2.264
 3185SOL     OW10453   0.169   0.107   5.521
 3185SOL    HW110454   0.117   0.087   5.605
 3185SOL    HW210455   0.168   0.205   5.504
 3186SOL     OW10456   3.571   1.170   2.866
 3186SOL    HW110457   3.488   1.208   2.907
 3186SOL    HW210458   3.547   1.117   2.785
 3187SOL     OW10459   3.888   4.141   0.159
 3187SOL    HW110460   3.838   4.133   0.073
 3187SOL    HW210461   3.956   4.068   0.166
 3188SOL     OW10462   3.508   5.821   2.814
 3188SOL    HW110463   3.603   5.789   2.822
 3188SOL    HW210464   3.502   5.890   2.742
 3189SOL     OW10465   1.594   0.768   3.092
 3189SOL    HW110466   1.599   0.835   3.018
 3189SOL    HW210467   1.596   0.676   3.053
 3190SOL     OW10468   1.586   6.399   1.578
 3190SOL    HW110469   1.574   6.316   1.523
 3190SOL    HW210470   1.578   6.479   1.518
 3191SOL     OW10471   3.591   0.640   1.294
 3191SOL    HW110472   3.598   0.553   1.343
 3191SOL    HW210473   3.507   0.687   1.322
 3192SOL     OW10474   0.822   1.833   0.657
 3192SOL    HW110475   0.835   1.762   0.726
 3192SOL    HW210476   0.787   1.792   0.573
 3193SOL     OW10477   4.536   2.288   6.476
 3193SOL    HW110478   4.601   2.246   6.412
 3193SOL    HW210479   4.485   2.217   6.523
 3194SOL     OW10480   1.385   3.564   6.539
 3194SOL    HW110481   1.466   3.618   6.560
 3194SOL    HW210482   1.353   3.587   6.447
 3195SOL     OW10483   1.613   2.616   3.133
 3195SOL    HW110484   1.641   2.710   3.114
 3195SOL    HW210485   1.694   2.560   3.150
 3196SOL     OW10486   0.278   0.334   4.585
 3196SOL    HW110487   0.186   0.304   4.609
 3196SOL    HW210488   0.276   0.375   4.493
 3197SOL     OW10489   1.153   5.805   3.295
 3197SOL    HW110490   1.228   5.767   3.242
 3197SOL    HW210491   1.189   5.851   3.376
 3198SOL     OW10492   6.923   1.834   5.983
 3198SOL    HW110493   6.902   1.788   6.070
 3198SOL    HW210494   6.840   1.875   5.945
 3199SOL     OW10495   4.745   1.786   2.040
 3199SOL    HW110496   4.666   1.843   2.014
 3199SOL    HW210497   4.785   1.747   1.957
 3200SOL     OW10498   0.084   2.638   0.679
 3200SOL    HW110499   7.012   2.609   0.660
 3200SOL    HW210500   0.089   2.674   0.772
 3201SOL     OW10501   5.135   3.768   3.891
 3201SOL    HW110502   5.104   3.862   3.875
 3201SOL    HW210503   5.234   3.768   3.905
 3202SOL     OW10504   2.004   4.461   2.528
 3202SOL    HW110505   2.056   4.526   2.472
 3202SOL    HW210506   1.923   4.507   2.566
 3203SOL     OW10507   6.513   0.721   1.267
 3203SOL    HW110508   6.479   0.643   1.319
 3203SOL    HW210509   6.608   0.705   1.240
 3204SOL     OW10510   6.322   5.707   1.612
 3204SOL    HW110511   6.390   5.637   1.590
 3204SOL    HW210512   6.252   5.668   1.672
 3205SOL     OW10513   6.393   3.846   6.252
 3205SOL    HW110514   6.468   3.900   6.213
 3205SOL    HW210515   6.395   3.753   6.213
 3206SOL     OW10516   0.204   6.773   5.817
 3206SOL    HW110517   0.190   6.759   5.915
 3206SOL    HW210518   0.115   6.782   5.772
 3207SOL     OW10519   0.761   1.239   5.314
 3207SOL    HW110520   0.691   1.307   5.336
 3207SOL    HW210521   0.851   1.280   5.323
 3208SOL     OW10522   4.487   5.692   4.975
 3208SOL    HW110523   4.457   5.641   5.056
 3208SOL    HW210524   4.411   5.749   4.942
 3209SOL     OW10525   3.032   6.863   4.288
 3209SOL    HW110526   2.970   6.832   4.216
 3209SOL    HW210527   3.114   6.806   4.289
 3210SOL     OW10528   6.693   3.736   2.385
 3210SOL    HW110529   6.784   3.695   2.397
 3210SOL    HW210530   6.633   3.703   2.457
 3211SOL     OW10531   2.208   4.398   1.301
 3211SOL    HW110532   2.163   4.460   1.366
 3211SOL    HW210533   2.147   4.321   1.282
 3212SOL     OW10534   4.421   2.604   6.637
 3212SOL    HW110535   4.422   2.619   6.538
 3212SOL    HW210536   4.509   2.568   6.666
 3213SOL     OW10537   5.541   5.732   3.266
 3213SOL    HW110538   5.522   5.808   3.203
 3213SOL    HW210539   5.640   5.718   3.272
 3214SOL     OW10540   4.265   6.330   6.805
 3214SOL    HW110541   4.169   6.352   6.820
 3214SOL    HW210542   4.303   6.391   6.736
 3215SOL     OW10543   6.797   2.306   0.059
 3215SOL    HW110544   6.814   2.295   6.984
 3215SOL    HW210545   6.698   2.314   0.075
 3216SOL     OW10546   5.653   6.344   3.578
 3216SOL    HW110547   5.673   6.442   3.580
 3216SOL    HW210548   5.556   6.330   3.556
 3217SOL     OW10549   0.652   4.808   2.879
 3217SOL    HW110550   0.742   4.770   2.899
 3217SOL    HW210551   0.663   4.891   2.823
 3218SOL     OW10552   3.772   6.675   2.984
 3218SOL    HW110553   3.840   6.704   2.916
 3218SOL    HW210554   3.690   6.732   2.975
 3219SOL     OW10555   0.302   0.195   2.709
 3219SOL    HW110556   0.289   0.269   2.774
 3219SOL    HW210557   0.232   0.199   2.638
 3220SOL     OW10558   0.102   4.604   4.905
 3220SOL    HW110559   0.066   4.552   4.827
 3220SOL    HW210560   0.202   4.600   4.905
 3221SOL     OW10561   2.382   6.411   3.653
 3221SOL    HW110562   2.419   6.501   3.629
 3221SOL    HW210563   2.292   6.422   3.694
 3222SOL     OW10564   5.243   1.981   3.070
 3222SOL    HW110565   5.253   1.916   2.995
 3222SOL    HW210566   5.146   1.995   3.089
 3223SOL     OW10567   2.576   5.421   6.018
 3223SOL    HW110568   2.609   5.387   6.106
 3223SOL    HW210569   2.651   5.421   5.952
 3224SOL     OW10570   4.606   5.854   6.709
 3224SOL    HW110571   4.608   5.789   6.633
 3224SOL    HW210572   4.689   5.908   6.709
 3225SOL     OW10573   4.023   3.054   0.241
 3225SOL    HW110574   3.934   3.017   0.213
 3225SOL    HW210575   4.022   3.153   0.235
 3226SOL     OW10576   2.187   0.954   4.095
 3226SOL    HW110577   2.139   0.872   4.065
 3226SOL    HW210578   2.157   0.979   4.187
 3227SOL     OW10579   3.578   1.758   5.741
 3227SOL    HW110580   3.549   1.669   5.707
 3227SOL    HW210581   3.498   1.810   5.771
 3228SOL     OW10582   6.019   3.177   4.036
 3228SOL    HW110583   5.949   3.163   3.965
 3228SOL    HW210584   6.109   3.159   3.997
 3229SOL     OW10585   3.743   2.145   5.859
 3229SOL    HW110586   3.722   2.120   5.765
 3229SOL    HW210587   3.702   2.235   5.879
 3230SOL     OW10588   0.299   1.136   3.004
 3230SOL    HW110589   0.309   1.062   2.937
 3230SOL    HW210590   0.313   1.224   2.959
 3231SOL     OW10591   4.455   5.541   1.319
 3231SOL    HW110592   4.370   5.594   1.317
 3231SOL    HW210593   4.529   5.595   1.279
 3232SOL     OW10594   3.453   5.296   4.516
 3232SOL    HW110595   3.508   5.302   4.600
 3232SOL    HW210596   3.381   5.227   4.529
 3233SOL     OW10597   0.519   3.949   1.046
 3233SOL    HW110598   0.484   3.920   1.135
 3233SOL    HW210599   0.549   4.044   1.050
 3234SOL     OW10600   0.025   2.060   0.006
 3234SOL    HW110601   0.084   2.140   7.015
 3234SOL    HW210602   6.971   2.065   6.965
 3235SOL     OW10603   5.846   6.952   3.020
 3235SOL    HW110604   5.757   6.929   2.981
 3235SOL    HW210605   5.854   6.912   3.111
 3236SOL     OW10606   1.159   2.804   2.538
 3236SOL    HW110607   1.107   2.799   2.452
 3236SOL    HW210608   1.227   2.731   2.540
 3237SOL     OW10609   4.125   6.464   4.692
 3237SOL    HW110610   4.069   6.438   4.771
 3237SOL    HW210611   4.065   6.475   4.612
 3238SOL     OW10612   0.421   5.408   6.357
 3238SOL    HW110613   0.349   5.339   6.355
 3238SOL    HW210614   0.404   5.472   6.432
 3239SOL     OW10615   6.386   0.567   5.831
 3239SOL    HW110616   6.356   0.518   5.748
 3239SOL    HW210617   6.481   0.545   5.850
 3240SOL     OW10618   0.700   0.069   4.610
 3240SOL    HW110619   0.778   0.045   4.552
 3240SOL    HW210620   0.730   0.132   4.681
 3241SOL     OW10621   4.845   1.076   3.752
 3241SOL    HW110622   4.770   1.055   3.690
 3241SOL    HW210623   4.931   1.044   3.713
 3242SOL     OW10624   3.799   5.978   6.364
 3242SOL    HW110625   3.880   6.009   6.315
 3242SOL    HW210626   3.717   5.993   6.309
 3243SOL     OW10627   4.497   5.336   0.009
 3243SOL    HW110628   4.494   5.432   7.006
 3243SOL    HW210629   4.583   5.296   6.999
 3244SOL     OW10630   4.135   5.988   5.842
 3244SOL    HW110631   4.232   5.989   5.816
 3244SOL    HW210632   4.115   6.066   5.900
 3245SOL     OW10633   4.154   3.458   6.333
 3245SOL    HW110634   4.161   3.438   6.235
 3245SOL    HW210635   4.063   3.431   6.365
 3246SOL     OW10636   5.915   6.611   2.614
 3246SOL    HW110637   5.929   6.688   2.675
 3246SOL    HW210638   5.876   6.643   2.528
 3247SOL     OW10639   0.133   3.375   3.960
 3247SOL    HW110640   0.101   3.297   3.905
 3247SOL    HW210641   0.160   3.342   4.051
 3248SOL     OW10642   6.074   2.978   2.089
 3248SOL    HW110643   6.116   2.893   2.058
 3248SOL    HW210644   6.005   3.007   2.023
 3249SOL     OW10645   3.204   4.853   4.824
 3249SOL    HW110646   3.132   4.832   4.757
 3249SOL    HW210647   3.168   4.838   4.917
 3250SOL     OW10648   4.605   6.659   2.422
 3250SOL    HW110649   4.511   6.662   2.456
 3250SOL    HW210650   4.630   6.564   2.401
 3251SOL     OW10651   3.961   1.905   2.754
 3251SOL    HW110652   3.952   1.990   2.805
 3251SOL    HW210653   3.895   1.838   2.788
 3252SOL     OW10654   3.156   1.142   2.795
 3252SOL    HW110655   3.086   1.188   2.849
 3252SOL    HW210656   3.177   1.053   2.836
 3253SOL     OW10657   5.071   2.829   1.482
 3253SOL    HW110658   5.153   2.886   1.488
 3253SOL    HW210659   4.994   2.877   1.522
 3254SOL     OW10660   4.152   4.778   3.388
 3254SOL    HW110661   4.245   4.788   3.421
 3254SOL    HW210662   4.146   4.810   3.293
 3255SOL     OW10663   4.638   5.777   0.113
 3255SOL    HW110664   4.696   5.802   0.190
 3255SOL    HW210665   4.642   5.849   0.044
 3256SOL     OW10666   5.174   6.731   5.802
 3256SOL    HW110667   5.147   6.803   5.867
 3256SOL    HW210668   5.093   6.678   5.777
 3257SOL     OW10669   1.906   1.818   1.172
 3257SOL    HW110670   1.881   1.788   1.264
 3257SOL    HW210671   1.948   1.743   1.122
 3258SOL     OW10672   4.791   6.592   1.642
 3258SOL    HW110673   4.760   6.521   1.705
 3258SOL    HW210674   4.874   6.561   1.597
 3259SOL     OW10675   4.254   5.963   4.174
 3259SOL    HW110676   4.205   6.023   4.111
 3259SOL    HW210677   4.193   5.890   4.206
 3260SOL     OW10678   1.675   1.646   6.737
 3260SOL    HW110679   1.759   1.604   6.772
 3260SOL    HW210680   1.635   1.705   6.807
 3261SOL     OW10681   4.264   6.921   1.060
 3261SOL    HW110682   4.262   6.829   1.099
 3261SOL    HW210683   4.355   6.940   1.023
 3262SOL     OW10684   3.373   1.711   3.295
 3262SOL    HW110685   3.357   1.704   3.197
 3262SOL    HW210686   3.445   1.779   3.312
 3263SOL     OW10687   4.176   6.694   1.832
 3263SOL    HW110688   4.258   6.643   1.805
 3263SOL    HW210689   4.163   6.771   1.770
 3264SOL     OW10690   0.203   5.168   0.210
 3264SOL    HW110691   0.121   5.146   0.156
 3264SOL    HW210692   0.248   5.248   0.170
 3265SOL     OW10693   4.465   1.778   6.518
 3265SOL    HW110694   4.554   1.790   6.474
 3265SOL    HW210695   4.425   1.690   6.491
 3266SOL     OW10696   0.374   2.665   6.299
 3266SOL    HW110697   0.396   2.665   6.201
 3266SOL    HW210698   0.455   2.634   6.350
 3267SOL     OW10699   3.428   2.018   1.049
 3267SOL    HW110700   3.393   1.942   1.105
 3267SOL    HW210701   3.510   2.055   1.090
 3268SOL     OW10702   0.752   4.109   0.273
 3268SOL    HW110703   0.706   4.193   0.301
 3268SOL    HW210704   0.721   4.033   0.330
 3269SOL     OW10705   4.250   4.470   1.074
 3269SOL    HW110706   4.189   4.407   1.121
 3269SOL    HW210707   4.303   4.420   1.005
 3270SOL     OW10708   0.810   5.473   4.121
 3270SOL    HW110709   0.786   5.534   4.197
 3270SOL    HW210710   0.888   5.415   4.148
 3271SOL     OW10711   6.143   2.784   1.581
 3271SOL    HW110712   6.111   2.691   1.600
 3271SOL    HW210713   6.089   2.824   1.507
 3272SOL     OW10714   3.653   0.474   0.395
 3272SOL    HW110715   3.563   0.506   0.425
 3272SOL    HW210716   3.681   0.524   0.313
 3273SOL     OW10717   0.644   6.391   2.218
 3273SOL    HW110718   0.587   6.413   2.139
 3273SOL    HW210719   0.674   6.296   2.212
 3274SOL     OW10720   2.672   1.963   5.652
 3274SOL    HW110721   2.576   1.987   5.637
 3274SOL    HW210722   2.712   2.027   5.718
 3275SOL     OW10723   2.121   0.561   6.942
 3275SOL    HW110724   2.159   0.536   6.853
 3275SOL    HW210725   2.179   0.632   6.983
 3276SOL     OW10726   3.166   5.762   6.300
 3276SOL    HW110727   3.074   5.774   6.262
 3276SOL    HW210728   3.179   5.825   6.377
 3277SOL     OW10729   0.107   6.479   5.788
 3277SOL    HW110730   0.039   6.411   5.759
 3277SOL    HW210731   0.160   6.442   5.864
 3278SOL     OW10732   1.418   1.005   5.365
 3278SOL    HW110733   1.503   1.000   5.417
 3278SOL    HW210734   1.362   1.080   5.400
 3279SOL     OW10735   0.250   6.974   0.800
 3279SOL    HW110736   0.272   6.905   0.869
 3279SOL    HW210737   0.264   6.935   0.709
 3280SOL     OW10738   1.964   5.348   6.307
 3280SOL    HW110739   1.883   5.368   6.362
 3280SOL    HW210740   2.003   5.260   6.336
 3281SOL     OW10741   2.471   5.450   0.182
 3281SOL    HW110742   2.531   5.509   0.234
 3281SOL    HW210743   2.429   5.502   0.107
 3282SOL     OW10744   2.724   5.401   4.263
 3282SOL    HW110745   2.749   5.371   4.355
 3282SOL    HW210746   2.793   5.369   4.198
 3283SOL     OW10747   2.878   0.851   3.458
 3283SOL    HW110748   2.851   0.786   3.529
 3283SOL    HW210749   2.977   0.860   3.457
 3284SOL     OW10750   6.734   5.569   6.936
 3284SOL    HW110751   6.685   5.600   7.018
 3284SOL    HW210752   6.797   5.641   6.906
 3285SOL     OW10753   0.338   1.984   2.998
 3285SOL    HW110754   0.390   2.043   3.060
 3285SOL    HW210755   0.241   2.006   3.005
 3286SOL     OW10756   3.407   3.643   4.784
 3286SOL    HW110757   3.466   3.698   4.843
 3286SOL    HW210758   3.462   3.572   4.740
 3287SOL     OW10759   1.957   5.299   0.166
 3287SOL    HW110760   2.009   5.215   0.154
 3287SOL    HW210761   1.860   5.277   0.178
 3288SOL     OW10762   0.669   5.762   6.112
 3288SOL    HW110763   0.702   5.688   6.171
 3288SOL    HW210764   0.747   5.812   6.074
 3289SOL     OW10765   0.546   6.398   5.260
 3289SOL    HW110766   0.458   6.418   5.217
 3289SOL    HW210767   0.565   6.300   5.253
 3290SOL     OW10768   7.001   5.665   2.004
 3290SOL    HW110769   0.070   5.645   1.969
 3290SOL    HW210770   6.956   5.733   1.945
 3291SOL     OW10771   1.433   6.157   6.880
 3291SOL    HW110772   1.348   6.131   6.833
 3291SOL    HW210773   1.455   6.252   6.860
 3292SOL     OW10774   6.694   6.761   6.398
 3292SOL    HW110775   6.756   6.810   6.336
 3292SOL    HW210776   6.600   6.790   6.380
 3293SOL     OW10777   6.831   1.155   2.902
 3293SOL    HW110778   6.732   1.148   2.907
 3293SOL    HW210779   6.856   1.247   2.872
 3294SOL     OW10780   6.614   0.565   5.993
 3294SOL    HW110781   6.671   0.582   5.912
 3294SOL    HW210782   6.609   0.647   6.049
 3295SOL     OW10783   2.249   3.069   0.999
 3295SOL    HW110784   2.209   3.157   1.027
 3295SOL    HW210785   2.175   3.002   0.989
 3296SOL     OW10786   2.219   6.500   2.497
 3296SOL    HW110787   2.294   6.563   2.517
 3296SOL    HW210788   2.143   6.551   2.458
 3297SOL     OW10789   3.040   2.396   5.797
 3297SOL    HW110790   2.949   2.401   5.757
 3297SOL    HW210791   3.090   2.480   5.776
 3298SOL     OW10792   6.689   3.290   2.761
 3298SOL    HW110793   6.633   3.371   2.747
 3298SOL    HW210794   6.630   3.212   2.781
 3299SOL     OW10795   1.368   0.073   4.891
 3299SOL    HW110796   1.311   0.084   4.809
 3299SOL    HW210797   1.336   0.135   4.962
 3300SOL     OW10798   6.296   6.825   4.884
 3300SOL    HW110799   6.363   6.778   4.942
 3300SOL    HW210800   6.241   6.757   4.836
 3301SOL     OW10801   0.229   3.353   3.263
 3301SOL    HW110802   0.248   3.447   3.291
 3301SOL    HW210803   0.171   3.309   3.332
 3302SOL     OW10804   1.478   4.835   3.769
 3302SOL    HW110805   1.425   4.920   3.774
 3302SOL    HW210806   1.576   4.856   3.770
 3303SOL     OW10807   4.015   3.320   3.898
 3303SOL    HW110808   4.021   3.237   3.954
 3303SOL    HW210809   4.062   3.304   3.811
 3304SOL     OW10810   0.708   6.161   3.997
 3304SOL    HW110811   0.761   6.209   3.927
 3304SOL    HW210812   0.764   6.148   4.078
 3305SOL     OW10813   1.940   0.854   1.638
 3305SOL    HW110814   1.901   0.802   1.714
 3305SOL    HW210815   1.887   0.938   1.625
 3306SOL     OW10816   2.162   3.743   3.534
 3306SOL    HW110817   2.165   3.811   3.461
 3306SOL    HW210818   2.154   3.789   3.622
 3307SOL     OW10819   6.292   6.147   0.648
 3307SOL    HW110820   6.275   6.071   0.711
 3307SOL    HW210821   6.278   6.117   0.554
 3308SOL     OW10822   4.723   5.697   0.631
 3308SOL    HW110823   4.667   5.764   0.583
 3308SOL    HW210824   4.805   5.678   0.577
 3309SOL     OW10825   1.008   4.896   3.467
 3309SOL    HW110826   1.038   4.976   3.518
 3309SOL    HW210827   0.911   4.879   3.486
 3310SOL     OW10828   0.461   4.950   2.568
 3310SOL    HW110829   0.431   4.882   2.635
 3310SOL    HW210830   0.548   4.990   2.598
 3311SOL     OW10831   4.160   7.015   1.319
 3311SOL    HW110832   4.231   7.019   1.390
 3311SOL    HW210833   4.198   6.975   1.236
 3312SOL     OW10834   3.256   3.571   6.057
 3312SOL    HW110835   3.181   3.565   6.123
 3312SOL    HW210836   3.330   3.625   6.096
 3313SOL     OW10837   0.739   5.069   3.664
 3313SOL    HW110838   0.648   5.111   3.664
 3313SOL    HW210839   0.808   5.141   3.660
 3314SOL     OW10840   1.750   3.166   5.080
 3314SOL    HW110841   1.679   3.203   5.020
 3314SOL    HW210842   1.831   3.225   5.076
 3315SOL     OW10843   6.876   2.251   3.892
 3315SOL    HW110844   6.929   2.265   3.976
 3315SOL    HW210845   6.869   2.153   3.873
 3316SOL     OW10846   4.677   2.209   6.254
 3316SOL    HW110847   4.588   2.206   6.209
 3316SOL    HW210848   4.749   2.220   6.185
 3317SOL     OW10849   4.196   2.674   1.578
 3317SOL    HW110850   4.118   2.731   1.603
 3317SOL    HW210851   4.261   2.727   1.523
 3318SOL     OW10852   2.705   5.794   5.243
 3318SOL    HW110853   2.708   5.889   5.275
 3318SOL    HW210854   2.643   5.742   5.302
 3319SOL     OW10855   0.811   6.332   4.503
 3319SOL    HW110856   0.740   6.262   4.500
 3319SOL    HW210857   0.824   6.370   4.412
 3320SOL     OW10858   6.044   0.788   5.450
 3320SOL    HW110859   5.980   0.866   5.457
 3320SOL    HW210860   6.126   0.818   5.402
 3321SOL     OW10861   3.323   2.898   3.223
 3321SOL    HW110862   3.319   2.933   3.129
 3321SOL    HW210863   3.258   2.823   3.233
 3322SOL     OW10864   3.867   2.351   0.791
 3322SOL    HW110865   3.775   2.390   0.795
 3322SOL    HW210866   3.871   2.269   0.849
 3323SOL     OW10867   2.065   4.681   0.141
 3323SOL    HW110868   2.163   4.689   0.161
 3323SOL    HW210869   2.033   4.591   0.168
 3324SOL     OW10870   1.266   3.290   0.280
 3324SOL    HW110871   1.188   3.290   0.343
 3324SOL    HW210872   1.271   3.202   0.233
 3325SOL     OW10873   1.699   2.759   0.840
 3325SOL    HW110874   1.694   2.813   0.756
 3325SOL    HW210875   1.681   2.819   0.918
 3326SOL     OW10876   6.412   1.671   0.716
 3326SOL    HW110877   6.510   1.691   0.717
 3326SOL    HW210878   6.360   1.754   0.737
 3327SOL     OW10879   2.991   6.634   2.167
 3327SOL    HW110880   2.902   6.617   2.207
 3327SOL    HW210881   2.981   6.648   2.068
 3328SOL     OW10882   5.056   1.190   2.383
 3328SOL    HW110883   5.010   1.265   2.430
 3328SOL    HW210884   5.088   1.221   2.293
 3329SOL     OW10885   4.226   0.782   5.052
 3329SOL    HW110886   4.142   0.730   5.041
 3329SOL    HW210887   4.304   0.720   5.054
 3330SOL     OW10888   5.770   6.709   2.393
 3330SOL    HW110889   5.816   6.744   2.311
 3330SOL    HW210890   5.671   6.721   2.383
 3331SOL     OW10891   2.158   3.315   3.214
 3331SOL    HW110892   2.184   3.220   3.196
 3331SOL    HW210893   2.171   3.369   3.131
 3332SOL     OW10894   4.446   5.380   0.261
 3332SOL    HW110895   4.525   5.358   0.319
 3332SOL    HW210896   4.468   5.360   0.166
 3333SOL     OW10897   3.556   3.701   1.992
 3333SOL    HW110898   3.621   3.777   1.987
 3333SOL    HW210899   3.470   3.733   2.031
 3334SOL     OW10900   1.623   2.083   2.418
 3334SOL    HW110901   1.656   2.145   2.489
 3334SOL    HW210902   1.681   2.001   2.416
 3335SOL     OW10903   3.801   4.435   5.336
 3335SOL    HW110904   3.725   4.500   5.338
 3335SOL    HW210905   3.765   4.343   5.318
 3336SOL     OW10906   4.000   6.965   3.933
 3336SOL    HW110907   4.081   6.989   3.879
 3336SOL    HW210908   3.920   7.009   3.894
 3337SOL     OW10909   3.458   4.169   2.870
 3337SOL    HW110910   3.420   4.146   2.960
 3337SOL    HW210911   3.408   4.247   2.833
 3338SOL     OW10912   2.073   1.309   1.444
 3338SOL    HW110913   2.113   1.219   1.463
 3338SOL    HW210914   1.983   1.315   1.487
 3339SOL     OW10915   2.276   0.502   5.735
 3339SOL    HW110916   2.294   0.420   5.788
 3339SOL    HW210917   2.312   0.582   5.783
 3340SOL     OW10918   4.076   1.353   4.005
 3340SOL    HW110919   4.089   1.284   4.077
 3340SOL    HW210920   4.085   1.310   3.915
 3341SOL     OW10921   2.371   5.007   2.655
 3341SOL    HW110922   2.420   4.921   2.644
 3341SOL    HW210923   2.437   5.081   2.670
 3342SOL     OW10924   6.484   0.146   2.997
 3342SOL    HW110925   6.426   0.096   3.061
 3342SOL    HW210926   6.441   0.148   2.907
 3343SOL     OW10927   4.894   5.519   6.365
 3343SOL    HW110928   4.981   5.568   6.356
 3343SOL    HW210929   4.873   5.473   6.278
 3344SOL     OW10930   0.061   3.075   1.369
 3344SOL    HW110931   7.010   3.073   1.436
 3344SOL    HW210932   0.149   3.089   1.415
 3345SOL     OW10933   0.492   4.616   0.883
 3345SOL    HW110934   0.395   4.637   0.889
 3345SOL    HW210935   0.541   4.658   0.959
 3346SOL     OW10936   2.164   0.955   6.844
 3346SOL    HW110937   2.118   0.903   6.772
 3346SOL    HW210938   2.189   0.894   6.919
 3347SOL     OW10939   0.785   3.085   6.293
 3347SOL    HW110940   0.877   3.104   6.328
 3347SOL    HW210941   0.728   3.051   6.368
 3348SOL     OW10942   3.938   4.114   6.023
 3348SOL    HW110943   3.969   4.110   6.118
 3348SOL    HW210944   3.998   4.175   5.971
 3349SOL     OW10945   2.808   4.777   3.671
 3349SOL    HW110946   2.893   4.769   3.620
 3349SOL    HW210947   2.753   4.694   3.658
 3350SOL     OW10948   6.983   4.121   5.340
 3350SOL    HW110949   0.060   4.134   5.344
 3350SOL    HW210950   6.952   4.078   5.425
 3351SOL     OW10951   4.986   0.697   0.666
 3351SOL    HW110952   5.055   0.626   0.680
 3351SOL    HW210953   4.898   0.665   0.700
 3352SOL     OW10954   5.324   2.960   6.376
 3352SOL    HW110955   5.258   3.028   6.344
 3352SOL    HW210956   5.283   2.906   6.449
 3353SOL     OW10957   2.283   0.884   1.913
 3353SOL    HW110958   2.287   0.951   1.839
 3353SOL    HW210959   2.376   0.866   1.947
 3354SOL     OW10960   3.773   2.916   6.040
 3354SOL    HW110961   3.691   2.961   6.006
 3354SOL    HW210962   3.826   2.980   6.095
 3355SOL     OW10963   1.724   0.714   4.700
 3355SOL    HW110964   1.662   0.727   4.777
 3355SOL    HW210965   1.817   0.741   4.726
 3356SOL     OW10966   1.911   6.907   5.439
 3356SOL    HW110967   1.828   6.956   5.410
 3356SOL    HW210968   1.936   6.840   5.369
 3357SOL     OW10969   3.421   3.295   1.849
 3357SOL    HW110970   3.422   3.373   1.787
 3357SOL    HW210971   3.434   3.327   1.943
 3358SOL     OW10972   6.427   0.829   2.748
 3358SOL    HW110973   6.372   0.753   2.712
 3358SOL    HW210974   6.368   0.891   2.799
 3359SOL     OW10975   6.805   5.822   4.215
 3359SOL    HW110976   6.779   5.780   4.128
 3359SOL    HW210977   6.724   5.865   4.256
 3360SOL     OW10978   0.097   2.825   5.652
 3360SOL    HW110979   0.042   2.797   5.730
 3360SOL    HW210980   0.138   2.915   5.669
 3361SOL     OW10981   0.477   1.091   4.758
 3361SOL    HW110982   0.551   1.141   4.803
 3361SOL    HW210983   0.505   0.997   4.740
 3362SOL     OW10984   3.552   1.696   3.880
 3362SOL    HW110985   3.537   1.626   3.950
 3362SOL    HW210986   3.514   1.783   3.911
 3363SOL     OW10987   5.764   3.467   1.462
 3363SOL    HW110988   5.704   3.395   1.496
 3363SOL    HW210989   5.831   3.427   1.398
 3364SOL     OW10990   2.508   4.440   3.126
 3364SOL    HW110991   2.465   4.415   3.213
 3364SOL    HW210992   2.465   4.390   3.052
 3365SOL     OW10993   1.891   3.194   4.423
 3365SOL    HW110994   1.805   3.240   4.445
 3365SOL    HW210995   1.967   3.244   4.464
 3366SOL     OW10996   6.206   3.697   4.232
 3366SOL    HW110997   6.246   3.606   4.236
 3366SOL    HW210998   6.274   3.762   4.197
 3367SOL     OW10999   3.685   3.391   4.682
 3367SOL    HW111000   3.739   3.434   4.754
 3367SOL    HW211001   3.674   3.456   4.606
 3368SOL     OW11002   1.559   5.758   0.017
 3368SOL    HW111003   1.621   5.714   6.974
 3368SOL    HW211004   1.535   5.693   0.089
 3369SOL     OW11005   4.374   2.339   1.240
 3369SOL    HW111006   4.450   2.344   1.305
 3369SOL    HW211007   4.335   2.247   1.243
 3370SOL     OW11008   0.354   5.687   1.699
 3370SOL    HW111009   0.308   5.599   1.708
 3370SOL    HW211010   0.451   5.676   1.720
 3371SOL     OW11011   2.336   2.816   3.232
 3371SOL    HW111012   2.348   2.778   3.324
 3371SOL    HW211013   2.321   2.915   3.239
 3372SOL     OW11014   6.543   3.195   1.205
 3372SOL    HW111015   6.491   3.266   1.159
 3372SOL    HW211016   6.494   3.167   1.288
 3373SOL     OW11017   0.317   2.359   1.625
 3373SOL    HW111018   0.311   2.454   1.594
 3373SOL    HW211019   0.225   2.321   1.632
 3374SOL     OW11020   0.869   0.558   3.279
 3374SOL    HW111021   0.781   0.594   3.248
 3374SOL    HW211022   0.855   0.493   3.353
 3375SOL     OW11023   6.968   4.895   6.737
 3375SOL    HW111024   6.960   4.808   6.688
 3375SOL    HW211025   0.016   4.887   6.807
 3376SOL     OW11026   2.470   3.631   5.659
 3376SOL    HW111027   2.555   3.588   5.631
 3376SOL    HW211028   2.486   3.689   5.739
 3377SOL     OW11029   5.673   4.376   3.164
 3377SOL    HW111030   5.770   4.366   3.188
 3377SOL    HW211031   5.622   4.407   3.245
 3378SOL     OW11032   1.474   6.421   6.850
 3378SOL    HW111033   1.416   6.477   6.909
 3378SOL    HW211034   1.435   6.419   6.757
 3379SOL     OW11035   0.603   3.963   3.721
 3379SOL    HW111036   0.621   3.953   3.819
 3379SOL    HW211037   0.636   4.052   3.689
 3380SOL     OW11038   3.634   4.408   5.937
 3380SOL    HW111039   3.661   4.495   5.894
 3380SOL    HW211040   3.576   4.357   5.874
 3381SOL     OW11041   1.510   3.203   1.509
 3381SOL    HW111042   1.428   3.249   1.475
 3381SOL    HW211043   1.571   3.270   1.553
 3382SOL     OW11044   6.862   2.529   0.663
 3382SOL    HW111045   6.824   2.474   0.588
 3382SOL    HW211046   6.844   2.484   0.750
 3383SOL     OW11047   4.722   5.272   6.784
 3383SOL    HW111048   4.772   5.272   6.871
 3383SOL    HW211049   4.720   5.180   6.747
 3384SOL     OW11050   2.829   4.055   0.898
 3384SOL    HW111051   2.794   4.083   0.987
 3384SOL    HW211052   2.804   3.959   0.881
 3385SOL     OW11053   0.481   2.114   3.191
 3385SOL    HW111054   0.555   2.054   3.220
 3385SOL    HW211055   0.518   2.189   3.137
 3386SOL     OW11056   6.685   4.832   6.860
 3386SOL    HW111057   6.657   4.767   6.790
 3386SOL    HW211058   6.614   4.837   6.931
 3387SOL     OW11059   6.367   0.526   2.967
 3387SOL    HW111060   6.447   0.551   2.913
 3387SOL    HW211061   6.397   0.498   3.058
 3388SOL     OW11062   6.040   3.185   1.576
 3388SOL    HW111063   6.095   3.119   1.628
 3388SOL    HW211064   6.003   3.254   1.638
 3389SOL     OW11065   5.998   6.113   0.782
 3389SOL    HW111066   5.954   6.032   0.820
 3389SOL    HW211067   6.037   6.091   0.693
 3390SOL     OW11068   3.985   6.374   6.202
 3390SOL    HW111069   4.038   6.381   6.287
 3390SOL    HW211070   3.889   6.361   6.224
 3391SOL     OW11071   5.594   2.795   3.327
 3391SOL    HW111072   5.535   2.831   3.399
 3391SOL    HW211073   5.583   2.696   3.321
 3392SOL     OW11074   4.328   6.964   5.701
 3392SOL    HW111075   4.428   6.964   5.699
 3392SOL    HW211076   4.294   6.891   5.642
 3393SOL     OW11077   4.954   6.718   1.057
 3393SOL    HW111078   4.949   6.672   1.145
 3393SOL    HW211079   4.921   6.657   0.985
 3394SOL     OW11080   3.022   5.594   1.733
 3394SOL    HW111081   2.986   5.657   1.664
 3394SOL    HW211082   2.976   5.505   1.724
 3395SOL     OW11083   3.805   0.204   2.924
 3395SOL    HW111084   3.739   0.257   2.871
 3395SOL    HW211085   3.818   0.114   2.881
 3396SOL     OW11086   4.189   2.088   3.838
 3396SOL    HW111087   4.128   2.009   3.827
 3396SOL    HW211088   4.279   2.066   3.801
 3397SOL     OW11089   2.121   5.538   6.457
 3397SOL    HW111090   2.199   5.597   6.476
 3397SOL    HW211091   2.106   5.532   6.359
 3398SOL     OW11092   6.872   2.057   5.014
 3398SOL    HW111093   6.796   2.083   5.074
 3398SOL    HW211094   6.849   2.078   4.919
 3399SOL     OW11095   6.984   5.007   3.193
 3399SOL    HW111096   0.059   5.021   3.177
 3399SOL    HW211097   6.971   4.921   3.243
 3400SOL     OW11098   5.710   2.371   5.519
 3400SOL    HW111099   5.612   2.388   5.529
 3400SOL    HW211100   5.725   2.277   5.489
 3401SOL     OW11101   6.888   3.742   5.691
 3401SOL    HW111102   6.808   3.803   5.693
 3401SOL    HW211103   6.864   3.657   5.643
 3402SOL     OW11104   6.847   4.848   1.514
 3402SOL    HW111105   6.750   4.843   1.539
 3402SOL    HW211106   6.881   4.940   1.532
 3403SOL     OW11107   4.269   6.617   6.863
 3403SOL    HW111108   4.318   6.685   6.808
 3403SOL    HW211109   4.180   6.598   6.820
 3404SOL     OW11110   5.112   3.348   5.201
 3404SOL    HW111111   5.159   3.390   5.278
 3404SOL    HW211112   5.087   3.418   5.135
 3405SOL     OW11113   5.614   6.216   5.834
 3405SOL    HW111114   5.659   6.180   5.916
 3405SOL    HW211115   5.677   6.278   5.786
 3406SOL     OW11116   1.889   3.910   2.074
 3406SOL    HW111117   1.932   3.973   2.009
 3406SOL    HW211118   1.947   3.829   2.085
 3407SOL     OW11119   1.830   3.680   0.212
 3407SOL    HW111120   1.861   3.668   0.307
 3407SOL    HW211121   1.872   3.611   0.154
 3408SOL     OW11122   5.104   2.088   3.724
 3408SOL    HW111123   5.009   2.099   3.752
 3408SOL    HW211124   5.108   2.064   3.627
 3409SOL     OW11125   4.860   1.246   0.912
 3409SOL    HW111126   4.862   1.152   0.877
 3409SOL    HW211127   4.765   1.274   0.925
 3410SOL     OW11128   5.380   0.064   2.015
 3410SOL    HW111129   5.359   0.015   2.100
 3410SOL    HW211130   5.336   0.154   2.017
 3411SOL     OW11131   6.909   1.954   0.764
 3411SOL    HW111132   6.972   2.026   0.732
 3411SOL    HW211133   6.959   1.868   0.773
 3412SOL     OW11134   5.515   3.317   1.569
 3412SOL    HW111135   5.568   3.332   1.652
 3412SOL    HW211136   5.433   3.374   1.571
 3413SOL     OW11137   0.081   1.994   5.816
 3413SOL    HW111138   0.026   1.926   5.865
 3413SOL    HW211139   0.140   2.042   5.881
 3414SOL     OW11140   4.144   3.024   1.092
 3414SOL    HW111141   4.159   3.106   1.038
 3414SOL    HW211142   4.046   3.009   1.104
 3415SOL     OW11143   2.257   2.843   4.829
 3415SOL    HW111144   2.333   2.853   4.893
 3415SOL    HW211145   2.289   2.865   4.737
 3416SOL     OW11146   6.435   6.988   6.658
 3416SOL    HW111147   6.526   6.955   6.635
 3416SOL    HW211148   6.402   6.942   6.741
 3417SOL     OW11149   6.692   6.973   2.921
 3417SOL    HW111150   6.714   0.014   2.995
 3417SOL    HW211151   6.609   6.922   2.944
 3418SOL     OW11152   4.333   4.796   1.796
 3418SOL    HW111153   4.315   4.881   1.747
 3418SOL    HW211154   4.249   4.741   1.799
 3419SOL     OW11155   3.110   6.090   6.150
 3419SOL    HW111156   3.022   6.132   6.131
 3419SOL    HW211157   3.170   6.157   6.195
 3420SOL     OW11158   4.392   2.382   3.803
 3420SOL    HW111159   4.342   2.397   3.888
 3420SOL    HW211160   4.328   2.373   3.727
 3421SOL     OW11161   5.754   2.516   3.502
 3421SOL    HW111162   5.730   2.531   3.598
 3421SOL    HW211163   5.854   2.514   3.493
 3422SOL     OW11164   1.941   6.875   1.016
 3422SOL    HW111165   1.965   6.960   1.063
 3422SOL    HW211166   2.024   6.820   1.003
 3423SOL     OW11167   1.012   4.500   5.570
 3423SOL    HW111168   0.967   4.531   5.486
 3423SOL    HW211169   0.945   4.492   5.643
 3424SOL     OW11170   4.691   0.265   1.757
 3424SOL    HW111171   4.692   0.249   1.659
 3424SOL    HW211172   4.784   0.258   1.794
 3425SOL     OW11173   6.013   4.148   1.452
 3425SOL    HW111174   5.964   4.087   1.514
 3425SOL    HW211175   6.001   4.117   1.358
 3426SOL     OW11176   5.403   3.438   0.161
 3426SOL    HW111177   5.448   3.467   0.077
 3426SOL    HW211178   5.472   3.403   0.225
 3427SOL     OW11179   1.247   2.441   0.780
 3427SOL    HW111180   1.272   2.537   0.793
 3427SOL    HW211181   1.163   2.422   0.830
 3428SOL     OW11182   5.477   6.022   5.280
 3428SOL    HW111183   5.566   6.060   5.256
 3428SOL    HW211184   5.469   6.017   5.380
 3429SOL     OW11185   6.957   0.403   1.400
 3429SOL    HW111186   0.021   0.450   1.380
 3429SOL    HW211187   6.923   0.361   1.316
 3430SOL     OW11188   2.199   4.521   5.506
 3430SOL    HW111189   2.190   4.520   5.406
 3430SOL    HW211190   2.262   4.593   5.534
 3431SOL     OW11191   2.321   5.928   2.772
 3431SOL    HW111192   2.377   5.920   2.855
 3431SOL    HW211193   2.372   5.892   2.694
 3432SOL     OW11194   2.522   4.438   0.851
 3432SOL    HW111195   2.579   4.475   0.924
 3432SOL    HW211196   2.508   4.340   0.864
 3433SOL     OW11197   2.604   1.178   6.358
 3433SOL    HW111198   2.583   1.240   6.433
 3433SOL    HW211199   2.702   1.161   6.355
 3434SOL     OW11200   3.093   2.022   1.588
 3434SOL    HW111201   3.097   1.931   1.630
 3434SOL    HW211202   3.118   2.091   1.656
 3435SOL     OW11203   2.099   0.668   0.348
 3435SOL    HW111204   2.160   0.611   0.293
 3435SOL    HW211205   2.066   0.616   0.427
 3436SOL     OW11206   3.358   5.798   0.800
 3436SOL    HW111207   3.406   5.743   0.731
 3436SOL    HW211208   3.367   5.894   0.776
 3437SOL     OW11209   1.213   6.476   6.001
 3437SOL    HW111210   1.170   6.566   6.009
 3437SOL    HW211211   1.268   6.458   6.082
 3438SOL     OW11212   1.365   4.159   1.190
 3438SOL    HW111213   1.438   4.095   1.166
 3438SOL    HW211214   1.284   4.107   1.217
 3439SOL     OW11215   1.902   5.516   2.384
 3439SOL    HW111216   1.924   5.428   2.344
 3439SOL    HW211217   1.803   5.532   2.377
 3440SOL     OW11218   4.030   3.663   4.317
 3440SOL    HW111219   4.031   3.584   4.256
 3440SOL    HW211220   4.046   3.746   4.264
 3441SOL     OW11221   5.614   5.784   5.443
 3441SOL    HW111222   5.701   5.825   5.416
 3441SOL    HW211223   5.561   5.850   5.496
 3442SOL     OW11224   3.728   3.101   1.533
 3442SOL    HW111225   3.818   3.096   1.492
 3442SOL    HW211226   3.704   3.196   1.551
 3443SOL     OW11227   2.262   5.766   2.335
 3443SOL    HW111228   2.202   5.755   2.415
 3443SOL    HW211229   2.322   5.844   2.349
 3444SOL     OW11230   5.669   3.759   1.475
 3444SOL    HW111231   5.642   3.813   1.555
 3444SOL    HW211232   5.705   3.671   1.506
 3445SOL     OW11233   6.171   4.265   3.536
 3445SOL    HW111234   6.257   4.217   3.519
 3445SOL    HW211235   6.157   4.334   3.465
 3446SOL     OW11236   5.102   0.980   1.511
 3446SOL    HW111237   5.123   1.077   1.496
 3446SOL    HW211238   5.187   0.928   1.514
 3447SOL     OW11239   4.736   0.848   0.320
 3447SOL    HW111240   4.772   0.934   0.356
 3447SOL    HW211241   4.649   0.827   0.363
 3448SOL     OW11242   1.465   6.128   4.881
 3448SOL    HW111243   1.387   6.073   4.851
 3448SOL    HW211244   1.463   6.217   4.836
 3449SOL     OW11245   6.511   4.215   5.086
 3449SOL    HW111246   6.545   4.167   5.005
 3449SOL    HW211247   6.541   4.167   5.168
 3450SOL     OW11248   1.462   6.383   0.474
 3450SOL    HW111249   1.385   6.345   0.524
 3450SOL    HW211250   1.429   6.432   0.394
 3451SOL     OW11251   2.172   6.166   1.098
 3451SOL    HW111252   2.242   6.115   1.049
 3451SOL    HW211253   2.109   6.207   1.033
 3452SOL     OW11254   4.966   0.228   5.488
 3452SOL    HW111255   4.896   0.225   5.417
 3452SOL    HW211256   5.057   0.225   5.447
 3453SOL     OW11257   5.226   6.323   5.662
 3453SOL    HW111258   5.305   6.364   5.616
 3453SOL    HW211259   5.142   6.352   5.616
 3454SOL     OW11260   1.455   2.394   2.374
 3454SOL    HW111261   1.475   2.457   2.299
 3454SOL    HW211262   1.480   2.301   2.346
 3455SOL     OW11263   1.416   3.586   6.027
 3455SOL    HW111264   1.480   3.630   5.964
 3455SOL    HW211265   1.347   3.535   5.976
 3456SOL     OW11266   5.484   4.013   2.520
 3456SOL    HW111267   5.471   4.008   2.620
 3456SOL    HW211268   5.548   4.087   2.499
 3457SOL     OW11269   3.765   5.912   5.374
 3457SOL    HW111270   3.851   5.908   5.425
 3457SOL    HW211271   3.716   5.826   5.384
 3458SOL     OW11272   4.358   1.536   3.082
 3458SOL    HW111273   4.453   1.549   3.056
 3458SOL    HW211274   4.331   1.606   3.149
 3459SOL     OW11275   4.021   0.335   3.120
 3459SOL    HW111276   3.994   0.430   3.108
 3459SOL    HW211277   3.965   0.276   3.061
 3460SOL     OW11278   3.987   2.112   5.556
 3460SOL    HW111279   3.913   2.069   5.608
 3460SOL    HW211280   4.028   2.185   5.610
 3461SOL     OW11281   5.326   4.728   6.315
 3461SOL    HW111282   5.306   4.674   6.233
 3461SOL    HW211283   5.246   4.782   6.340
 3462SOL     OW11284   2.620   3.523   6.647
 3462SOL    HW111285   2.565   3.440   6.638
 3462SOL    HW211286   2.564   3.603   6.628
 3463SOL     OW11287   6.330   4.548   1.078
 3463SOL    HW111288   6.278   4.544   1.164
 3463SOL    HW211289   6.428   4.551   1.099
 3464SOL     OW11290   6.927   5.004   5.933
 3464SOL    HW111291   6.870   4.922   5.919
 3464SOL    HW211292   6.898   5.050   6.016
 3465SOL     OW11293   2.019   0.438   1.804
 3465SOL    HW111294   2.023   0.481   1.894
 3465SOL    HW211295   2.104   0.390   1.786
 3466SOL     OW11296   6.412   3.686   5.105
 3466SOL    HW111297   6.315   3.710   5.103
 3466SOL    HW211298   6.435   3.636   5.022
 3467SOL     OW11299   1.537   2.222   6.526
 3467SOL    HW111300   1.509   2.299   6.468
 3467SOL    HW211301   1.594   2.160   6.473
 3468SOL     OW11302   3.282   0.368   3.926
 3468SOL    HW111303   3.218   0.419   3.983
 3468SOL    HW211304   3.315   0.427   3.852
 3469SOL     OW11305   5.760   2.454   3.124
 3469SOL    HW111306   5.675   2.493   3.160
 3469SOL    HW211307   5.834   2.519   3.138
 3470SOL     OW11308   0.333   5.703   0.797
 3470SOL    HW111309   0.419   5.685   0.749
 3470SOL    HW211310   0.280   5.619   0.804
 3471SOL     OW11311   3.981   5.896   4.614
 3471SOL    HW111312   3.973   5.995   4.607
 3471SOL    HW211313   3.942   5.865   4.701
 3472SOL     OW11314   3.310   1.134   5.303
 3472SOL    HW111315   3.339   1.045   5.338
 3472SOL    HW211316   3.276   1.123   5.209
 3473SOL     OW11317   5.612   0.842   6.169
 3473SOL    HW111318   5.655   0.752   6.172
 3473SOL    HW211319   5.550   0.847   6.091
 3474SOL     OW11320   3.911   5.167   1.882
 3474SOL    HW111321   3.880   5.091   1.938
 3474SOL    HW211322   3.900   5.145   1.785
 3475SOL     OW11323   1.255   5.637   4.315
 3475SOL    HW111324   1.249   5.721   4.261
 3475SOL    HW211325   1.313   5.571   4.268
 3476SOL     OW11326   4.513   0.876   4.210
 3476SOL    HW111327   4.605   0.847   4.238
 3476SOL    HW211328   4.516   0.970   4.177
 3477SOL     OW11329   3.785   6.176   1.093
 3477SOL    HW111330   3.848   6.249   1.067
 3477SOL    HW211331   3.800   6.096   1.035
 3478SOL     OW11332   3.762   5.404   6.754
 3478SOL    HW111333   3.835   5.388   6.821
 3478SOL    HW211334   3.798   5.460   6.679
 3479SOL     OW11335   1.019   0.566   1.742
 3479SOL    HW111336   1.001   0.514   1.658
 3479SOL    HW211337   0.976   0.520   1.819
 3480SOL     OW11338   0.494   1.539   3.082
 3480SOL    HW111339   0.434   1.619   3.089
 3480SOL    HW211340   0.526   1.513   3.173
 3481SOL     OW11341   2.331   6.490   6.502
 3481SOL    HW111342   2.426   6.476   6.529
 3481SOL    HW211343   2.277   6.521   6.580
 3482SOL     OW11344   7.011   2.183   0.641
 3482SOL    HW111345   0.004   2.259   0.578
 3482SOL    HW211346   6.944   2.210   0.710
 3483SOL     OW11347   2.352   0.506   1.522
 3483SOL    HW111348   2.287   0.577   1.549
 3483SOL    HW211349   2.408   0.539   1.447
 3484SOL     OW11350   3.741   3.383   3.851
 3484SOL    HW111351   3.841   3.378   3.856
 3484SOL    HW211352   3.710   3.335   3.769
 3485SOL     OW11353   1.219   3.083   5.293
 3485SOL    HW111354   1.291   3.086   5.224
 3485SOL    HW211355   1.259   3.096   5.384
 3486SOL     OW11356   4.574   2.222   1.726
 3486SOL    HW111357   4.554   2.149   1.661
 3486SOL    HW211358   4.510   2.217   1.803
 3487SOL     OW11359   6.108   1.732   6.478
 3487SOL    HW111360   6.179   1.767   6.539
 3487SOL    HW211361   6.141   1.732   6.384
 3488SOL     OW11362   5.623   3.493   3.560
 3488SOL    HW111363   5.648   3.396   3.555
 3488SOL    HW211364   5.690   3.547   3.509
 3489SOL     OW11365   3.262   0.666   1.268
 3489SOL    HW111366   3.163   0.667   1.279
 3489SOL    HW211367   3.288   0.733   1.199
 3490SOL     OW11368   4.671   3.913   0.128
 3490SOL    HW111369   4.664   4.012   0.137
 3490SOL    HW211370   4.732   3.877   0.199
 3491SOL     OW11371   0.515   2.957   5.553
 3491SOL    HW111372   0.520   2.865   5.590
 3491SOL    HW211373   0.585   3.014   5.596
 3492SOL     OW11374   0.010   4.707   6.526
 3492SOL    HW111375   6.986   4.776   6.471
 3492SOL    HW211376   0.082   4.664   6.471
 3493SOL     OW11377   6.494   4.694   0.786
 3493SOL    HW111378   6.585   4.653   0.787
 3493SOL    HW211379   6.431   4.633   0.738
 3494SOL     OW11380   3.237   0.429   1.574
 3494SOL    HW111381   3.218   0.504   1.638
 3494SOL    HW211382   3.181   0.441   1.492
 3495SOL     OW11383   4.550   4.947   1.224
 3495SOL    HW111384   4.596   4.865   1.258
 3495SOL    HW211385   4.598   5.028   1.255
 3496SOL     OW11386   1.971   2.941   0.484
 3496SOL    HW111387   1.932   2.872   0.424
 3496SOL    HW211388   2.070   2.929   0.489
 3497SOL     OW11389   4.459   0.891   3.747
 3497SOL    HW111390   4.443   0.801   3.706
 3497SOL    HW211391   4.557   0.902   3.765
 3498SOL     OW11392   2.700   1.533   1.737
 3498SOL    HW111393   2.766   1.607   1.723
 3498SOL    HW211394   2.748   1.451   1.769
 3499SOL     OW11395   6.597   2.800   4.556
 3499SOL    HW111396   6.584   2.896   4.580
 3499SOL    HW211397   6.659   2.757   4.622
 3500SOL     OW11398   5.999   3.935   6.917
 3500SOL    HW111399   5.964   3.849   6.953
 3500SOL    HW211400   6.045   3.919   6.830
 3501SOL     OW11401   1.925   4.234   4.937
 3501SOL    HW111402   1.946   4.212   4.841
 3501SOL    HW211403   1.993   4.191   4.996
 3502SOL     OW11404   0.915   2.163   0.689
 3502SOL    HW111405   1.009   2.182   0.661
 3502SOL    HW211406   0.859   2.146   0.609
 3503SOL     OW11407   5.025   5.980   5.311
 3503SOL    HW111408   5.009   5.892   5.267
 3503SOL    HW211409   4.941   6.033   5.313
 3504SOL     OW11410   2.296   3.227   1.574
 3504SOL    HW111411   2.360   3.292   1.615
 3504SOL    HW211412   2.331   3.134   1.584
 3505SOL     OW11413   5.587   5.535   5.523
 3505SOL    HW111414   5.603   5.632   5.509
 3505SOL    HW211415   5.602   5.512   5.619
 3506SOL     OW11416   4.904   5.302   3.011
 3506SOL    HW111417   4.836   5.284   3.082
 3506SOL    HW211418   4.875   5.381   2.956
 3507SOL     OW11419   0.944   0.076   6.595
 3507SOL    HW111420   0.881   0.035   6.661
 3507SOL    HW211421   0.892   0.121   6.522
 3508SOL     OW11422   5.401   4.003   0.086
 3508SOL    HW111423   5.496   3.986   0.115
 3508SOL    HW211424   5.362   3.919   0.049
 3509SOL     OW11425   6.521   6.165   6.840
 3509SOL    HW111426   6.582   6.226   6.890
 3509SOL    HW211427   6.545   6.070   6.859
 3510SOL     OW11428   2.558   2.107   1.852
 3510SOL    HW111429   2.544   2.123   1.754
 3510SOL    HW211430   2.638   2.156   1.884
 3511SOL     OW11431   0.379   2.647   6.879
 3511SOL    HW111432   0.364   2.651   6.781
 3511SOL    HW211433   0.311   2.704   6.925
 3512SOL     OW11434   2.944   2.858   0.707
 3512SOL    HW111435   3.035   2.831   0.676
 3512SOL    HW211436   2.952   2.926   0.780
 3513SOL     OW11437   6.590   4.145   1.587
 3513SOL    HW111438   6.597   4.067   1.649
 3513SOL    HW211439   6.499   4.186   1.595
 3514SOL     OW11440   0.761   6.303   1.004
 3514SOL    HW111441   0.787   6.396   0.979
 3514SOL    HW211442   0.844   6.249   1.022
 3515SOL     OW11443   3.035   6.468   3.102
 3515SOL    HW111444   3.118   6.484   3.156
 3515SOL    HW211445   2.962   6.433   3.161
 3516SOL     OW11446   2.916   1.146   0.856
 3516SOL    HW111447   2.820   1.134   0.879
 3516SOL    HW211448   2.954   1.223   0.908
 3517SOL     OW11449   1.330   1.461   6.366
 3517SOL    HW111450   1.265   1.511   6.309
 3517SOL    HW211451   1.349   1.514   6.448
 3518SOL     OW11452   4.652   3.303   6.234
 3518SOL    HW111453   4.600   3.388   6.222
 3518SOL    HW211454   4.631   3.264   6.324
 3519SOL     OW11455   2.104   6.684   6.473
 3519SOL    HW111456   2.154   6.710   6.556
 3519SOL    HW211457   2.018   6.735   6.468
 3520SOL     OW11458   3.725   5.746   1.349
 3520SOL    HW111459   3.682   5.666   1.389
 3520SOL    HW211460   3.673   5.828   1.374
 3521SOL     OW11461   5.661   2.357   1.500
 3521SOL    HW111462   5.605   2.439   1.510
 3521SOL    HW211463   5.707   2.337   1.587
 3522SOL     OW11464   3.418   4.875   2.234
 3522SOL    HW111465   3.428   4.786   2.277
 3522SOL    HW211466   3.508   4.908   2.204
 3523SOL     OW11467   2.901   4.821   4.819
 3523SOL    HW111468   2.880   4.749   4.884
 3523SOL    HW211469   2.821   4.837   4.760
 3524SOL     OW11470   2.669   0.550   0.705
 3524SOL    HW111471   2.639   0.569   0.611
 3524SOL    HW211472   2.765   0.576   0.716
 3525SOL     OW11473   0.769   2.922   2.154
 3525SOL    HW111474   0.805   2.940   2.245
 3525SOL    HW211475   0.843   2.932   2.087
 3526SOL     OW11476   1.295   0.656   2.298
 3526SOL    HW111477   1.217   0.625   2.350
 3526SOL    HW211478   1.280   0.637   2.201
 3527SOL     OW11479   5.520   3.287   6.216
 3527SOL    HW111480   5.602   3.264   6.267
 3527SOL    HW211481   5.494   3.382   6.233
 3528SOL     OW11482   0.780   6.591   3.897
 3528SOL    HW111483   0.696   6.588   3.953
 3528SOL    HW211484   0.757   6.573   3.802
 3529SOL     OW11485   4.372   6.500   5.943
 3529SOL    HW111486   4.287   6.550   5.956
 3529SOL    HW211487   4.439   6.559   5.897
 3530SOL     OW11488   2.421   5.595   2.591
 3530SOL    HW111489   2.487   5.649   2.644
 3530SOL    HW211490   2.366   5.539   2.653
 3531SOL     OW11491   6.094   4.519   0.551
 3531SOL    HW111492   6.069   4.429   0.517
 3531SOL    HW211493   6.146   4.509   0.636
 3532SOL     OW11494   2.363   0.264   6.955
 3532SOL    HW111495   2.333   0.171   6.934
 3532SOL    HW211496   2.404   0.266   0.023
 3533SOL     OW11497   1.062   1.655   3.639
 3533SOL    HW111498   1.051   1.752   3.659
 3533SOL    HW211499   1.031   1.636   3.546
 3534SOL     OW11500   4.941   1.195   4.537
 3534SOL    HW111501   4.974   1.130   4.468
 3534SOL    HW211502   4.842   1.203   4.531
 3535SOL     OW11503   5.369   5.357   5.868
 3535SOL    HW111504   5.409   5.328   5.782
 3535SOL    HW211505   5.440   5.362   5.939
 3536SOL     OW11506   1.862   3.529   2.824
 3536SOL    HW111507   1.807   3.472   2.763
 3536SOL    HW211508   1.833   3.624   2.815
 3537SOL     OW11509   1.875   5.363   0.875
 3537SOL    HW111510   1.910   5.288   0.819
 3537SOL    HW211511   1.893   5.344   0.971
 3538SOL     OW11512   2.877   0.238   3.566
 3538SOL    HW111513   2.913   0.328   3.589
 3538SOL    HW211514   2.852   0.236   3.469
 3539SOL     OW11515   5.107   4.786   5.986
 3539SOL    HW111516   5.063   4.834   5.911
 3539SOL    HW211517   5.042   4.774   6.061
 3540SOL     OW11518   3.351   3.444   6.771
 3540SOL    HW111519   3.282   3.379   6.803
 3540SOL    HW211520   3.307   3.529   6.743
 3541SOL     OW11521   3.025   2.299   0.719
 3541SOL    HW111522   3.109   2.272   0.767
 3541SOL    HW211523   3.037   2.390   0.680
 3542SOL     OW11524   5.565   2.096   6.314
 3542SOL    HW111525   5.564   2.000   6.288
 3542SOL    HW211526   5.616   2.107   6.400
 3543SOL     OW11527   1.829   2.471   3.233
 3543SOL    HW111528   1.909   2.525   3.206
 3543SOL    HW211529   1.856   2.408   3.307
 3544SOL     OW11530   2.594   4.469   5.966
 3544SOL    HW111531   2.518   4.462   5.901
 3544SOL    HW211532   2.604   4.382   6.016
 3545SOL     OW11533   3.290   0.283   0.758
 3545SOL    HW111534   3.306   0.223   0.679
 3545SOL    HW211535   3.225   0.355   0.732
 3546SOL     OW11536   6.786   3.610   3.256
 3546SOL    HW111537   6.754   3.592   3.349
 3546SOL    HW211538   6.758   3.702   3.228
 3547SOL     OW11539   0.487   3.465   5.914
 3547SOL    HW111540   0.511   3.470   6.011
 3547SOL    HW211541   0.391   3.490   5.903
 3548SOL     OW11542   5.679   0.784   5.861
 3548SOL    HW111543   5.690   0.740   5.950
 3548SOL    HW211544   5.717   0.726   5.790
 3549SOL     OW11545   2.661   5.746   6.404
 3549SOL    HW111546   2.742   5.737   6.462
 3549SOL    HW211547   2.682   5.710   6.313
 3550SOL     OW11548   5.084   1.144   5.012
 3550SOL    HW111549   5.052   1.239   5.013
 3550SOL    HW211550   5.020   1.089   4.958
 3551SOL     OW11551   4.229   2.279   4.437
 3551SOL    HW111552   4.209   2.244   4.528
 3551SOL    HW211553   4.295   2.354   4.443
 3552SOL     OW11554   6.981   6.218   3.025
 3552SOL    HW111555   6.971   6.140   3.087
 3552SOL    HW211556   6.920   6.292   3.054
 3553SOL     OW11557   4.097   5.213   6.690
 3553SOL    HW111558   4.024   5.146   6.688
 3553SOL    HW211559   4.067   5.297   6.645
 3554SOL     OW11560   4.471   3.430   1.663
 3554SOL    HW111561   4.418   3.513   1.650
 3554SOL    HW211562   4.565   3.453   1.687
 3555SOL     OW11563   2.476   2.188   4.470
 3555SOL    HW111564   2.387   2.155   4.502
 3555SOL    HW211565   2.521   2.239   4.543
 3556SOL     OW11566   4.468   1.102   5.423
 3556SOL    HW111567   4.533   1.030   5.401
 3556SOL    HW211568   4.386   1.092   5.366
 3557SOL     OW11569   6.251   1.617   1.464
 3557SOL    HW111570   6.317   1.619   1.539
 3557SOL    HW211571   6.168   1.569   1.494
 3558SOL     OW11572   3.078   6.898   1.095
 3558SOL    HW111573   3.011   6.834   1.133
 3558SOL    HW211574   3.037   6.945   1.016
 3559SOL     OW11575   3.898   6.168   4.533
 3559SOL    HW111576   3.872   6.106   4.459
 3559SOL    HW211577   3.899   6.262   4.500
 3560SOL     OW11578   1.802   5.986   4.639
 3560SOL    HW111579   1.870   5.934   4.691
 3560SOL    HW211580   1.737   5.923   4.598
 3561SOL     OW11581   4.999   4.262   5.144
 3561SOL    HW111582   5.018   4.186   5.207
 3561SOL    HW211583   5.037   4.242   5.054
 3562SOL     OW11584   2.424   1.275   5.568
 3562SOL    HW111585   2.401   1.349   5.631
 3562SOL    HW211586   2.399   1.302   5.475
 3563SOL     OW11587   5.831   2.493   5.735
 3563SOL    HW111588   5.930   2.497   5.724
 3563SOL    HW211589   5.790   2.443   5.658
 3564SOL     OW11590   6.737   4.138   2.691
 3564SOL    HW111591   6.756   4.162   2.596
 3564SOL    HW211592   6.741   4.039   2.702
 3565SOL     OW11593   3.714   5.956   3.445
 3565SOL    HW111594   3.772   5.987   3.370
 3565SOL    HW211595   3.714   5.856   3.449
 3566SOL     OW11596   0.285   1.484   5.701
 3566SOL    HW111597   0.306   1.450   5.610
 3566SOL    HW211598   0.200   1.536   5.698
 3567SOL     OW11599   0.318   4.946   6.736
 3567SOL    HW111600   0.342   5.011   6.663
 3567SOL    HW211601   0.320   4.853   6.699
 3568SOL     OW11602   6.264   3.601   6.142
 3568SOL    HW111603   6.221   3.563   6.060
 3568SOL    HW211604   6.196   3.608   6.215
 3569SOL     OW11605   2.289   2.507   5.345
 3569SOL    HW111606   2.236   2.519   5.261
 3569SOL    HW211607   2.379   2.548   5.333
 3570SOL     OW11608   6.666   1.352   4.125
 3570SOL    HW111609   6.745   1.293   4.107
 3570SOL    HW211610   6.641   1.401   4.041
 3571SOL     OW11611   6.470   5.588   6.504
 3571SOL    HW111612   6.492   5.502   6.551
 3571SOL    HW211613   6.518   5.663   6.548
 3572SOL     OW11614   5.798   3.534   4.930
 3572SOL    HW111615   5.787   3.562   5.026
 3572SOL    HW211616   5.778   3.611   4.870
 3573SOL     OW11617   1.337   3.318   3.181
 3573SOL    HW111618   1.393   3.237   3.169
 3573SOL    HW211619   1.395   3.396   3.204
 3574SOL     OW11620   0.285   4.329   0.473
 3574SOL    HW111621   0.236   4.414   0.490
 3574SOL    HW211622   0.230   4.252   0.505
 3575SOL     OW11623   6.352   5.635   2.936
 3575SOL    HW111624   6.275   5.571   2.931
 3575SOL    HW211625   6.392   5.632   3.027
 3576SOL     OW11626   0.562   1.269   6.130
 3576SOL    HW111627   0.639   1.278   6.193
 3576SOL    HW211628   0.597   1.265   6.036
 3577SOL     OW11629   0.825   2.727   6.444
 3577SOL    HW111630   0.859   2.759   6.355
 3577SOL    HW211631   0.751   2.787   6.475
 3578SOL     OW11632   3.109   4.845   0.030
 3578SOL    HW111633   3.203   4.856   7.022
 3578SOL    HW211634   3.107   4.790   0.114
 3579SOL     OW11635   6.587   3.139   4.874
 3579SOL    HW111636   6.601   3.236   4.893
 3579SOL    HW211637   6.522   3.128   4.798
 3580SOL     OW11638   6.218   1.513   2.089
 3580SOL    HW111639   6.287   1.586   2.097
 3580SOL    HW211640   6.170   1.503   2.176
 3581SOL     OW11641   0.052   0.450   2.226
 3581SOL    HW111642   0.130   0.452   2.289
 3581SOL    HW211643   7.000   0.504   2.265
 3582SOL     OW11644   0.981   0.471   6.006
 3582SOL    HW111645   0.908   0.511   5.950
 3582SOL    HW211646   1.055   0.439   5.946
 3583SOL     OW11647   0.984   4.629   6.750
 3583SOL    HW111648   1.033   4.590   6.828
 3583SOL    HW211649   0.906   4.681   6.782
 3584SOL     OW11650   5.491   6.510   6.814
 3584SOL    HW111651   5.560   6.565   6.861
 3584SOL    HW211652   5.492   6.531   6.716
 3585SOL     OW11653   3.920   4.899   4.259
 3585SOL    HW111654   3.991   4.838   4.295
 3585SOL    HW211655   3.846   4.907   4.325
 3586SOL     OW11656   6.358   3.269   5.892
 3586SOL    HW111657   6.456   3.254   5.877
 3586SOL    HW211658   6.338   3.260   5.989
 3587SOL     OW11659   3.576   6.774   0.565
 3587SOL    HW111660   3.519   6.819   0.634
 3587SOL    HW211661   3.666   6.756   0.604
 3588SOL     OW11662   1.596   2.098   5.831
 3588SOL    HW111663   1.557   2.147   5.753
 3588SOL    HW211664   1.527   2.037   5.870
 3589SOL     OW11665   3.095   0.842   5.392
 3589SOL    HW111666   3.194   0.834   5.379
 3589SOL    HW211667   3.061   0.921   5.341
 3590SOL     OW11668   1.463   5.344   6.051
 3590SOL    HW111669   1.437   5.321   5.957
 3590SOL    HW211670   1.553   5.306   6.071
 3591SOL     OW11671   5.327   2.800   5.841
 3591SOL    HW111672   5.356   2.890   5.809
 3591SOL    HW211673   5.349   2.791   5.938
 3592SOL     OW11674   5.136   3.142   2.856
 3592SOL    HW111675   5.098   3.121   2.765
 3592SOL    HW211676   5.193   3.066   2.886
 3593SOL     OW11677   2.224   6.929   4.068
 3593SOL    HW111678   2.249   6.973   4.154
 3593SOL    HW211679   2.305   6.924   4.009
 3594SOL     OW11680   2.406   0.916   3.408
 3594SOL    HW111681   2.383   0.923   3.311
 3594SOL    HW211682   2.354   0.842   3.450
 3595SOL     OW11683   2.243   6.250   6.128
 3595SOL    HW111684   2.276   6.342   6.149
 3595SOL    HW211685   2.146   6.253   6.106
 3596SOL     OW11686   6.782   1.042   1.933
 3596SOL    HW111687   6.816   1.110   1.999
 3596SOL    HW211688   6.717   1.086   1.871
 3597SOL     OW11689   4.276   6.206   4.350
 3597SOL    HW111690   4.286   6.113   4.314
 3597SOL    HW211691   4.274   6.202   4.450
 3598SOL     OW11692   0.728   6.983   6.134
 3598SOL    HW111693   0.691   6.952   6.046
 3598SOL    HW211694   0.652   7.003   6.196
 3599SOL     OW11695   6.804   2.211   4.803
 3599SOL    HW111696   6.881   2.196   4.740
 3599SOL    HW211697   6.723   2.236   4.750
 3600SOL     OW11698   6.296   2.964   1.286
 3600SOL    HW111699   6.370   2.988   1.349
 3600SOL    HW211700   6.307   2.869   1.256
 3601SOL     OW11701   0.274   3.544   0.115
 3601SOL    HW111702   0.352   3.494   0.152
 3601SOL    HW211703   0.198   3.481   0.097
 3602SOL     OW11704   1.826   0.823   6.980
 3602SOL    HW111705   1.907   0.828   0.015
 3602SOL    HW211706   1.824   0.735   6.933
 3603SOL     OW11707   4.103   4.935   4.014
 3603SOL    HW111708   4.018   4.949   4.064
 3603SOL    HW211709   4.169   4.888   4.072
 3604SOL     OW11710   6.663   2.278   2.567
 3604SOL    HW111711   6.653   2.254   2.663
 3604SOL    HW211712   6.743   2.233   2.529
 3605SOL     OW11713   5.975   4.164   6.357
 3605SOL    HW111714   6.011   4.144   6.266
 3605SOL    HW211715   6.051   4.180   6.420
 3606SOL     OW11716   6.528   4.269   5.628
 3606SOL    HW111717   6.577   4.312   5.553
 3606SOL    HW211718   6.430   4.275   5.612
 3607SOL     OW11719   5.165   0.880   0.530
 3607SOL    HW111720   5.111   0.820   0.589
 3607SOL    HW211721   5.143   0.975   0.550
 3608SOL     OW11722   0.551   1.819   1.594
 3608SOL    HW111723   0.594   1.742   1.641
 3608SOL    HW211724   0.453   1.801   1.583
 3609SOL     OW11725   6.651   0.689   4.617
 3609SOL    HW111726   6.686   0.780   4.595
 3609SOL    HW211727   6.651   0.677   4.716
 3610SOL     OW11728   0.576   6.664   5.266
 3610SOL    HW111729   0.623   6.714   5.338
 3610SOL    HW211730   0.594   6.566   5.277
 3611SOL     OW11731   3.436   5.291   5.337
 3611SOL    HW111732   3.460   5.322   5.429
 3611SOL    HW211733   3.343   5.256   5.337
 3612SOL     OW11734   1.136   6.257   6.973
 3612SOL    HW111735   1.206   6.247   0.021
 3612SOL    HW211736   1.175   6.231   6.884
 3613SOL     OW11737   4.837   4.919   0.501
 3613SOL    HW111738   4.933   4.933   0.525
 3613SOL    HW211739   4.831   4.871   0.413
 3614SOL     OW11740   3.994   3.634   3.599
 3614SOL    HW111741   4.059   3.569   3.562
 3614SOL    HW211742   3.903   3.617   3.562
 3615SOL     OW11743   6.144   5.335   5.632
 3615SOL    HW111744   6.147   5.240   5.665
 3615SOL    HW211745   6.055   5.353   5.591
 3616SOL     OW11746   6.662   2.083   6.419
 3616SOL    HW111747   6.578   2.084   6.364
 3616SOL    HW211748   6.638   2.097   6.515
 3617SOL     OW11749   5.948   2.539   6.822
 3617SOL    HW111750   5.864   2.563   6.871
 3617SOL    HW211751   5.927   2.528   6.724
 3618SOL     OW11752   1.644   1.499   5.752
 3618SOL    HW111753   1.578   1.515   5.825
 3618SOL    HW211754   1.726   1.554   5.769
 3619SOL     OW11755   6.084   2.572   3.796
 3619SOL    HW111756   6.018   2.503   3.824
 3619SOL    HW211757   6.170   2.558   3.845
 3620SOL     OW11758   5.666   0.424   5.586
 3620SOL    HW111759   5.693   0.354   5.652
 3620SOL    HW211760   5.637   0.380   5.501
 3621SOL     OW11761   2.645   2.791   5.803
 3621SOL    HW111762   2.700   2.717   5.765
 3621SOL    HW211763   2.548   2.774   5.785
 3622SOL     OW11764   0.688   1.323   2.951
 3622SOL    HW111765   0.737   1.305   3.036
 3622SOL    HW211766   0.607   1.379   2.970
 3623SOL     OW11767   5.778   5.056   4.064
 3623SOL    HW111768   5.864   5.106   4.059
 3623SOL    HW211769   5.797   4.960   4.084
 3624SOL     OW11770   2.299   6.371   3.403
 3624SOL    HW111771   2.343   6.391   3.490
 3624SOL    HW211772   2.330   6.282   3.370
 3625SOL     OW11773   6.175   3.483   5.913
 3625SOL    HW111774   6.190   3.560   5.851
 3625SOL    HW211775   6.201   3.398   5.867
 3626SOL     OW11776   1.963   3.315   4.993
 3626SOL    HW111777   2.014   3.233   5.016
 3626SOL    HW211778   2.017   3.396   5.014
 3627SOL     OW11779   3.904   4.000   3.187
 3627SOL    HW111780   3.906   3.980   3.285
 3627SOL    HW211781   3.819   4.049   3.165
 3628SOL     OW11782   2.244   5.485   1.944
 3628SOL    HW111783   2.217   5.389   1.951
 3628SOL    HW211784   2.181   5.541   1.999
 3629SOL     OW11785   6.197   2.299   5.676
 3629SOL    HW111786   6.149   2.385   5.662
 3629SOL    HW211787   6.274   2.314   5.739
 3630SOL     OW11788   5.742   2.183   4.604
 3630SOL    HW111789   5.698   2.194   4.515
 3630SOL    HW211790   5.701   2.246   4.670
 3631SOL     OW11791   2.540   0.111   4.627
 3631SOL    HW111792   2.497   0.049   4.692
 3631SOL    HW211793   2.565   0.060   4.544
 3632SOL     OW11794   5.321   0.736   1.069
 3632SOL    HW111795   5.310   0.710   1.165
 3632SOL    HW211796   5.357   0.829   1.064
 3633SOL     OW11797   2.478   2.488   5.965
 3633SOL    HW111798   2.392   2.468   6.013
 3633SOL    HW211799   2.477   2.446   5.874
 3634SOL     OW11800   0.975   6.557   4.615
 3634SOL    HW111801   0.922   6.473   4.609
 3634SOL    HW211802   0.928   6.622   4.676
 3635SOL     OW11803   3.176   1.467   4.889
 3635SOL    HW111804   3.130   1.444   4.975
 3635SOL    HW211805   3.107   1.480   4.817
 3636SOL     OW11806   0.162   5.987   6.223
 3636SOL    HW111807   0.190   5.895   6.249
 3636SOL    HW211808   0.231   6.053   6.255
 3637SOL     OW11809   6.148   2.317   1.064
 3637SOL    HW111810   6.227   2.373   1.090
 3637SOL    HW211811   6.065   2.356   1.105
 3638SOL     OW11812   6.683   4.606   4.449
 3638SOL    HW111813   6.768   4.579   4.403
 3638SOL    HW211814   6.641   4.681   4.397
 3639SOL     OW11815   3.707   3.799   1.111
 3639SOL    HW111816   3.733   3.817   1.016
 3639SOL    HW211817   3.704   3.700   1.127
 3640SOL     OW11818   3.540   6.117   6.905
 3640SOL    HW111819   3.614   6.133   6.970
 3640SOL    HW211820   3.457   6.164   6.937
 3641SOL     OW11821   3.688   1.487   4.674
 3641SOL    HW111822   3.769   1.531   4.635
 3641SOL    HW211823   3.615   1.488   4.606
 3642SOL     OW11824   4.811   1.356   5.533
 3642SOL    HW111825   4.853   1.279   5.484
 3642SOL    HW211826   4.878   1.429   5.545
 3643SOL     OW11827   3.326   5.706   4.348
 3643SOL    HW111828   3.312   5.744   4.440
 3643SOL    HW211829   3.317   5.607   4.351
 3644SOL     OW11830   0.071   2.242   1.354
 3644SOL    HW111831   0.084   2.265   1.451
 3644SOL    HW211832   0.157   2.211   1.315
 3645SOL     OW11833   5.561   1.638   3.790
 3645SOL    HW111834   5.623   1.567   3.755
 3645SOL    HW211835   5.518   1.607   3.875
 3646SOL     OW11836   6.586   4.418   5.373
 3646SOL    HW111837   6.527   4.492   5.342
 3646SOL    HW211838   6.579   4.341   5.309
 3647SOL     OW11839   1.516   3.361   0.187
 3647SOL    HW111840   1.575   3.333   0.262
 3647SOL    HW211841   1.421   3.340   0.210
 3648SOL     OW11842   3.981   5.469   2.636
 3648SOL    HW111843   3.889   5.463   2.676
 3648SOL    HW211844   4.016   5.377   2.620
 3649SOL     OW11845   4.231   3.262   0.948
 3649SOL    HW111846   4.158   3.232   0.887
 3649SOL    HW211847   4.211   3.354   0.981
 3650SOL     OW11848   6.514   6.243   1.061
 3650SOL    HW111849   6.471   6.230   1.150
 3650SOL    HW211850   6.450   6.288   0.999
 3651SOL     OW11851   0.322   6.040   2.029
 3651SOL    HW111852   0.287   6.131   2.050
 3651SOL    HW211853   0.291   6.011   1.939
 3652SOL     OW11854   4.767   6.556   3.256
 3652SOL    HW111855   4.830   6.567   3.333
 3652SOL    HW211856   4.675   6.583   3.284
 3653SOL     OW11857   6.181   1.133   3.310
 3653SOL    HW111858   6.167   1.038   3.284
 3653SOL    HW211859   6.258   1.140   3.373
 3654SOL     OW11860   2.137   6.581   0.947
 3654SOL    HW111861   2.095   6.634   0.873
 3654SOL    HW211862   2.201   6.515   0.908
 3655SOL     OW11863   1.321   6.736   4.097
 3655SOL    HW111864   1.297   6.677   4.174
 3655SOL    HW211865   1.391   6.691   4.042
 3656SOL     OW11866   1.867   2.386   1.709
 3656SOL    HW111867   1.831   2.382   1.615
 3656SOL    HW211868   1.935   2.314   1.721
 3657SOL     OW11869   4.046   5.512   6.792
 3657SOL    HW111870   3.994   5.532   6.875
 3657SOL    HW211871   4.113   5.584   6.776
 3658SOL     OW11872   0.828   5.704   5.293
 3658SOL    HW111873   0.743   5.655   5.308
 3658SOL    HW211874   0.866   5.733   5.382
 3659SOL     OW11875   2.589   4.206   6.887
 3659SOL    HW111876   2.611   4.120   6.932
 3659SOL    HW211877   2.635   4.210   6.799
 3660SOL     OW11878   4.507   6.425   2.160
 3660SOL    HW111879   4.409   6.446   2.155
 3660SOL    HW211880   4.557   6.484   2.096
 3661SOL     OW11881   5.087   2.577   6.651
 3661SOL    HW111882   5.023   2.502   6.634
 3661SOL    HW211883   5.125   2.568   6.743
 3662SOL     OW11884   3.674   6.862   4.790
 3662SOL    HW111885   3.585   6.852   4.836
 3662SOL    HW211886   3.715   6.950   4.816
 3663SOL     OW11887   1.165   1.412   0.238
 3663SOL    HW111888   1.232   1.402   0.312
 3663SOL    HW211889   1.209   1.394   0.150
 3664SOL     OW11890   4.906   1.506   0.475
 3664SOL    HW111891   4.950   1.456   0.401
 3664SOL    HW211892   4.807   1.507   0.460
 3665SOL     OW11893   0.310   5.910   5.527
 3665SOL    HW111894   0.254   5.918   5.610
 3665SOL    HW211895   0.267   5.962   5.453
 3666SOL     OW11896   1.559   4.544   3.865
 3666SOL    HW111897   1.605   4.594   3.938
 3666SOL    HW211898   1.605   4.561   3.778
 3667SOL     OW11899   5.918   0.880   0.175
 3667SOL    HW111900   5.828   0.837   0.168
 3667SOL    HW211901   5.989   0.812   0.156
 3668SOL     OW11902   1.344   6.672   2.410
 3668SOL    HW111903   1.396   6.751   2.440
 3668SOL    HW211904   1.387   6.588   2.445
 3669SOL     OW11905   5.883   1.486   4.396
 3669SOL    HW111906   5.969   1.532   4.418
 3669SOL    HW211907   5.820   1.495   4.472
 3670SOL     OW11908   2.166   5.454   0.286
 3670SOL    HW111909   2.260   5.462   0.253
 3670SOL    HW211910   2.117   5.388   0.229
 3671SOL     OW11911   6.511   0.345   3.171
 3671SOL    HW111912   6.481   0.302   3.256
 3671SOL    HW211913   6.511   0.277   3.098
 3672SOL     OW11914   5.894   2.083   0.586
 3672SOL    HW111915   5.900   2.133   0.500
 3672SOL    HW211916   5.969   2.110   0.646
 3673SOL     OW11917   4.110   0.977   6.296
 3673SOL    HW111918   4.016   0.984   6.263
 3673SOL    HW211919   4.112   0.926   6.382
 3674SOL     OW11920   0.488   6.543   6.616
 3674SOL    HW111921   0.421   6.495   6.560
 3674SOL    HW211922   0.508   6.489   6.698
 3675SOL     OW11923   1.831   2.498   5.228
 3675SOL    HW111924   1.764   2.427   5.206
 3675SOL    HW211925   1.922   2.467   5.200
 3676SOL     OW11926   4.164   5.285   4.062
 3676SOL    HW111927   4.211   5.274   3.974
 3676SOL    HW211928   4.070   5.315   4.045
 3677SOL     OW11929   0.943   5.910   3.139
 3677SOL    HW111930   0.971   6.000   3.105
 3677SOL    HW211931   1.007   5.880   3.210
 3678SOL     OW11932   0.899   2.418   3.360
 3678SOL    HW111933   0.983   2.370   3.333
 3678SOL    HW211934   0.889   2.501   3.305
 3679SOL     OW11935   0.224   0.819   2.552
 3679SOL    HW111936   0.195   0.733   2.510
 3679SOL    HW211937   0.251   0.884   2.481
 3680SOL     OW11938   6.284   3.227   3.921
 3680SOL    HW111939   6.370   3.176   3.918
 3680SOL    HW211940   6.233   3.212   3.837
 3681SOL     OW11941   0.838   0.670   5.836
 3681SOL    HW111942   0.828   0.739   5.764
 3681SOL    HW211943   0.877   0.713   5.917
 3682SOL     OW11944   6.010   2.169   5.853
 3682SOL    HW111945   5.913   2.166   5.828
 3682SOL    HW211946   6.063   2.204   5.776
 3683SOL     OW11947   6.674   0.054   4.831
 3683SOL    HW111948   6.748   0.025   4.891
 3683SOL    HW211949   6.694   0.026   4.737
 3684SOL     OW11950   1.947   3.079   1.467
 3684SOL    HW111951   1.982   3.139   1.539
 3684SOL    HW211952   2.023   3.050   1.408
 3685SOL     OW11953   6.366   6.218   5.852
 3685SOL    HW111954   6.285   6.197   5.797
 3685SOL    HW211955   6.345   6.204   5.949
 3686SOL     OW11956   6.322   5.159   3.139
 3686SOL    HW111957   6.307   5.095   3.064
 3686SOL    HW211958   6.287   5.120   3.224
 3687SOL     OW11959   3.185   6.473   5.933
 3687SOL    HW111960   3.187   6.404   5.860
 3687SOL    HW211961   3.104   6.530   5.922
 3688SOL     OW11962   0.806   4.055   7.020
 3688SOL    HW111963   0.766   4.083   0.084
 3688SOL    HW211964   0.906   4.065   0.002
 3689SOL     OW11965   0.919   0.464   5.124
 3689SOL    HW111966   0.860   0.527   5.074
 3689SOL    HW211967   0.890   0.460   5.220
 3690SOL     OW11968   4.516   0.778   6.022
 3690SOL    HW111969   4.592   0.843   6.025
 3690SOL    HW211970   4.437   0.816   6.070
 3691SOL     OW11971   2.557   2.658   6.592
 3691SOL    HW111972   2.579   2.560   6.588
 3691SOL    HW211973   2.623   2.708   6.536
 3692SOL     OW11974   0.935   5.379   4.812
 3692SOL    HW111975   0.953   5.311   4.883
 3692SOL    HW211976   0.876   5.451   4.849
 3693SOL     OW11977   1.576   2.547   2.864
 3693SOL    HW111978   1.625   2.550   2.951
 3693SOL    HW211979   1.522   2.463   2.859
 3694SOL     OW11980   0.693   5.664   3.417
 3694SOL    HW111981   0.789   5.635   3.412
 3694SOL    HW211982   0.677   5.712   3.503
 3695SOL     OW11983   0.741   2.295   2.805
 3695SOL    HW111984   0.680   2.333   2.735
 3695SOL    HW211985   0.835   2.302   2.774
 3696SOL     OW11986   4.719   6.446   5.544
 3696SOL    HW111987   4.654   6.390   5.493
 3696SOL    HW211988   4.674   6.487   5.623
 3697SOL     OW11989   6.839   6.439   3.061
 3697SOL    HW111990   6.765   6.433   3.128
 3697SOL    HW211991   6.920   6.479   3.105
 3698SOL     OW11992   3.616   0.236   5.671
 3698SOL    HW111993   3.559   0.278   5.742
 3698SOL    HW211994   3.616   0.294   5.589
 3699SOL     OW11995   6.716   3.863   3.190
 3699SOL    HW111996   6.683   3.908   3.107
 3699SOL    HW211997   6.742   3.932   3.258
 3700SOL     OW11998   6.044   0.522   3.503
 3700SOL    HW111999   5.953   0.536   3.543
 3700SOL    HW212000   6.048   0.431   3.461
 3701SOL     OW12001   0.467   0.789   3.982
 3701SOL    HW112002   0.451   0.886   3.967
 3701SOL    HW212003   0.529   0.777   4.060
 3702SOL     OW12004   4.134   0.149   1.828
 3702SOL    HW112005   4.180   0.141   1.916
 3702SOL    HW212006   4.147   0.064   1.776
 3703SOL     OW12007   4.230   3.876   5.662
 3703SOL    HW112008   4.329   3.883   5.652
 3703SOL    HW212009   4.187   3.960   5.627
 3704SOL     OW12010   3.259   0.509   2.354
 3704SOL    HW112011   3.269   0.418   2.313
 3704SOL    HW212012   3.175   0.511   2.409
 3705SOL     OW12013   4.956   0.038   4.080
 3705SOL    HW112014   4.940   0.003   4.172
 3705SOL    HW212015   4.870   0.075   4.043
 3706SOL     OW12016   1.849   2.559   4.286
 3706SOL    HW112017   1.940   2.577   4.322
 3706SOL    HW212018   1.800   2.645   4.274
 3707SOL     OW12019   5.336   3.159   5.507
 3707SOL    HW112020   5.287   3.072   5.498
 3707SOL    HW212021   5.272   3.235   5.495
 3708SOL     OW12022   5.946   0.137   6.478
 3708SOL    HW112023   5.940   0.099   6.386
 3708SOL    HW212024   5.888   0.218   6.485
 3709SOL     OW12025   3.835   0.995   6.211
 3709SOL    HW112026   3.779   0.948   6.143
 3709SOL    HW212027   3.777   1.052   6.269
 3710SOL     OW12028   6.628   6.135   0.135
 3710SOL    HW112029   6.621   6.192   0.217
 3710SOL    HW212030   6.537   6.126   0.093
 3711SOL     OW12031   0.405   5.635   2.674
 3711SOL    HW112032   0.386   5.620   2.771
 3711SOL    HW212033   0.356   5.717   2.643
 3712SOL     OW12034   6.963   6.432   6.760
 3712SOL    HW112035   7.011   6.364   6.815
 3712SOL    HW212036   6.916   6.385   6.684
 3713SOL     OW12037   2.055   6.256   4.963
 3713SOL    HW112038   2.027   6.315   5.039
 3713SOL    HW212039   1.987   6.261   4.890
 3714SOL     OW12040   5.091   6.505   4.971
 3714SOL    HW112041   5.187   6.487   4.950
 3714SOL    HW212042   5.078   6.603   4.990
 3715SOL     OW12043   5.865   4.015   4.806
 3715SOL    HW112044   5.947   3.964   4.783
 3715SOL    HW212045   5.833   4.066   4.725
 3716SOL     OW12046   0.279   6.428   4.430
 3716SOL    HW112047   0.249   6.363   4.500
 3716SOL    HW212048   0.201   6.458   4.376
 3717SOL     OW12049   6.010   5.656   0.315
 3717SOL    HW112050   6.013   5.754   0.333
 3717SOL    HW212051   6.082   5.632   0.250
 3718SOL     OW12052   1.473   6.611   6.569
 3718SOL    HW112053   1.464   6.511   6.561
 3718SOL    HW212054   1.550   6.633   6.629
 3719SOL     OW12055   4.504   4.294   0.978
 3719SOL    HW112056   4.592   4.342   0.969
 3719SOL    HW212057   4.500   4.248   1.066
 3720SOL     OW12058   6.419   2.578   6.719
 3720SOL    HW112059   6.449   2.578   6.815
 3720SOL    HW212060   6.471   2.510   6.668
 3721SOL     OW12061   5.310   4.769   0.125
 3721SOL    HW112062   5.261   4.702   0.069
 3721SOL    HW212063   5.258   4.784   0.210
 3722SOL     OW12064   6.720   6.433   2.277
 3722SOL    HW112065   6.778   6.429   2.196
 3722SOL    HW212066   6.768   6.390   2.354
 3723SOL     OW12067   5.610   6.839   2.009
 3723SOL    HW112068   5.600   6.937   2.025
 3723SOL    HW212069   5.577   6.788   2.089
 3724SOL     OW12070   1.937   5.132   6.644
 3724SOL    HW112071   1.923   5.089   6.555
 3724SOL    HW212072   1.985   5.068   6.704
 3725SOL     OW12073   6.139   6.008   6.961
 3725SOL    HW112074   6.083   6.091   6.968
 3725SOL    HW212075   6.143   5.963   0.028
 3726SOL     OW12076   6.992   4.060   1.285
 3726SOL    HW112077   0.016   4.090   1.201
 3726SOL    HW212078   6.922   3.994   1.263
 3727SOL     OW12079   0.609   3.226   5.896
 3727SOL    HW112080   0.547   3.298   5.864
 3727SOL    HW212081   0.660   3.259   5.975
 3728SOL     OW12082   2.101   3.503   0.158
 3728SOL    HW112083   2.168   3.429   0.148
 3728SOL    HW212084   2.073   3.509   0.254
 3729SOL     OW12085   0.953   2.502   2.894
 3729SOL    HW112086   0.955   2.444   2.813
 3729SOL    HW212087   0.898   2.583   2.876
 3730SOL     OW12088   2.427   6.499   0.075
 3730SOL    HW112089   2.449   6.596   0.083
 3730SOL    HW212090   2.423   6.473   7.001
 3731SOL     OW12091   4.975   1.765   0.486
 3731SOL    HW112092   4.931   1.678   0.466
 3731SOL    HW212093   4.932   1.808   0.565
 3732SOL     OW12094   2.144   3.483   5.798
 3732SOL    HW112095   2.096   3.417   5.855
 3732SOL    HW212096   2.219   3.437   5.750
 3733SOL     OW12097   2.236   3.865   1.822
 3733SOL    HW112098   2.279   3.779   1.796
 3733SOL    HW212099   2.145   3.870   1.780
 3734SOL     OW12100   4.515   1.553   1.816
 3734SOL    HW112101   4.497   1.572   1.912
 3734SOL    HW212102   4.542   1.458   1.805
 3735SOL     OW12103   1.369   1.832   2.717
 3735SOL    HW112104   1.286   1.797   2.675
 3735SOL    HW212105   1.355   1.928   2.743
 3736SOL     OW12106   0.073   2.915   0.635
 3736SOL    HW112107   0.111   2.841   0.692
 3736SOL    HW212108   0.037   2.876   0.550
 3737SOL     OW12109   5.041   0.375   3.419
 3737SOL    HW112110   4.964   0.355   3.358
 3737SOL    HW212111   5.120   0.320   3.393
 3738SOL     OW12112   6.058   5.612   3.192
 3738SOL    HW112113   6.055   5.630   3.291
 3738SOL    HW212114   6.038   5.697   3.143
 3739SOL     OW12115   1.888   4.048   2.995
 3739SOL    HW112116   1.897   4.122   2.927
 3739SOL    HW212117   1.974   3.998   3.000
 3740SOL     OW12118   4.294   0.603   6.495
 3740SOL    HW112119   4.386   0.619   6.531
 3740SOL    HW212120   4.299   0.589   6.396
 3741SOL     OW12121   4.669   3.783   1.082
 3741SOL    HW112122   4.750   3.782   1.140
 3741SOL    HW212123   4.590   3.812   1.136
 3742SOL     OW12124   2.835   2.385   5.553
 3742SOL    HW112125   2.898   2.348   5.485
 3742SOL    HW212126   2.740   2.368   5.524
 3743SOL     OW12127   6.090   4.995   0.651
 3743SOL    HW112128   6.023   5.028   0.584
 3743SOL    HW212129   6.179   4.983   0.607
 3744SOL     OW12130   0.542   5.901   4.433
 3744SOL    HW112131   0.475   5.912   4.359
 3744SOL    HW212132   0.534   5.809   4.472
 3745SOL     OW12133   3.246   5.167   3.217
 3745SOL    HW112134   3.289   5.078   3.202
 3745SOL    HW212135   3.315   5.233   3.246
 3746SOL     OW12136   4.442   1.368   1.359
 3746SOL    HW112137   4.388   1.419   1.292
 3746SOL    HW212138   4.414   1.395   1.451
 3747SOL     OW12139   3.016   6.685   6.389
 3747SOL    HW112140   3.094   6.714   6.444
 3747SOL    HW212141   2.931   6.706   6.437
 3748SOL     OW12142   5.771   1.097   1.656
 3748SOL    HW112143   5.810   1.188   1.645
 3748SOL    HW212144   5.673   1.105   1.675
 3749SOL     OW12145   2.079   6.788   4.492
 3749SOL    HW112146   2.076   6.733   4.409
 3749SOL    HW212147   2.174   6.807   4.516
 3750SOL     OW12148   1.335   3.943   0.567
 3750SOL    HW112149   1.354   3.847   0.587
 3750SOL    HW212150   1.324   3.993   0.654
 3751SOL     OW12151   6.979   3.715   2.893
 3751SOL    HW112152   6.979   3.809   2.929
 3751SOL    HW212153   6.936   3.654   2.959
 3752SOL     OW12154   5.141   0.693   5.832
 3752SOL    HW112155   5.140   0.793   5.826
 3752SOL    HW212156   5.231   0.659   5.803
 3753SOL     OW12157   6.383   0.751   4.487
 3753SOL    HW112158   6.404   0.813   4.562
 3753SOL    HW212159   6.404   0.657   4.514
 3754SOL     OW12160   2.326   0.597   2.049
 3754SOL    HW112161   2.380   0.555   1.976
 3754SOL    HW212162   2.248   0.645   2.009
 3755SOL     OW12163   3.396   4.905   4.602
 3755SOL    HW112164   3.492   4.920   4.627
 3755SOL    HW212165   3.341   4.893   4.684
 3756SOL     OW12166   2.843   6.005   0.242
 3756SOL    HW112167   2.862   5.909   0.258
 3756SOL    HW212168   2.754   6.029   0.282
 3757SOL     OW12169   6.183   4.959   1.868
 3757SOL    HW112170   6.255   4.968   1.937
 3757SOL    HW212171   6.151   5.050   1.841
 3758SOL     OW12172   1.969   0.794   4.273
 3758SOL    HW112173   1.986   0.887   4.305
 3758SOL    HW212174   1.883   0.761   4.313
 3759SOL     OW12175   5.231   0.899   4.443
 3759SOL    HW112176   5.207   0.802   4.438
 3759SOL    HW212177   5.171   0.950   4.381
 3760SOL     OW12178   0.305   0.476   3.929
 3760SOL    HW112179   0.304   0.504   4.025
 3760SOL    HW212180   0.220   0.429   3.907
 3761SOL     OW12181   5.708   1.540   4.595
 3761SOL    HW112182   5.720   1.564   4.691
 3761SOL    HW212183   5.613   1.556   4.568
 3762SOL     OW12184   1.485   3.979   2.549
 3762SOL    HW112185   1.585   3.975   2.555
 3762SOL    HW212186   1.445   3.919   2.619
 3763SOL     OW12187   6.944   4.145   0.382
 3763SOL    HW112188   6.912   4.237   0.402
 3763SOL    HW212189   0.008   4.129   0.430
 3764SOL     OW12190   2.082   0.032   3.068
 3764SOL    HW112191   2.053   6.989   3.139
 3764SOL    HW212192   2.116   0.115   3.112
 3765SOL     OW12193   6.385   1.792   1.095
 3765SOL    HW112194   6.472   1.807   1.047
 3765SOL    HW212195   6.318   1.860   1.064
 3766SOL     OW12196   2.081   2.579   3.869
 3766SOL    HW112197   2.030   2.629   3.799
 3766SOL    HW212198   2.090   2.637   3.951
 3767SOL     OW12199   2.850   4.449   6.268
 3767SOL    HW112200   2.880   4.503   6.190
 3767SOL    HW212201   2.772   4.392   6.241
 3768SOL     OW12202   1.191   1.068   4.115
 3768SOL    HW112203   1.155   1.160   4.127
 3768SOL    HW212204   1.281   1.072   4.072
 3769SOL     OW12205   5.723   5.792   4.861
 3769SOL    HW112206   5.669   5.738   4.796
 3769SOL    HW212207   5.775   5.731   4.921
 3770SOL     OW12208   1.051   1.132   0.507
 3770SOL    HW112209   0.985   1.130   0.582
 3770SOL    HW212210   1.004   1.149   0.420
 3771SOL     OW12211   0.081   5.145   1.033
 3771SOL    HW112212   0.010   5.075   1.044
 3771SOL    HW212213   0.063   5.199   0.951
 3772SOL     OW12214   1.226   6.318   0.580
 3772SOL    HW112215   1.154   6.250   0.570
 3772SOL    HW212216   1.196   6.405   0.542
 3773SOL     OW12217   5.784   3.857   5.769
 3773SOL    HW112218   5.688   3.832   5.754
 3773SOL    HW212219   5.809   3.838   5.864
 3774SOL     OW12220   5.256   5.335   1.653
 3774SOL    HW112221   5.206   5.313   1.737
 3774SOL    HW212222   5.293   5.428   1.660
 3775SOL     OW12223   4.120   4.804   3.131
 3775SOL    HW112224   4.105   4.820   3.033
 3775SOL    HW212225   4.151   4.710   3.145
 3776SOL     OW12226   3.906   3.072   6.237
 3776SOL    HW112227   3.918   3.168   6.262
 3776SOL    HW212228   3.996   3.031   6.222
 3777SOL     OW12229   2.586   6.477   4.231
 3777SOL    HW112230   2.539   6.421   4.299
 3777SOL    HW212231   2.657   6.423   4.187
 3778SOL     OW12232   3.059   6.123   4.499
 3778SOL    HW112233   3.000   6.139   4.578
 3778SOL    HW212234   3.071   6.025   4.485
 3779SOL     OW12235   0.077   5.361   0.592
 3779SOL    HW112236   0.039   5.453   0.593
 3779SOL    HW212237   0.130   5.347   0.508
 3780SOL     OW12238   0.215   2.210   2.247
 3780SOL    HW112239   0.303   2.179   2.212
 3780SOL    HW212240   0.219   2.309   2.263
 3781SOL     OW12241   1.246   6.647   4.896
 3781SOL    HW112242   1.321   6.684   4.950
 3781SOL    HW212243   1.159   6.686   4.928
 3782SOL     OW12244   3.716   6.245   2.197
 3782SOL    HW112245   3.697   6.149   2.176
 3782SOL    HW212246   3.680   6.303   2.124
 3783SOL     OW12247   5.435   4.875   5.452
 3783SOL    HW112248   5.423   4.838   5.360
 3783SOL    HW212249   5.417   4.803   5.519
 3784SOL     OW12250   5.407   2.456   2.549
 3784SOL    HW112251   5.329   2.398   2.576
 3784SOL    HW212252   5.374   2.543   2.514
 3785SOL     OW12253   0.759   3.223   4.938
 3785SOL    HW112254   0.713   3.207   4.851
 3785SOL    HW212255   0.746   3.143   4.997
 3786SOL     OW12256   2.578   2.147   3.652
 3786SOL    HW112257   2.566   2.126   3.749
 3786SOL    HW212258   2.557   2.065   3.598
 3787SOL     OW12259   4.160   0.471   2.770
 3787SOL    HW112260   4.195   0.551   2.721
 3787SOL    HW212261   4.188   0.388   2.721
 3788SOL     OW12262   0.151   3.692   4.889
 3788SOL    HW112263   0.119   3.598   4.882
 3788SOL    HW212264   0.072   3.753   4.898
 3789SOL     OW12265   1.376   2.042   3.111
 3789SOL    HW112266   1.287   2.085   3.092
 3789SOL    HW212267   1.423   2.094   3.182
 3790SOL     OW12268   1.201   5.576   0.220
 3790SOL    HW112269   1.300   5.576   0.237
 3790SOL    HW212270   1.156   5.629   0.291
 3791SOL     OW12271   5.397   1.824   5.677
 3791SOL    HW112272   5.409   1.841   5.775
 3791SOL    HW212273   5.320   1.879   5.643
 3792SOL     OW12274   0.849   0.775   4.384
 3792SOL    HW112275   0.850   0.768   4.285
 3792SOL    HW212276   0.804   0.695   4.423
 3793SOL     OW12277   6.008   6.137   0.488
 3793SOL    HW112278   6.006   6.225   0.439
 3793SOL    HW212279   5.915   6.112   0.514
 3794SOL     OW12280   1.900   3.611   1.225
 3794SOL    HW112281   1.891   3.517   1.256
 3794SOL    HW212282   1.901   3.673   1.303
 3795SOL     OW12283   2.993   5.916   1.018
 3795SOL    HW112284   3.043   5.993   0.977
 3795SOL    HW212285   3.055   5.838   1.026
 3796SOL     OW12286   4.001   2.260   1.118
 3796SOL    HW112287   4.048   2.345   1.094
 3796SOL    HW212288   3.938   2.235   1.045
 3797SOL     OW12289   1.108   3.961   2.500
 3797SOL    HW112290   1.119   3.964   2.600
 3797SOL    HW212291   1.062   3.876   2.474
 3798SOL     OW12292   2.581   6.764   3.113
 3798SOL    HW112293   2.551   6.669   3.118
 3798SOL    HW212294   2.560   6.800   3.022
 3799SOL     OW12295   6.493   2.556   2.978
 3799SOL    HW112296   6.431   2.571   2.902
 3799SOL    HW212297   6.456   2.600   3.061
 3800SOL     OW12298   5.343   1.474   3.205
 3800SOL    HW112299   5.439   1.467   3.179
 3800SOL    HW212300   5.317   1.570   3.215
 3801SOL     OW12301   5.312   6.578   2.033
 3801SOL    HW112302   5.304   6.639   1.955
 3801SOL    HW212303   5.322   6.483   2.002
 3802SOL     OW12304   0.114   1.630   2.291
 3802SOL    HW112305   0.174   1.568   2.342
 3802SOL    HW212306   0.167   1.710   2.261
 3803SOL     OW12307   2.998   3.925   3.551
 3803SOL    HW112308   3.040   3.841   3.584
 3803SOL    HW212309   2.926   3.953   3.613
 3804SOL     OW12310   3.824   0.430   4.454
 3804SOL    HW112311   3.792   0.458   4.364
 3804SOL    HW212312   3.819   0.508   4.517
 3805SOL     OW12313   2.413   2.590   1.026
 3805SOL    HW112314   2.335   2.649   1.048
 3805SOL    HW212315   2.451   2.553   1.110
 3806SOL     OW12316   3.941   4.610   6.452
 3806SOL    HW112317   3.921   4.512   6.453
 3806SOL    HW212318   3.996   4.631   6.371
 3807SOL     OW12319   1.483   5.014   4.582
 3807SOL    HW112320   1.576   5.041   4.607
 3807SOL    HW212321   1.423   5.024   4.661
 3808SOL     OW12322   4.838   0.276   5.732
 3808SOL    HW112323   4.880   0.237   5.814
 3808SOL    HW212324   4.904   0.275   5.657
 3809SOL     OW12325   5.780   2.126   1.383
 3809SOL    HW112326   5.880   2.121   1.387
 3809SOL    HW212327   5.750   2.220   1.397
 3810SOL     OW12328   6.330   2.575   3.194
 3810SOL    HW112329   6.362   2.544   3.284
 3810SOL    HW212330   6.330   2.675   3.191
 3811SOL     OW12331   0.051   5.068   4.746
 3811SOL    HW112332   0.147   5.092   4.733
 3811SOL    HW212333   0.045   4.993   4.813
 3812SOL     OW12334   3.353   5.915   6.758
 3812SOL    HW112335   3.321   5.882   6.847
 3812SOL    HW212336   3.384   6.009   6.766
 3813SOL     OW12337   6.322   3.630   1.226
 3813SOL    HW112338   6.390   3.645   1.297
 3813SOL    HW212339   6.281   3.539   1.237
 3814SOL     OW12340   0.131   6.935   3.921
 3814SOL    HW112341   0.229   6.955   3.910
 3814SOL    HW212342   0.087   7.011   3.969
 3815SOL     OW12343   5.285   2.962   0.531
 3815SOL    HW112344   5.375   3.003   0.543
 3815SOL    HW212345   5.243   2.946   0.621
 3816SOL     OW12346   0.331   6.701   5.439
 3816SOL    HW112347   0.406   6.685   5.375
 3816SOL    HW212348   0.367   6.745   5.521
 3817SOL     OW12349   4.906   3.354   2.772
 3817SOL    HW112350   4.821   3.304   2.788
 3817SOL    HW212351   4.938   3.394   2.858
 3818SOL     OW12352   0.142   0.493   1.255
 3818SOL    HW112353   0.140   0.586   1.218
 3818SOL    HW212354   0.237   0.467   1.274
 3819SOL     OW12355   6.275   4.415   2.799
 3819SOL    HW112356   6.288   4.513   2.780
 3819SOL    HW212357   6.364   4.372   2.813
 3820SOL     OW12358   5.527   6.471   3.888
 3820SOL    HW112359   5.445   6.527   3.897
 3820SOL    HW212360   5.606   6.530   3.871
 3821SOL     OW12361   0.705   6.785   7.017
 3821SOL    HW112362   0.683   6.882   7.008
 3821SOL    HW212363   0.776   6.773   0.065
 3822SOL     OW12364   3.499   0.609   6.803
 3822SOL    HW112365   3.466   0.633   6.712
 3822SOL    HW212366   3.524   0.512   6.806
 3823SOL     OW12367   4.900   4.819   6.176
 3823SOL    HW112368   4.809   4.859   6.185
 3823SOL    HW212369   4.950   4.829   6.262
 3824SOL     OW12370   1.231   2.930   0.740
 3824SOL    HW112371   1.133   2.914   0.748
 3824SOL    HW212372   1.254   2.947   0.644
 3825SOL     OW12373   0.993   4.337   0.786
 3825SOL    HW112374   0.991   4.250   0.833
 3825SOL    HW212375   1.002   4.411   0.852
 3826SOL     OW12376   6.917   3.775   2.632
 3826SOL    HW112377   6.968   3.751   2.550
 3826SOL    HW212378   6.962   3.736   2.713
 3827SOL     OW12379   0.801   0.874   1.069
 3827SOL    HW112380   0.736   0.937   1.026
 3827SOL    HW212381   0.843   0.919   1.148
 3828SOL     OW12382   3.757   4.218   5.084
 3828SOL    HW112383   3.740   4.214   4.986
 3828SOL    HW212384   3.845   4.263   5.101
 3829SOL     OW12385   0.612   5.492   2.211
 3829SOL    HW112386   0.592   5.475   2.307
 3829SOL    HW212387   0.646   5.586   2.200
 3830SOL     OW12388   0.213   0.650   5.342
 3830SOL    HW112389   0.253   0.683   5.257
 3830SOL    HW212390   0.259   0.567   5.371
 3831SOL     OW12391   4.172   2.295   2.902
 3831SOL    HW112392   4.234   2.227   2.864
 3831SOL    HW212393   4.079   2.258   2.904
 3832SOL     OW12394   0.368   0.386   1.609
 3832SOL    HW112395   0.419   0.336   1.679
 3832SOL    HW212396   0.433   0.433   1.549
 3833SOL     OW12397   1.743   6.365   6.727
 3833SOL    HW112398   1.657   6.393   6.771
 3833SOL    HW212399   1.749   6.405   6.636
 3834SOL     OW12400   4.260   4.264   1.421
 3834SOL    HW112401   4.241   4.176   1.465
 3834SOL    HW212402   4.217   4.337   1.473
 3835SOL     OW12403   3.660   6.161   5.320
 3835SOL    HW112404   3.607   6.211   5.387
 3835SOL    HW212405   3.669   6.066   5.349
 3836SOL     OW12406   0.644   4.805   5.959
 3836SOL    HW112407   0.629   4.821   5.861
 3836SOL    HW212408   0.621   4.887   6.010
 3837SOL     OW12409   3.884   5.283   5.350
 3837SOL    HW112410   3.846   5.229   5.275
 3837SOL    HW212411   3.875   5.232   5.435
 3838SOL     OW12412   1.459   1.257   3.218
 3838SOL    HW112413   1.405   1.330   3.261
 3838SOL    HW212414   1.497   1.290   3.132
 3839SOL     OW12415   4.527   0.641   3.002
 3839SOL    HW112416   4.602   0.697   3.036
 3839SOL    HW212417   4.493   0.582   3.076
 3840SOL     OW12418   2.510   1.345   6.131
 3840SOL    HW112419   2.549   1.274   6.189
 3840SOL    HW212420   2.521   1.434   6.175
 3841SOL     OW12421   0.794   4.302   3.899
 3841SOL    HW112422   0.865   4.285   3.968
 3841SOL    HW212423   0.710   4.332   3.944
 3842SOL     OW12424   2.375   2.341   4.225
 3842SOL    HW112425   2.386   2.275   4.300
 3842SOL    HW212426   2.460   2.348   4.173
 3843SOL     OW12427   5.645   3.376   0.873
 3843SOL    HW112428   5.632   3.433   0.793
 3843SOL    HW212429   5.679   3.432   0.949
 3844SOL     OW12430   1.551   4.621   0.002
 3844SOL    HW112431   1.550   4.589   0.096
 3844SOL    HW212432   1.461   4.657   7.000
 3845SOL     OW12433   2.724   6.107   0.017
 3845SOL    HW112434   2.771   6.051   0.085
 3845SOL    HW212435   2.740   6.068   6.949
 3846SOL     OW12436   0.818   3.234   4.564
 3846SOL    HW112437   0.803   3.163   4.632
 3846SOL    HW212438   0.829   3.323   4.609
 3847SOL     OW12439   5.357   2.074   4.355
 3847SOL    HW112440   5.277   2.095   4.298
 3847SOL    HW212441   5.340   1.991   4.407
 3848SOL     OW12442   4.982   3.232   3.136
 3848SOL    HW112443   4.976   3.300   3.064
 3848SOL    HW212444   4.928   3.151   3.110
 3849SOL     OW12445   0.127   6.987   6.774
 3849SOL    HW112446   0.225   6.967   6.773
 3849SOL    HW212447   0.111   0.049   6.825
 3850SOL     OW12448   3.342   3.063   1.148
 3850SOL    HW112449   3.422   3.029   1.198
 3850SOL    HW212450   3.260   3.053   1.205
 3851SOL     OW12451   6.523   4.889   3.881
 3851SOL    HW112452   6.482   4.875   3.971
 3851SOL    HW212453   6.603   4.830   3.871
 3852SOL     OW12454   3.535   6.642   4.123
 3852SOL    HW112455   3.633   6.664   4.117
 3852SOL    HW212456   3.508   6.590   4.042
 3853SOL     OW12457   1.903   1.622   3.501
 3853SOL    HW112458   1.888   1.527   3.530
 3853SOL    HW212459   1.822   1.676   3.522
 3854SOL     OW12460   1.120   3.057   3.077
 3854SOL    HW112461   1.206   3.008   3.074
 3854SOL    HW212462   1.133   3.151   3.045
 3855SOL     OW12463   4.071   6.511   0.709
 3855SOL    HW112464   4.014   6.428   0.712
 3855SOL    HW212465   4.069   6.549   0.617
 3856SOL     OW12466   0.681   1.584   5.783
 3856SOL    HW112467   0.588   1.565   5.816
 3856SOL    HW212468   0.690   1.682   5.764
 3857SOL     OW12469   1.626   6.512   5.455
 3857SOL    HW112470   1.636   6.527   5.554
 3857SOL    HW212471   1.715   6.484   5.418
 3858SOL     OW12472   3.345   1.269   5.616
 3858SOL    HW112473   3.377   1.204   5.546
 3858SOL    HW212474   3.257   1.240   5.651
 3859SOL     OW12475   6.106   1.053   1.074
 3859SOL    HW112476   6.040   1.127   1.086
 3859SOL    HW212477   6.199   1.090   1.078
 3860SOL     OW12478   1.730   1.070   4.744
 3860SOL    HW112479   1.673   1.142   4.782
 3860SOL    HW212480   1.673   1.006   4.693
 3861SOL     OW12481   4.523   5.993   2.871
 3861SOL    HW112482   4.595   5.961   2.932
 3861SOL    HW212483   4.539   6.089   2.848
 3862SOL     OW12484   0.808   0.468   4.428
 3862SOL    HW112485   0.717   0.437   4.401
 3862SOL    HW212486   0.878   0.411   4.386
 3863SOL     OW12487   6.019   1.563   6.949
 3863SOL    HW112488   6.010   1.614   6.864
 3863SOL    HW212489   5.992   1.621   0.003
 3864SOL     OW12490   2.306   0.506   4.917
 3864SOL    HW112491   2.323   0.570   4.992
 3864SOL    HW212492   2.349   0.419   4.938
 3865SOL     OW12493   4.298   1.642   0.636
 3865SOL    HW112494   4.263   1.650   0.543
 3865SOL    HW212495   4.222   1.648   0.701
 3866SOL     OW12496   3.389   1.428   6.629
 3866SOL    HW112497   3.445   1.388   6.702
 3866SOL    HW212498   3.371   1.524   6.650
 3867SOL     OW12499   1.514   4.095   3.335
 3867SOL    HW112500   1.508   4.058   3.427
 3867SOL    HW212501   1.604   4.075   3.296
 3868SOL     OW12502   4.418   0.523   6.865
 3868SOL    HW112503   4.489   0.460   6.833
 3868SOL    HW212504   4.329   0.477   6.863
 3869SOL     OW12505   6.322   3.069   3.578
 3869SOL    HW112506   6.290   3.052   3.671
 3869SOL    HW212507   6.366   2.987   3.542
 3870SOL     OW12508   6.487   6.594   2.123
 3870SOL    HW112509   6.566   6.617   2.180
 3870SOL    HW212510   6.518   6.545   2.041
 3871SOL     OW12511   3.065   6.823   3.168
 3871SOL    HW112512   3.150   6.820   3.221
 3871SOL    HW212513   2.997   6.763   3.211
 3872SOL     OW12514   3.135   3.020   4.477
 3872SOL    HW112515   3.056   3.010   4.416
 3872SOL    HW212516   3.186   3.102   4.452
 3873SOL     OW12517   5.227   4.004   1.248
 3873SOL    HW112518   5.289   4.001   1.169
 3873SOL    HW212519   5.280   3.998   1.332
 3874SOL     OW12520   4.203   0.979   0.263
 3874SOL    HW112521   4.152   0.937   0.338
 3874SOL    HW212522   4.255   1.057   0.298
 3875SOL     OW12523   1.938   2.622   3.631
 3875SOL    HW112524   1.846   2.617   3.668
 3875SOL    HW212525   1.939   2.586   3.538
 3876SOL     OW12526   3.455   5.491   1.149
 3876SOL    HW112527   3.426   5.586   1.142
 3876SOL    HW212528   3.550   5.487   1.182
 3877SOL     OW12529   6.529   2.527   0.882
 3877SOL    HW112530   6.524   2.626   0.890
 3877SOL    HW212531   6.576   2.489   0.962
 3878SOL     OW12532   4.832   6.421   4.508
 3878SOL    HW112533   4.922   6.400   4.469
 3878SOL    HW212534   4.843   6.476   4.590
 3879SOL     OW12535   5.356   5.314   0.744
 3879SOL    HW112536   5.415   5.375   0.797
 3879SOL    HW212537   5.268   5.359   0.728
 3880SOL     OW12538   5.136   4.198   4.388
 3880SOL    HW112539   5.053   4.144   4.406
 3880SOL    HW212540   5.161   4.189   4.291
 3881SOL     OW12541   1.139   3.472   1.699
 3881SOL    HW112542   1.146   3.381   1.657
 3881SOL    HW212543   1.128   3.462   1.798
 3882SOL     OW12544   0.420   1.086   6.797
 3882SOL    HW112545   0.474   1.126   6.871
 3882SOL    HW212546   0.341   1.145   6.777
 3883SOL     OW12547   3.983   1.195   2.535
 3883SOL    HW112548   4.035   1.219   2.617
 3883SOL    HW212549   3.909   1.261   2.522
 3884SOL     OW12550   0.515   5.784   2.358
 3884SOL    HW112551   0.415   5.783   2.362
 3884SOL    HW212552   0.552   5.725   2.430
 3885SOL     OW12553   6.445   5.655   3.211
 3885SOL    HW112554   6.480   5.563   3.230
 3885SOL    HW212555   6.516   5.723   3.229
 3886SOL     OW12556   4.355   5.875   5.301
 3886SOL    HW112557   4.285   5.808   5.324
 3886SOL    HW212558   4.443   5.829   5.289
 3887SOL     OW12559   0.772   6.530   6.913
 3887SOL    HW112560   0.733   6.616   6.946
 3887SOL    HW212561   0.726   6.453   6.956
 3888SOL     OW12562   6.562   0.198   5.248
 3888SOL    HW112563   6.657   0.221   5.229
 3888SOL    HW212564   6.554   0.155   5.337
 3889SOL     OW12565   6.982   3.174   0.502
 3889SOL    HW112566   0.006   3.094   0.539
 3889SOL    HW212567   6.939   3.151   0.415
 3890SOL     OW12568   5.980   5.010   3.753
 3890SOL    HW112569   5.958   4.951   3.676
 3890SOL    HW212570   5.899   5.023   3.810
 3891SOL     OW12571   5.243   3.888   4.237
 3891SOL    HW112572   5.285   3.889   4.327
 3891SOL    HW212573   5.252   3.978   4.194
 3892SOL     OW12574   0.315   2.403   0.694
 3892SOL    HW112575   0.306   2.486   0.749
 3892SOL    HW212576   0.277   2.419   0.603
 3893SOL     OW12577   4.146   3.658   0.527
 3893SOL    HW112578   4.237   3.652   0.485
 3893SOL    HW212579   4.091   3.726   0.477
 3894SOL     OW12580   4.864   0.943   0.022
 3894SOL    HW112581   4.943   0.979   0.073
 3894SOL    HW212582   4.831   0.860   0.068
 3895SOL     OW12583   0.864   0.149   5.614
 3895SOL    HW112584   0.766   0.163   5.600
 3895SOL    HW212585   0.901   0.225   5.668
 3896SOL     OW12586   0.805   1.049   5.992
 3896SOL    HW112587   0.873   0.976   5.990
 3896SOL    HW212588   0.811   1.097   6.080
 3897SOL     OW12589   3.947   5.564   2.382
 3897SOL    HW112590   3.859   5.611   2.376
 3897SOL    HW212591   3.961   5.533   2.477
 3898SOL     OW12592   2.520   2.745   6.040
 3898SOL    HW112593   2.483   2.653   6.024
 3898SOL    HW212594   2.591   2.765   5.972
 3899SOL     OW12595   4.670   6.802   5.516
 3899SOL    HW112596   4.751   6.752   5.549
 3899SOL    HW212597   4.677   6.898   5.543
 3900SOL     OW12598   4.555   2.563   3.635
 3900SOL    HW112599   4.483   2.505   3.674
 3900SOL    HW212600   4.616   2.593   3.708
 3901SOL     OW12601   3.499   0.679   6.334
 3901SOL    HW112602   3.527   0.773   6.315
 3901SOL    HW212603   3.434   0.678   6.410
 3902SOL     OW12604   6.618   2.815   1.805
 3902SOL    HW112605   6.559   2.768   1.871
 3902SOL    HW212606   6.619   2.764   1.719
 3903SOL     OW12607   3.581   6.055   0.487
 3903SOL    HW112608   3.576   6.154   0.473
 3903SOL    HW212609   3.633   6.036   0.571
 3904SOL     OW12610   2.006   1.192   6.241
 3904SOL    HW112611   2.083   1.256   6.241
 3904SOL    HW212612   2.009   1.136   6.324
 3905SOL     OW12613   6.993   6.918   6.565
 3905SOL    HW112614   6.987   6.994   6.500
 3905SOL    HW212615   0.034   6.943   6.639
 3906SOL     OW12616   5.667   6.208   5.183
 3906SOL    HW112617   5.641   6.282   5.244
 3906SOL    HW212618   5.687   6.245   5.092
 3907SOL     OW12619   6.163   0.664   3.687
 3907SOL    HW112620   6.127   0.650   3.595
 3907SOL    HW212621   6.101   0.623   3.754
 3908SOL     OW12622   0.892   2.475   6.778
 3908SOL    HW112623   0.969   2.501   6.837
 3908SOL    HW212624   0.813   2.533   6.800
 3909SOL     OW12625   6.364   5.895   5.302
 3909SOL    HW112626   6.354   5.908   5.203
 3909SOL    HW212627   6.310   5.817   5.331
 3910SOL     OW12628   2.994   3.764   2.765
 3910SOL    HW112629   2.948   3.724   2.686
 3910SOL    HW212630   2.960   3.721   2.849
 3911SOL     OW12631   5.451   1.871   5.294
 3911SOL    HW112632   5.497   1.895   5.380
 3911SOL    HW212633   5.388   1.943   5.268
 3912SOL     OW12634   5.341   0.863   5.511
 3912SOL    HW112635   5.410   0.790   5.518
 3912SOL    HW212636   5.375   0.935   5.451
 3913SOL     OW12637   2.557   6.501   5.884
 3913SOL    HW112638   2.581   6.547   5.798
 3913SOL    HW212639   2.545   6.570   5.955
 3914SOL     OW12640   2.710   1.014   1.807
 3914SOL    HW112641   2.723   1.103   1.852
 3914SOL    HW212642   2.696   1.028   1.709
 3915SOL     OW12643   4.908   5.356   1.207
 3915SOL    HW112644   4.853   5.438   1.214
 3915SOL    HW212645   4.986   5.362   1.269
 3916SOL     OW12646   1.044   0.026   4.170
 3916SOL    HW112647   0.952   0.060   4.152
 3916SOL    HW212648   1.108   0.103   4.176
 3917SOL     OW12649   6.916   6.158   0.003
 3917SOL    HW112650   7.009   6.192   7.009
 3917SOL    HW212651   6.877   6.205   0.082
 3918SOL     OW12652   5.391   5.557   1.664
 3918SOL    HW112653   5.460   5.573   1.594
 3918SOL    HW212654   5.422   5.596   1.751
 3919SOL     OW12655   3.852   6.591   0.381
 3919SOL    HW112656   3.784   6.609   0.452
 3919SOL    HW212657   3.944   6.598   0.419
 3920SOL     OW12658   3.292   3.230   0.719
 3920SOL    HW112659   3.361   3.300   0.699
 3920SOL    HW212660   3.313   3.147   0.667
 3921SOL     OW12661   0.305   3.546   1.676
 3921SOL    HW112662   0.245   3.470   1.654
 3921SOL    HW212663   0.278   3.626   1.623
 3922SOL     OW12664   6.605   3.447   2.208
 3922SOL    HW112665   6.647   3.466   2.297
 3922SOL    HW212666   6.518   3.401   2.221
 3923SOL     OW12667   6.862   0.752   0.431
 3923SOL    HW112668   6.810   0.831   0.399
 3923SOL    HW212669   6.960   0.775   0.434
 3924SOL     OW12670   6.186   5.120   3.374
 3924SOL    HW112671   6.133   5.200   3.347
 3924SOL    HW212672   6.208   5.125   3.472
 3925SOL     OW12673   2.293   5.410   1.607
 3925SOL    HW112674   2.261   5.400   1.701
 3925SOL    HW212675   2.235   5.357   1.546
 3926SOL     OW12676   6.516   5.387   3.206
 3926SOL    HW112677   6.522   5.385   3.306
 3926SOL    HW212678   6.435   5.337   3.177
 3927SOL     OW12679   6.589   2.621   3.978
 3927SOL    HW112680   6.626   2.625   4.071
 3927SOL    HW212681   6.633   2.691   3.921
 3928SOL     OW12682   4.022   5.995   6.184
 3928SOL    HW112683   4.067   5.911   6.154
 3928SOL    HW212684   4.087   6.071   6.178
 3929SOL     OW12685   6.843   0.921   5.221
 3929SOL    HW112686   6.773   0.967   5.275
 3929SOL    HW212687   6.907   0.988   5.184
 3930SOL     OW12688   2.849   1.747   3.628
 3930SOL    HW112689   2.916   1.808   3.670
 3930SOL    HW212690   2.881   1.652   3.636
 3931SOL     OW12691   1.542   0.475   1.342
 3931SOL    HW112692   1.637   0.450   1.361
 3931SOL    HW212693   1.525   0.468   1.243
 3932SOL     OW12694   1.913   4.763   3.208
 3932SOL    HW112695   1.813   4.771   3.203
 3932SOL    HW212696   1.953   4.855   3.209
 3933SOL     OW12697   1.966   6.493   6.869
 3933SOL    HW112698   1.886   6.462   6.817
 3933SOL    HW212699   2.049   6.480   6.815
 3934SOL     OW12700   6.734   1.207   6.772
 3934SOL    HW112701   6.675   1.232   6.849
 3934SOL    HW212702   6.682   1.214   6.687
 3935SOL     OW12703   2.804   6.549   6.996
 3935SOL    HW112704   2.730   6.522   0.035
 3935SOL    HW212705   2.891   6.548   0.023
 3936SOL     OW12706   0.038   5.391   5.443
 3936SOL    HW112707   0.125   5.439   5.432
 3936SOL    HW212708   7.012   5.389   5.356
 3937SOL     OW12709   6.621   1.944   3.577
 3937SOL    HW112710   6.632   1.969   3.480
 3937SOL    HW212711   6.526   1.920   3.594
 3938SOL     OW12712   0.389   2.041   3.946
 3938SOL    HW112713   0.464   2.089   3.899
 3938SOL    HW212714   0.348   1.974   3.884
 3939SOL     OW12715   2.626   2.485   2.612
 3939SOL    HW112716   2.679   2.437   2.543
 3939SOL    HW212717   2.529   2.475   2.593
 3940SOL     OW12718   5.113   4.749   1.104
 3940SOL    HW112719   5.054   4.814   1.058
 3940SOL    HW212720   5.143   4.679   1.040
 3941SOL     OW12721   4.984   3.457   5.761
 3941SOL    HW112722   4.987   3.466   5.861
 3941SOL    HW212723   4.955   3.365   5.737
 3942SOL     OW12724   0.566   6.818   6.610
 3942SOL    HW112725   0.536   6.725   6.590
 3942SOL    HW212726   0.579   6.868   6.524
 3943SOL     OW12727   0.180   3.026   2.979
 3943SOL    HW112728   0.122   3.085   3.035
 3943SOL    HW212729   0.123   2.961   2.929
 3944SOL     OW12730   4.490   2.594   5.001
 3944SOL    HW112731   4.392   2.574   5.004
 3944SOL    HW212732   4.536   2.542   5.073
 3945SOL     OW12733   0.587   1.696   0.123
 3945SOL    HW112734   0.664   1.634   0.106
 3945SOL    HW212735   0.533   1.705   0.039
 3946SOL     OW12736   5.727   5.270   5.208
 3946SOL    HW112737   5.761   5.363   5.194
 3946SOL    HW212738   5.649   5.272   5.271
 3947SOL     OW12739   5.239   6.198   0.658
 3947SOL    HW112740   5.166   6.188   0.727
 3947SOL    HW212741   5.237   6.120   0.596
 3948SOL     OW12742   0.702   5.048   2.109
 3948SOL    HW112743   0.684   5.138   2.069
 3948SOL    HW212744   0.625   4.987   2.089
 3949SOL     OW12745   4.870   0.571   3.120
 3949SOL    HW112746   4.841   0.666   3.121
 3949SOL    HW212747   4.795   0.513   3.087
 3950SOL     OW12748   1.623   4.292   0.625
 3950SOL    HW112749   1.721   4.311   0.612
 3950SOL    HW212750   1.598   4.211   0.573
 3951SOL     OW12751   5.025   0.141   1.507
 3951SOL    HW112752   5.092   0.165   1.437
 3951SOL    HW212753   5.060   0.067   1.564
 3952SOL     OW12754   6.556   2.512   2.441
 3952SOL    HW112755   6.610   2.447   2.496
 3952SOL    HW212756   6.613   2.591   2.419
 3953SOL     OW12757   3.521   4.845   1.470
 3953SOL    HW112758   3.584   4.770   1.450
 3953SOL    HW212759   3.536   4.919   1.404
 3954SOL     OW12760   3.913   5.265   4.924
 3954SOL    HW112761   3.830   5.305   4.886
 3954SOL    HW212762   3.944   5.320   5.001
 3955SOL     OW12763   2.940   6.521   6.681
 3955SOL    HW112764   2.900   6.439   6.640
 3955SOL    HW212765   2.912   6.528   6.776
 3956SOL     OW12766   0.845   0.557   2.603
 3956SOL    HW112767   0.885   0.512   2.682
 3956SOL    HW212768   0.781   0.494   2.558
 3957SOL     OW12769   4.879   6.428   3.913
 3957SOL    HW112770   4.834   6.491   3.975
 3957SOL    HW212771   4.872   6.335   3.949
 3958SOL     OW12772   5.571   1.176   4.963
 3958SOL    HW112773   5.547   1.186   4.866
 3958SOL    HW212774   5.661   1.217   4.979
 3959SOL     OW12775   3.841   0.011   0.857
 3959SOL    HW112776   3.852   0.088   0.921
 3959SOL    HW212777   3.771   6.971   0.893
 3960SOL     OW12778   4.911   2.029   6.485
 3960SOL    HW112779   4.831   1.979   6.452
 3960SOL    HW212780   4.970   1.968   6.537
 3961SOL     OW12781   5.584   1.417   2.828
 3961SOL    HW112782   5.593   1.464   2.915
 3961SOL    HW212783   5.674   1.391   2.794
 3962SOL     OW12784   2.823   3.948   6.902
 3962SOL    HW112785   2.730   3.923   6.928
 3962SOL    HW212786   2.883   3.944   6.982
 3963SOL     OW12787   5.158   5.419   3.496
 3963SOL    HW112788   5.252   5.440   3.471
 3963SOL    HW212789   5.132   5.331   3.457
 3964SOL     OW12790   4.862   5.366   4.134
 3964SOL    HW112791   4.894   5.450   4.178
 3964SOL    HW212792   4.900   5.359   4.042
 3965SOL     OW12793   5.082   2.809   4.874
 3965SOL    HW112794   5.024   2.825   4.954
 3965SOL    HW212795   5.094   2.710   4.861
 3966SOL     OW12796   4.996   6.260   6.221
 3966SOL    HW112797   5.041   6.289   6.137
 3966SOL    HW212798   5.030   6.313   6.298
 3967SOL     OW12799   2.098   3.669   2.396
 3967SOL    HW112800   2.072   3.586   2.446
 3967SOL    HW212801   2.182   3.707   2.435
 3968SOL     OW12802   4.272   0.216   1.123
 3968SOL    HW112803   4.225   0.130   1.106
 3968SOL    HW212804   4.294   0.223   1.220
 3969SOL     OW12805   1.314   3.970   2.334
 3969SOL    HW112806   1.390   3.976   2.399
 3969SOL    HW212807   1.227   3.978   2.384
 3970SOL     OW12808   6.086   6.260   3.305
 3970SOL    HW112809   6.005   6.258   3.246
 3970SOL    HW212810   6.061   6.295   3.395
 3971SOL     OW12811   3.435   5.322   3.609
 3971SOL    HW112812   3.513   5.273   3.571
 3971SOL    HW212813   3.356   5.313   3.548
 3972SOL     OW12814   1.309   4.106   0.789
 3972SOL    HW112815   1.270   4.159   0.714
 3972SOL    HW212816   1.376   4.162   0.838
 3973SOL     OW12817   1.742   5.739   6.257
 3973SOL    HW112818   1.747   5.802   6.180
 3973SOL    HW212819   1.651   5.697   6.259
 3974SOL     OW12820   2.284   0.299   5.457
 3974SOL    HW112821   2.212   0.233   5.476
 3974SOL    HW212822   2.244   0.383   5.420
 3975SOL     OW12823   4.949   1.524   5.292
 3975SOL    HW112824   5.021   1.511   5.359
 3975SOL    HW212825   4.884   1.592   5.325
 3976SOL     OW12826   1.400   6.180   1.805
 3976SOL    HW112827   1.447   6.098   1.772
 3976SOL    HW212828   1.465   6.237   1.855
 3977SOL     OW12829   2.508   3.810   5.850
 3977SOL    HW112830   2.602   3.790   5.877
 3977SOL    HW212831   2.474   3.888   5.903
 3978SOL     OW12832   5.712   5.241   4.450
 3978SOL    HW112833   5.798   5.189   4.448
 3978SOL    HW212834   5.705   5.291   4.536
 3979SOL     OW12835   3.329   0.307   6.838
 3979SOL    HW112836   3.321   0.400   6.804
 3979SOL    HW212837   3.391   0.305   6.916
 3980SOL     OW12838   5.577   6.115   0.303
 3980SOL    HW112839   5.603   6.163   0.386
 3980SOL    HW212840   5.544   6.180   0.235
 3981SOL     OW12841   3.592   0.220   0.455
 3981SOL    HW112842   3.663   0.183   0.515
 3981SOL    HW212843   3.623   0.305   0.414
 3982SOL     OW12844   2.341   6.839   3.533
 3982SOL    HW112845   2.376   6.774   3.600
 3982SOL    HW212846   2.345   6.932   3.571
 3983SOL     OW12847   5.157   4.917   4.052
 3983SOL    HW112848   5.257   4.924   4.046
 3983SOL    HW212849   5.121   5.000   4.094
 3984SOL     OW12850   6.334   1.066   2.452
 3984SOL    HW112851   6.399   0.994   2.432
 3984SOL    HW212852   6.378   1.137   2.507
 3985SOL     OW12853   2.318   4.589   6.799
 3985SOL    HW112854   2.291   4.512   6.741
 3985SOL    HW212855   2.402   4.566   6.848
 3986SOL     OW12856   5.126   1.625   2.690
 3986SOL    HW112857   5.223   1.618   2.668
 3986SOL    HW212858   5.105   1.718   2.719
 3987SOL     OW12859   3.968   5.068   3.162
 3987SOL    HW112860   4.034   4.996   3.142
 3987SOL    HW212861   4.008   5.157   3.139
 3988SOL     OW12862   3.365   4.846   6.967
 3988SOL    HW112863   3.434   4.827   0.015
 3988SOL    HW212864   3.385   4.935   6.925
 3989SOL     OW12865   6.834   2.711   7.000
 3989SOL    HW112866   6.848   2.744   0.071
 3989SOL    HW212867   6.894   2.633   6.984
 3990SOL     OW12868   4.347   2.077   2.800
 3990SOL    HW112869   4.371   2.117   2.711
 3990SOL    HW212870   4.313   1.984   2.786
 3991SOL     OW12871   6.676   0.898   2.619
 3991SOL    HW112872   6.645   0.894   2.524
 3991SOL    HW212873   6.601   0.868   2.679
 3992SOL     OW12874   2.962   1.654   0.538
 3992SOL    HW112875   3.035   1.594   0.506
 3992SOL    HW212876   2.997   1.747   0.549
 3993SOL     OW12877   1.429   1.986   2.048
 3993SOL    HW112878   1.456   2.074   2.086
 3993SOL    HW212879   1.345   1.997   1.995
 3994SOL     OW12880   1.434   0.205   6.125
 3994SOL    HW112881   1.378   0.265   6.068
 3994SOL    HW212882   1.385   0.182   6.209
 3995SOL     OW12883   2.776   3.388   6.117
 3995SOL    HW112884   2.692   3.411   6.069
 3995SOL    HW212885   2.850   3.447   6.085
 3996SOL     OW12886   0.927   6.897   4.696
 3996SOL    HW112887   0.837   6.898   4.740
 3996SOL    HW212888   0.989   6.837   4.747
 3997SOL     OW12889   5.576   1.138   3.457
 3997SOL    HW112890   5.609   1.099   3.543
 3997SOL    HW212891   5.606   1.233   3.450
 3998SOL     OW12892   4.151   1.177   3.679
 3998SOL    HW112893   4.204   1.175   3.595
 3998SOL    HW212894   4.197   1.121   3.749
 3999SOL     OW12895   5.133   3.365   4.025
 3999SOL    HW112896   5.164   3.372   3.930
 3999SOL    HW212897   5.170   3.281   4.066
 4000SOL     OW12898   3.254   6.774   3.369
 4000SOL    HW112899   3.282   6.869   3.375
 4000SOL    HW212900   3.231   6.741   3.461
 4001SOL     OW12901   2.639   1.379   3.372
 4001SOL    HW112902   2.597   1.469   3.374
 4001SOL    HW212903   2.568   1.309   3.371
 4002SOL     OW12904   2.892   4.153   0.432
 4002SOL    HW112905   2.878   4.187   0.525
 4002SOL    HW212906   2.977   4.101   0.428
 4003SOL     OW12907   3.584   7.015   4.004
 4003SOL    HW112908   3.490   0.005   3.972
 4003SOL    HW212909   3.629   0.082   4.012
 4004SOL     OW12910   5.497   2.140   3.894
 4004SOL    HW112911   5.463   2.093   3.975
 4004SOL    HW212912   5.508   2.075   3.819
 4005SOL     OW12913   5.119   5.512   6.763
 4005SOL    HW112914   5.106   5.420   6.727
 4005SOL    HW212915   5.215   5.524   6.791
 4006SOL     OW12916   4.245   5.395   2.504
 4006SOL    HW112917   4.342   5.411   2.519
 4006SOL    HW212918   4.199   5.482   2.487
 4007SOL     OW12919   0.153   2.777   6.980
 4007SOL    HW112920   0.112   2.851   6.927
 4007SOL    HW212921   0.111   2.691   6.955
 4008SOL     OW12922   2.676   1.731   4.692
 4008SOL    HW112923   2.729   1.757   4.611
 4008SOL    HW212924   2.643   1.637   4.682
 4009SOL     OW12925   4.560   3.401   1.307
 4009SOL    HW112926   4.481   3.340   1.314
 4009SOL    HW212927   4.534   3.494   1.332
 4010SOL     OW12928   2.662   2.940   1.234
 4010SOL    HW112929   2.602   2.922   1.156
 4010SOL    HW212930   2.701   2.854   1.266
 4011SOL     OW12931   0.313   1.159   2.119
 4011SOL    HW112932   0.345   1.065   2.115
 4011SOL    HW212933   0.218   1.160   2.151
 4012SOL     OW12934   6.370   4.470   1.814
 4012SOL    HW112935   6.284   4.517   1.835
 4012SOL    HW212936   6.367   4.377   1.851
 4013SOL     OW12937   3.349   1.633   5.003
 4013SOL    HW112938   3.293   1.569   4.950
 4013SOL    HW212939   3.413   1.679   4.942
 4014SOL     OW12940   5.193   6.470   2.395
 4014SOL    HW112941   5.228   6.417   2.318
 4014SOL    HW212942   5.270   6.513   2.443
 4015SOL     OW12943   4.990   5.090   6.145
 4015SOL    HW112944   5.078   5.119   6.109
 4015SOL    HW212945   4.953   5.016   6.089
 4016SOL     OW12946   2.657   6.278   6.017
 4016SOL    HW112947   2.618   6.358   5.972
 4016SOL    HW212948   2.584   6.221   6.056
 4017SOL     OW12949   6.777   6.053   0.544
 4017SOL    HW112950   6.862   6.010   0.513
 4017SOL    HW212951   6.798   6.137   0.593
 4018SOL     OW12952   3.475   6.016   2.603
 4018SOL    HW112953   3.520   6.037   2.516
 4018SOL    HW212954   3.399   6.080   2.617
 4019SOL     OW12955   4.950   4.444   3.329
 4019SOL    HW112956   4.909   4.353   3.320
 4019SOL    HW212957   5.048   4.438   3.310
 4020SOL     OW12958   4.784   2.006   4.900
 4020SOL    HW112959   4.776   1.914   4.937
 4020SOL    HW212960   4.880   2.029   4.885
 4021SOL     OW12961   3.616   4.937   5.882
 4021SOL    HW112962   3.531   4.959   5.930
 4021SOL    HW212963   3.693   4.980   5.930
 4022SOL     OW12964   5.142   1.516   6.730
 4022SOL    HW112965   5.150   1.538   6.632
 4022SOL    HW212966   5.223   1.549   6.778
 4023SOL     OW12967   6.185   1.760   4.670
 4023SOL    HW112968   6.153   1.828   4.604
 4023SOL    HW212969   6.262   1.710   4.632
 4024SOL     OW12970   3.503   6.701   3.814
 4024SOL    HW112971   3.406   6.722   3.823
 4024SOL    HW212972   3.557   6.769   3.864
 4025SOL     OW12973   0.807   4.058   2.827
 4025SOL    HW112974   0.788   4.087   2.733
 4025SOL    HW212975   0.824   4.139   2.884
 4026SOL     OW12976   5.928   5.873   4.096
 4026SOL    HW112977   5.989   5.823   4.157
 4026SOL    HW212978   5.836   5.877   4.136
 4027SOL     OW12979   3.835   4.035   2.137
 4027SOL    HW112980   3.797   4.027   2.229
 4027SOL    HW212981   3.838   4.132   2.111
 4028SOL     OW12982   1.768   1.907   4.701
 4028SOL    HW112983   1.699   1.846   4.662
 4028SOL    HW212984   1.842   1.920   4.635
 4029SOL     OW12985   2.785   4.204   5.767
 4029SOL    HW112986   2.789   4.127   5.831
 4029SOL    HW212987   2.801   4.171   5.674
 4030SOL     OW12988   1.051   2.310   5.515
 4030SOL    HW112989   1.064   2.224   5.465
 4030SOL    HW212990   1.000   2.292   5.599
 4031SOL     OW12991   4.813   5.596   3.796
 4031SOL    HW112992   4.889   5.632   3.851
 4031SOL    HW212993   4.757   5.673   3.764
 4032SOL     OW12994   6.402   6.508   4.077
 4032SOL    HW112995   6.444   6.563   4.004
 4032SOL    HW212996   6.475   6.467   4.133
 4033SOL     OW12997   3.221   4.059   4.416
 4033SOL    HW112998   3.133   4.012   4.419
 4033SOL    HW212999   3.245   4.091   4.507
 4034SOL     OW13000   6.409   1.294   4.557
 4034SOL    HW113001   6.454   1.377   4.591
 4034SOL    HW213002   6.427   1.283   4.460
 4035SOL     OW13003   0.378   4.673   6.658
 4035SOL    HW113004   0.400   4.577   6.643
 4035SOL    HW213005   0.307   4.702   6.594
 4036SOL     OW13006   6.242   6.303   2.871
 4036SOL    HW113007   6.244   6.324   2.773
 4036SOL    HW213008   6.158   6.254   2.893
 4037SOL     OW13009   1.405   3.894   6.372
 4037SOL    HW113010   1.438   3.907   6.279
 4037SOL    HW213011   1.454   3.955   6.434
 4038SOL     OW13012   5.000   4.233   2.887
 4038SOL    HW113013   5.066   4.231   2.962
 4038SOL    HW213014   4.956   4.322   2.884
 4039SOL     OW13015   5.140   5.718   0.628
 4039SOL    HW113016   5.172   5.802   0.585
 4039SOL    HW213017   5.219   5.668   0.666
 4040SOL     OW13018   3.051   0.461   1.370
 4040SOL    HW113019   3.055   0.422   1.278
 4040SOL    HW213020   2.963   0.507   1.383
 4041SOL     OW13021   1.307   6.286   3.074
 4041SOL    HW113022   1.306   6.372   3.023
 4041SOL    HW213023   1.303   6.304   3.172
 4042SOL     OW13024   6.150   5.602   2.056
 4042SOL    HW113025   6.179   5.635   1.967
 4042SOL    HW213026   6.092   5.671   2.100
 4043SOL     OW13027   5.299   2.069   2.356
 4043SOL    HW113028   5.319   2.053   2.259
 4043SOL    HW213029   5.288   2.167   2.372
 4044SOL     OW13030   6.082   0.198   3.206
 4044SOL    HW113031   6.024   0.135   3.152
 4044SOL    HW213032   6.130   0.260   3.144
 4045SOL     OW13033   2.152   5.043   6.905
 4045SOL    HW113034   2.197   5.032   6.816
 4045SOL    HW213035   2.126   4.954   6.941
 4046SOL     OW13036   0.593   2.360   1.984
 4046SOL    HW113037   0.649   2.314   1.915
 4046SOL    HW213038   0.613   2.458   1.982
 4047SOL     OW13039   3.139   3.600   1.776
 4047SOL    HW113040   3.216   3.621   1.716
 4047SOL    HW213041   3.128   3.501   1.783
 4048SOL     OW13042   5.434   0.984   1.108
 4048SOL    HW113043   5.489   1.004   1.189
 4048SOL    HW213044   5.462   1.043   1.033
 4049SOL     OW13045   5.521   6.888   5.710
 4049SOL    HW113046   5.533   6.987   5.703
 4049SOL    HW213047   5.548   6.858   5.802
 4050SOL     OW13048   1.730   6.191   0.427
 4050SOL    HW113049   1.687   6.280   0.444
 4050SOL    HW213050   1.665   6.119   0.448
 4051SOL     OW13051   3.140   4.887   0.564
 4051SOL    HW113052   3.136   4.789   0.585
 4051SOL    HW213053   3.089   4.937   0.634
 4052SOL     OW13054   0.233   0.746   0.071
 4052SOL    HW113055   0.286   0.732   7.010
 4052SOL    HW213056   0.141   0.708   0.058
 4053SOL     OW13057   3.444   4.963   3.856
 4053SOL    HW113058   3.461   4.865   3.847
 4053SOL    HW213059   3.530   5.013   3.853
 4054SOL     OW13060   3.355   2.491   0.854
 4054SOL    HW113061   3.308   2.410   0.888
 4054SOL    HW213062   3.378   2.550   0.931
 4055SOL     OW13063   2.914   2.573   6.402
 4055SOL    HW113064   2.853   2.576   6.323
 4055SOL    HW213065   3.009   2.579   6.371
 4056SOL     OW13066   3.670   2.898   6.826
 4056SOL    HW113067   3.596   2.831   6.822
 4056SOL    HW213068   3.631   2.990   6.829
 4057SOL     OW13069   4.762   3.380   6.520
 4057SOL    HW113070   4.700   3.427   6.583
 4057SOL    HW213071   4.811   3.448   6.465
 4058SOL     OW13072   2.308   1.013   5.308
 4058SOL    HW113073   2.240   0.944   5.333
 4058SOL    HW213074   2.261   1.096   5.279
 4059SOL     OW13075   1.826   1.988   4.946
 4059SOL    HW113076   1.821   1.955   4.852
 4059SOL    HW213077   1.839   2.087   4.945
 4060SOL     OW13078   4.223   4.673   4.084
 4060SOL    HW113079   4.320   4.649   4.085
 4060SOL    HW213080   4.194   4.700   4.176
 4061SOL     OW13081   3.517   4.494   1.659
 4061SOL    HW113082   3.526   4.568   1.726
 4061SOL    HW213083   3.437   4.439   1.681
 4062SOL     OW13084   3.524   1.102   2.593
 4062SOL    HW113085   3.547   1.026   2.532
 4062SOL    HW213086   3.437   1.142   2.565
 4063SOL     OW13087   3.222   5.470   6.074
 4063SOL    HW113088   3.201   5.444   6.168
 4063SOL    HW213089   3.179   5.557   6.052
 4064SOL     OW13090   0.546   0.067   2.949
 4064SOL    HW113091   0.617   0.097   3.014
 4064SOL    HW213092   0.556   0.117   2.863
 4065SOL     OW13093   6.824   6.746   0.861
 4065SOL    HW113094   6.829   6.845   0.873
 4065SOL    HW213095   6.909   6.713   0.820
 4066SOL     OW13096   5.489   4.128   1.721
 4066SOL    HW113097   5.520   4.215   1.684
 4066SOL    HW213098   5.429   4.144   1.799
 4067SOL     OW13099   5.963   1.073   2.812
 4067SOL    HW113100   5.866   1.050   2.806
 4067SOL    HW213101   6.011   1.036   2.732
 4068SOL     OW13102   5.712   0.523   4.223
 4068SOL    HW113103   5.629   0.563   4.261
 4068SOL    HW213104   5.734   0.440   4.273
 4069SOL     OW13105   5.518   4.858   0.765
 4069SOL    HW113106   5.528   4.923   0.841
 4069SOL    HW213107   5.599   4.800   0.761
 4070SOL     OW13108   2.148   3.669   3.185
 4070SOL    HW113109   2.131   3.609   3.107
 4070SOL    HW213110   2.177   3.759   3.153
 4071SOL     OW13111   1.665   0.179   4.535
 4071SOL    HW113112   1.609   0.106   4.575
 4071SOL    HW213113   1.737   0.139   4.479
 4072SOL     OW13114   1.382   7.003   4.194
 4072SOL    HW113115   1.431   6.982   4.278
 4072SOL    HW213116   1.376   6.921   4.137
 4073SOL     OW13117   2.784   6.048   6.521
 4073SOL    HW113118   2.835   5.962   6.521
 4073SOL    HW213119   2.731   6.055   6.437
 4074SOL     OW13120   1.007   2.476   0.943
 4074SOL    HW113121   0.987   2.555   0.886
 4074SOL    HW213122   0.923   2.425   0.961
 4075SOL     OW13123   4.744   1.275   3.330
 4075SOL    HW113124   4.814   1.344   3.346
 4075SOL    HW213125   4.717   1.235   3.418
 4076SOL     OW13126   1.723   3.412   4.426
 4076SOL    HW113127   1.785   3.476   4.381
 4076SOL    HW213128   1.672   3.362   4.356
 4077SOL     OW13129   3.540   1.058   0.222
 4077SOL    HW113130   3.486   0.981   0.257
 4077SOL    HW213131   3.635   1.049   0.253
 4078SOL     OW13132   6.318   4.098   1.398
 4078SOL    HW113133   6.308   4.143   1.487
 4078SOL    HW213134   6.242   4.125   1.339
 4079SOL     OW13135   0.639   1.138   3.743
 4079SOL    HW113136   0.619   1.110   3.649
 4079SOL    HW213137   0.720   1.090   3.775
 4080SOL     OW13138   3.085   3.559   1.412
 4080SOL    HW113139   3.021   3.627   1.448
 4080SOL    HW213140   3.084   3.562   1.312
 4081SOL     OW13141   2.088   1.755   5.430
 4081SOL    HW113142   2.185   1.748   5.455
 4081SOL    HW213143   2.063   1.851   5.423
 4082SOL     OW13144   1.066   2.847   4.894
 4082SOL    HW113145   1.065   2.936   4.940
 4082SOL    HW213146   1.140   2.792   4.931
 4083SOL     OW13147   5.848   4.832   3.573
 4083SOL    HW113148   5.817   4.775   3.649
 4083SOL    HW213149   5.908   4.779   3.514
 4084SOL     OW13150   4.423   1.559   3.477
 4084SOL    HW113151   4.500   1.535   3.417
 4084SOL    HW213152   4.420   1.659   3.488
 4085SOL     OW13153   2.966   5.319   2.330
 4085SOL    HW113154   3.047   5.364   2.369
 4085SOL    HW213155   2.937   5.368   2.248
 4086SOL     OW13156   6.628   5.772   6.615
 4086SOL    HW113157   6.604   5.869   6.623
 4086SOL    HW213158   6.706   5.751   6.675
 4087SOL     OW13159   2.273   0.071   2.443
 4087SOL    HW113160   2.331   0.027   2.511
 4087SOL    HW213161   2.221   0.145   2.487
 4088SOL     OW13162   0.310   1.191   5.731
 4088SOL    HW113163   0.325   1.146   5.818
 4088SOL    HW213164   0.235   1.257   5.740
 4089SOL     OW13165   0.146   6.742   3.360
 4089SOL    HW113166   0.223   6.804   3.377
 4089SOL    HW213167   0.136   6.680   3.438
 4090SOL     OW13168   2.464   0.023   5.524
 4090SOL    HW113169   2.440   6.955   5.489
 4090SOL    HW213170   2.407   0.092   5.479
 4091SOL     OW13171   1.947   5.293   1.112
 4091SOL    HW113172   1.910   5.325   1.199
 4091SOL    HW213173   1.969   5.196   1.119
 4092SOL     OW13174   4.900   3.299   4.465
 4092SOL    HW113175   4.913   3.362   4.388
 4092SOL    HW213176   4.900   3.351   4.550
 4093SOL     OW13177   5.111   5.782   3.208
 4093SOL    HW113178   5.156   5.712   3.153
 4093SOL    HW213179   5.015   5.790   3.179
 4094SOL     OW13180   0.047   5.685   6.728
 4094SOL    HW113181   0.062   5.591   6.698
 4094SOL    HW213182   0.095   5.701   6.814
 4095SOL     OW13183   0.331   4.844   0.136
 4095SOL    HW113184   0.308   4.895   0.220
 4095SOL    HW213185   0.430   4.840   0.126
 4096SOL     OW13186   2.020   1.796   6.590
 4096SOL    HW113187   2.040   1.884   6.634
 4096SOL    HW213188   1.951   1.748   6.642
 4097SOL     OW13189   0.394   4.392   5.110
 4097SOL    HW113190   0.488   4.400   5.144
 4097SOL    HW213191   0.330   4.422   5.181
 4098SOL     OW13192   2.266   5.002   3.023
 4098SOL    HW113193   2.240   5.066   2.951
 4098SOL    HW213194   2.358   5.024   3.055
 4099SOL     OW13195   4.236   4.998   5.879
 4099SOL    HW113196   4.250   4.932   5.952
 4099SOL    HW213197   4.184   5.076   5.914
 4100SOL     OW13198   1.717   1.165   3.648
 4100SOL    HW113199   1.713   1.193   3.552
 4100SOL    HW213200   1.804   1.120   3.666
 4101SOL     OW13201   5.944   0.735   6.949
 4101SOL    HW113202   6.026   0.790   6.934
 4101SOL    HW213203   5.867   0.794   6.973
 4102SOL     OW13204   1.880   0.449   6.984
 4102SOL    HW113205   1.846   0.441   6.890
 4102SOL    HW213206   1.969   0.495   6.983
 4103SOL     OW13207   1.878   6.834   1.847
 4103SOL    HW113208   1.843   6.899   1.914
 4103SOL    HW213209   1.807   6.815   1.779
 4104SOL     OW13210   0.481   5.570   3.728
 4104SOL    HW113211   0.428   5.488   3.745
 4104SOL    HW213212   0.546   5.584   3.803
 4105SOL     OW13213   4.603   1.192   0.968
 4105SOL    HW113214   4.571   1.126   0.899
 4105SOL    HW213215   4.585   1.156   1.059
 4106SOL     OW13216   7.019   1.981   3.817
 4106SOL    HW113217   7.013   2.004   3.720
 4106SOL    HW213218   6.933   1.940   3.847
 4107SOL     OW13219   0.252   6.449   6.367
 4107SOL    HW113220   0.296   6.359   6.363
 4107SOL    HW213221   0.154   6.437   6.376
 4108SOL     OW13222   6.877   5.386   4.129
 4108SOL    HW113223   6.819   5.304   4.131
 4108SOL    HW213224   6.848   5.448   4.202
 4109SOL     OW13225   6.182   6.026   3.280
 4109SOL    HW113226   6.274   6.035   3.241
 4109SOL    HW213227   6.135   6.114   3.274
 4110SOL     OW13228   4.726   3.697   6.934
 4110SOL    HW113229   4.677   3.611   6.949
 4110SOL    HW213230   4.694   3.766   6.999
 4111SOL     OW13231   6.790   4.318   5.000
 4111SOL    HW113232   6.718   4.376   5.038
 4111SOL    HW213233   6.878   4.345   5.041
 4112SOL     OW13234   4.381   0.385   5.191
 4112SOL    HW113235   4.289   0.350   5.173
 4112SOL    HW213236   4.407   0.449   5.118
 4113SOL     OW13237   4.944   4.333   4.681
 4113SOL    HW113238   4.912   4.268   4.612
 4113SOL    HW213239   5.037   4.361   4.659
 4114SOL     OW13240   6.848   1.565   2.640
 4114SOL    HW113241   6.821   1.660   2.658
 4114SOL    HW213242   6.893   1.527   2.721
 4115SOL     OW13243   3.167   4.953   3.736
 4115SOL    HW113244   3.102   4.920   3.805
 4115SOL    HW213245   3.258   4.958   3.776
 4116SOL     OW13246   5.100   2.771   3.328
 4116SOL    HW113247   5.159   2.692   3.344
 4116SOL    HW213248   5.073   2.774   3.232
 4117SOL     OW13249   1.381   2.596   2.555
 4117SOL    HW113250   1.403   2.532   2.481
 4117SOL    HW213251   1.437   2.679   2.544
 4118SOL     OW13252   6.771   6.502   6.427
 4118SOL    HW113253   6.733   6.464   6.343
 4118SOL    HW213254   6.737   6.595   6.440
 4119SOL     OW13255   1.947   0.984   3.290
 4119SOL    HW113256   2.023   1.044   3.318
 4119SOL    HW213257   1.889   1.033   3.225
 4120SOL     OW13258   2.279   1.188   6.452
 4120SOL    HW113259   2.347   1.183   6.525
 4120SOL    HW213260   2.198   1.137   6.480
 4121SOL     OW13261   6.734   6.798   2.046
 4121SOL    HW113262   6.671   6.855   1.994
 4121SOL    HW213263   6.717   6.811   2.144
 4122SOL     OW13264   0.289   4.694   4.204
 4122SOL    HW113265   0.345   4.663   4.281
 4122SOL    HW213266   0.348   4.733   4.134
 4123SOL     OW13267   3.621   4.961   2.618
 4123SOL    HW113268   3.528   4.931   2.599
 4123SOL    HW213269   3.684   4.918   2.554
 4124SOL     OW13270   6.719   5.867   0.739
 4124SOL    HW113271   6.711   5.911   0.828
 4124SOL    HW213272   6.717   5.937   0.667
 4125SOL     OW13273   5.774   2.285   1.748
 4125SOL    HW113274   5.861   2.249   1.780
 4125SOL    HW213275   5.748   2.364   1.804
 4126SOL     OW13276   1.085   2.743   2.262
 4126SOL    HW113277   1.183   2.721   2.262
 4126SOL    HW213278   1.036   2.674   2.208
 4127SOL     OW13279   3.791   1.949   4.024
 4127SOL    HW113280   3.746   1.871   4.067
 4127SOL    HW213281   3.861   1.985   4.084
 4128SOL     OW13282   0.691   3.428   1.057
 4128SOL    HW113283   0.625   3.385   1.118
 4128SOL    HW213284   0.781   3.430   1.100
 4129SOL     OW13285   2.702   2.862   0.832
 4129SOL    HW113286   2.676   2.767   0.850
 4129SOL    HW213287   2.789   2.864   0.783
 4130SOL     OW13288   5.969   3.351   1.330
 4130SOL    HW113289   5.980   3.276   1.396
 4130SOL    HW213290   6.056   3.364   1.281
 4131SOL     OW13291   4.762   0.870   2.146
 4131SOL    HW113292   4.811   0.789   2.115
 4131SOL    HW213293   4.789   0.949   2.092
 4132SOL     OW13294   6.772   4.015   4.551
 4132SOL    HW113295   6.869   4.009   4.528
 4132SOL    HW213296   6.752   4.107   4.584
 4133SOL     OW13297   5.741   6.691   1.812
 4133SOL    HW113298   5.690   6.741   1.882
 4133SOL    HW213299   5.729   6.735   1.723
 4134SOL     OW13300   2.408   2.979   1.334
 4134SOL    HW113301   2.455   2.963   1.420
 4134SOL    HW213302   2.475   2.980   1.259
 4135SOL     OW13303   6.830   1.279   2.201
 4135SOL    HW113304   6.865   1.322   2.284
 4135SOL    HW213305   6.735   1.307   2.186
 4136SOL     OW13306   1.164   4.388   2.083
 4136SOL    HW113307   1.254   4.401   2.126
 4136SOL    HW213308   1.164   4.430   1.993
 4137SOL     OW13309   1.596   3.168   0.590
 4137SOL    HW113310   1.578   3.075   0.558
 4137SOL    HW213311   1.510   3.212   0.616
 4138SOL     OW13312   4.215   6.325   1.092
 4138SOL    HW113313   4.141   6.289   1.036
 4138SOL    HW213314   4.178   6.361   1.178
 4139SOL     OW13315   1.959   2.055   3.039
 4139SOL    HW113316   1.984   2.085   3.131
 4139SOL    HW213317   2.005   1.969   3.018
 4140SOL     OW13318   2.425   2.494   4.550
 4140SOL    HW113319   2.395   2.572   4.495
 4140SOL    HW213320   2.525   2.490   4.550
 4141SOL     OW13321   4.577   0.386   0.097
 4141SOL    HW113322   4.527   0.315   0.146
 4141SOL    HW213323   4.557   0.475   0.138
 4142SOL     OW13324   6.534   4.269   2.871
 4142SOL    HW113325   6.617   4.225   2.837
 4142SOL    HW213326   6.550   4.305   2.963
 4143SOL     OW13327   5.884   3.224   0.882
 4143SOL    HW113328   5.947   3.271   0.944
 4143SOL    HW213329   5.799   3.278   0.875
 4144SOL     OW13330   5.580   2.250   0.483
 4144SOL    HW113331   5.563   2.322   0.415
 4144SOL    HW213332   5.534   2.274   0.568
 4145SOL     OW13333   0.267   6.793   0.980
 4145SOL    HW113334   0.271   6.694   0.988
 4145SOL    HW213335   0.228   6.831   1.064
 4146SOL     OW13336   5.815   6.603   3.782
 4146SOL    HW113337   5.880   6.533   3.812
 4146SOL    HW213338   5.849   6.694   3.809
 4147SOL     OW13339   4.707   4.437   5.520
 4147SOL    HW113340   4.669   4.522   5.555
 4147SOL    HW213341   4.745   4.383   5.596
 4148SOL     OW13342   3.023   0.738   5.644
 4148SOL    HW113343   3.065   0.761   5.556
 4148SOL    HW213344   2.965   0.814   5.674
 4149SOL     OW13345   2.052   3.281   0.802
 4149SOL    HW113346   2.005   3.200   0.766
 4149SOL    HW213347   2.070   3.268   0.900
 4150SOL     OW13348   6.011   2.539   6.540
 4150SOL    HW113349   5.997   2.457   6.485
 4150SOL    HW213350   6.044   2.613   6.482
 4151SOL     OW13351   2.316   6.761   4.771
 4151SOL    HW113352   2.396   6.809   4.808
 4151SOL    HW213353   2.337   6.724   4.681
 4152SOL     OW13354   2.998   5.717   1.994
 4152SOL    HW113355   3.010   5.676   1.903
 4152SOL    HW213356   2.935   5.794   1.988
 4153SOL     OW13357   6.625   4.937   1.671
 4153SOL    HW113358   6.629   4.985   1.759
 4153SOL    HW213359   6.565   4.987   1.609
 4154SOL     OW13360   0.759   5.522   5.065
 4154SOL    HW113361   0.782   5.589   5.136
 4154SOL    HW213362   0.679   5.555   5.014
 4155SOL     OW13363   0.913   1.852   1.427
 4155SOL    HW113364   0.985   1.900   1.377
 4155SOL    HW213365   0.933   1.854   1.525
 4156SOL     OW13366   6.946   4.633   5.136
 4156SOL    HW113367   6.931   4.559   5.201
 4156SOL    HW213368   7.019   4.607   5.073
 4157SOL     OW13369   6.599   6.303   2.004
 4157SOL    HW113370   6.548   6.252   2.073
 4157SOL    HW213371   6.695   6.308   2.030
 4158SOL     OW13372   2.135   2.645   1.815
 4158SOL    HW113373   2.154   2.645   1.913
 4158SOL    HW213374   2.097   2.556   1.789
 4159SOL     OW13375   2.847   1.433   3.051
 4159SOL    HW113376   2.797   1.512   3.086
 4159SOL    HW213377   2.789   1.351   3.056
 4160SOL     OW13378   6.481   0.230   6.976
 4160SOL    HW113379   6.555   0.167   6.954
 4160SOL    HW213380   6.403   0.211   6.916
 4161SOL     OW13381   2.221   2.104   1.223
 4161SOL    HW113382   2.254   2.190   1.185
 4161SOL    HW213383   2.260   2.028   1.172
 4162SOL     OW13384   6.475   5.837   1.012
 4162SOL    HW113385   6.522   5.758   1.052
 4162SOL    HW213386   6.541   5.909   0.994
 4163SOL     OW13387   3.996   6.383   1.298
 4163SOL    HW113388   3.998   6.438   1.381
 4163SOL    HW213389   3.985   6.442   1.218
 4164SOL     OW13390   0.049   6.511   5.150
 4164SOL    HW113391   6.994   6.454   5.123
 4164SOL    HW213392   0.024   6.564   5.232
 4165SOL     OW13393   3.928   1.048   5.427
 4165SOL    HW113394   3.990   1.013   5.498
 4165SOL    HW213395   3.897   1.140   5.452
 4166SOL     OW13396   5.924   0.720   2.668
 4166SOL    HW113397   5.857   0.725   2.594
 4166SOL    HW213398   5.877   0.713   2.756
 4167SOL     OW13399   3.380   5.202   5.769
 4167SOL    HW113400   3.384   5.118   5.822
 4167SOL    HW213401   3.292   5.208   5.722
 4168SOL     OW13402   6.539   4.443   0.113
 4168SOL    HW113403   6.462   4.440   0.049
 4168SOL    HW213404   6.593   4.359   0.105
 4169SOL     OW13405   5.165   4.147   4.955
 4169SOL    HW113406   5.188   4.207   4.878
 4169SOL    HW213407   5.247   4.097   4.984
 4170SOL     OW13408   5.128   2.981   4.638
 4170SOL    HW113409   5.165   3.069   4.670
 4170SOL    HW213410   5.090   2.932   4.716
 4171SOL     OW13411   1.539   3.971   1.231
 4171SOL    HW113412   1.619   3.925   1.268
 4171SOL    HW213413   1.463   3.962   1.295
 4172SOL     OW13414   3.455   3.607   0.911
 4172SOL    HW113415   3.438   3.574   1.003
 4172SOL    HW213416   3.462   3.529   0.848
 4173SOL     OW13417   4.565   2.893   5.288
 4173SOL    HW113418   4.622   2.926   5.214
 4173SOL    HW213419   4.548   2.795   5.276
 4174SOL     OW13420   4.839   0.268   4.483
 4174SOL    HW113421   4.933   0.289   4.456
 4174SOL    HW213422   4.804   0.193   4.427
 4175SOL     OW13423   1.637   4.400   6.248
 4175SOL    HW113424   1.689   4.459   6.310
 4175SOL    HW213425   1.689   4.387   6.164
 4176SOL     OW13426   5.061   6.701   0.020
 4176SOL    HW113427   5.105   6.636   6.981
 4176SOL    HW213428   4.970   6.667   0.045
 4177SOL     OW13429   4.647   4.797   4.747
 4177SOL    HW113430   4.724   4.805   4.684
 4177SOL    HW213431   4.566   4.839   4.707
 4178SOL     OW13432   3.075   5.716   2.296
 4178SOL    HW113433   3.016   5.788   2.334
 4178SOL    HW213434   3.053   5.704   2.199
 4179SOL     OW13435   5.145   3.183   4.342
 4179SOL    HW113436   5.141   3.147   4.249
 4179SOL    HW213437   5.055   3.218   4.368
 4180SOL     OW13438   5.418   3.114   0.795
 4180SOL    HW113439   5.483   3.117   0.870
 4180SOL    HW213440   5.361   3.196   0.796
 4181SOL     OW13441   5.263   0.479   5.520
 4181SOL    HW113442   5.279   0.399   5.579
 4181SOL    HW213443   5.294   0.561   5.567
 4182SOL     OW13444   0.565   5.820   4.071
 4182SOL    HW113445   0.470   5.828   4.101
 4182SOL    HW213446   0.596   5.909   4.038
 4183SOL     OW13447   2.137   1.084   2.114
 4183SOL    HW113448   2.170   0.999   2.073
 4183SOL    HW213449   2.151   1.081   2.213
 4184SOL     OW13450   3.108   6.571   2.778
 4184SOL    HW113451   3.072   6.586   2.686
 4184SOL    HW213452   3.034   6.540   2.838
 4185SOL     OW13453   0.229   3.625   3.319
 4185SOL    HW113454   0.221   3.624   3.219
 4185SOL    HW213455   0.315   3.669   3.345
 4186SOL     OW13456   1.785   5.877   6.494
 4186SOL    HW113457   1.806   5.840   6.584
 4186SOL    HW213458   1.790   5.804   6.425
 4187SOL     OW13459   2.299   3.334   0.114
 4187SOL    HW113460   2.339   3.280   0.187
 4187SOL    HW213461   2.328   3.298   0.025
 4188SOL     OW13462   5.269   0.266   5.996
 4188SOL    HW113463   5.290   0.169   6.007
 4188SOL    HW213464   5.350   0.314   5.963
 4189SOL     OW13465   4.892   5.568   3.420
 4189SOL    HW113466   4.963   5.501   3.443
 4189SOL    HW213467   4.835   5.585   3.501
 4190SOL     OW13468   0.051   6.639   0.843
 4190SOL    HW113469   0.116   6.590   0.786
 4190SOL    HW213470   0.100   6.682   0.920
 4191SOL     OW13471   4.996   4.009   5.795
 4191SOL    HW113472   5.032   3.916   5.786
 4191SOL    HW213473   5.059   4.063   5.851
 4192SOL     OW13474   1.237   1.419   2.162
 4192SOL    HW113475   1.337   1.409   2.158
 4192SOL    HW213476   1.214   1.506   2.205
 4193SOL     OW13477   5.709   0.818   0.499
 4193SOL    HW113478   5.635   0.868   0.544
 4193SOL    HW213479   5.689   0.811   0.401
 4194SOL     OW13480   3.891   0.695   5.515
 4194SOL    HW113481   3.987   0.721   5.523
 4194SOL    HW213482   3.854   0.676   5.606
 4195SOL     OW13483   4.644   6.564   1.935
 4195SOL    HW113484   4.704   6.643   1.946
 4195SOL    HW213485   4.688   6.495   1.879
 4196SOL     OW13486   6.824   2.800   3.764
 4196SOL    HW113487   6.819   2.711   3.719
 4196SOL    HW213488   6.753   2.860   3.729
 4197SOL     OW13489   3.842   6.100   5.973
 4197SOL    HW113490   3.926   6.107   6.027
 4197SOL    HW213491   3.779   6.036   6.018
 4198SOL     OW13492   6.587   0.581   1.837
 4198SOL    HW113493   6.569   0.595   1.739
 4198SOL    HW213494   6.521   0.515   1.873
 4199SOL     OW13495   1.583   4.039   6.559
 4199SOL    HW113496   1.508   4.071   6.616
 4199SOL    HW213497   1.624   4.117   6.510
 4200SOL     OW13498   3.788   0.799   5.000
 4200SOL    HW113499   3.829   0.889   4.988
 4200SOL    HW213500   3.704   0.808   5.054
 4201SOL     OW13501   6.591   0.010   3.552
 4201SOL    HW113502   6.548   0.059   3.476
 4201SOL    HW213503   6.667   0.064   3.588
 4202SOL     OW13504   3.571   5.561   6.907
 4202SOL    HW113505   3.552   5.523   6.997
 4202SOL    HW213506   3.622   5.495   6.852
 4203SOL     OW13507   5.159   4.844   0.333
 4203SOL    HW113508   5.185   4.904   0.409
 4203SOL    HW213509   5.059   4.837   0.329
 4204SOL     OW13510   3.616   3.337   5.789
 4204SOL    HW113511   3.532   3.299   5.829
 4204SOL    HW213512   3.620   3.315   5.692
 4205SOL     OW13513   3.543   5.767   4.802
 4205SOL    HW113514   3.532   5.822   4.884
 4205SOL    HW213515   3.472   5.697   4.798
 4206SOL     OW13516   1.012   1.348   5.329
 4206SOL    HW113517   1.060   1.436   5.338
 4206SOL    HW213518   1.060   1.279   5.383
 4207SOL     OW13519   1.864   2.118   1.250
 4207SOL    HW113520   1.881   2.020   1.241
 4207SOL    HW213521   1.943   2.162   1.292
 4208SOL     OW13522   1.736   4.515   5.092
 4208SOL    HW113523   1.707   4.446   5.026
 4208SOL    HW213524   1.666   4.526   5.162
 4209SOL     OW13525   7.003   5.782   2.814
 4209SOL    HW113526   7.014   5.690   2.776
 4209SOL    HW213527   0.070   5.817   2.842
 4210SOL     OW13528   3.968   3.331   4.827
 4210SOL    HW113529   3.907   3.256   4.852
 4210SOL    HW213530   3.995   3.321   4.732
 4211SOL     OW13531   3.693   1.831   5.220
 4211SOL    HW113532   3.718   1.763   5.151
 4211SOL    HW213533   3.764   1.834   5.290
 4212SOL     OW13534   0.284   1.047   3.501
 4212SOL    HW113535   0.364   0.987   3.502
 4212SOL    HW213536   0.242   1.047   3.410
 4213SOL     OW13537   3.086   1.062   3.193
 4213SOL    HW113538   3.057   1.058   3.288
 4213SOL    HW213539   3.056   0.979   3.146
 4214SOL     OW13540   0.515   5.635   4.517
 4214SOL    HW113541   0.462   5.642   4.602
 4214SOL    HW213542   0.551   5.542   4.509
 4215SOL     OW13543   5.041   6.740   5.430
 4215SOL    HW113544   4.997   6.772   5.346
 4215SOL    HW213545   5.106   6.667   5.407
 4216SOL     OW13546   1.607   0.745   2.567
 4216SOL    HW113547   1.701   0.752   2.601
 4216SOL    HW213548   1.544   0.744   2.645
 4217SOL     OW13549   0.860   0.244   1.658
 4217SOL    HW113550   0.934   0.195   1.705
 4217SOL    HW213551   0.899   0.299   1.584
 4218SOL     OW13552   3.289   1.144   1.269
 4218SOL    HW113553   3.200   1.108   1.241
 4218SOL    HW213554   3.360   1.077   1.248
 4219SOL     OW13555   4.349   6.241   4.626
 4219SOL    HW113556   4.318   6.336   4.628
 4219SOL    HW213557   4.448   6.239   4.609
 4220SOL     OW13558   5.201   2.209   1.636
 4220SOL    HW113559   5.192   2.309   1.641
 4220SOL    HW213560   5.140   2.167   1.703
 4221SOL     OW13561   6.386   5.233   6.962
 4221SOL    HW113562   6.307   5.192   6.917
 4221SOL    HW213563   6.416   5.175   0.015
 4222SOL     OW13564   5.592   1.789   3.294
 4222SOL    HW113565   5.641   1.835   3.368
 4222SOL    HW213566   5.496   1.778   3.319
 4223SOL     OW13567   4.180   3.950   1.042
 4223SOL    HW113568   4.158   4.032   0.988
 4223SOL    HW213569   4.241   3.891   0.990
 4224SOL     OW13570   5.683   4.444   4.823
 4224SOL    HW113571   5.644   4.535   4.837
 4224SOL    HW213572   5.616   4.385   4.778
 4225SOL     OW13573   1.506   2.275   5.633
 4225SOL    HW113574   1.410   2.302   5.631
 4225SOL    HW213575   1.564   2.357   5.628
 4226SOL     OW13576   0.696   6.009   4.750
 4226SOL    HW113577   0.780   6.044   4.791
 4226SOL    HW213578   0.668   6.069   4.675
 4227SOL     OW13579   4.887   5.597   1.881
 4227SOL    HW113580   4.883   5.616   1.783
 4227SOL    HW213581   4.936   5.511   1.896
 4228SOL     OW13582   0.716   5.899   5.011
 4228SOL    HW113583   0.695   5.874   4.916
 4228SOL    HW213584   0.806   5.862   5.036
 4229SOL     OW13585   5.462   5.965   5.585
 4229SOL    HW113586   5.368   5.999   5.585
 4229SOL    HW213587   5.476   5.904   5.663
 4230SOL     OW13588   1.385   0.240   2.772
 4230SOL    HW113589   1.374   0.241   2.673
 4230SOL    HW213590   1.348   0.154   2.809
 4231SOL     OW13591   5.078   0.930   5.520
 4231SOL    HW113592   5.174   0.903   5.512
 4231SOL    HW213593   5.057   0.947   5.617
 4232SOL     OW13594   2.433   5.546   3.572
 4232SOL    HW113595   2.467   5.563   3.664
 4232SOL    HW213596   2.443   5.449   3.549
 4233SOL     OW13597   0.107   0.112   4.321
 4233SOL    HW113598   0.092   0.069   4.410
 4233SOL    HW213599   0.198   0.089   4.287
 4234SOL     OW13600   1.953   5.340   5.499
 4234SOL    HW113601   1.949   5.439   5.512
 4234SOL    HW213602   1.958   5.295   5.588
 4235SOL     OW13603   6.773   5.363   5.698
 4235SOL    HW113604   6.789   5.461   5.706
 4235SOL    HW213605   6.849   5.313   5.739
 4236SOL     OW13606   0.447   5.262   2.662
 4236SOL    HW113607   0.420   5.166   2.660
 4236SOL    HW213608   0.541   5.271   2.631
 4237SOL     OW13609   6.500   4.368   4.452
 4237SOL    HW113610   6.507   4.467   4.444
 4237SOL    HW213611   6.407   4.338   4.431
 4238SOL     OW13612   1.198   1.025   3.468
 4238SOL    HW113613   1.133   1.098   3.443
 4238SOL    HW213614   1.172   0.940   3.421
 4239SOL     OW13615   4.241   0.980   3.074
 4239SOL    HW113616   4.207   0.906   3.132
 4239SOL    HW213617   4.164   1.031   3.037
 4240SOL     OW13618   2.180   5.141   0.127
 4240SOL    HW113619   2.177   5.134   0.028
 4240SOL    HW213620   2.122   5.070   0.168
 4241SOL     OW13621   6.232   1.832   0.426
 4241SOL    HW113622   6.257   1.882   0.509
 4241SOL    HW213623   6.290   1.752   0.416
 4242SOL     OW13624   2.425   2.293   3.906
 4242SOL    HW113625   2.406   2.391   3.920
 4242SOL    HW213626   2.524   2.280   3.902
 4243SOL     OW13627   5.018   1.877   2.782
 4243SOL    HW113628   4.985   1.862   2.875
 4243SOL    HW213629   4.963   1.949   2.739
 4244SOL     OW13630   3.781   3.530   2.032
 4244SOL    HW113631   3.768   3.448   1.975
 4244SOL    HW213632   3.700   3.589   2.023
 4245SOL     OW13633   6.576   1.734   6.573
 4245SOL    HW113634   6.593   1.642   6.609
 4245SOL    HW213635   6.663   1.774   6.544
 4246SOL     OW13636   6.178   4.461   3.124
 4246SOL    HW113637   6.169   4.548   3.074
 4246SOL    HW213638   6.138   4.388   3.069
 4247SOL     OW13639   0.419   6.204   4.373
 4247SOL    HW113640   0.437   6.179   4.278
 4247SOL    HW213641   0.380   6.296   4.377
 4248SOL     OW13642   2.265   1.894   5.044
 4248SOL    HW113643   2.197   1.842   4.992
 4248SOL    HW213644   2.222   1.976   5.082
 4249SOL     OW13645   6.543   2.717   5.589
 4249SOL    HW113646   6.617   2.675   5.642
 4249SOL    HW213647   6.500   2.648   5.531
 4250SOL     OW13648   6.669   4.453   3.091
 4250SOL    HW113649   6.768   4.466   3.097
 4250SOL    HW213650   6.626   4.494   3.171
 4251SOL     OW13651   6.223   4.739   0.446
 4251SOL    HW113652   6.313   4.694   0.450
 4251SOL    HW213653   6.153   4.677   0.482
 4252SOL     OW13654   6.578   6.196   4.961
 4252SOL    HW113655   6.655   6.194   5.024
 4252SOL    HW213656   6.574   6.285   4.915
 4253SOL     OW13657   3.195   0.425   2.926
 4253SOL    HW113658   3.277   0.479   2.947
 4253SOL    HW213659   3.197   0.399   2.829
 4254SOL     OW13660   1.235   2.865   1.489
 4254SOL    HW113661   1.145   2.909   1.487
 4254SOL    HW213662   1.224   2.766   1.485
 4255SOL     OW13663   6.013   2.442   3.520
 4255SOL    HW113664   6.109   2.446   3.550
 4255SOL    HW213665   5.963   2.377   3.577
 4256SOL     OW13666   1.158   6.340   0.932
 4256SOL    HW113667   1.107   6.312   1.014
 4256SOL    HW213668   1.228   6.407   0.957
 4257SOL     OW13669   3.466   0.607   5.424
 4257SOL    HW113670   3.401   0.573   5.355
 4257SOL    HW213671   3.559   0.592   5.391
 4258SOL     OW13672   6.206   6.852   1.916
 4258SOL    HW113673   6.286   6.895   1.957
 4258SOL    HW213674   6.234   6.781   1.851
 4259SOL     OW13675   2.366   1.097   6.707
 4259SOL    HW113676   2.285   1.071   6.761
 4259SOL    HW213677   2.393   1.190   6.732
 4260SOL     OW13678   4.494   5.866   3.944
 4260SOL    HW113679   4.459   5.774   3.933
 4260SOL    HW213680   4.584   5.873   3.901
 4261SOL     OW13681   2.641   0.317   1.951
 4261SOL    HW113682   2.664   0.219   1.955
 4261SOL    HW213683   2.701   0.368   2.013
 4262SOL     OW13684   1.589   4.753   5.597
 4262SOL    HW113685   1.510   4.792   5.548
 4262SOL    HW213686   1.598   4.799   5.686
 4263SOL     OW13687   2.574   6.754   4.244
 4263SOL    HW113688   2.561   6.657   4.226
 4263SOL    HW213689   2.624   6.796   4.168
 4264SOL     OW13690   0.017   1.606   1.623
 4264SOL    HW113691   6.969   1.646   1.564
 4264SOL    HW213692   0.057   1.526   1.578
 4265SOL     OW13693   6.238   1.783   6.885
 4265SOL    HW113694   6.147   1.821   6.871
 4265SOL    HW213695   6.233   1.709   6.952
 4266SOL     OW13696   2.799   5.296   0.339
 4266SOL    HW113697   2.744   5.223   0.381
 4266SOL    HW213698   2.738   5.359   0.291
 4267SOL     OW13699   2.199   3.518   5.034
 4267SOL    HW113700   2.231   3.566   5.116
 4267SOL    HW213701   2.262   3.535   4.959
 4268SOL     OW13702   1.488   6.638   0.233
 4268SOL    HW113703   1.561   6.606   0.292
 4268SOL    HW213704   1.515   6.628   0.137
 4269SOL     OW13705   2.079   1.600   0.574
 4269SOL    HW113706   2.098   1.506   0.545
 4269SOL    HW213707   2.031   1.599   0.661
 4270SOL     OW13708   3.556   2.842   3.918
 4270SOL    HW113709   3.569   2.748   3.948
 4270SOL    HW213710   3.481   2.884   3.971
 4271SOL     OW13711   0.262   0.377   5.507
 4271SOL    HW113712   0.357   0.358   5.532
 4271SOL    HW213713   0.218   0.430   5.580
 4272SOL     OW13714   6.999   4.854   4.918
 4272SOL    HW113715   0.016   4.764   4.899
 4272SOL    HW213716   6.906   4.857   4.881
 4273SOL     OW13717   4.765   6.640   4.044
 4273SOL    HW113718   4.746   6.659   4.140
 4273SOL    HW213719   4.783   6.726   3.996
 4274SOL     OW13720   1.148   6.599   3.408
 4274SOL    HW113721   1.133   6.500   3.406
 4274SOL    HW213722   1.075   6.645   3.358
 4275SOL     OW13723   6.674   1.449   6.047
 4275SOL    HW113724   6.605   1.401   5.991
 4275SOL    HW213725   6.636   1.466   6.138
 4276SOL     OW13726   1.355   5.131   2.863
 4276SOL    HW113727   1.430   5.194   2.842
 4276SOL    HW213728   1.294   5.173   2.930
 4277SOL     OW13729   0.009   4.666   4.016
 4277SOL    HW113730   6.986   4.577   4.006
 4277SOL    HW213731   0.007   4.694   4.112
 4278SOL     OW13732   6.625   0.728   4.894
 4278SOL    HW113733   6.534   0.758   4.924
 4278SOL    HW213734   6.658   0.656   4.955
 4279SOL     OW13735   3.584   6.523   5.317
 4279SOL    HW113736   3.670   6.479   5.292
 4279SOL    HW213737   3.593   6.566   5.407
 4280SOL     OW13738   5.324   1.650   5.451
 4280SOL    HW113739   5.367   1.663   5.540
 4280SOL    HW213740   5.395   1.635   5.382
 4281SOL     OW13741   2.031   4.459   4.681
 4281SOL    HW113742   2.046   4.505   4.769
 4281SOL    HW213743   1.995   4.367   4.697
 4282SOL     OW13744   2.333   2.004   0.043
 4282SOL    HW113745   2.246   2.006   0.091
 4282SOL    HW213746   2.383   1.920   0.066
 4283SOL     OW13747   1.578   0.201   4.066
 4283SOL    HW113748   1.505   0.138   4.093
 4283SOL    HW213749   1.595   0.265   4.141
 4284SOL     OW13750   5.450   6.920   2.264
 4284SOL    HW113751   5.432   6.823   2.276
 4284SOL    HW213752   5.467   6.963   2.352
 4285SOL     OW13753   0.546   6.984   6.363
 4285SOL    HW113754   0.460   0.010   6.379
 4285SOL    HW213755   0.529   6.904   6.307
 4286SOL     OW13756   5.181   5.840   6.427
 4286SOL    HW113757   5.159   5.916   6.489
 4286SOL    HW213758   5.279   5.824   6.427
 4287SOL     OW13759   5.827   0.611   5.721
 4287SOL    HW113760   5.768   0.543   5.677
 4287SOL    HW213761   5.923   0.587   5.706
 4288SOL     OW13762   0.782   6.296   3.480
 4288SOL    HW113763   0.849   6.268   3.412
 4288SOL    HW213764   0.795   6.392   3.502
 4289SOL     OW13765   5.580   2.420   2.255
 4289SOL    HW113766   5.657   2.357   2.252
 4289SOL    HW213767   5.574   2.461   2.346
 4290SOL     OW13768   2.392   6.327   0.947
 4290SOL    HW113769   2.397   6.341   1.046
 4290SOL    HW213770   2.405   6.230   0.926
 4291SOL     OW13771   4.738   3.381   1.749
 4291SOL    HW113772   4.793   3.323   1.808
 4291SOL    HW213773   4.757   3.358   1.653
 4292SOL     OW13774   6.167   4.562   5.459
 4292SOL    HW113775   6.193   4.641   5.514
 4292SOL    HW213776   6.067   4.560   5.449
 4293SOL     OW13777   6.540   4.174   6.421
 4293SOL    HW113778   6.578   4.138   6.507
 4293SOL    HW213779   6.614   4.185   6.355
 4294SOL     OW13780   4.523   3.470   6.974
 4294SOL    HW113781   4.504   3.494   0.047
 4294SOL    HW213782   4.576   3.386   6.970
 4295SOL     OW13783   3.854   0.041   4.911
 4295SOL    HW113784   3.941   0.013   4.870
 4295SOL    HW213785   3.851   0.141   4.917
 4296SOL     OW13786   2.708   1.575   0.560
 4296SOL    HW113787   2.658   1.658   0.586
 4296SOL    HW213788   2.805   1.596   0.552
 4297SOL     OW13789   5.239   0.026   5.370
 4297SOL    HW113790   5.296   7.005   5.301
 4297SOL    HW213791   5.234   0.125   5.351
 4298SOL     OW13792   1.594   5.486   6.669
 4298SOL    HW113793   1.626   5.401   6.711
 4298SOL    HW213794   1.513   5.467   6.613
 4299SOL     OW13795   1.308   2.970   6.798
 4299SOL    HW113796   1.234   2.952   6.733
 4299SOL    HW213797   1.355   2.884   6.819
 4300SOL     OW13798   2.604   1.920   6.046
 4300SOL    HW113799   2.536   1.952   5.980
 4300SOL    HW213800   2.603   1.980   6.126
 4301SOL     OW13801   2.751   1.394   0.748
 4301SOL    HW113802   2.730   1.446   0.665
 4301SOL    HW213803   2.849   1.376   0.752
 4302SOL     OW13804   1.262   6.424   5.753
 4302SOL    HW113805   1.236   6.436   5.849
 4302SOL    HW213806   1.350   6.376   5.748
 4303SOL     OW13807   5.932   4.384   3.232
 4303SOL    HW113808   6.027   4.376   3.201
 4303SOL    HW213809   5.930   4.434   3.319
 4304SOL     OW13810   3.293   3.762   4.155
 4304SOL    HW113811   3.272   3.860   4.157
 4304SOL    HW213812   3.345   3.738   4.237
 4305SOL     OW13813   6.088   1.771   3.994
 4305SOL    HW113814   6.167   1.739   3.942
 4305SOL    HW213815   6.010   1.710   3.977
 4306SOL     OW13816   7.008   3.858   6.703
 4306SOL    HW113817   0.026   3.825   6.788
 4306SOL    HW213818   0.037   3.824   6.625
 4307SOL     OW13819   4.656   4.997   5.790
 4307SOL    HW113820   4.626   5.083   5.749
 4307SOL    HW213821   4.756   4.991   5.787
 4308SOL     OW13822   5.426   5.721   6.361
 4308SOL    HW113823   5.355   5.666   6.316
 4308SOL    HW213824   5.487   5.760   6.292
 4309SOL     OW13825   0.478   6.639   0.305
 4309SOL    HW113826   0.428   6.557   0.279
 4309SOL    HW213827   0.421   6.719   0.289
 4310SOL     OW13828   2.089   2.336   3.743
 4310SOL    HW113829   2.104   2.293   3.832
 4310SOL    HW213830   2.060   2.431   3.756
 4311SOL     OW13831   1.342   5.660   3.173
 4311SOL    HW113832   1.399   5.736   3.145
 4311SOL    HW213833   1.359   5.581   3.113
 4312SOL     OW13834   1.251   5.624   1.382
 4312SOL    HW113835   1.227   5.578   1.297
 4312SOL    HW213836   1.223   5.567   1.459
 4313SOL     OW13837   5.846   1.347   1.690
 4313SOL    HW113838   5.902   1.365   1.771
 4313SOL    HW213839   5.768   1.410   1.690
 4314SOL     OW13840   5.032   3.070   3.618
 4314SOL    HW113841   4.971   3.099   3.692
 4314SOL    HW213842   5.123   3.108   3.632
 4315SOL     OW13843   1.835   0.645   2.687
 4315SOL    HW113844   1.931   0.670   2.695
 4315SOL    HW213845   1.814   0.571   2.751
 4316SOL     OW13846   4.802   0.065   1.340
 4316SOL    HW113847   4.861   0.073   1.421
 4316SOL    HW213848   4.855   0.089   1.259
 4317SOL     OW13849   3.021   1.057   4.780
 4317SOL    HW113850   2.929   1.088   4.802
 4317SOL    HW213851   3.067   1.025   4.863
 4318SOL     OW13852   0.587   3.912   3.235
 4318SOL    HW113853   0.654   3.891   3.163
 4318SOL    HW213854   0.631   3.965   3.307
 4319SOL     OW13855   2.940   3.116   0.410
 4319SOL    HW113856   2.990   3.126   0.496
 4319SOL    HW213857   2.842   3.132   0.426
 4320SOL     OW13858   1.594   6.258   1.989
 4320SOL    HW113859   1.611   6.313   2.071
 4320SOL    HW213860   1.665   6.278   1.921
 4321SOL     OW13861   6.590   0.624   4.275
 4321SOL    HW113862   6.623   0.530   4.287
 4321SOL    HW213863   6.666   0.688   4.285
 4322SOL     OW13864   6.197   1.331   6.781
 4322SOL    HW113865   6.237   1.420   6.756
 4322SOL    HW213866   6.189   1.325   6.880
 4323SOL     OW13867   5.453   3.309   1.982
 4323SOL    HW113868   5.356   3.325   1.964
 4323SOL    HW213869   5.485   3.373   2.052
 4324SOL     OW13870   5.860   4.890   6.994
 4324SOL    HW113871   5.851   4.989   7.003
 4324SOL    HW213872   5.939   4.869   6.937
 4325SOL     OW13873   0.939   0.991   6.904
 4325SOL    HW113874   1.004   1.008   6.978
 4325SOL    HW213875   0.945   0.895   6.877
 4326SOL     OW13876   0.053   2.773   5.063
 4326SOL    HW113877   6.978   2.754   5.071
 4326SOL    HW213878   0.094   2.775   5.154
 4327SOL     OW13879   6.276   5.769   2.617
 4327SOL    HW113880   6.368   5.742   2.645
 4327SOL    HW213881   6.274   5.783   2.518
 4328SOL     OW13882   4.443   4.811   5.824
 4328SOL    HW113883   4.519   4.876   5.817
 4328SOL    HW213884   4.356   4.859   5.810
 4329SOL     OW13885   3.095   1.995   6.136
 4329SOL    HW113886   3.182   1.955   6.166
 4329SOL    HW213887   3.112   2.059   6.061
 4330SOL     OW13888   2.970   0.596   5.336
 4330SOL    HW113889   2.943   0.536   5.411
 4330SOL    HW213890   3.030   0.668   5.371
 4331SOL     OW13891   5.183   3.208   1.406
 4331SOL    HW113892   5.109   3.273   1.424
 4331SOL    HW213893   5.190   3.191   1.308
 4332SOL     OW13894   5.593   3.827   2.342
 4332SOL    HW113895   5.566   3.738   2.306
 4332SOL    HW213896   5.519   3.863   2.399
 4333SOL     OW13897   4.631   1.479   4.993
 4333SOL    HW113898   4.646   1.474   4.894
 4333SOL    HW213899   4.533   1.485   5.011
 4334SOL     OW13900   2.573   1.998   2.216
 4334SOL    HW113901   2.604   2.089   2.191
 4334SOL    HW213902   2.579   1.937   2.136
 4335SOL     OW13903   2.905   3.514   3.388
 4335SOL    HW113904   2.914   3.415   3.403
 4335SOL    HW213905   2.927   3.562   3.473
 4336SOL     OW13906   0.946   6.989   5.441
 4336SOL    HW113907   0.908   0.021   5.516
 4336SOL    HW213908   0.951   0.022   5.358
 4337SOL     OW13909   1.160   4.671   0.177
 4337SOL    HW113910   1.211   4.739   0.231
 4337SOL    HW213911   1.117   4.605   0.239
 4338SOL     OW13912   4.789   6.028   4.734
 4338SOL    HW113913   4.752   5.986   4.817
 4338SOL    HW213914   4.889   6.023   4.735
 4339SOL     OW13915   5.659   2.954   5.699
 4339SOL    HW113916   5.641   2.855   5.705
 4339SOL    HW213917   5.573   3.004   5.711
 4340SOL     OW13918   6.212   3.816   2.904
 4340SOL    HW113919   6.117   3.826   2.933
 4340SOL    HW213920   6.269   3.796   2.984
 4341SOL     OW13921   1.050   4.120   1.487
 4341SOL    HW113922   0.994   4.117   1.570
 4341SOL    HW213923   1.128   4.181   1.502
 4342SOL     OW13924   6.673   3.169   4.059
 4342SOL    HW113925   6.645   3.265   4.050
 4342SOL    HW213926   6.602   3.118   4.106
 4343SOL     OW13927   2.757   6.905   0.041
 4343SOL    HW113928   2.797   6.941   6.980
 4343SOL    HW213929   2.777   6.967   0.117
 4344SOL     OW13930   1.682   5.311   3.498
 4344SOL    HW113931   1.597   5.312   3.551
 4344SOL    HW213932   1.738   5.389   3.524
 4345SOL     OW13933   1.564   3.159   5.625
 4345SOL    HW113934   1.609   3.245   5.650
 4345SOL    HW213935   1.632   3.089   5.607
 4346SOL     OW13936   2.375   2.952   1.705
 4346SOL    HW113937   2.328   2.870   1.674
 4346SOL    HW213938   2.320   2.999   1.774
 4347SOL     OW13939   6.745   1.078   1.412
 4347SOL    HW113940   6.796   1.010   1.359
 4347SOL    HW213941   6.787   1.090   1.502
 4348SOL     OW13942   0.277   2.890   2.513
 4348SOL    HW113943   0.233   2.870   2.426
 4348SOL    HW213944   0.208   2.897   2.585
 4349SOL     OW13945   0.222   1.653   2.834
 4349SOL    HW113946   0.160   1.670   2.757
 4349SOL    HW213947   0.311   1.696   2.815
 4350SOL     OW13948   4.709   2.359   4.061
 4350SOL    HW113949   4.672   2.451   4.049
 4350SOL    HW213950   4.770   2.358   4.140
 4351SOL     OW13951   2.318   6.361   1.235
 4351SOL    HW113952   2.247   6.302   1.196
 4351SOL    HW213953   2.292   6.387   1.328
 4352SOL     OW13954   0.668   2.063   1.567
 4352SOL    HW113955   0.719   2.049   1.482
 4352SOL    HW213956   0.633   1.975   1.600
 4353SOL     OW13957   3.047   5.035   1.058
 4353SOL    HW113958   3.027   4.937   1.054
 4353SOL    HW213959   3.139   5.051   1.023
 4354SOL     OW13960   1.983   6.483   5.691
 4354SOL    HW113961   2.046   6.534   5.749
 4354SOL    HW213962   1.983   6.523   5.599
 4355SOL     OW13963   3.579   0.250   1.796
 4355SOL    HW113964   3.614   0.246   1.702
 4355SOL    HW213965   3.654   0.263   1.859
 4356SOL     OW13966   4.765   4.326   1.866
 4356SOL    HW113967   4.700   4.320   1.942
 4356SOL    HW213968   4.740   4.404   1.808
 4357SOL     OW13969   6.323   0.194   6.768
 4357SOL    HW113970   6.244   0.227   6.717
 4357SOL    HW213971   6.369   0.122   6.717
 4358SOL     OW13972   6.662   6.256   0.376
 4358SOL    HW113973   6.740   6.203   0.408
 4358SOL    HW213974   6.597   6.269   0.451
 4359SOL     OW13975   1.370   2.055   4.976
 4359SOL    HW113976   1.345   1.973   4.924
 4359SOL    HW213977   1.458   2.040   5.021
 4360SOL     OW13978   1.630   3.662   2.659
 4360SOL    HW113979   1.600   3.579   2.611
 4360SOL    HW213980   1.683   3.719   2.596
 4361SOL     OW13981   3.145   2.533   1.722
 4361SOL    HW113982   3.099   2.480   1.793
 4361SOL    HW213983   3.139   2.484   1.635
 4362SOL     OW13984   5.937   3.959   5.243
 4362SOL    HW113985   5.868   3.951   5.172
 4362SOL    HW213986   5.893   3.963   5.333
 4363SOL     OW13987   5.120   2.119   5.748
 4363SOL    HW113988   5.156   2.060   5.676
 4363SOL    HW213989   5.102   2.065   5.830
 4364SOL     OW13990   2.960   3.720   5.492
 4364SOL    HW113991   3.057   3.725   5.515
 4364SOL    HW213992   2.948   3.728   5.394
 4365SOL     OW13993   2.767   1.286   2.079
 4365SOL    HW113994   2.697   1.355   2.101
 4365SOL    HW213995   2.792   1.237   2.163
 4366SOL     OW13996   5.473   6.557   0.845
 4366SOL    HW113997   5.477   6.641   0.900
 4366SOL    HW213998   5.406   6.494   0.884
 4367SOL     OW13999   1.204   4.993   5.827
 4367SOL    HW114000   1.124   4.934   5.812
 4367SOL    HW214001   1.279   4.938   5.864
 4368SOL     OW14002   3.922   5.149   1.149
 4368SOL    HW114003   3.834   5.133   1.102
 4368SOL    HW214004   3.963   5.061   1.173
 4369SOL     OW14005   4.478   5.807   2.675
 4369SOL    HW114006   4.422   5.887   2.652
 4369SOL    HW214007   4.547   5.834   2.743
 4370SOL     OW14008   5.212   4.352   3.102
 4370SOL    HW114009   5.268   4.308   3.171
 4370SOL    HW214010   5.269   4.415   3.048
 4371SOL     OW14011   6.319   0.091   1.288
 4371SOL    HW114012   6.338   0.097   1.190
 4371SOL    HW214013   6.223   0.116   1.305
 4372SOL     OW14014   4.458   1.421   2.600
 4372SOL    HW114015   4.411   1.427   2.688
 4372SOL    HW214016   4.539   1.481   2.602
 4373SOL     OW14017   0.336   3.251   6.651
 4373SOL    HW114018   0.308   3.207   6.566
 4373SOL    HW214019   0.292   3.206   6.728
 4374SOL     OW14020   1.264   2.000   1.683
 4374SOL    HW114021   1.299   2.084   1.642
 4374SOL    HW214022   1.338   1.933   1.691
 4375SOL     OW14023   2.313   0.200   3.880
 4375SOL    HW114024   2.244   0.241   3.939
 4375SOL    HW214025   2.392   0.260   3.873
 4376SOL     OW14026   6.988   0.200   2.192
 4376SOL    HW114027   6.890   0.184   2.205
 4376SOL    HW214028   7.009   0.295   2.215
 4377SOL     OW14029   5.436   3.654   0.813
 4377SOL    HW114030   5.393   3.720   0.751
 4377SOL    HW214031   5.491   3.703   0.880
 4378SOL     OW14032   1.745   0.937   2.783
 4378SOL    HW114033   1.652   0.901   2.773
 4378SOL    HW214034   1.791   0.933   2.695
 4379SOL     OW14035   2.780   1.459   4.438
 4379SOL    HW114036   2.770   1.558   4.451
 4379SOL    HW214037   2.715   1.412   4.498
 4380SOL     OW14038   1.482   0.690   1.586
 4380SOL    HW114039   1.519   0.775   1.549
 4380SOL    HW214040   1.513   0.613   1.530
 4381SOL     OW14041   1.510   5.566   5.008
 4381SOL    HW114042   1.461   5.479   5.017
 4381SOL    HW214043   1.450   5.641   5.038
 4382SOL     OW14044   6.659   3.237   5.856
 4382SOL    HW114045   6.693   3.304   5.790
 4382SOL    HW214046   6.721   3.233   5.935
 4383SOL     OW14047   6.328   3.990   6.504
 4383SOL    HW114048   6.309   3.914   6.441
 4383SOL    HW214049   6.384   4.059   6.456
 4384SOL     OW14050   6.516   0.823   3.466
 4384SOL    HW114051   6.565   0.832   3.380
 4384SOL    HW214052   6.417   0.821   3.447
 4385SOL     OW14053   4.351   2.360   4.787
 4385SOL    HW114054   4.289   2.394   4.858
 4385SOL    HW214055   4.439   2.338   4.828
 4386SOL     OW14056   1.240   3.905   5.270
 4386SOL    HW114057   1.243   3.898   5.370
 4386SOL    HW214058   1.321   3.861   5.231
 4387SOL     OW14059   6.801   2.450   1.669
 4387SOL    HW114060   6.787   2.468   1.571
 4387SOL    HW214061   6.726   2.394   1.703
 4388SOL     OW14062   5.163   2.023   6.000
 4388SOL    HW114063   5.224   2.102   5.992
 4388SOL    HW214064   5.113   2.027   6.086
 4389SOL     OW14065   6.931   3.680   1.597
 4389SOL    HW114066   6.956   3.688   1.500
 4389SOL    HW214067   6.951   3.587   1.629
 4390SOL     OW14068   4.874   6.816   0.582
 4390SOL    HW114069   4.869   6.716   0.584
 4390SOL    HW214070   4.903   6.850   0.671
 4391SOL     OW14071   2.067   5.067   6.370
 4391SOL    HW114072   2.127   5.040   6.445
 4391SOL    HW214073   2.118   5.065   6.284
 4392SOL     OW14074   0.360   1.771   4.279
 4392SOL    HW114075   0.324   1.683   4.311
 4392SOL    HW214076   0.286   1.839   4.279
 4393SOL     OW14077   6.201   0.501   2.051
 4393SOL    HW114078   6.170   0.582   2.102
 4393SOL    HW214079   6.123   0.441   2.035
 4394SOL     OW14080   1.077   6.917   1.754
 4394SOL    HW114081   1.093   6.888   1.659
 4394SOL    HW214082   1.103   7.014   1.763
 4395SOL     OW14083   1.715   0.114   1.568
 4395SOL    HW114084   1.717   0.165   1.654
 4395SOL    HW214085   1.808   0.092   1.541
 4396SOL     OW14086   1.598   1.669   3.809
 4396SOL    HW114087   1.629   1.577   3.784
 4396SOL    HW214088   1.517   1.692   3.756
 4397SOL     OW14089   1.855   2.938   3.754
 4397SOL    HW114090   1.801   2.856   3.770
 4397SOL    HW214091   1.922   2.949   3.828
 4398SOL     OW14092   2.054   3.849   6.097
 4398SOL    HW114093   2.022   3.829   6.005
 4398SOL    HW214094   2.058   3.764   6.151
 4399SOL     OW14095   2.159   5.755   1.780
 4399SOL    HW114096   2.122   5.664   1.796
 4399SOL    HW214097   2.152   5.810   1.863
 4400SOL     OW14098   2.168   6.682   3.763
 4400SOL    HW114099   2.196   6.666   3.858
 4400SOL    HW214100   2.113   6.605   3.731
 4401SOL     OW14101   3.957   6.379   4.881
 4401SOL    HW114102   3.865   6.404   4.852
 4401SOL    HW214103   3.970   6.280   4.869
 4402SOL     OW14104   0.899   0.601   2.156
 4402SOL    HW114105   0.897   0.650   2.069
 4402SOL    HW214106   0.807   0.570   2.179
 4403SOL     OW14107   0.741   5.929   0.954
 4403SOL    HW114108   0.828   5.970   0.982
 4403SOL    HW214109   0.740   5.920   0.854
 4404SOL     OW14110   1.435   5.728   5.482
 4404SOL    HW114111   1.509   5.661   5.483
 4404SOL    HW214112   1.449   5.792   5.406
 4405SOL     OW14113   2.787   5.271   3.669
 4405SOL    HW114114   2.883   5.243   3.663
 4405SOL    HW214115   2.732   5.195   3.704
 4406SOL     OW14116   6.785   3.458   1.423
 4406SOL    HW114117   6.802   3.404   1.341
 4406SOL    HW214118   6.800   3.555   1.403
 4407SOL     OW14119   0.092   5.370   1.496
 4407SOL    HW114120   0.080   5.392   1.399
 4407SOL    HW214121   0.162   5.299   1.505
 4408SOL     OW14122   3.003   5.892   6.936
 4408SOL    HW114123   2.927   5.831   6.913
 4408SOL    HW214124   3.001   5.973   6.877
 4409SOL     OW14125   4.001   0.804   1.499
 4409SOL    HW114126   3.906   0.775   1.511
 4409SOL    HW214127   4.003   0.895   1.457
 4410SOL     OW14128   0.240   5.939   0.684
 4410SOL    HW114129   0.240   5.846   0.722
 4410SOL    HW214130   0.333   5.964   0.656
 4411SOL     OW14131   3.640   5.026   5.616
 4411SOL    HW114132   3.624   4.999   5.711
 4411SOL    HW214133   3.553   5.028   5.567
 4412SOL     OW14134   5.131   6.661   4.338
 4412SOL    HW114135   5.153   6.668   4.435
 4412SOL    HW214136   5.168   6.575   4.301
 4413SOL     OW14137   4.422   6.441   4.306
 4413SOL    HW114138   4.476   6.446   4.221
 4413SOL    HW214139   4.358   6.365   4.300
 4414SOL     OW14140   4.370   5.570   1.720
 4414SOL    HW114141   4.440   5.514   1.677
 4414SOL    HW214142   4.283   5.521   1.720
 4415SOL     OW14143   3.495   3.877   0.834
 4415SOL    HW114144   3.491   3.951   0.900
 4415SOL    HW214145   3.511   3.790   0.882
 4416SOL     OW14146   3.946   1.443   4.382
 4416SOL    HW114147   3.927   1.348   4.355
 4416SOL    HW214148   3.947   1.501   4.301
 4417SOL     OW14149   6.284   2.831   4.183
 4417SOL    HW114150   6.196   2.870   4.155
 4417SOL    HW214151   6.356   2.898   4.167
 4418SOL     OW14152   6.326   1.957   2.023
 4418SOL    HW114153   6.408   1.959   1.965
 4418SOL    HW214154   6.305   2.050   2.055
 4419SOL     OW14155   6.053   6.326   5.647
 4419SOL    HW114156   6.009   6.332   5.557
 4419SOL    HW214157   6.067   6.230   5.671
 4420SOL     OW14158   3.726   1.780   1.272
 4420SOL    HW114159   3.631   1.751   1.260
 4420SOL    HW214160   3.781   1.702   1.300
 4421SOL     OW14161   1.305   3.076   5.560
 4421SOL    HW114162   1.323   2.992   5.509
 4421SOL    HW214163   1.391   3.114   5.594
 4422SOL     OW14164   0.802   5.051   6.860
 4422SOL    HW114165   0.865   5.010   6.926
 4422SOL    HW214166   0.740   5.113   6.909
 4423SOL     OW14167   6.366   4.697   5.619
 4423SOL    HW114168   6.370   4.614   5.675
 4423SOL    HW214169   6.457   4.740   5.617
 4424SOL     OW14170   5.158   5.837   4.142
 4424SOL    HW114171   5.135   5.789   4.058
 4424SOL    HW214172   5.188   5.930   4.121
 4425SOL     OW14173   1.794   5.407   0.567
 4425SOL    HW114174   1.783   5.435   0.662
 4425SOL    HW214175   1.881   5.442   0.532
 4426SOL     OW14176   1.019   0.534   4.054
 4426SOL    HW114177   1.016   0.437   4.029
 4426SOL    HW214178   1.053   0.544   4.147
 4427SOL     OW14179   3.652   6.327   2.841
 4427SOL    HW114180   3.710   6.325   2.760
 4427SOL    HW214181   3.612   6.418   2.852
 4428SOL     OW14182   5.238   0.789   4.776
 4428SOL    HW114183   5.288   0.862   4.730
 4428SOL    HW214184   5.146   0.821   4.799
 4429SOL     OW14185   2.873   6.577   2.934
 4429SOL    HW114186   2.866   6.676   2.943
 4429SOL    HW214187   2.922   6.540   3.014
 4430SOL     OW14188   5.515   4.785   4.305
 4430SOL    HW114189   5.554   4.877   4.295
 4430SOL    HW214190   5.490   4.770   4.401
 4431SOL     OW14191   3.328   0.543   3.673
 4431SOL    HW114192   3.297   0.638   3.673
 4431SOL    HW214193   3.382   0.525   3.591
 4432SOL     OW14194   2.538   3.475   6.371
 4432SOL    HW114195   2.519   3.456   6.275
 4432SOL    HW214196   2.591   3.399   6.410
 4433SOL     OW14197   0.782   2.086   4.646
 4433SOL    HW114198   0.825   2.012   4.697
 4433SOL    HW214199   0.726   2.048   4.573
 4434SOL     OW14200   6.193   1.138   1.565
 4434SOL    HW114201   6.164   1.197   1.490
 4434SOL    HW214202   6.198   1.191   1.649
 4435SOL     OW14203   3.561   4.215   1.088
 4435SOL    HW114204   3.498   4.269   1.032
 4435SOL    HW214205   3.617   4.156   1.029
 4436SOL     OW14206   4.139   1.611   1.646
 4436SOL    HW114207   4.051   1.649   1.618
 4436SOL    HW214208   4.182   1.671   1.712
 4437SOL     OW14209   0.500   3.294   2.709
 4437SOL    HW114210   0.527   3.371   2.651
 4437SOL    HW214211   0.571   3.223   2.705
 4438SOL     OW14212   4.655   0.030   5.604
 4438SOL    HW114213   4.684   0.016   5.698
 4438SOL    HW214214   4.614   0.121   5.594
 4439SOL     OW14215   0.957   5.650   2.770
 4439SOL    HW114216   0.884   5.685   2.712
 4439SOL    HW214217   1.030   5.718   2.776
 4440SOL     OW14218   2.894   4.495   1.063
 4440SOL    HW114219   2.911   4.467   1.157
 4440SOL    HW214220   2.802   4.535   1.056
 4441SOL     OW14221   0.649   1.617   0.593
 4441SOL    HW114222   0.688   1.527   0.573
 4441SOL    HW214223   0.577   1.638   0.527
 4442SOL     OW14224   1.189   5.107   6.109
 4442SOL    HW114225   1.185   5.101   6.009
 4442SOL    HW214226   1.270   5.059   6.142
 4443SOL     OW14227   0.935   4.751   6.466
 4443SOL    HW114228   0.892   4.755   6.556
 4443SOL    HW214229   0.992   4.833   6.454
 4444SOL     OW14230   4.523   3.990   0.536
 4444SOL    HW114231   4.503   4.036   0.623
 4444SOL    HW214232   4.438   3.961   0.493
 4445SOL     OW14233   1.108   5.239   7.012
 4445SOL    HW114234   1.075   5.227   0.083
 4445SOL    HW214235   1.197   5.286   7.014
 4446SOL     OW14236   5.383   1.745   0.178
 4446SOL    HW114237   5.455   1.760   0.110
 4446SOL    HW214238   5.350   1.651   0.172
 4447SOL     OW14239   5.602   4.663   5.318
 4447SOL    HW114240   5.577   4.666   5.221
 4447SOL    HW214241   5.646   4.749   5.343
 4448SOL     OW14242   2.905   7.016   0.902
 4448SOL    HW114243   2.874   0.072   0.956
 4448SOL    HW214244   2.881   0.008   0.806
 4449SOL     OW14245   4.530   1.167   6.483
 4449SOL    HW114246   4.516   1.168   6.582
 4449SOL    HW214247   4.445   1.194   6.437
 4450SOL     OW14248   3.631   1.725   0.320
 4450SOL    HW114249   3.646   1.740   0.418
 4450SOL    HW214250   3.601   1.631   0.305
 4451SOL     OW14251   4.759   4.691   3.896
 4451SOL    HW114252   4.751   4.698   3.995
 4451SOL    HW214253   4.816   4.766   3.861
 4452SOL     OW14254   5.823   6.229   4.614
 4452SOL    HW114255   5.882   6.176   4.553
 4452SOL    HW214256   5.783   6.168   4.683
 4453SOL     OW14257   1.021   2.934   2.040
 4453SOL    HW114258   0.990   3.029   2.044
 4453SOL    HW214259   1.056   2.906   2.129
 4454SOL     OW14260   0.251   1.277   6.778
 4454SOL    HW114261   0.159   1.244   6.757
 4454SOL    HW214262   0.262   1.371   6.744
 4455SOL     OW14263   6.261   5.639   5.128
 4455SOL    HW114264   6.302   5.664   5.040
 4455SOL    HW214265   6.293   5.548   5.155
 4456SOL     OW14266   2.324   5.905   3.730
 4456SOL    HW114267   2.401   5.968   3.743
 4456SOL    HW214268   2.240   5.958   3.715
 4457SOL     OW14269   2.053   2.224   4.902
 4457SOL    HW114270   2.111   2.284   4.847
 4457SOL    HW214271   1.961   2.264   4.910
 4458SOL     OW14272   2.046   3.564   1.798
 4458SOL    HW114273   2.125   3.577   1.739
 4458SOL    HW214274   2.076   3.524   1.885
 4459SOL     OW14275   2.023   1.616   4.702
 4459SOL    HW114276   2.019   1.670   4.787
 4459SOL    HW214277   2.117   1.586   4.686
 4460SOL     OW14278   0.284   3.422   4.328
 4460SOL    HW114279   0.226   3.487   4.280
 4460SOL    HW214280   0.343   3.374   4.263
 4461SOL     OW14281   1.783   0.735   1.222
 4461SOL    HW114282   1.849   0.678   1.172
 4461SOL    HW214283   1.716   0.771   1.157
 4462SOL     OW14284   5.920   3.774   2.211
 4462SOL    HW114285   5.894   3.684   2.245
 4462SOL    HW214286   5.915   3.841   2.285
 4463SOL     OW14287   5.337   1.214   0.826
 4463SOL    HW114288   5.428   1.237   0.861
 4463SOL    HW214289   5.268   1.263   0.880
 4464SOL     OW14290   0.515   5.204   0.431
 4464SOL    HW114291   0.418   5.229   0.427
 4464SOL    HW214292   0.563   5.267   0.492
 4465SOL     OW14293   2.670   5.602   0.318
 4465SOL    HW114294   2.755   5.653   0.333
 4465SOL    HW214295   2.623   5.590   0.406
 4466SOL     OW14296   2.363   2.148   3.367
 4466SOL    HW114297   2.364   2.197   3.455
 4466SOL    HW214298   2.313   2.062   3.377
 4467SOL     OW14299   2.499   5.585   4.280
 4467SOL    HW114300   2.453   5.526   4.345
 4467SOL    HW214301   2.588   5.547   4.257
 4468SOL     OW14302   1.037   3.313   0.470
 4468SOL    HW114303   0.978   3.360   0.403
 4468SOL    HW214304   0.987   3.301   0.555
 4469SOL     OW14305   2.501   0.655   1.333
 4469SOL    HW114306   2.523   0.719   1.407
 4469SOL    HW214307   2.576   0.656   1.266
 4470SOL     OW14308   0.544   0.715   2.495
 4470SOL    HW114309   0.528   0.795   2.553
 4470SOL    HW214310   0.527   0.739   2.400
 4471SOL     OW14311   2.216   2.968   6.495
 4471SOL    HW114312   2.241   2.877   6.462
 4471SOL    HW214313   2.233   2.974   6.593
 4472SOL     OW14314   1.782   2.648   1.285
 4472SOL    HW114315   1.704   2.706   1.309
 4472SOL    HW214316   1.774   2.619   1.190
 4473SOL     OW14317   6.469   3.066   3.838
 4473SOL    HW114318   6.547   3.100   3.891
 4473SOL    HW214319   6.502   3.036   3.748
 4474SOL     OW14320   2.945   0.970   2.094
 4474SOL    HW114321   2.939   0.931   2.186
 4474SOL    HW214322   2.860   1.018   2.073
 4475SOL     OW14323   0.710   3.703   2.062
 4475SOL    HW114324   0.719   3.711   1.962
 4475SOL    HW214325   0.624   3.745   2.091
 4476SOL     OW14326   5.587   1.260   4.254
 4476SOL    HW114327   5.629   1.227   4.338
 4476SOL    HW214328   5.655   1.261   4.181
 4477SOL     OW14329   1.804   0.596   5.392
 4477SOL    HW114330   1.841   0.513   5.433
 4477SOL    HW214331   1.730   0.632   5.449
 4478SOL     OW14332   1.004   0.449   1.479
 4478SOL    HW114333   0.933   0.466   1.411
 4478SOL    HW214334   1.093   0.475   1.442
 4479SOL     OW14335   1.148   1.808   0.208
 4479SOL    HW114336   1.234   1.766   0.180
 4479SOL    HW214337   1.109   1.758   0.285
 4480SOL     OW14338   0.425   4.513   4.631
 4480SOL    HW114339   0.397   4.558   4.715
 4480SOL    HW214340   0.484   4.435   4.652
 4481SOL     OW14341   2.573   5.384   5.174
 4481SOL    HW114342   2.589   5.392   5.273
 4481SOL    HW214343   2.529   5.296   5.155
 4482SOL     OW14344   2.776   4.017   6.004
 4482SOL    HW114345   2.724   3.978   6.080
 4482SOL    HW214346   2.847   3.952   5.976
 4483SOL     OW14347   0.724   2.543   1.623
 4483SOL    HW114348   0.702   2.449   1.649
 4483SOL    HW214349   0.748   2.546   1.526
 4484SOL     OW14350   2.663   3.186   0.450
 4484SOL    HW114351   2.622   3.135   0.526
 4484SOL    HW214352   2.678   3.281   0.477
 4485SOL     OW14353   4.774   2.456   4.899
 4485SOL    HW114354   4.719   2.522   4.849
 4485SOL    HW214355   4.714   2.385   4.936
 4486SOL     OW14356   5.788   4.801   5.505
 4486SOL    HW114357   5.810   4.704   5.509
 4486SOL    HW214358   5.708   4.819   5.563
 4487SOL     OW14359   1.911   2.815   6.750
 4487SOL    HW114360   1.961   2.763   6.819
 4487SOL    HW214361   1.945   2.910   6.750
 4488SOL     OW14362   0.991   3.699   3.765
 4488SOL    HW114363   0.982   3.778   3.704
 4488SOL    HW214364   1.001   3.616   3.710
 4489SOL     OW14365   5.073   5.376   5.031
 4489SOL    HW114366   5.057   5.365   4.933
 4489SOL    HW214367   4.997   5.426   5.072
 4490SOL     OW14368   5.567   1.989   1.072
 4490SOL    HW114369   5.660   1.978   1.106
 4490SOL    HW214370   5.520   2.060   1.124
 4491SOL     OW14371   0.591   3.429   3.054
 4491SOL    HW114372   0.492   3.440   3.039
 4491SOL    HW214373   0.610   3.334   3.080
 4492SOL     OW14374   5.893   0.574   1.386
 4492SOL    HW114375   5.935   0.617   1.466
 4492SOL    HW214376   5.942   0.603   1.303
 4493SOL     OW14377   5.409   6.765   4.845
 4493SOL    HW114378   5.502   6.800   4.839
 4493SOL    HW214379   5.410   6.667   4.865
 4494SOL     OW14380   0.571   0.570   5.814
 4494SOL    HW114381   0.650   0.630   5.830
 4494SOL    HW214382   0.537   0.536   5.901
 4495SOL     OW14383   3.310   5.928   2.349
 4495SOL    HW114384   3.319   5.866   2.428
 4495SOL    HW214385   3.226   5.907   2.300
 4496SOL     OW14386   4.637   6.131   6.494
 4496SOL    HW114387   4.729   6.094   6.483
 4496SOL    HW214388   4.572   6.077   6.440
 4497SOL     OW14389   3.636   2.372   6.953
 4497SOL    HW114390   3.612   2.289   7.003
 4497SOL    HW214391   3.725   2.359   6.908
 4498SOL     OW14392   6.864   5.382   6.505
 4498SOL    HW114393   6.952   5.384   6.552
 4498SOL    HW214394   6.791   5.402   6.570
 4499SOL     OW14395   6.605   1.520   2.918
 4499SOL    HW114396   6.567   1.605   2.952
 4499SOL    HW214397   6.532   1.453   2.907
 4500SOL     OW14398   4.326   5.059   6.774
 4500SOL    HW114399   4.255   5.129   6.764
 4500SOL    HW214400   4.292   4.984   6.830
 4501SOL     OW14401   5.826   2.079   2.018
 4501SOL    HW114402   5.876   2.018   1.957
 4501SOL    HW214403   5.742   2.110   1.973
 4502SOL     OW14404   0.936   3.551   6.923
 4502SOL    HW114405   0.849   3.516   6.957
 4502SOL    HW214406   0.919   3.614   6.847
 4503SOL     OW14407   2.994   0.252   2.201
 4503SOL    HW114408   3.085   0.211   2.193
 4503SOL    HW214409   2.926   0.180   2.210
 4504SOL     OW14410   6.738   1.989   3.860
 4504SOL    HW114411   6.698   1.940   3.783
 4504SOL    HW214412   6.691   2.076   3.873
 4505SOL     OW14413   6.672   4.504   2.654
 4505SOL    HW114414   6.767   4.534   2.661
 4505SOL    HW214415   6.666   4.405   2.669
 4506SOL     OW14416   4.819   3.074   4.146
 4506SOL    HW114417   4.845   3.170   4.136
 4506SOL    HW214418   4.830   3.027   4.058
 4507SOL     OW14419   6.826   3.258   3.289
 4507SOL    HW114420   6.761   3.281   3.217
 4507SOL    HW214421   6.799   3.304   3.374
 4508SOL     OW14422   0.552   4.302   0.440
 4508SOL    HW114423   0.456   4.306   0.467
 4508SOL    HW214424   0.610   4.307   0.521
 4509SOL     OW14425   5.077   2.226   2.707
 4509SOL    HW114426   5.041   2.155   2.647
 4509SOL    HW214427   5.008   2.250   2.775
 4510SOL     OW14428   4.428   1.409   3.895
 4510SOL    HW114429   4.397   1.318   3.924
 4510SOL    HW214430   4.450   1.464   3.976
 4511SOL     OW14431   6.801   3.932   1.108
 4511SOL    HW114432   6.756   3.856   1.154
 4511SOL    HW214433   6.801   3.916   1.009
 4512SOL     OW14434   3.402   2.135   6.029
 4512SOL    HW114435   3.381   2.078   5.950
 4512SOL    HW214436   3.457   2.082   6.094
 4513SOL     OW14437   0.728   5.797   6.442
 4513SOL    HW114438   0.763   5.879   6.487
 4513SOL    HW214439   0.630   5.808   6.426
 4514SOL     OW14440   3.569   3.477   6.632
 4514SOL    HW114441   3.489   3.454   6.688
 4514SOL    HW214442   3.651   3.436   6.672
 4515SOL     OW14443   5.619   0.856   4.663
 4515SOL    HW114444   5.578   0.837   4.753
 4515SOL    HW214445   5.707   0.901   4.677
 4516SOL     OW14446   3.095   1.204   5.667
 4516SOL    HW114447   3.057   1.111   5.661
 4516SOL    HW214448   3.046   1.255   5.738
 4517SOL     OW14449   4.498   0.099   6.676
 4517SOL    HW114450   4.525   0.175   6.736
 4517SOL    HW214451   4.574   0.035   6.667
 4518SOL     OW14452   1.342   6.540   0.909
 4518SOL    HW114453   1.346   6.585   0.820
 4518SOL    HW214454   1.320   6.607   0.980
 4519SOL     OW14455   4.980   6.894   0.295
 4519SOL    HW114456   4.922   6.867   0.219
 4519SOL    HW214457   4.947   6.852   0.379
 4520SOL     OW14458   4.020   5.922   5.458
 4520SOL    HW114459   4.051   5.832   5.428
 4520SOL    HW214460   4.082   5.993   5.423
 4521SOL     OW14461   5.031   2.074   4.862
 4521SOL    HW114462   5.089   2.112   4.791
 4521SOL    HW214463   5.077   1.997   4.906
 4522SOL     OW14464   5.391   4.013   3.887
 4522SOL    HW114465   5.350   3.956   3.958
 4522SOL    HW214466   5.491   4.005   3.890
 4523SOL     OW14467   0.652   3.746   6.767
 4523SOL    HW114468   0.593   3.812   6.814
 4523SOL    HW214469   0.631   3.748   6.669
 4524SOL     OW14470   0.483   3.789   2.837
 4524SOL    HW114471   0.539   3.813   2.917
 4524SOL    HW214472   0.398   3.746   2.868
 4525SOL     OW14473   2.041   2.697   5.730
 4525SOL    HW114474   2.063   2.668   5.637
 4525SOL    HW214475   2.080   2.787   5.747
 4526SOL     OW14476   0.632   0.521   6.812
 4526SOL    HW114477   0.649   0.591   6.742
 4526SOL    HW214478   0.648   0.561   6.902
 4527SOL     OW14479   6.866   0.130   2.575
 4527SOL    HW114480   6.945   0.187   2.552
 4527SOL    HW214481   6.821   0.166   2.656
 4528SOL     OW14482   4.171   0.730   5.819
 4528SOL    HW114483   4.200   0.785   5.897
 4528SOL    HW214484   4.080   0.691   5.837
 4529SOL     OW14485   2.869   1.124   6.327
 4529SOL    HW114486   2.937   1.179   6.375
 4529SOL    HW214487   2.897   1.112   6.232
 4530SOL     OW14488   2.313   6.470   4.886
 4530SOL    HW114489   2.293   6.377   4.855
 4530SOL    HW214490   2.248   6.533   4.845
 4531SOL     OW14491   1.341   4.355   6.596
 4531SOL    HW114492   1.428   4.397   6.623
 4531SOL    HW214493   1.332   4.266   6.641
 4532SOL     OW14494   4.770   0.864   2.820
 4532SOL    HW114495   4.701   0.886   2.751
 4532SOL    HW214496   4.838   0.801   2.781
 4533SOL     OW14497   1.476   0.845   2.799
 4533SOL    HW114498   1.398   0.787   2.777
 4533SOL    HW214499   1.455   0.940   2.776
 4534SOL     OW14500   4.335   1.738   4.889
 4534SOL    HW114501   4.355   1.645   4.920
 4534SOL    HW214502   4.420   1.783   4.862
 4535SOL     OW14503   3.590   1.745   0.827
 4535SOL    HW114504   3.661   1.717   0.892
 4535SOL    HW214505   3.506   1.696   0.846
 4536SOL     OW14506   2.362   2.161   5.355
 4536SOL    HW114507   2.449   2.134   5.313
 4536SOL    HW214508   2.308   2.214   5.290
 4537SOL     OW14509   3.538   3.895   3.221
 4537SOL    HW114510   3.555   3.992   3.238
 4537SOL    HW214511   3.486   3.856   3.297
 4538SOL     OW14512   0.990   2.652   1.996
 4538SOL    HW114513   1.012   2.750   1.989
 4538SOL    HW214514   0.953   2.620   1.910
 4539SOL     OW14515   2.754   5.393   4.964
 4539SOL    HW114516   2.712   5.352   4.883
 4539SOL    HW214517   2.700   5.370   5.045
 4540SOL     OW14518   0.582   0.902   0.640
 4540SOL    HW114519   0.675   0.936   0.624
 4540SOL    HW214520   0.531   0.904   0.554
 4541SOL     OW14521   4.399   1.585   6.792
 4541SOL    HW114522   4.499   1.584   6.796
 4541SOL    HW214523   4.363   1.497   6.823
 4542SOL     OW14524   6.609   2.776   0.984
 4542SOL    HW114525   6.662   2.823   0.914
 4542SOL    HW214526   6.656   2.784   1.072
 4543SOL     OW14527   4.287   2.373   0.830
 4543SOL    HW114528   4.366   2.430   0.807
 4543SOL    HW214529   4.213   2.389   0.764
 4544SOL     OW14530   4.838   4.146   0.806
 4544SOL    HW114531   4.870   4.238   0.830
 4544SOL    HW214532   4.817   4.095   0.889
 4545SOL     OW14533   1.007   4.420   5.073
 4545SOL    HW114534   1.032   4.394   5.166
 4545SOL    HW214535   0.960   4.345   5.028
 4546SOL     OW14536   2.920   1.055   6.006
 4546SOL    HW114537   3.016   1.079   5.991
 4546SOL    HW214538   2.912   0.956   6.018
 4547SOL     OW14539   6.540   0.713   6.907
 4547SOL    HW114540   6.572   0.775   6.835
 4547SOL    HW214541   6.588   0.625   6.899
 4548SOL     OW14542   2.489   2.588   3.114
 4548SOL    HW114543   2.499   2.601   3.015
 4548SOL    HW214544   2.472   2.677   3.157
 4549SOL     OW14545   5.019   4.049   2.684
 4549SOL    HW114546   4.951   3.977   2.696
 4549SOL    HW214547   5.012   4.115   2.759
 4550SOL     OW14548   0.487   4.694   3.351
 4550SOL    HW114549   0.569   4.750   3.364
 4550SOL    HW214550   0.477   4.631   3.429
 4551SOL     OW14551   0.965   3.763   4.905
 4551SOL    HW114552   0.966   3.761   5.005
 4551SOL    HW214553   1.032   3.830   4.873
 4552SOL     OW14554   6.030   1.535   1.612
 4552SOL    HW114555   6.036   1.598   1.689
 4552SOL    HW214556   5.945   1.483   1.618
 4553SOL     OW14557   5.065   4.609   6.567
 4553SOL    HW114558   5.004   4.689   6.561
 4553SOL    HW214559   5.157   4.639   6.591
 4554SOL     OW14560   0.164   6.552   1.110
 4554SOL    HW114561   0.096   6.478   1.101
 4554SOL    HW214562   0.222   6.534   1.189
 4555SOL     OW14563   1.167   1.220   6.487
 4555SOL    HW114564   1.235   1.291   6.466
 4555SOL    HW214565   1.179   1.189   6.581
 4556SOL     OW14566   6.227   3.042   5.763
 4556SOL    HW114567   6.130   3.062   5.777
 4556SOL    HW214568   6.282   3.115   5.804
 4557SOL     OW14569   6.001   5.101   4.662
 4557SOL    HW114570   5.927   5.124   4.726
 4557SOL    HW214571   5.967   5.105   4.568
 4558SOL     OW14572   6.813   2.951   4.897
 4558SOL    HW114573   6.738   3.017   4.888
 4558SOL    HW214574   6.810   2.909   4.987
 4559SOL     OW14575   0.381   2.489   2.868
 4559SOL    HW114576   0.415   2.571   2.822
 4559SOL    HW214577   0.320   2.514   2.942
 4560SOL     OW14578   6.474   4.185   2.194
 4560SOL    HW114579   6.464   4.127   2.275
 4560SOL    HW214580   6.499   4.128   2.115
 4561SOL     OW14581   3.189   2.123   4.262
 4561SOL    HW114582   3.230   2.118   4.353
 4561SOL    HW214583   3.241   2.066   4.199
 4562SOL     OW14584   2.206   6.159   0.428
 4562SOL    HW114585   2.228   6.209   0.512
 4562SOL    HW214586   2.226   6.217   0.349
 4563SOL     OW14587   0.010   3.007   1.837
 4563SOL    HW114588   0.077   2.957   1.892
 4563SOL    HW214589   6.950   3.023   1.890
 4564SOL     OW14590   6.807   4.359   2.063
 4564SOL    HW114591   6.821   4.422   1.987
 4564SOL    HW214592   6.741   4.398   2.127
 4565SOL     OW14593   2.026   0.274   4.900
 4565SOL    HW114594   2.013   0.216   4.819
 4565SOL    HW214595   1.950   0.339   4.906
 4566SOL     OW14596   0.376   4.105   0.865
 4566SOL    HW114597   0.395   4.056   0.950
 4566SOL    HW214598   0.427   4.190   0.864
 4567SOL     OW14599   6.745   0.261   6.375
 4567SOL    HW114600   6.688   0.186   6.342
 4567SOL    HW214601   6.745   0.335   6.308
 4568SOL     OW14602   0.639   3.933   4.006
 4568SOL    HW114603   0.582   3.862   4.048
 4568SOL    HW214604   0.731   3.929   4.044
 4569SOL     OW14605   3.393   0.786   3.151
 4569SOL    HW114606   3.452   0.722   3.201
 4569SOL    HW214607   3.431   0.878   3.156
 4570SOL     OW14608   6.265   5.407   1.545
 4570SOL    HW114609   6.179   5.370   1.511
 4570SOL    HW214610   6.328   5.420   1.468
 4571SOL     OW14611   4.687   3.003   6.338
 4571SOL    HW114612   4.697   3.079   6.403
 4571SOL    HW214613   4.720   2.919   6.380
 4572SOL     OW14614   2.518   2.370   6.577
 4572SOL    HW114615   2.611   2.342   6.601
 4572SOL    HW214616   2.483   2.310   6.504
 4573SOL     OW14617   0.882   6.184   0.670
 4573SOL    HW114618   0.949   6.152   0.603
 4573SOL    HW214619   0.852   6.276   0.646
 4574SOL     OW14620   5.871   3.723   0.047
 4574SOL    HW114621   5.818   3.797   0.088
 4574SOL    HW214622   5.810   3.662   7.019
 4575SOL     OW14623   5.973   1.090   4.550
 4575SOL    HW114624   6.067   1.081   4.582
 4575SOL    HW214625   5.942   1.002   4.513
 4576SOL     OW14626   3.101   4.834   5.071
 4576SOL    HW114627   3.008   4.841   5.034
 4576SOL    HW214628   3.101   4.771   5.149
 4577SOL     OW14629   1.560   1.915   2.975
 4577SOL    HW114630   1.503   1.967   3.039
 4577SOL    HW214631   1.504   1.850   2.925
 4578SOL     OW14632   1.016   0.892   2.756
 4578SOL    HW114633   0.998   0.987   2.780
 4578SOL    HW214634   1.033   0.885   2.658
 4579SOL     OW14635   4.565   0.259   1.996
 4579SOL    HW114636   4.625   0.260   1.916
 4579SOL    HW214637   4.504   0.339   1.993
 4580SOL     OW14638   5.616   3.634   0.241
 4580SOL    HW114639   5.523   3.617   0.209
 4580SOL    HW214640   5.614   3.675   0.332
 4581SOL     OW14641   2.741   6.755   2.231
 4581SOL    HW114642   2.808   6.792   2.296
 4581SOL    HW214643   2.658   6.729   2.281
 4582SOL     OW14644   5.182   0.685   2.920
 4582SOL    HW114645   5.270   0.718   2.887
 4582SOL    HW214646   5.196   0.603   2.976
 4583SOL     OW14647   2.010   0.793   6.325
 4583SOL    HW114648   2.092   0.737   6.312
 4583SOL    HW214649   1.935   0.754   6.272
 4584SOL     OW14650   1.687   0.117   6.069
 4584SOL    HW114651   1.714   0.061   6.147
 4584SOL    HW214652   1.591   0.144   6.079
 4585SOL     OW14653   1.770   3.474   3.177
 4585SOL    HW114654   1.839   3.546   3.169
 4585SOL    HW214655   1.771   3.436   3.269
 4586SOL     OW14656   4.967   4.351   0.390
 4586SOL    HW114657   4.942   4.412   0.314
 4586SOL    HW214658   4.884   4.317   0.434
 4587SOL     OW14659   3.043   3.662   5.013
 4587SOL    HW114660   3.040   3.627   5.107
 4587SOL    HW214661   2.969   3.728   4.999
 4588SOL     OW14662   3.144   3.460   5.851
 4588SOL    HW114663   3.191   3.372   5.859
 4588SOL    HW214664   3.180   3.523   5.920
 4589SOL     OW14665   5.286   5.711   2.014
 4589SOL    HW114666   5.353   5.721   1.941
 4589SOL    HW214667   5.306   5.627   2.066
 4590SOL     OW14668   3.514   5.746   1.968
 4590SOL    HW114669   3.602   5.741   1.923
 4590SOL    HW214670   3.446   5.697   1.914
 4591SOL     OW14671   2.515   0.460   5.952
 4591SOL    HW114672   2.610   0.436   5.932
 4591SOL    HW214673   2.511   0.550   5.995
 4592SOL     OW14674   2.500   1.776   4.289
 4592SOL    HW114675   2.548   1.713   4.228
 4592SOL    HW214676   2.508   1.869   4.255
 4593SOL     OW14677   0.200   5.880   2.951
 4593SOL    HW114678   0.195   5.959   3.012
 4593SOL    HW214679   0.272   5.818   2.983
 4594SOL     OW14680   2.551   6.848   2.866
 4594SOL    HW114681   2.491   6.928   2.857
 4594SOL    HW214682   2.592   6.827   2.777
 4595SOL     OW14683   4.856   2.222   5.739
 4595SOL    HW114684   4.954   2.221   5.718
 4595SOL    HW214685   4.821   2.128   5.740
 4596SOL     OW14686   0.451   0.794   1.826
 4596SOL    HW114687   0.499   0.711   1.853
 4596SOL    HW214688   0.352   0.780   1.836
 4597SOL     OW14689   2.611   5.077   0.100
 4597SOL    HW114690   2.548   5.142   0.141
 4597SOL    HW214691   2.629   5.103   0.005
 4598SOL     OW14692   2.401   5.219   0.281
 4598SOL    HW114693   2.444   5.300   0.242
 4598SOL    HW214694   2.321   5.194   0.227
 4599SOL     OW14695   2.008   3.472   2.561
 4599SOL    HW114696   1.911   3.449   2.566
 4599SOL    HW214697   2.059   3.416   2.626
 4600SOL     OW14698   0.175   6.793   6.115
 4600SOL    HW114699   0.225   6.787   6.201
 4600SOL    HW214700   0.189   6.883   6.075
 4601SOL     OW14701   0.922   1.012   4.473
 4601SOL    HW114702   1.014   1.052   4.478
 4601SOL    HW214703   0.927   0.923   4.427
 4602SOL     OW14704   2.495   0.372   6.509
 4602SOL    HW114705   2.562   0.301   6.486
 4602SOL    HW214706   2.543   0.453   6.542
 4603SOL     OW14707   4.152   6.188   1.405
 4603SOL    HW114708   4.094   6.255   1.359
 4603SOL    HW214709   4.098   6.139   1.474
 4604SOL     OW14710   4.949   6.844   6.162
 4604SOL    HW114711   4.959   6.899   6.079
 4604SOL    HW214712   4.885   6.888   6.224
 4605SOL     OW14713   2.437   6.927   1.497
 4605SOL    HW114714   2.412   6.830   1.501
 4605SOL    HW214715   2.434   6.958   1.402
 4606SOL     OW14716   0.542   6.835   2.457
 4606SOL    HW114717   0.503   6.872   2.542
 4606SOL    HW214718   0.534   6.735   2.457
 4607SOL     OW14719   1.792   3.825   2.846
 4607SOL    HW114720   1.771   3.887   2.922
 4607SOL    HW214721   1.707   3.795   2.803
 4608SOL     OW14722   0.473   3.494   4.685
 4608SOL    HW114723   0.460   3.593   4.690
 4608SOL    HW214724   0.397   3.448   4.730
 4609SOL     OW14725   4.201   6.007   6.471
 4609SOL    HW114726   4.171   5.992   6.565
 4609SOL    HW214727   4.176   6.099   6.441
 4610SOL     OW14728   5.255   2.511   6.892
 4610SOL    HW114729   5.354   2.503   6.889
 4610SOL    HW214730   5.214   2.423   6.864
 4611SOL     OW14731   0.289   0.868   6.264
 4611SOL    HW114732   0.319   0.960   6.288
 4611SOL    HW214733   0.261   0.866   6.167
 4612SOL     OW14734   2.454   6.016   2.395
 4612SOL    HW114735   2.447   6.035   2.297
 4612SOL    HW214736   2.399   6.083   2.445
 4613SOL     OW14737   2.164   4.660   2.970
 4613SOL    HW114738   2.109   4.587   2.928
 4613SOL    HW214739   2.106   4.740   2.987
 4614SOL     OW14740   6.194   3.530   3.920
 4614SOL    HW114741   6.218   3.498   4.011
 4614SOL    HW214742   6.202   3.454   3.855
 4615SOL     OW14743   0.905   0.965   1.306
 4615SOL    HW114744   0.896   0.896   1.378
 4615SOL    HW214745   0.989   1.017   1.322
 4616SOL     OW14746   6.403   2.498   5.464
 4616SOL    HW114747   6.339   2.453   5.526
 4616SOL    HW214748   6.352   2.550   5.395
 4617SOL     OW14749   0.740   2.562   2.193
 4617SOL    HW114750   0.819   2.504   2.176
 4617SOL    HW214751   0.713   2.608   2.108
 4618SOL     OW14752   2.689   3.591   5.517
 4618SOL    HW114753   2.708   3.644   5.434
 4618SOL    HW214754   2.776   3.560   5.556
 4619SOL     OW14755   3.452   6.168   3.889
 4619SOL    HW114756   3.479   6.139   3.797
 4619SOL    HW214757   3.447   6.088   3.949
 4620SOL     OW14758   0.725   5.497   1.295
 4620SOL    HW114759   0.714   5.537   1.204
 4620SOL    HW214760   0.646   5.522   1.352
 4621SOL     OW14761   4.925   0.162   2.111
 4621SOL    HW114762   4.895   0.241   2.164
 4621SOL    HW214763   4.979   0.101   2.169
 4622SOL     OW14764   4.606   5.106   0.819
 4622SOL    HW114765   4.577   5.181   0.879
 4622SOL    HW214766   4.551   5.108   0.735
 4623SOL     OW14767   3.678   5.236   1.425
 4623SOL    HW114768   3.654   5.154   1.373
 4623SOL    HW214769   3.626   5.237   1.510
 4624SOL     OW14770   3.677   1.439   3.431
 4624SOL    HW114771   3.652   1.499   3.506
 4624SOL    HW214772   3.763   1.392   3.453
 4625SOL     OW14773   1.954   5.544   1.840
 4625SOL    HW114774   1.895   5.551   1.920
 4625SOL    HW214775   1.898   5.548   1.757
 4626SOL     OW14776   3.973   3.831   1.900
 4626SOL    HW114777   3.969   3.749   1.843
 4626SOL    HW214778   3.883   3.875   1.902
 4627SOL     OW14779   0.377   5.999   4.806
 4627SOL    HW114780   0.469   6.034   4.791
 4627SOL    HW214781   0.340   5.964   4.720
 4628SOL     OW14782   4.527   4.932   3.175
 4628SOL    HW114783   4.476   5.015   3.150
 4628SOL    HW214784   4.527   4.869   3.098
 4629SOL     OW14785   2.290   5.944   6.465
 4629SOL    HW114786   2.313   5.852   6.433
 4629SOL    HW214787   2.340   6.011   6.410
 4630SOL     OW14788   0.924   5.643   2.070
 4630SOL    HW114789   0.847   5.700   2.098
 4630SOL    HW214790   0.989   5.698   2.017
 4631SOL     OW14791   0.742   0.379   3.896
 4631SOL    HW114792   0.743   0.441   3.973
 4631SOL    HW214793   0.647   0.353   3.876
 4632SOL     OW14794   2.882   5.367   2.889
 4632SOL    HW114795   2.882   5.395   2.793
 4632SOL    HW214796   2.945   5.290   2.901
 4633SOL     OW14797   4.910   1.457   4.370
 4633SOL    HW114798   4.938   1.378   4.424
 4633SOL    HW214799   4.972   1.533   4.387
 4634SOL     OW14800   2.931   3.919   4.877
 4634SOL    HW114801   2.837   3.884   4.879
 4634SOL    HW214802   2.929   4.019   4.873
 4635SOL     OW14803   4.495   5.242   1.101
 4635SOL    HW114804   4.569   5.230   1.167
 4635SOL    HW214805   4.409   5.213   1.142
 4636SOL     OW14806   1.428   5.257   0.914
 4636SOL    HW114807   1.358   5.307   0.862
 4636SOL    HW214808   1.458   5.177   0.861
 4637SOL     OW14809   1.545   6.862   0.950
 4637SOL    HW114810   1.607   6.796   0.908
 4637SOL    HW214811   1.581   6.954   0.938
 4638SOL     OW14812   3.912   5.325   6.993
 4638SOL    HW114813   3.876   5.262   0.039
 4638SOL    HW214814   4.008   5.305   6.976
 4639SOL     OW14815   2.784   2.405   0.282
 4639SOL    HW114816   2.751   2.317   0.316
 4639SOL    HW214817   2.715   2.445   0.222
 4640SOL     OW14818   5.972   2.717   5.467
 4640SOL    HW114819   5.911   2.796   5.461
 4640SOL    HW214820   5.956   2.657   5.388
 4641SOL     OW14821   1.705   6.726   3.655
 4641SOL    HW114822   1.747   6.729   3.565
 4641SOL    HW214823   1.641   6.650   3.660
 4642SOL     OW14824   1.965   1.698   3.813
 4642SOL    HW114825   1.879   1.749   3.802
 4642SOL    HW214826   1.949   1.617   3.870
 4643SOL     OW14827   6.743   2.098   0.209
 4643SOL    HW114828   6.768   2.157   0.132
 4643SOL    HW214829   6.698   2.016   0.175
 4644SOL     OW14830   0.557   0.781   6.265
 4644SOL    HW114831   0.581   0.856   6.202
 4644SOL    HW214832   0.457   0.772   6.269
 4645SOL     OW14833   1.720   0.899   4.120
 4645SOL    HW114834   1.783   0.842   4.173
 4645SOL    HW214835   1.702   0.856   4.031
 4646SOL     OW14836   2.502   5.281   4.452
 4646SOL    HW114837   2.406   5.256   4.471
 4646SOL    HW214838   2.522   5.263   4.356
 4647SOL     OW14839   1.681   6.294   3.245
 4647SOL    HW114840   1.722   6.252   3.163
 4647SOL    HW214841   1.690   6.393   3.240
 4648SOL     OW14842   3.156   0.893   4.110
 4648SOL    HW114843   3.202   0.805   4.098
 4648SOL    HW214844   3.179   0.930   4.200
 4649SOL     OW14845   5.844   1.366   0.925
 4649SOL    HW114846   5.929   1.414   0.902
 4649SOL    HW214847   5.847   1.337   1.021
 4650SOL     OW14848   4.805   5.607   1.288
 4650SOL    HW114849   4.800   5.694   1.337
 4650SOL    HW214850   4.778   5.621   1.193
 4651SOL     OW14851   6.122   3.864   6.109
 4651SOL    HW114852   6.169   3.783   6.144
 4651SOL    HW214853   6.149   3.944   6.162
 4652SOL     OW14854   6.840   5.251   4.425
 4652SOL    HW114855   6.872   5.158   4.445
 4652SOL    HW214856   6.916   5.305   4.388
 4653SOL     OW14857   4.829   5.913   0.294
 4653SOL    HW114858   4.908   5.862   0.262
 4653SOL    HW214859   4.860   5.991   0.350
 4654SOL     OW14860   6.840   6.982   5.006
 4654SOL    HW114861   6.848   6.882   5.013
 4654SOL    HW214862   6.931   7.021   4.992
 4655SOL     OW14863   5.156   3.226   1.698
 4655SOL    HW114864   5.208   3.311   1.699
 4655SOL    HW214865   5.140   3.198   1.603
 4656SOL     OW14866   0.558   0.552   1.449
 4656SOL    HW114867   0.524   0.542   1.356
 4656SOL    HW214868   0.597   0.643   1.461
 4657SOL     OW14869   5.345   6.769   1.622
 4657SOL    HW114870   5.408   6.840   1.591
 4657SOL    HW214871   5.327   6.781   1.720
 4658SOL     OW14872   2.612   3.032   5.647
 4658SOL    HW114873   2.537   3.076   5.696
 4658SOL    HW214874   2.636   2.946   5.691
 4659SOL     OW14875   3.590   4.170   1.361
 4659SOL    HW114876   3.507   4.161   1.415
 4659SOL    HW214877   3.566   4.177   1.264
 4660SOL     OW14878   1.717   0.113   3.828
 4660SOL    HW114879   1.727   0.133   3.925
 4660SOL    HW214880   1.760   0.025   3.807
 4661SOL     OW14881   2.542   3.952   5.580
 4661SOL    HW114882   2.509   4.030   5.633
 4661SOL    HW214883   2.531   3.868   5.634
 4662SOL     OW14884   3.119   0.122   5.189
 4662SOL    HW114885   3.066   0.201   5.156
 4662SOL    HW214886   3.088   0.098   5.281
 4663SOL     OW14887   0.961   6.734   0.112
 4663SOL    HW114888   0.995   6.640   0.105
 4663SOL    HW214889   0.962   6.762   0.208
 4664SOL     OW14890   6.318   6.693   0.815
 4664SOL    HW114891   6.407   6.701   0.859
 4664SOL    HW214892   6.273   6.609   0.846
 4665SOL     OW14893   2.092   0.927   5.816
 4665SOL    HW114894   2.049   0.943   5.905
 4665SOL    HW214895   2.098   1.014   5.767
 4666SOL     OW14896   1.815   2.526   7.017
 4666SOL    HW114897   1.893   2.472   6.986
 4666SOL    HW214898   1.764   2.475   0.063
 4667SOL     OW14899   6.552   3.921   1.716
 4667SOL    HW114900   6.609   3.841   1.734
 4667SOL    HW214901   6.469   3.917   1.772
 4668SOL     OW14902   4.257   2.102   5.006
 4668SOL    HW114903   4.166   2.061   4.995
 4668SOL    HW214904   4.286   2.143   4.920
 4669SOL     OW14905   4.981   0.297   0.272
 4669SOL    HW114906   4.903   0.332   0.323
 4669SOL    HW214907   5.049   0.370   0.260
 4670SOL     OW14908   1.437   3.381   6.939
 4670SOL    HW114909   1.480   3.374   0.007
 4670SOL    HW214910   1.455   3.298   6.887
 4671SOL     OW14911   1.004   3.415   0.117
 4671SOL    HW114912   0.994   3.462   0.030
 4671SOL    HW214913   1.054   3.473   0.181
 4672SOL     OW14914   3.793   4.859   5.478
 4672SOL    HW114915   3.789   4.772   5.529
 4672SOL    HW214916   3.739   4.928   5.527
 4673SOL     OW14917   5.296   0.722   6.884
 4673SOL    HW114918   5.267   0.628   6.863
 4673SOL    HW214919   5.227   0.786   6.850
 4674SOL     OW14920   0.006   1.383   0.719
 4674SOL    HW114921   0.041   1.441   0.645
 4674SOL    HW214922   7.005   1.293   0.683
 4675SOL     OW14923   3.468   6.460   6.600
 4675SOL    HW114924   3.471   6.474   6.501
 4675SOL    HW214925   3.418   6.376   6.621
 4676SOL     OW14926   0.877   6.583   5.231
 4676SOL    HW114927   0.811   6.656   5.249
 4676SOL    HW214928   0.948   6.616   5.169
 4677SOL     OW14929   3.057   0.181   6.851
 4677SOL    HW114930   3.009   0.215   6.771
 4677SOL    HW214931   3.133   0.243   6.873
 4678SOL     OW14932   2.073   5.289   1.519
 4678SOL    HW114933   2.034   5.306   1.609
 4678SOL    HW214934   2.030   5.348   1.452
 4679SOL     OW14935   2.608   1.498   6.346
 4679SOL    HW114936   2.701   1.470   6.326
 4679SOL    HW214937   2.581   1.465   6.436
 4680SOL     OW14938   2.026   5.028   1.109
 4680SOL    HW114939   2.069   4.962   1.170
 4680SOL    HW214940   1.964   4.980   1.047
 4681SOL     OW14941   0.257   5.794   5.175
 4681SOL    HW114942   0.259   5.889   5.144
 4681SOL    HW214943   0.180   5.747   5.132
 4682SOL     OW14944   4.006   6.149   6.998
 4682SOL    HW114945   3.947   6.070   7.014
 4682SOL    HW214946   4.086   6.144   0.035
 4683SOL     OW14947   5.937   3.666   2.567
 4683SOL    HW114948   6.002   3.742   2.571
 4683SOL    HW214949   5.845   3.700   2.585
 4684SOL     OW14950   1.663   2.138   4.370
 4684SOL    HW114951   1.572   2.099   4.359
 4684SOL    HW214952   1.656   2.229   4.411
 4685SOL     OW14953   6.331   5.488   4.589
 4685SOL    HW114954   6.255   5.425   4.570
 4685SOL    HW214955   6.368   5.467   4.680
 4686SOL     OW14956   5.062   5.798   0.222
 4686SOL    HW114957   5.055   5.726   0.153
 4686SOL    HW214958   5.158   5.809   0.249
 4687SOL     OW14959   6.554   4.037   4.368
 4687SOL    HW114960   6.608   4.011   4.288
 4687SOL    HW214961   6.612   4.036   4.449
 4688SOL     OW14962   0.543   3.410   6.198
 4688SOL    HW114963   0.613   3.358   6.149
 4688SOL    HW214964   0.558   3.401   6.297
 4689SOL     OW14965   6.611   0.367   5.589
 4689SOL    HW114966   6.682   0.302   5.562
 4689SOL    HW214967   6.638   0.460   5.562
 4690SOL     OW14968   1.411   0.958   0.025
 4690SOL    HW114969   1.365   0.988   6.964
 4690SOL    HW214970   1.440   0.863   0.014
 4691SOL     OW14971   2.425   4.110   1.190
 4691SOL    HW114972   2.397   4.160   1.272
 4691SOL    HW214973   2.355   4.043   1.167
 4692SOL     OW14974   6.816   5.128   3.009
 4692SOL    HW114975   6.876   5.091   3.080
 4692SOL    HW214976   6.800   5.225   3.027
 4693SOL     OW14977   0.219   1.051   4.363
 4693SOL    HW114978   0.150   1.113   4.326
 4693SOL    HW214979   0.306   1.066   4.316
 4694SOL     OW14980   2.925   0.571   0.151
 4694SOL    HW114981   3.015   0.602   0.119
 4694SOL    HW214982   2.855   0.602   0.088
 4695SOL     OW14983   4.099   3.023   1.684
 4695SOL    HW114984   4.156   3.104   1.689
 4695SOL    HW214985   4.048   3.022   1.598
 4696SOL     OW14986   0.970   3.518   6.373
 4696SOL    HW114987   1.049   3.565   6.410
 4696SOL    HW214988   0.951   3.552   6.281
 4697SOL     OW14989   1.765   3.423   0.810
 4697SOL    HW114990   1.855   3.462   0.793
 4697SOL    HW214991   1.729   3.382   0.726
 4698SOL     OW14992   5.438   4.612   1.601
 4698SOL    HW114993   5.465   4.693   1.549
 4698SOL    HW214994   5.458   4.626   1.698
 4699SOL     OW14995   6.996   6.752   2.114
 4699SOL    HW114996   7.022   6.804   2.195
 4699SOL    HW214997   6.910   6.788   2.077
 4700SOL     OW14998   5.235   1.840   1.206
 4700SOL    HW114999   5.138   1.822   1.188
 4700SOL    HW215000   5.250   1.845   1.305
 4701SOL     OW15001   0.787   1.129   6.543
 4701SOL    HW115002   0.757   1.198   6.477
 4701SOL    HW215003   0.783   1.039   6.500
 4702SOL     OW15004   4.438   3.944   6.781
 4702SOL    HW115005   4.441   3.861   6.836
 4702SOL    HW215006   4.490   4.016   6.825
 4703SOL     OW15007   1.299   1.694   3.386
 4703SOL    HW115008   1.227   1.747   3.341
 4703SOL    HW215009   1.387   1.738   3.370
 4704SOL     OW15010   6.951   6.024   1.083
 4704SOL    HW115011   6.944   6.114   1.041
 4704SOL    HW215012   0.025   5.997   1.088
 4705SOL     OW15013   3.575   3.030   4.426
 4705SOL    HW115014   3.626   3.064   4.504
 4705SOL    HW215015   3.498   2.974   4.459
 4706SOL     OW15016   3.805   5.729   6.493
 4706SOL    HW115017   3.795   5.814   6.442
 4706SOL    HW215018   3.740   5.728   6.569
 4707SOL     OW15019   1.659   5.576   0.815
 4707SOL    HW115020   1.745   5.528   0.835
 4707SOL    HW215021   1.585   5.537   0.870
 4708SOL     OW15022   3.354   2.542   0.390
 4708SOL    HW115023   3.413   2.615   0.355
 4708SOL    HW215024   3.301   2.576   0.468
 4709SOL     OW15025   3.791   5.082   5.189
 4709SOL    HW115026   3.820   5.112   5.098
 4709SOL    HW215027   3.840   4.998   5.213
 4710SOL     OW15028   5.090   1.854   6.605
 4710SOL    HW115029   5.107   1.768   6.557
 4710SOL    HW215030   5.069   1.834   6.701
 4711SOL     OW15031   3.473   7.017   2.885
 4711SOL    HW115032   3.465   0.041   2.973
 4711SOL    HW215033   3.383   7.012   2.842
 4712SOL     OW15034   1.869   4.683   1.191
 4712SOL    HW115035   1.802   4.752   1.160
 4712SOL    HW215036   1.828   4.626   1.262
 4713SOL     OW15037   3.105   5.006   1.574
 4713SOL    HW115038   3.098   4.984   1.476
 4713SOL    HW215039   3.017   5.041   1.606
 4714SOL     OW15040   2.210   1.342   0.962
 4714SOL    HW115041   2.275   1.266   0.952
 4714SOL    HW215042   2.136   1.315   1.023
 4715SOL     OW15043   6.937   3.034   2.412
 4715SOL    HW115044   6.967   3.072   2.499
 4715SOL    HW215045   6.854   3.081   2.382
 4716SOL     OW15046   3.539   4.989   6.276
 4716SOL    HW115047   3.613   5.054   6.294
 4716SOL    HW215048   3.578   4.901   6.248
 4717SOL     OW15049   0.754   6.047   2.033
 4717SOL    HW115050   0.786   6.112   2.103
 4717SOL    HW215051   0.763   5.954   2.067
 4718SOL     OW15052   5.385   1.927   6.679
 4718SOL    HW115053   5.291   1.894   6.672
 4718SOL    HW215054   5.386   2.027   6.671
 4719SOL     OW15055   5.657   3.551   3.139
 4719SOL    HW115056   5.606   3.509   3.064
 4719SOL    HW215057   5.613   3.530   3.226
 4720SOL     OW15058   2.263   6.656   5.609
 4720SOL    HW115059   2.254   6.751   5.579
 4720SOL    HW215060   2.233   6.647   5.704
 4721SOL     OW15061   0.986   2.060   0.946
 4721SOL    HW115062   0.977   2.066   0.847
 4721SOL    HW215063   1.082   2.068   0.972
 4722SOL     OW15064   1.499   6.328   0.769
 4722SOL    HW115065   1.489   6.302   0.673
 4722SOL    HW215066   1.415   6.372   0.801
 4723SOL     OW15067   2.455   6.085   6.103
 4723SOL    HW115068   2.437   6.011   6.038
 4723SOL    HW215069   2.375   6.144   6.109
 4724SOL     OW15070   4.058   6.563   2.327
 4724SOL    HW115071   4.117   6.542   2.406
 4724SOL    HW215072   4.012   6.479   2.297
 4725SOL     OW15073   5.109   6.550   3.080
 4725SOL    HW115074   5.156   6.545   3.168
 4725SOL    HW215075   5.069   6.641   3.068
 4726SOL     OW15076   1.072   4.034   6.514
 4726SOL    HW115077   1.024   4.115   6.478
 4726SOL    HW215078   1.022   3.997   6.592
 4727SOL     OW15079   6.603   5.874   0.379
 4727SOL    HW115080   6.644   5.858   0.289
 4727SOL    HW215081   6.667   5.926   0.436
 4728SOL     OW15082   5.956   1.545   0.489
 4728SOL    HW115083   5.899   1.500   0.557
 4728SOL    HW215084   5.967   1.641   0.513
 4729SOL     OW15085   2.144   0.316   2.648
 4729SOL    HW115086   2.114   0.328   2.742
 4729SOL    HW215087   2.070   0.275   2.595
 4730SOL     OW15088   2.713   6.047   5.310
 4730SOL    HW115089   2.781   6.040   5.382
 4730SOL    HW215090   2.703   6.143   5.283
 4731SOL     OW15091   5.845   0.654   5.312
 4731SOL    HW115092   5.922   0.689   5.366
 4731SOL    HW215093   5.760   0.688   5.351
 4732SOL     OW15094   6.754   3.906   6.859
 4732SOL    HW115095   6.812   3.867   6.788
 4732SOL    HW215096   6.811   3.946   6.931
 4733SOL     OW15097   0.259   3.523   2.850
 4733SOL    HW115098   0.303   3.541   2.762
 4733SOL    HW215099   0.278   3.429   2.878
 4734SOL     OW15100   5.115   3.220   6.774
 4734SOL    HW115101   5.025   3.194   6.739
 4734SOL    HW215102   5.156   3.141   6.821
 4735SOL     OW15103   0.861   4.172   4.266
 4735SOL    HW115104   0.912   4.244   4.218
 4735SOL    HW215105   0.884   4.083   4.226
 4736SOL     OW15106   6.754   0.996   6.468
 4736SOL    HW115107   6.806   1.082   6.469
 4736SOL    HW215108   6.721   0.979   6.375
 4737SOL     OW15109   2.582   4.629   1.929
 4737SOL    HW115110   2.673   4.630   1.969
 4737SOL    HW215111   2.530   4.551   1.966
 4738SOL     OW15112   6.499   6.212   1.381
 4738SOL    HW115113   6.501   6.311   1.394
 4738SOL    HW215114   6.587   6.182   1.344
 4739SOL     OW15115   4.050   0.615   2.119
 4739SOL    HW115116   4.012   0.674   2.190
 4739SOL    HW215117   4.144   0.590   2.144
 4740SOL     OW15118   0.874   1.868   2.673
 4740SOL    HW115119   0.807   1.846   2.743
 4740SOL    HW215120   0.837   1.939   2.612
 4741SOL     OW15121   4.265   2.318   1.504
 4741SOL    HW115122   4.299   2.330   1.411
 4741SOL    HW215123   4.314   2.380   1.565
 4742SOL     OW15124   2.480   6.857   0.346
 4742SOL    HW115125   2.470   6.774   0.401
 4742SOL    HW215126   2.519   6.930   0.403
 4743SOL     OW15127   1.678   3.982   2.216
 4743SOL    HW115128   1.749   3.947   2.154
 4743SOL    HW215129   1.714   3.985   2.309
 4744SOL     OW15130   1.922   6.059   0.781
 4744SOL    HW115131   1.840   6.008   0.807
 4744SOL    HW215132   1.933   6.056   0.681
 4745SOL     OW15133   2.462   3.878   0.429
 4745SOL    HW115134   2.389   3.942   0.452
 4745SOL    HW215135   2.434   3.821   0.352
 4746SOL     OW15136   4.487   5.269   4.502
 4746SOL    HW115137   4.470   5.219   4.418
 4746SOL    HW215138   4.417   5.247   4.570
 4747SOL     OW15139   1.683   3.000   1.297
 4747SOL    HW115140   1.621   2.961   1.366
 4747SOL    HW215141   1.769   3.025   1.340
 4748SOL     OW15142   1.684   6.240   2.352
 4748SOL    HW115143   1.749   6.294   2.404
 4748SOL    HW215144   1.727   6.156   2.320
 4749SOL     OW15145   2.050   6.508   0.602
 4749SOL    HW115146   2.057   6.535   0.506
 4749SOL    HW215147   2.118   6.438   0.622
 4750SOL     OW15148   6.317   3.166   5.198
 4750SOL    HW115149   6.275   3.211   5.276
 4750SOL    HW215150   6.265   3.188   5.115
 4751SOL     OW15151   4.504   1.488   2.310
 4751SOL    HW115152   4.546   1.579   2.310
 4751SOL    HW215153   4.418   1.491   2.362
 4752SOL     OW15154   4.726   1.859   0.099
 4752SOL    HW115155   4.662   1.927   0.062
 4752SOL    HW215156   4.699   1.835   0.192
 4753SOL     OW15157   1.911   6.858   5.003
 4753SOL    HW115158   1.955   6.831   5.089
 4753SOL    HW215159   1.819   6.892   5.021
 4754SOL     OW15160   4.173   3.846   6.468
 4754SOL    HW115161   4.212   3.938   6.461
 4754SOL    HW215162   4.077   3.852   6.493
 4755SOL     OW15163   1.226   0.597   2.057
 4755SOL    HW115164   1.257   0.580   1.963
 4755SOL    HW215165   1.127   0.581   2.063
 4756SOL     OW15166   6.066   4.507   0.213
 4756SOL    HW115167   6.069   4.601   0.247
 4756SOL    HW215168   6.051   4.445   0.290
 4757SOL     OW15169   1.543   2.954   1.640
 4757SOL    HW115170   1.603   2.947   1.719
 4757SOL    HW215171   1.541   3.049   1.608
 4758SOL     OW15172   1.974   6.922   3.270
 4758SOL    HW115173   1.992   6.891   3.363
 4758SOL    HW215174   1.884   6.966   3.266
 4759SOL     OW15175   0.937   4.891   0.400
 4759SOL    HW115176   0.900   4.834   0.474
 4759SOL    HW215177   0.889   4.872   0.315
 4760SOL     OW15178   1.249   0.026   0.542
 4760SOL    HW115179   1.287   0.021   0.635
 4760SOL    HW215180   1.161   7.002   0.540
 4761SOL     OW15181   0.306   6.700   0.637
 4761SOL    HW115182   0.280   6.621   0.580
 4761SOL    HW215183   0.237   6.771   0.627
 4762SOL     OW15184   1.550   5.147   2.605
 4762SOL    HW115185   1.628   5.099   2.567
 4762SOL    HW215186   1.465   5.105   2.572
 4763SOL     OW15187   4.613   5.923   1.669
 4763SOL    HW115188   4.535   5.877   1.712
 4763SOL    HW215189   4.673   5.854   1.628
 4764SOL     OW15190   4.891   3.844   5.530
 4764SOL    HW115191   4.925   3.906   5.601
 4764SOL    HW215192   4.893   3.891   5.442
 4765SOL     OW15193   3.424   1.881   5.160
 4765SOL    HW115194   3.524   1.876   5.162
 4765SOL    HW215195   3.389   1.805   5.104
 4766SOL     OW15196   6.384   6.736   4.276
 4766SOL    HW115197   6.334   6.706   4.194
 4766SOL    HW215198   6.461   6.793   4.249
 4767SOL     OW15199   2.602   5.105   4.949
 4767SOL    HW115200   2.502   5.102   4.943
 4767SOL    HW215201   2.641   5.025   4.903
 4768SOL     OW15202   4.839   2.796   6.478
 4768SOL    HW115203   4.794   2.770   6.564
 4768SOL    HW215204   4.936   2.811   6.495
 4769SOL     OW15205   3.552   5.926   1.464
 4769SOL    HW115206   3.457   5.952   1.447
 4769SOL    HW215207   3.608   6.009   1.472
 4770SOL     OW15208   6.697   2.171   5.206
 4770SOL    HW115209   6.659   2.232   5.276
 4770SOL    HW215210   6.669   2.077   5.225
 4771SOL     OW15211   2.721   0.084   5.769
 4771SOL    HW115212   2.814   0.077   5.733
 4771SOL    HW215213   2.656   0.052   5.700
 4772SOL     OW15214   2.813   5.308   0.787
 4772SOL    HW115215   2.890   5.361   0.824
 4772SOL    HW215216   2.771   5.358   0.712
 4773SOL     OW15217   2.472   5.575   4.792
 4773SOL    HW115218   2.566   5.562   4.760
 4773SOL    HW215219   2.469   5.650   4.858
 4774SOL     OW15220   1.580   4.051   0.470
 4774SOL    HW115221   1.515   3.983   0.503
 4774SOL    HW215222   1.670   4.009   0.461
 4775SOL     OW15223   5.593   6.439   4.732
 4775SOL    HW115224   5.601   6.388   4.647
 4775SOL    HW215225   5.635   6.530   4.720
 4776SOL     OW15226   1.260   0.741   5.943
 4776SOL    HW115227   1.318   0.659   5.945
 4776SOL    HW215228   1.286   0.798   5.865
 4777SOL     OW15229   1.116   5.690   0.465
 4777SOL    HW115230   1.110   5.652   0.557
 4777SOL    HW215231   1.053   5.767   0.456
 4778SOL     OW15232   0.911   2.279   4.508
 4778SOL    HW115233   0.881   2.197   4.556
 4778SOL    HW215234   0.840   2.349   4.515
 4779SOL     OW15235   6.696   1.197   3.673
 4779SOL    HW115236   6.753   1.128   3.719
 4779SOL    HW215237   6.688   1.173   3.576
 4780SOL     OW15238   5.354   2.589   5.701
 4780SOL    HW115239   5.311   2.664   5.752
 4780SOL    HW215240   5.291   2.512   5.693
 4781SOL     OW15241   1.545   5.602   1.934
 4781SOL    HW115242   1.572   5.694   1.904
 4781SOL    HW215243   1.461   5.608   1.988
 4782SOL     OW15244   5.896   5.464   5.516
 4782SOL    HW115245   5.893   5.365   5.531
 4782SOL    HW215246   5.835   5.488   5.441
 4783SOL     OW15247   6.005   3.538   0.854
 4783SOL    HW115248   5.935   3.511   0.788
 4783SOL    HW215249   6.066   3.460   0.870
 4784SOL     OW15250   5.571   3.113   6.516
 4784SOL    HW115251   5.558   3.084   6.611
 4784SOL    HW215252   5.509   3.061   6.456
 4785SOL     OW15253   0.478   6.027   3.676
 4785SOL    HW115254   0.431   6.114   3.656
 4785SOL    HW215255   0.574   6.034   3.650
 4786SOL     OW15256   2.519   0.060   0.818
 4786SOL    HW115257   2.432   0.097   0.850
 4786SOL    HW215258   2.515   6.982   0.821
 4787SOL     OW15259   4.106   1.763   4.221
 4787SOL    HW115260   4.061   1.704   4.153
 4787SOL    HW215261   4.069   1.856   4.213
 4788SOL     OW15262   6.368   6.134   0.056
 4788SOL    HW115263   6.341   6.038   0.053
 4788SOL    HW215264   6.367   6.172   6.987
 4789SOL     OW15265   5.046   1.209   2.046
 4789SOL    HW115266   5.059   1.293   2.098
 4789SOL    HW215267   4.948   1.191   2.035
 4790SOL     OW15268   5.512   1.611   5.254
 4790SOL    HW115269   5.551   1.590   5.165
 4790SOL    HW215270   5.482   1.707   5.255
 4791SOL     OW15271   0.136   2.783   0.909
 4791SOL    HW115272   0.225   2.791   0.864
 4791SOL    HW215273   0.142   2.819   1.002
 4792SOL     OW15274   2.172   3.808   4.363
 4792SOL    HW115275   2.198   3.779   4.271
 4792SOL    HW215276   2.162   3.727   4.421
 4793SOL     OW15277   1.092   3.852   6.289
 4793SOL    HW115278   1.115   3.918   6.361
 4793SOL    HW215279   1.161   3.780   6.286
 4794SOL     OW15280   5.013   0.819   4.235
 4794SOL    HW115281   5.051   0.728   4.217
 4794SOL    HW215282   4.926   0.809   4.285
 4795SOL     OW15283   0.703   0.531   4.143
 4795SOL    HW115284   0.610   0.513   4.175
 4795SOL    HW215285   0.712   0.627   4.118
 4796SOL     OW15286   3.665   1.399   5.814
 4796SOL    HW115287   3.748   1.357   5.778
 4796SOL    HW215288   3.612   1.439   5.739
 4797SOL     OW15289   0.585   5.284   4.976
 4797SOL    HW115290   0.646   5.312   5.050
 4797SOL    HW215291   0.541   5.197   5.000
 4798SOL     OW15292   5.125   4.908   6.369
 4798SOL    HW115293   5.059   4.880   6.439
 4798SOL    HW215294   5.116   5.007   6.352
 4799SOL     OW15295   3.472   2.442   6.770
 4799SOL    HW115296   3.519   2.400   6.848
 4799SOL    HW215297   3.519   2.527   6.745
 4800SOL     OW15298   1.788   5.152   6.970
 4800SOL    HW115299   1.730   5.085   6.922
 4800SOL    HW215300   1.854   5.104   0.005
 4801SOL     OW15301   4.699   2.519   1.788
 4801SOL    HW115302   4.752   2.434   1.789
 4801SOL    HW215303   4.720   2.571   1.705
 4802SOL     OW15304   0.336   5.896   2.606
 4802SOL    HW115305   0.377   5.966   2.546
 4802SOL    HW215306   0.285   5.941   2.679
 4803SOL     OW15307   5.260   4.343   0.160
 4803SOL    HW115308   5.254   4.258   0.212
 4803SOL    HW215309   5.350   4.384   0.173
 4804SOL     OW15310   4.944   1.925   0.268
 4804SOL    HW115311   4.876   1.881   0.210
 4804SOL    HW215312   4.968   1.865   0.345
 4805SOL     OW15313   6.409   2.339   1.126
 4805SOL    HW115314   6.449   2.274   1.061
 4805SOL    HW215315   6.408   2.298   1.217
 4806SOL     OW15316   1.358   2.941   3.123
 4806SOL    HW115317   1.343   2.894   3.210
 4806SOL    HW215318   1.455   2.940   3.100
 4807SOL     OW15319   1.051   2.998   0.123
 4807SOL    HW115320   1.120   3.043   0.066
 4807SOL    HW215321   0.966   3.051   0.120
 4808SOL     OW15322   3.873   5.977   0.930
 4808SOL    HW115323   3.843   5.894   0.976
 4808SOL    HW215324   3.971   5.989   0.942
 4809SOL     OW15325   3.262   4.917   1.783
 4809SOL    HW115326   3.204   4.966   1.719
 4809SOL    HW215327   3.238   4.820   1.782
 4810SOL     OW15328   1.057   4.249   3.786
 4810SOL    HW115329   0.970   4.299   3.784
 4810SOL    HW215330   1.111   4.280   3.864
 4811SOL     OW15331   3.771   4.144   4.822
 4811SOL    HW115332   3.692   4.127   4.763
 4811SOL    HW215333   3.853   4.157   4.766
 4812SOL     OW15334   0.503   6.461   1.999
 4812SOL    HW115335   0.560   6.445   1.918
 4812SOL    HW215336   0.463   6.552   1.993
 4813SOL     OW15337   6.283   1.538   0.085
 4813SOL    HW115338   6.223   1.474   0.038
 4813SOL    HW215339   6.231   1.591   0.152
 4814SOL     OW15340   6.805   4.150   1.874
 4814SOL    HW115341   6.781   4.223   1.938
 4814SOL    HW215342   6.810   4.187   1.781
 4815SOL     OW15343   5.702   5.122   2.234
 4815SOL    HW115344   5.625   5.058   2.228
 4815SOL    HW215345   5.785   5.078   2.201
 4816SOL     OW15346   1.286   6.706   2.147
 4816SOL    HW115347   1.308   6.652   2.228
 4816SOL    HW215348   1.189   6.698   2.127
 4817SOL     OW15349   3.732   1.281   1.491
 4817SOL    HW115350   3.713   1.238   1.580
 4817SOL    HW215351   3.648   1.323   1.456
 4818SOL     OW15352   2.600   0.352   4.825
 4818SOL    HW115353   2.665   0.411   4.778
 4818SOL    HW215354   2.583   0.270   4.769
 4819SOL     OW15355   2.912   1.793   1.294
 4819SOL    HW115356   2.953   1.711   1.254
 4819SOL    HW215357   2.924   1.870   1.232
 4820SOL     OW15358   0.427   4.128   2.724
 4820SOL    HW115359   0.414   4.217   2.681
 4820SOL    HW215360   0.442   4.058   2.654
 4821SOL     OW15361   6.731   5.455   1.801
 4821SOL    HW115362   6.791   5.531   1.775
 4821SOL    HW215363   6.693   5.473   1.892
 4822SOL     OW15364   1.876   3.822   3.789
 4822SOL    HW115365   1.963   3.870   3.790
 4822SOL    HW215366   1.807   3.878   3.835
 4823SOL     OW15367   1.050   0.319   4.388
 4823SOL    HW115368   1.131   0.296   4.336
 4823SOL    HW215369   1.026   0.243   4.449
 4824SOL     OW15370   5.616   2.148   2.914
 4824SOL    HW115371   5.559   2.080   2.958
 4824SOL    HW215372   5.561   2.228   2.891
 4825SOL     OW15373   1.887   3.567   4.223
 4825SOL    HW115374   1.858   3.653   4.265
 4825SOL    HW215375   1.940   3.585   4.141
 4826SOL     OW15376   0.195   6.423   0.614
 4826SOL    HW115377   0.241   6.402   0.528
 4826SOL    HW215378   0.214   6.350   0.680
 4827SOL     OW15379   4.591   0.996   1.188
 4827SOL    HW115380   4.656   1.056   1.236
 4827SOL    HW215381   4.627   0.903   1.185
 4828SOL     OW15382   5.676   3.347   1.823
 4828SOL    HW115383   5.662   3.433   1.774
 4828SOL    HW215384   5.591   3.322   1.869
 4829SOL     OW15385   3.166   0.808   6.166
 4829SOL    HW115386   3.233   0.736   6.145
 4829SOL    HW215387   3.078   0.784   6.126
 4830SOL     OW15388   5.189   6.139   3.302
 4830SOL    HW115389   5.235   6.079   3.236
 4830SOL    HW215390   5.122   6.085   3.354
 4831SOL     OW15391   6.654   4.824   5.453
 4831SOL    HW115392   6.750   4.846   5.471
 4831SOL    HW215393   6.637   4.827   5.354
 4832SOL     OW15394   3.385   2.952   5.736
 4832SOL    HW115395   3.315   2.979   5.670
 4832SOL    HW215396   3.347   2.882   5.797
 4833SOL     OW15397   4.183   1.434   3.454
 4833SOL    HW115398   4.247   1.510   3.450
 4833SOL    HW215399   4.197   1.373   3.376
 4834SOL     OW15400   4.217   0.866   0.530
 4834SOL    HW115401   4.123   0.880   0.561
 4834SOL    HW215402   4.268   0.816   0.600
 4835SOL     OW15403   1.876   0.004   6.224
 4835SOL    HW115404   1.838   0.065   6.294
 4835SOL    HW215405   1.961   0.042   6.188
 4836SOL     OW15406   5.041   1.678   4.413
 4836SOL    HW115407   4.966   1.730   4.373
 4836SOL    HW215408   5.120   1.738   4.425
 4837SOL     OW15409   3.098   3.040   1.294
 4837SOL    HW115410   3.009   3.054   1.337
 4837SOL    HW215411   3.170   3.055   1.361
 4838SOL     OW15412   3.958   4.847   2.013
 4838SOL    HW115413   3.870   4.801   2.013
 4838SOL    HW215414   3.969   4.899   2.097
 4839SOL     OW15415   0.334   5.220   5.414
 4839SOL    HW115416   0.374   5.309   5.394
 4839SOL    HW215417   0.251   5.208   5.358
 4840SOL     OW15418   5.672   6.186   0.546
 4840SOL    HW115419   5.631   6.164   0.634
 4840SOL    HW215420   5.671   6.285   0.532
 4841SOL     OW15421   3.289   5.994   1.466
 4841SOL    HW115422   3.231   6.064   1.425
 4841SOL    HW215423   3.256   5.903   1.440
 4842SOL     OW15424   3.575   5.365   1.929
 4842SOL    HW115425   3.612   5.395   2.017
 4842SOL    HW215426   3.631   5.402   1.855
 4843SOL     OW15427   0.090   3.803   6.937
 4843SOL    HW115428   0.187   3.784   6.924
 4843SOL    HW215429   0.076   3.850   0.002
 4844SOL     OW15430   6.602   3.853   0.071
 4844SOL    HW115431   6.669   3.811   0.132
 4844SOL    HW215432   6.649   3.912   0.005
 4845SOL     OW15433   6.352   5.860   4.117
 4845SOL    HW115434   6.265   5.820   4.145
 4845SOL    HW215435   6.407   5.880   4.199
 4846SOL     OW15436   0.974   3.007   0.741
 4846SOL    HW115437   0.936   3.100   0.742
 4846SOL    HW215438   0.989   2.979   0.646
 4847SOL     OW15439   3.955   2.163   4.955
 4847SOL    HW115440   3.865   2.141   4.917
 4847SOL    HW215441   3.944   2.215   5.040
 4848SOL     OW15442   2.188   1.441   3.489
 4848SOL    HW115443   2.207   1.443   3.391
 4848SOL    HW215444   2.089   1.436   3.504
 4849SOL     OW15445   1.474   6.893   6.896
 4849SOL    HW115446   1.411   6.877   6.972
 4849SOL    HW215447   1.510   6.986   6.903
 4850SOL     OW15448   3.641   0.528   2.343
 4850SOL    HW115449   3.680   0.490   2.259
 4850SOL    HW215450   3.715   0.565   2.401
 4851SOL     OW15451   4.319   6.251   5.811
 4851SOL    HW115452   4.357   6.222   5.723
 4851SOL    HW215453   4.362   6.336   5.840
 4852SOL     OW15454   1.573   0.736   0.003
 4852SOL    HW115455   1.589   0.651   0.054
 4852SOL    HW215456   1.648   0.799   0.019
 4853SOL     OW15457   3.545   1.746   2.647
 4853SOL    HW115458   3.536   1.647   2.660
 4853SOL    HW215459   3.523   1.769   2.552
 4854SOL     OW15460   4.702   5.630   2.089
 4854SOL    HW115461   4.776   5.623   2.022
 4854SOL    HW215462   4.628   5.687   2.052
 4855SOL     OW15463   5.862   1.649   1.962
 4855SOL    HW115464   5.768   1.643   1.995
 4855SOL    HW215465   5.897   1.741   1.979
 4856SOL     OW15466   2.981   4.839   3.905
 4856SOL    HW115467   2.898   4.831   3.849
 4856SOL    HW215468   2.966   4.795   3.993
 4857SOL     OW15469   1.153   1.612   5.938
 4857SOL    HW115470   1.076   1.555   5.910
 4857SOL    HW215471   1.146   1.701   5.895
 4858SOL     OW15472   2.172   1.478   4.392
 4858SOL    HW115473   2.149   1.575   4.396
 4858SOL    HW215474   2.236   1.461   4.317
 4859SOL     OW15475   1.228   5.821   4.593
 4859SOL    HW115476   1.183   5.733   4.581
 4859SOL    HW215477   1.229   5.871   4.506
 4860SOL     OW15478   4.203   5.165   1.875
 4860SOL    HW115479   4.107   5.181   1.899
 4860SOL    HW215480   4.253   5.133   1.957
 4861SOL     OW15481   5.496   5.406   0.092
 4861SOL    HW115482   5.578   5.456   0.063
 4861SOL    HW215483   5.506   5.309   0.067
 4862SOL     OW15484   1.440   5.316   3.635
 4862SOL    HW115485   1.369   5.385   3.619
 4862SOL    HW215486   1.455   5.305   3.733
 4863SOL     OW15487   5.866   4.457   0.811
 4863SOL    HW115488   5.848   4.467   0.909
 4863SOL    HW215489   5.947   4.401   0.797
 4864SOL     OW15490   3.166   0.841   3.428
 4864SOL    HW115491   3.250   0.895   3.419
 4864SOL    HW215492   3.161   0.775   3.353
 4865SOL     OW15493   2.534   0.101   5.008
 4865SOL    HW115494   2.437   0.076   5.019
 4865SOL    HW215495   2.540   0.199   4.988
 4866SOL     OW15496   6.705   3.787   1.381
 4866SOL    HW115497   6.771   3.809   1.453
 4866SOL    HW215498   6.615   3.819   1.408
 4867SOL     OW15499   4.392   5.510   2.114
 4867SOL    HW115500   4.446   5.570   2.054
 4867SOL    HW215501   4.344   5.566   2.182
 4868SOL     OW15502   6.533   4.794   2.267
 4868SOL    HW115503   6.619   4.845   2.271
 4868SOL    HW215504   6.531   4.727   2.341
 4869SOL     OW15505   1.370   1.515   0.853
 4869SOL    HW115506   1.371   1.474   0.761
 4869SOL    HW215507   1.375   1.614   0.845
 4870SOL     OW15508   0.709   6.484   1.832
 4870SOL    HW115509   0.753   6.574   1.828
 4870SOL    HW215510   0.778   6.413   1.824
 4871SOL     OW15511   1.073   0.636   4.762
 4871SOL    HW115512   1.152   0.679   4.717
 4871SOL    HW215513   0.990   0.657   4.711
 4872SOL     OW15514   6.498   6.528   3.072
 4872SOL    HW115515   6.412   6.478   3.062
 4872SOL    HW215516   6.484   6.605   3.134
 4873SOL     OW15517   6.840   5.207   4.950
 4873SOL    HW115518   6.867   5.163   4.864
 4873SOL    HW215519   6.786   5.289   4.930
 4874SOL     OW15520   4.900   2.342   2.886
 4874SOL    HW115521   4.850   2.311   2.967
 4874SOL    HW215522   4.843   2.406   2.834
 4875SOL     OW15523   4.970   6.962   0.000
 4875SOL    HW115524   5.027   6.881   0.018
 4875SOL    HW215525   5.022   0.022   0.019
 4876SOL     OW15526   0.290   1.427   3.511
 4876SOL    HW115527   0.222   1.359   3.539
 4876SOL    HW215528   0.376   1.410   3.560
 4877SOL     OW15529   0.367   2.122   5.076
 4877SOL    HW115530   0.323   2.211   5.089
 4877SOL    HW215531   0.454   2.121   5.124
 4878SOL     OW15532   6.909   1.663   1.850
 4878SOL    HW115533   6.959   1.641   1.766
 4878SOL    HW215534   6.836   1.597   1.864
 4879SOL     OW15535   5.220   1.913   2.560
 4879SOL    HW115536   5.120   1.913   2.556
 4879SOL    HW215537   5.257   1.962   2.481
 4880SOL     OW15538   6.757   3.372   0.374
 4880SOL    HW115539   6.797   3.288   0.336
 4880SOL    HW215540   6.725   3.354   0.467
 4881SOL     OW15541   1.497   2.212   0.954
 4881SOL    HW115542   1.497   2.178   0.860
 4881SOL    HW215543   1.589   2.241   0.979
 4882SOL     OW15544   4.493   2.318   5.223
 4882SOL    HW115545   4.556   2.347   5.151
 4882SOL    HW215546   4.542   2.269   5.294
 4883SOL     OW15547   4.901   4.004   1.718
 4883SOL    HW115548   4.817   4.059   1.715
 4883SOL    HW215549   4.964   4.035   1.646
 4884SOL     OW15550   2.791   5.551   0.635
 4884SOL    HW115551   2.780   5.561   0.734
 4884SOL    HW215552   2.713   5.591   0.588
 4885SOL     OW15553   2.376   4.430   1.935
 4885SOL    HW115554   2.288   4.467   1.904
 4885SOL    HW215555   2.399   4.350   1.880
 4886SOL     OW15556   2.849   6.830   1.289
 4886SOL    HW115557   2.766   6.789   1.326
 4886SOL    HW215558   2.851   6.928   1.311
 4887SOL     OW15559   1.021   6.534   1.227
 4887SOL    HW115560   1.028   6.435   1.213
 4887SOL    HW215561   1.107   6.569   1.263
 4888SOL     OW15562   2.434   6.427   2.776
 4888SOL    HW115563   2.516   6.482   2.761
 4888SOL    HW215564   2.353   6.484   2.767
 4889SOL     OW15565   6.805   1.628   4.712
 4889SOL    HW115566   6.751   1.703   4.674
 4889SOL    HW215567   6.903   1.651   4.708
 4890SOL     OW15568   0.997   2.100   5.319
 4890SOL    HW115569   0.915   2.043   5.312
 4890SOL    HW215570   1.073   2.054   5.273
 4891SOL     OW15571   2.266   5.079   6.570
 4891SOL    HW115572   2.250   5.178   6.575
 4891SOL    HW215573   2.341   5.054   6.631
 4892SOL     OW15574   5.606   6.378   2.145
 4892SOL    HW115575   5.582   6.390   2.242
 4892SOL    HW215576   5.696   6.418   2.128
 4893SOL     OW15577   0.298   3.155   2.102
 4893SOL    HW115578   0.243   3.211   2.041
 4893SOL    HW215579   0.380   3.205   2.128
 4894SOL     OW15580   3.258   0.144   2.432
 4894SOL    HW115581   3.224   0.053   2.405
 4894SOL    HW215582   3.289   0.194   2.351
 4895SOL     OW15583   0.756   4.809   3.532
 4895SOL    HW115584   0.716   4.888   3.579
 4895SOL    HW215585   0.740   4.726   3.587
 4896SOL     OW15586   2.432   4.742   3.169
 4896SOL    HW115587   2.504   4.688   3.125
 4896SOL    HW215588   2.414   4.824   3.115
 4897SOL     OW15589   1.763   5.856   5.352
 4897SOL    HW115590   1.747   5.799   5.271
 4897SOL    HW215591   1.746   5.803   5.434
 4898SOL     OW15592   4.269   0.983   4.855
 4898SOL    HW115593   4.183   0.975   4.804
 4898SOL    HW215594   4.282   0.901   4.911
 4899SOL     OW15595   5.656   5.704   2.517
 4899SOL    HW115596   5.678   5.678   2.611
 4899SOL    HW215597   5.563   5.675   2.495
 4900SOL     OW15598   4.485   6.179   5.593
 4900SOL    HW115599   4.481   6.176   5.493
 4900SOL    HW215600   4.555   6.116   5.625
 4901SOL     OW15601   1.580   1.778   5.238
 4901SOL    HW115602   1.634   1.760   5.320
 4901SOL    HW215603   1.549   1.691   5.199
 4902SOL     OW15604   1.735   0.571   6.518
 4902SOL    HW115605   1.689   0.657   6.496
 4902SOL    HW215606   1.683   0.494   6.482
 4903SOL     OW15607   4.160   5.484   1.107
 4903SOL    HW115608   4.255   5.473   1.076
 4903SOL    HW215609   4.134   5.580   1.098
 4904SOL     OW15610   2.321   0.629   5.464
 4904SOL    HW115611   2.298   0.602   5.558
 4904SOL    HW215612   2.420   0.641   5.456
 4905SOL     OW15613   2.602   0.134   3.083
 4905SOL    HW115614   2.633   0.062   3.146
 4905SOL    HW215615   2.531   0.097   3.023
 4906SOL     OW15616   4.752   2.996   5.124
 4906SOL    HW115617   4.794   3.079   5.087
 4906SOL    HW215618   4.823   2.928   5.142
 4907SOL     OW15619   4.931   1.256   0.584
 4907SOL    HW115620   4.924   1.261   0.684
 4907SOL    HW215621   4.947   1.348   0.547
 4908SOL     OW15622   4.697   0.438   1.134
 4908SOL    HW115623   4.786   0.408   1.168
 4908SOL    HW215624   4.706   0.529   1.093
 4909SOL     OW15625   6.673   4.282   3.866
 4909SOL    HW115626   6.699   4.232   3.949
 4909SOL    HW215627   6.600   4.346   3.888
 4910SOL     OW15628   5.694   1.139   4.507
 4910SOL    HW115629   5.790   1.111   4.497
 4910SOL    HW215630   5.635   1.063   4.479
 4911SOL     OW15631   1.926   2.882   2.851
 4911SOL    HW115632   1.890   2.925   2.933
 4911SOL    HW215633   1.855   2.825   2.809
 4912SOL     OW15634   5.196   2.366   5.660
 4912SOL    HW115635   5.170   2.273   5.685
 4912SOL    HW215636   5.115   2.424   5.655
 4913SOL     OW15637   5.604   3.084   6.052
 4913SOL    HW115638   5.620   3.095   5.954
 4913SOL    HW215639   5.595   3.174   6.095
 4914SOL     OW15640   4.510   0.259   5.511
 4914SOL    HW115641   4.494   0.303   5.422
 4914SOL    HW215642   4.539   0.328   5.577
 4915SOL     OW15643   2.896   5.977   5.496
 4915SOL    HW115644   2.955   5.998   5.574
 4915SOL    HW215645   2.901   5.880   5.475
 4916SOL     OW15646   0.031   0.568   4.238
 4916SOL    HW115647   0.114   0.616   4.210
 4916SOL    HW215648   6.984   0.577   4.168
 4917SOL     OW15649   3.760   5.789   1.087
 4917SOL    HW115650   3.754   5.760   1.183
 4917SOL    HW215651   3.668   5.809   1.053
 4918SOL     OW15652   6.561   5.837   1.852
 4918SOL    HW115653   6.546   5.922   1.902
 4918SOL    HW215654   6.476   5.808   1.809
 4919SOL     OW15655   3.350   2.977   2.111
 4919SOL    HW115656   3.256   2.976   2.076
 4919SOL    HW215657   3.356   2.921   2.193
 4920SOL     OW15658   5.389   0.220   5.039
 4920SOL    HW115659   5.488   0.218   5.056
 4920SOL    HW215660   5.341   0.181   5.117
 4921SOL     OW15661   0.974   5.495   0.066
 4921SOL    HW115662   1.045   5.545   0.115
 4921SOL    HW215663   1.015   5.420   0.014
 4922SOL     OW15664   3.355   2.268   5.393
 4922SOL    HW115665   3.455   2.262   5.391
 4922SOL    HW215666   3.324   2.326   5.318
 4923SOL     OW15667   2.754   2.036   2.851
 4923SOL    HW115668   2.751   2.053   2.753
 4923SOL    HW215669   2.680   2.088   2.896
 4924SOL     OW15670   2.376   1.771   5.511
 4924SOL    HW115671   2.442   1.743   5.442
 4924SOL    HW215672   2.383   1.870   5.526
 4925SOL     OW15673   4.335   0.273   2.620
 4925SOL    HW115674   4.326   0.186   2.669
 4925SOL    HW215675   4.409   0.266   2.553
 4926SOL     OW15676   5.557   1.340   1.398
 4926SOL    HW115677   5.516   1.342   1.489
 4926SOL    HW215678   5.505   1.400   1.337
 4927SOL     OW15679   3.094   2.896   6.088
 4927SOL    HW115680   3.027   2.912   6.161
 4927SOL    HW215681   3.055   2.836   6.019
 4928SOL     OW15682   1.300   1.005   0.588
 4928SOL    HW115683   1.213   1.041   0.554
 4928SOL    HW215684   1.363   0.992   0.511
 4929SOL     OW15685   6.952   6.946   3.360
 4929SOL    HW115686   7.011   6.941   3.441
 4929SOL    HW215687   7.009   6.937   3.278
 4930SOL     OW15688   6.439   0.020   1.997
 4930SOL    HW115689   6.426   7.013   2.092
 4930SOL    HW215690   6.408   0.115   1.987
 4931SOL     OW15691   6.099   6.008   1.747
 4931SOL    HW115692   6.050   6.073   1.690
 4931SOL    HW215693   6.091   6.034   1.843
 4932SOL     OW15694   3.390   3.774   3.662
 4932SOL    HW115695   3.470   3.714   3.662
 4932SOL    HW215696   3.332   3.753   3.583
 4933SOL     OW15697   2.475   6.263   4.361
 4933SOL    HW115698   2.487   6.271   4.460
 4933SOL    HW215699   2.493   6.169   4.333
 4934SOL     OW15700   3.617   6.111   3.010
 4934SOL    HW115701   3.650   6.195   2.966
 4934SOL    HW215702   3.614   6.037   2.943
 4935SOL     OW15703   1.483   2.081   6.754
 4935SOL    HW115704   1.393   2.088   6.798
 4935SOL    HW215705   1.480   2.127   6.665
 4936SOL     OW15706   2.778   4.820   0.839
 4936SOL    HW115707   2.704   4.871   0.882
 4936SOL    HW215708   2.765   4.818   0.740
 4937SOL     OW15709   5.271   3.179   5.043
 4937SOL    HW115710   5.222   3.225   5.116
 4937SOL    HW215711   5.218   3.186   4.958
 4938SOL     OW15712   3.440   5.839   5.262
 4938SOL    HW115713   3.521   5.781   5.272
 4938SOL    HW215714   3.445   5.889   5.175
 4939SOL     OW15715   4.965   2.821   5.176
 4939SOL    HW115716   5.012   2.878   5.244
 4939SOL    HW215717   4.975   2.725   5.201
 4940SOL     OW15718   1.489   0.746   4.849
 4940SOL    HW115719   1.415   0.753   4.783
 4940SOL    HW215720   1.473   0.667   4.909
 4941SOL     OW15721   4.073   1.702   0.169
 4941SOL    HW115722   3.998   1.684   0.106
 4941SOL    HW215723   4.135   1.770   0.128
 4942SOL     OW15724   4.938   3.658   5.264
 4942SOL    HW115725   4.934   3.601   5.346
 4942SOL    HW215726   4.877   3.619   5.194
 4943SOL     OW15727   4.587   2.263   0.259
 4943SOL    HW115728   4.500   2.215   0.252
 4943SOL    HW215729   4.571   2.357   0.291
 4944SOL     OW15730   2.146   3.993   2.811
 4944SOL    HW115731   2.123   3.921   2.746
 4944SOL    HW215732   2.150   4.081   2.764
 4945SOL     OW15733   1.206   0.235   3.979
 4945SOL    HW115734   1.266   0.166   3.938
 4945SOL    HW215735   1.243   0.263   4.068
 4946SOL     OW15736   1.098   2.871   1.745
 4946SOL    HW115737   1.110   2.902   1.839
 4946SOL    HW215738   1.010   2.824   1.736
 4947SOL     OW15739   0.766   6.988   0.310
 4947SOL    HW115740   0.767   6.889   0.325
 4947SOL    HW215741   0.673   0.000   0.317
 4948SOL     OW15742   2.404   0.758   2.727
 4948SOL    HW115743   2.322   0.709   2.696
 4948SOL    HW215744   2.426   0.730   2.820
 4949SOL     OW15745   5.004   0.611   5.483
 4949SOL    HW115746   5.022   0.674   5.558
 4949SOL    HW215747   5.056   0.526   5.496
 4950SOL     OW15748   2.766   6.386   4.062
 4950SOL    HW115749   2.846   6.329   4.078
 4950SOL    HW215750   2.729   6.368   3.971
 4951SOL     OW15751   4.707   1.641   4.548
 4951SOL    HW115752   4.733   1.585   4.469
 4951SOL    HW215753   4.654   1.719   4.517
 4952SOL     OW15754   0.043   5.801   4.839
 4952SOL    HW115755   0.044   5.777   4.742
 4952SOL    HW215756   0.070   5.897   4.849
 4953SOL     OW15757   2.424   5.234   1.068
 4953SOL    HW115758   2.482   5.190   1.137
 4953SOL    HW215759   2.365   5.302   1.112
 4954SOL     OW15760   4.872   4.802   0.265
 4954SOL    HW115761   4.848   4.706   0.252
 4954SOL    HW215762   4.864   4.850   0.178
 4955SOL     OW15763   1.501   6.050   0.508
 4955SOL    HW115764   1.461   6.126   0.458
 4955SOL    HW215765   1.428   5.986   0.535
 4956SOL     OW15766   4.160   6.927   5.959
 4956SOL    HW115767   4.208   6.936   5.871
 4956SOL    HW215768   4.227   6.911   6.031
 4957SOL     OW15769   0.209   1.251   4.048
 4957SOL    HW115770   0.291   1.307   4.053
 4957SOL    HW215771   0.154   1.280   3.970
 4958SOL     OW15772   0.626   6.559   6.211
 4958SOL    HW115773   0.679   6.608   6.142
 4958SOL    HW215774   0.687   6.525   6.283
 4959SOL     OW15775   1.118   0.547   6.684
 4959SOL    HW115776   1.090   0.452   6.700
 4959SOL    HW215777   1.195   0.570   6.744
 4960SOL     OW15778   4.058   6.729   4.054
 4960SOL    HW115779   4.053   6.813   3.999
 4960SOL    HW215780   4.145   6.683   4.036
 4961SOL     OW15781   5.923   0.564   4.554
 4961SOL    HW115782   5.832   0.583   4.516
 4961SOL    HW215783   5.963   0.486   4.507
 4962SOL     OW15784   5.720   2.473   1.964
 4962SOL    HW115785   5.722   2.573   1.951
 4962SOL    HW215786   5.644   2.449   2.025
 4963SOL     OW15787   0.516   5.536   1.464
 4963SOL    HW115788   0.536   5.634   1.467
 4963SOL    HW215789   0.518   5.499   1.557
 4964SOL     OW15790   3.691   5.685   3.457
 4964SOL    HW115791   3.599   5.716   3.432
 4964SOL    HW215792   3.687   5.590   3.490
 4965SOL     OW15793   0.285   6.867   4.896
 4965SOL    HW115794   0.299   6.960   4.929
 4965SOL    HW215795   0.289   6.866   4.796
 4966SOL     OW15796   2.920   6.145   4.708
 4966SOL    HW115797   2.951   6.196   4.788
 4966SOL    HW215798   2.902   6.050   4.734
 4967SOL     OW15799   4.183   2.719   6.591
 4967SOL    HW115800   4.144   2.775   6.664
 4967SOL    HW215801   4.270   2.681   6.622
 4968SOL     OW15802   4.887   2.895   3.465
 4968SOL    HW115803   4.950   2.836   3.415
 4968SOL    HW215804   4.939   2.963   3.517
 4969SOL     OW15805   1.540   0.970   1.552
 4969SOL    HW115806   1.602   1.019   1.613
 4969SOL    HW215807   1.562   0.992   1.457
 4970SOL     OW15808   1.156   2.122   4.817
 4970SOL    HW115809   1.221   2.103   4.890
 4970SOL    HW215810   1.139   2.039   4.765
 4971SOL     OW15811   6.507   6.183   2.950
 4971SOL    HW115812   6.431   6.226   2.902
 4971SOL    HW215813   6.517   6.088   2.919
 4972SOL     OW15814   2.379   3.540   0.947
 4972SOL    HW115815   2.434   3.621   0.966
 4972SOL    HW215816   2.436   3.458   0.953
 4973SOL     OW15817   6.024   6.053   2.003
 4973SOL    HW115818   5.982   6.142   2.023
 4973SOL    HW215819   6.051   6.009   2.088
 4974SOL     OW15820   5.564   6.043   2.598
 4974SOL    HW115821   5.613   6.039   2.511
 4974SOL    HW215822   5.468   6.066   2.581
 4975SOL     OW15823   5.783   5.918   0.533
 4975SOL    HW115824   5.772   5.864   0.450
 4975SOL    HW215825   5.745   6.010   0.519
 4976SOL     OW15826   3.579   0.189   4.723
 4976SOL    HW115827   3.536   0.128   4.789
 4976SOL    HW215828   3.508   0.230   4.664
 4977SOL     OW15829   4.340   3.772   0.898
 4977SOL    HW115830   4.315   3.686   0.852
 4977SOL    HW215831   4.439   3.781   0.900
 4978SOL     OW15832   5.853   3.918   5.504
 4978SOL    HW115833   5.824   3.870   5.587
 4978SOL    HW215834   5.817   4.012   5.506
 4979SOL     OW15835   0.549   1.070   5.626
 4979SOL    HW115836   0.557   1.028   5.535
 4979SOL    HW215837   0.455   1.061   5.658
 4980SOL     OW15838   3.738   5.248   2.538
 4980SOL    HW115839   3.712   5.344   2.551
 4980SOL    HW215840   3.676   5.206   2.471
 4981SOL     OW15841   4.603   6.931   6.135
 4981SOL    HW115842   4.507   6.936   6.162
 4981SOL    HW215843   4.650   7.014   6.166
 4982SOL     OW15844   2.138   1.999   6.745
 4982SOL    HW115845   2.148   1.988   6.844
 4982SOL    HW215846   2.181   2.085   6.717
 4983SOL     OW15847   5.366   3.034   3.894
 4983SOL    HW115848   5.329   2.944   3.872
 4983SOL    HW215849   5.461   3.024   3.925
 4984SOL     OW15850   4.927   3.716   4.496
 4984SOL    HW115851   4.984   3.638   4.471
 4984SOL    HW215852   4.911   3.773   4.416
 4985SOL     OW15853   5.187   5.274   3.788
 4985SOL    HW115854   5.110   5.293   3.726
 4985SOL    HW215855   5.204   5.176   3.790
 4986SOL     OW15856   6.334   4.417   2.467
 4986SOL    HW115857   6.351   4.328   2.424
 4986SOL    HW215858   6.237   4.427   2.487
 4987SOL     OW15859   0.180   3.116   1.126
 4987SOL    HW115860   0.131   3.091   1.210
 4987SOL    HW215861   0.278   3.115   1.144
 4988SOL     OW15862   0.378   1.369   4.434
 4988SOL    HW115863   0.327   1.296   4.480
 4988SOL    HW215864   0.314   1.426   4.382
 4989SOL     OW15865   6.448   1.386   0.732
 4989SOL    HW115866   6.506   1.373   0.812
 4989SOL    HW215867   6.416   1.481   0.728
 4990SOL     OW15868   0.715   2.767   5.313
 4990SOL    HW115869   0.745   2.703   5.242
 4990SOL    HW215870   0.793   2.792   5.370
 4991SOL     OW15871   0.741   3.291   3.793
 4991SOL    HW115872   0.821   3.331   3.748
 4991SOL    HW215873   0.664   3.356   3.788
 4992SOL     OW15874   3.504   0.841   5.151
 4992SOL    HW115875   3.514   0.744   5.129
 4992SOL    HW215876   3.579   0.870   5.210
 4993SOL     OW15877   3.034   5.722   3.704
 4993SOL    HW115878   3.113   5.718   3.643
 4993SOL    HW215879   3.027   5.635   3.754
 4994SOL     OW15880   0.900   6.658   2.642
 4994SOL    HW115881   0.983   6.612   2.611
 4994SOL    HW215882   0.848   6.691   2.564
 4995SOL     OW15883   6.930   3.170   6.326
 4995SOL    HW115884   6.970   3.237   6.264
 4995SOL    HW215885   6.831   3.180   6.328
 4996SOL     OW15886   0.886   2.067   2.088
 4996SOL    HW115887   0.969   2.110   2.054
 4996SOL    HW215888   0.830   2.134   2.135
 4997SOL     OW15889   6.572   2.288   3.037
 4997SOL    HW115890   6.549   2.381   3.010
 4997SOL    HW215891   6.518   2.263   3.118
 4998SOL     OW15892   1.692   4.774   4.769
 4998SOL    HW115893   1.769   4.817   4.722
 4998SOL    HW215894   1.694   4.800   4.866
 4999SOL     OW15895   4.646   5.509   0.865
 4999SOL    HW115896   4.707   5.434   0.891
 4999SOL    HW215897   4.676   5.549   0.779
 5000SOL     OW15898   0.723   0.267   5.043
 5000SOL    HW115899   0.795   0.333   5.021
 5000SOL    HW215900   0.700   0.275   5.140
 5001SOL     OW15901   2.455   4.060   6.008
 5001SOL    HW115902   2.420   4.151   6.029
 5001SOL    HW215903   2.518   4.031   6.079
 5002SOL     OW15904   2.246   1.671   2.496
 5002SOL    HW115905   2.205   1.681   2.587
 5002SOL    HW215906   2.324   1.608   2.501
 5003SOL     OW15907   0.172   6.383   2.695
 5003SOL    HW115908   0.089   6.416   2.739
 5003SOL    HW215909   0.155   6.367   2.598
 5004SOL     OW15910   2.390   5.700   6.376
 5004SOL    HW115911   2.482   5.709   6.415
 5004SOL    HW215912   2.396   5.668   6.282
 5005SOL     OW15913   4.036   2.821   0.421
 5005SOL    HW115914   4.012   2.905   0.373
 5005SOL    HW215915   4.134   2.822   0.443
 5006SOL     OW15916   5.359   6.925   5.145
 5006SOL    HW115917   5.310   6.886   5.067
 5006SOL    HW215918   5.446   6.964   5.113
 5007SOL     OW15919   4.053   1.133   5.901
 5007SOL    HW115920   4.129   1.163   5.959
 5007SOL    HW215921   4.010   1.213   5.859
 5008SOL     OW15922   6.030   0.920   3.469
 5008SOL    HW115923   6.004   1.016   3.465
 5008SOL    HW215924   5.980   0.874   3.543
 5009SOL     OW15925   0.839   6.030   1.641
 5009SOL    HW115926   0.758   5.972   1.652
 5009SOL    HW215927   0.922   5.975   1.649
 5010SOL     OW15928   3.457   4.148   3.932
 5010SOL    HW115929   3.533   4.138   3.995
 5010SOL    HW215930   3.455   4.241   3.896
 5011SOL     OW15931   1.450   3.312   1.853
 5011SOL    HW115932   1.476   3.357   1.768
 5011SOL    HW215933   1.515   3.337   1.925
 5012SOL     OW15934   6.870   3.067   6.038
 5012SOL    HW115935   6.871   3.034   6.132
 5012SOL    HW215936   6.962   3.098   6.012
 5013SOL     OW15937   4.172   0.855   6.532
 5013SOL    HW115938   4.142   0.835   6.625
 5013SOL    HW215939   4.224   0.777   6.497
 5014SOL     OW15940   6.130   5.889   0.475
 5014SOL    HW115941   6.071   5.969   0.485
 5014SOL    HW215942   6.103   5.820   0.542
 5015SOL     OW15943   4.154   2.143   3.468
 5015SOL    HW115944   4.132   2.196   3.549
 5015SOL    HW215945   4.116   2.188   3.387
 5016SOL     OW15946   1.555   0.552   2.934
 5016SOL    HW115947   1.461   0.554   2.970
 5016SOL    HW215948   1.569   0.468   2.883
 5017SOL     OW15949   2.566   2.075   0.575
 5017SOL    HW115950   2.626   2.111   0.646
 5017SOL    HW215951   2.471   2.094   0.598
 5018SOL     OW15952   6.995   4.251   2.770
 5018SOL    HW115953   0.045   4.221   2.708
 5018SOL    HW215954   6.907   4.218   2.737
 5019SOL     OW15955   2.405   4.198   0.910
 5019SOL    HW115956   2.426   4.207   1.007
 5019SOL    HW215957   2.437   4.109   0.878
 5020SOL     OW15958   4.865   5.326   6.148
 5020SOL    HW115959   4.894   5.230   6.147
 5020SOL    HW215960   4.845   5.356   6.055
 5021SOL     OW15961   2.012   4.774   5.677
 5021SOL    HW115962   1.944   4.705   5.654
 5021SOL    HW215963   2.041   4.822   5.594
 5022SOL     OW15964   1.947   6.067   0.516
 5022SOL    HW115965   2.023   6.114   0.471
 5022SOL    HW215966   1.860   6.103   0.482
 5023SOL     OW15967   6.065   2.974   0.669
 5023SOL    HW115968   6.127   3.052   0.673
 5023SOL    HW215969   6.095   2.912   0.596
 5024SOL     OW15970   6.619   4.293   3.375
 5024SOL    HW115971   6.552   4.291   3.302
 5024SOL    HW215972   6.705   4.253   3.343
 5025SOL     OW15973   5.180   1.153   3.491
 5025SOL    HW115974   5.218   1.072   3.446
 5025SOL    HW215975   5.126   1.125   3.570
 5026SOL     OW15976   6.007   5.660   4.758
 5026SOL    HW115977   5.964   5.693   4.842
 5026SOL    HW215978   5.951   5.588   4.718
 5027SOL     OW15979   0.543   6.779   3.045
 5027SOL    HW115980   0.494   6.692   3.045
 5027SOL    HW215981   0.603   6.784   2.966
 5028SOL     OW15982   0.214   6.364   2.007
 5028SOL    HW115983   0.177   6.342   1.918
 5028SOL    HW215984   0.313   6.352   2.007
 5029SOL     OW15985   0.176   2.726   1.590
 5029SOL    HW115986   0.095   2.689   1.634
 5029SOL    HW215987   0.192   2.678   1.504
 5030SOL     OW15988   6.596   0.459   6.841
 5030SOL    HW115989   6.628   0.405   6.764
 5030SOL    HW215990   6.545   0.401   6.904
 5031SOL     OW15991   5.877   1.241   4.254
 5031SOL    HW115992   5.959   1.184   4.262
 5031SOL    HW215993   5.892   1.329   4.298
 5032SOL     OW15994   1.690   5.107   0.509
 5032SOL    HW115995   1.755   5.160   0.564
 5032SOL    HW215996   1.739   5.057   0.438
 5033SOL     OW15997   2.663   4.694   5.493
 5033SOL    HW115998   2.754   4.721   5.524
 5033SOL    HW215999   2.663   4.596   5.471
 5034SOL     OW16000   6.460   2.181   2.383
 5034SOL    HW116001   6.476   2.267   2.432
 5034SOL    HW216002   6.381   2.134   2.421
 5035SOL     OW16003   4.394   5.175   0.591
 5035SOL    HW116004   4.452   5.112   0.539
 5035SOL    HW216005   4.422   5.270   0.573
 5036SOL     OW16006   1.073   6.076   0.530
 5036SOL    HW116007   1.136   6.108   0.459
 5036SOL    HW216008   1.022   5.997   0.496
 5037SOL     OW16009   3.895   1.642   3.602
 5037SOL    HW116010   3.876   1.547   3.628
 5037SOL    HW216011   3.980   1.646   3.551
 5038SOL     OW16012   1.473   6.159   5.658
 5038SOL    HW116013   1.391   6.183   5.605
 5038SOL    HW216014   1.554   6.168   5.600
 5039SOL     OW16015   2.276   2.965   5.361
 5039SOL    HW116016   2.298   2.998   5.453
 5039SOL    HW216017   2.354   2.980   5.301
 5040SOL     OW16018   2.870   3.522   6.740
 5040SOL    HW116019   2.870   3.571   6.827
 5040SOL    HW216020   2.776   3.506   6.711
 5041SOL     OW16021   0.880   3.705   1.441
 5041SOL    HW116022   0.830   3.619   1.453
 5041SOL    HW216023   0.951   3.712   1.511
 5042SOL     OW16024   5.900   3.811   6.549
 5042SOL    HW116025   5.876   3.888   6.490
 5042SOL    HW216026   5.985   3.831   6.598
 5043SOL     OW16027   3.491   0.721   3.901
 5043SOL    HW116028   3.537   0.687   3.819
 5043SOL    HW216029   3.499   0.821   3.905
 5044SOL     OW16030   6.253   5.913   3.870
 5044SOL    HW116031   6.181   5.982   3.867
 5044SOL    HW216032   6.277   5.893   3.965
 5045SOL     OW16033   6.280   3.591   0.309
 5045SOL    HW116034   6.202   3.581   0.247
 5045SOL    HW216035   6.254   3.648   0.387
 5046SOL     OW16036   3.526   2.958   5.221
 5046SOL    HW116037   3.621   2.987   5.230
 5046SOL    HW216038   3.501   2.899   5.298
 5047SOL     OW16039   6.284   0.506   2.561
 5047SOL    HW116040   6.231   0.499   2.645
 5047SOL    HW216041   6.381   0.493   2.582
 5048SOL     OW16042   0.041   2.213   1.919
 5048SOL    HW116043   6.967   2.205   1.945
 5048SOL    HW216044   0.097   2.159   1.982
 5049SOL     OW16045   1.165   1.756   2.075
 5049SOL    HW116046   1.095   1.695   2.113
 5049SOL    HW216047   1.233   1.702   2.027
 5050SOL     OW16048   0.582   2.303   1.682
 5050SOL    HW116049   0.609   2.220   1.633
 5050SOL    HW216050   0.482   2.311   1.681
 5051SOL     OW16051   2.679   4.158   1.140
 5051SOL    HW116052   2.731   4.086   1.186
 5051SOL    HW216053   2.583   4.131   1.134
 5052SOL     OW16054   4.246   4.806   0.703
 5052SOL    HW116055   4.238   4.710   0.673
 5052SOL    HW216056   4.201   4.817   0.792
 5053SOL     OW16057   2.398   4.058   1.720
 5053SOL    HW116058   2.354   4.147   1.728
 5053SOL    HW216059   2.336   3.988   1.755
 5054SOL     OW16060   3.405   6.169   4.778
 5054SOL    HW116061   3.497   6.209   4.775
 5054SOL    HW216062   3.396   6.102   4.705
 5055SOL     OW16063   0.917   2.147   4.947
 5055SOL    HW116064   0.882   2.054   4.961
 5055SOL    HW216065   0.993   2.143   4.882
 5056SOL     OW16066   0.215   3.683   6.021
 5056SOL    HW116067   0.251   3.765   5.977
 5056SOL    HW216068   0.286   3.643   6.079
 5057SOL     OW16069   1.014   5.997   3.661
 5057SOL    HW116070   0.957   5.980   3.581
 5057SOL    HW216071   0.994   5.929   3.732
 5058SOL     OW16072   4.126   4.044   6.721
 5058SOL    HW116073   4.201   3.978   6.726
 5058SOL    HW216074   4.144   4.120   6.783
 5059SOL     OW16075   3.663   2.117   4.950
 5059SOL    HW116076   3.577   2.166   4.964
 5059SOL    HW216077   3.646   2.019   4.956
 5060SOL     OW16078   0.336   3.799   5.069
 5060SOL    HW116079   0.290   3.753   4.992
 5060SOL    HW216080   0.427   3.759   5.082
 5061SOL     OW16081   3.561   3.665   4.347
 5061SOL    HW116082   3.527   3.710   4.430
 5061SOL    HW216083   3.646   3.617   4.368
 5062SOL     OW16084   4.719   1.146   2.877
 5062SOL    HW116085   4.810   1.163   2.914
 5062SOL    HW216086   4.720   1.058   2.828
 5063SOL     OW16087   1.482   6.430   2.239
 5063SOL    HW116088   1.426   6.347   2.235
 5063SOL    HW216089   1.541   6.427   2.320
 5064SOL     OW16090   4.353   5.573   0.698
 5064SOL    HW116091   4.355   5.535   0.790
 5064SOL    HW216092   4.405   5.515   0.636
 5065SOL     OW16093   2.329   6.937   3.256
 5065SOL    HW116094   2.381   6.942   3.170
 5065SOL    HW216095   2.388   6.903   3.329
 5066SOL     OW16096   1.889   4.632   1.902
 5066SOL    HW116097   1.811   4.693   1.892
 5066SOL    HW216098   1.931   4.646   1.992
 5067SOL     OW16099   4.159   2.099   1.680
 5067SOL    HW116100   4.172   2.187   1.633
 5067SOL    HW216101   4.083   2.108   1.745
 5068SOL     OW16102   3.738   5.965   0.708
 5068SOL    HW116103   3.726   5.872   0.673
 5068SOL    HW216104   3.807   5.964   0.780
 5069SOL     OW16105   2.906   4.158   6.502
 5069SOL    HW116106   2.941   4.159   6.409
 5069SOL    HW216107   2.971   4.111   6.562
 5070SOL     OW16108   5.543   3.368   4.126
 5070SOL    HW116109   5.518   3.272   4.139
 5070SOL    HW216110   5.643   3.376   4.124
 5071SOL     OW16111   3.876   1.094   3.662
 5071SOL    HW116112   3.960   1.148   3.669
 5071SOL    HW216113   3.894   1.000   3.691
 5072SOL     OW16114   1.246   0.727   1.228
 5072SOL    HW116115   1.276   0.809   1.180
 5072SOL    HW216116   1.211   0.661   1.162
 5073SOL     OW16117   2.644   6.582   2.518
 5073SOL    HW116118   2.685   6.522   2.588
 5073SOL    HW216119   2.618   6.526   2.439
 5074SOL     OW16120   3.925   1.769   1.598
 5074SOL    HW116121   3.854   1.704   1.570
 5074SOL    HW216122   3.899   1.813   1.684
 5075SOL     OW16123   1.752   3.092   6.973
 5075SOL    HW116124   1.798   3.164   0.002
 5075SOL    HW216125   1.808   3.065   6.895
 5076SOL     OW16126   5.286   1.158   0.326
 5076SOL    HW116127   5.252   1.161   0.420
 5076SOL    HW216128   5.359   1.225   0.315
 5077SOL     OW16129   1.256   4.317   4.466
 5077SOL    HW116130   1.326   4.314   4.394
 5077SOL    HW216131   1.299   4.298   4.554
 5078SOL     OW16132   0.489   1.412   3.731
 5078SOL    HW116133   0.530   1.325   3.703
 5078SOL    HW216134   0.538   1.487   3.688
 5079SOL     OW16135   1.763   2.312   5.936
 5079SOL    HW116136   1.713   2.226   5.926
 5079SOL    HW216137   1.836   2.317   5.867
 5080SOL     OW16138   6.217   5.536   5.833
 5080SOL    HW116139   6.243   5.506   5.925
 5080SOL    HW216140   6.233   5.461   5.768
 5081SOL     OW16141   3.527   6.178   5.072
 5081SOL    HW116142   3.454   6.244   5.060
 5081SOL    HW216143   3.580   6.200   5.154
 5082SOL     OW16144   4.748   6.369   0.724
 5082SOL    HW116145   4.809   6.302   0.767
 5082SOL    HW216146   4.653   6.340   0.736
 5083SOL     OW16147   2.670   0.646   2.614
 5083SOL    HW116148   2.617   0.731   2.610
 5083SOL    HW216149   2.694   0.627   2.709
 5084SOL     OW16150   0.919   5.183   5.590
 5084SOL    HW116151   0.975   5.111   5.549
 5084SOL    HW216152   0.962   5.272   5.575
 5085SOL     OW16153   1.571   3.787   5.903
 5085SOL    HW116154   1.487   3.835   5.877
 5085SOL    HW216155   1.648   3.825   5.851
 5086SOL     OW16156   0.998   4.864   2.742
 5086SOL    HW116157   0.967   4.881   2.648
 5086SOL    HW216158   1.078   4.804   2.739
 5087SOL     OW16159   6.844   5.522   2.514
 5087SOL    HW116160   6.759   5.469   2.522
 5087SOL    HW216161   6.835   5.588   2.439
 5088SOL     OW16162   4.353   5.928   2.207
 5088SOL    HW116163   4.414   5.978   2.268
 5088SOL    HW216164   4.287   5.876   2.261
 5089SOL     OW16165   5.230   3.769   4.567
 5089SOL    HW116166   5.133   3.788   4.577
 5089SOL    HW216167   5.251   3.680   4.607
 5090SOL     OW16168   1.499   0.235   3.569
 5090SOL    HW116169   1.446   0.180   3.505
 5090SOL    HW216170   1.508   0.184   3.656
 5091SOL     OW16171   6.467   0.017   0.288
 5091SOL    HW116172   6.499   0.103   0.249
 5091SOL    HW216173   6.418   0.035   0.373
 5092SOL     OW16174   3.561   4.052   4.383
 5092SOL    HW116175   3.485   4.070   4.321
 5092SOL    HW216176   3.645   4.043   4.330
 5093SOL     OW16177   2.207   1.332   2.463
 5093SOL    HW116178   2.196   1.384   2.378
 5093SOL    HW216179   2.294   1.357   2.506
 5094SOL     OW16180   2.608   5.444   6.302
 5094SOL    HW116181   2.665   5.386   6.359
 5094SOL    HW216182   2.562   5.512   6.359
 5095SOL     OW16183   0.529   1.234   3.494
 5095SOL    HW116184   0.440   1.213   3.452
 5095SOL    HW216185   0.590   1.274   3.425
 5096SOL     OW16186   5.113   4.101   6.010
 5096SOL    HW116187   5.082   4.165   6.081
 5096SOL    HW216188   5.132   4.012   6.051
 5097SOL     OW16189   6.437   6.856   6.396
 5097SOL    HW116190   6.425   6.920   6.320
 5097SOL    HW216191   6.439   6.907   6.482
 5098SOL     OW16192   3.955   2.072   2.089
 5098SOL    HW116193   3.976   2.085   2.186
 5098SOL    HW216194   3.862   2.103   2.070
 5099SOL     OW16195   0.383   6.085   1.549
 5099SOL    HW116196   0.373   6.138   1.464
 5099SOL    HW216197   0.434   6.139   1.616
 5100SOL     OW16198   4.890   4.484   2.876
 5100SOL    HW116199   4.894   4.531   2.964
 5100SOL    HW216200   4.801   4.499   2.834
 5101SOL     OW16201   3.963   0.085   5.662
 5101SOL    HW116202   3.923   0.154   5.601
 5101SOL    HW216203   3.913   7.022   5.653
 5102SOL     OW16204   4.895   5.784   4.017
 5102SOL    HW116205   4.831   5.848   4.059
 5102SOL    HW216206   4.913   5.709   4.080
 5103SOL     OW16207   0.587   0.863   5.002
 5103SOL    HW116208   0.673   0.888   4.959
 5103SOL    HW216209   0.551   0.941   5.053
 5104SOL     OW16210   3.395   6.214   2.091
 5104SOL    HW116211   3.343   6.229   2.176
 5104SOL    HW216212   3.450   6.295   2.071
 5105SOL     OW16213   3.522   3.604   6.984
 5105SOL    HW116214   3.517   3.571   0.056
 5105SOL    HW216215   3.458   3.551   6.927
 5106SOL     OW16216   4.095   2.372   0.627
 5106SOL    HW116217   4.014   2.367   0.685
 5106SOL    HW216218   4.077   2.434   0.550
 5107SOL     OW16219   5.290   2.521   1.406
 5107SOL    HW116220   5.256   2.443   1.354
 5107SOL    HW216221   5.223   2.547   1.476
 5108SOL     OW16222   4.372   4.408   5.975
 5108SOL    HW116223   4.361   4.334   5.909
 5108SOL    HW216224   4.283   4.433   6.013
 5109SOL     OW16225   2.032   3.296   1.646
 5109SOL    HW116226   2.013   3.295   1.745
 5109SOL    HW216227   2.126   3.265   1.630
 5110SOL     OW16228   6.277   6.636   6.046
 5110SOL    HW116229   6.328   6.554   6.069
 5110SOL    HW216230   6.196   6.611   5.993
 5111SOL     OW16231   1.215   6.209   4.718
 5111SOL    HW116232   1.143   6.143   4.738
 5111SOL    HW216233   1.247   6.251   4.804
 5112SOL     OW16234   0.966   6.954   2.829
 5112SOL    HW116235   1.006   6.903   2.754
 5112SOL    HW216236   0.924   0.015   2.794
 5113SOL     OW16237   1.947   5.117   0.724
 5113SOL    HW116238   1.959   5.017   0.727
 5113SOL    HW216239   1.973   5.152   0.635
 5114SOL     OW16240   3.798   0.085   0.591
 5114SOL    HW116241   3.804   0.061   0.688
 5114SOL    HW216242   3.890   0.094   0.553
 5115SOL     OW16243   1.858   3.711   1.660
 5115SOL    HW116244   1.914   3.715   1.578
 5115SOL    HW216245   1.908   3.662   1.732
 5116SOL     OW16246   2.764   6.945   6.489
 5116SOL    HW116247   2.840   6.893   6.529
 5116SOL    HW216248   2.680   6.892   6.496
 5117SOL     OW16249   0.878   2.974   4.023
 5117SOL    HW116250   0.819   2.942   4.097
 5117SOL    HW216251   0.921   2.896   3.978
 5118SOL     OW16252   6.012   0.518   0.308
 5118SOL    HW116253   5.960   0.542   0.390
 5118SOL    HW216254   6.104   0.489   0.335
 5119SOL     OW16255   5.314   2.051   0.528
 5119SOL    HW116256   5.251   2.121   0.495
 5119SOL    HW216257   5.408   2.079   0.511
 5120SOL     OW16258   5.271   0.520   5.139
 5120SOL    HW116259   5.238   0.610   5.112
 5120SOL    HW216260   5.360   0.529   5.184
 5121SOL     OW16261   3.268   3.927   6.827
 5121SOL    HW116262   3.362   3.914   6.794
 5121SOL    HW216263   3.269   3.973   6.915
 5122SOL     OW16264   4.012   5.316   3.042
 5122SOL    HW116265   3.955   5.355   3.115
 5122SOL    HW216266   4.068   5.388   3.001
 5123SOL     OW16267   5.425   2.027   2.050
 5123SOL    HW116268   5.327   2.042   2.044
 5123SOL    HW216269   5.473   2.094   1.994
 5124SOL     OW16270   1.858   6.250   3.900
 5124SOL    HW116271   1.862   6.341   3.858
 5124SOL    HW216272   1.920   6.247   3.978
 5125SOL     OW16273   0.477   1.730   4.008
 5125SOL    HW116274   0.472   1.630   4.003
 5125SOL    HW216275   0.412   1.764   4.075
 5126SOL     OW16276   1.547   6.741   0.545
 5126SOL    HW116277   1.583   6.678   0.476
 5126SOL    HW216278   1.623   6.785   0.592
 5127SOL     OW16279   1.767   5.636   0.263
 5127SOL    HW116280   1.809   5.576   0.331
 5127SOL    HW216281   1.838   5.670   0.201
 5128SOL     OW16282   0.170   5.943   1.246
 5128SOL    HW116283   0.231   5.912   1.173
 5128SOL    HW216284   0.202   5.907   1.333
 5129SOL     OW16285   4.312   5.992   1.318
 5129SOL    HW116286   4.400   6.035   1.335
 5129SOL    HW216287   4.238   6.053   1.347
 5130SOL     OW16288   6.387   4.975   2.902
 5130SOL    HW116289   6.419   5.015   2.816
 5130SOL    HW216290   6.422   4.882   2.911
 5131SOL     OW16291   0.759   2.955   3.322
 5131SOL    HW116292   0.851   2.931   3.290
 5131SOL    HW216293   0.707   2.872   3.342
 5132SOL     OW16294   3.472   4.110   6.176
 5132SOL    HW116295   3.542   4.098   6.106
 5132SOL    HW216296   3.515   4.106   6.267
 5133SOL     OW16297   3.263   5.492   6.896
 5133SOL    HW116298   3.349   5.536   6.920
 5133SOL    HW216299   3.190   5.525   6.956
 5134SOL     OW16300   0.478   2.960   1.345
 5134SOL    HW116301   0.563   2.947   1.397
 5134SOL    HW216302   0.452   2.875   1.301
 5135SOL     OW16303   6.904   2.104   5.616
 5135SOL    HW116304   6.879   2.044   5.540
 5135SOL    HW216305   6.997   2.082   5.647
 5136SOL     OW16306   5.330   0.558   4.665
 5136SOL    HW116307   5.289   0.628   4.723
 5136SOL    HW216308   5.426   0.547   4.689
 5137SOL     OW16309   5.785   3.599   6.413
 5137SOL    HW116310   5.774   3.518   6.472
 5137SOL    HW216311   5.823   3.674   6.466
 5138SOL     OW16312   3.912   3.026   6.551
 5138SOL    HW116313   3.814   3.006   6.555
 5138SOL    HW216314   3.943   3.022   6.456
 5139SOL     OW16315   1.988   6.567   4.220
 5139SOL    HW116316   1.987   6.475   4.260
 5139SOL    HW216317   2.069   6.578   4.163
 5140SOL     OW16318   2.572   1.799   0.616
 5140SOL    HW116319   2.507   1.797   0.692
 5140SOL    HW216320   2.606   1.893   0.603
 5141SOL     OW16321   5.591   3.981   1.342
 5141SOL    HW116322   5.510   3.955   1.396
 5141SOL    HW216323   5.662   3.911   1.353
 5142SOL     OW16324   6.074   2.959   4.439
 5142SOL    HW116325   6.165   2.917   4.446
 5142SOL    HW216326   6.025   2.918   4.362
 5143SOL     OW16327   1.184   4.770   4.436
 5143SOL    HW116328   1.159   4.865   4.455
 5143SOL    HW216329   1.283   4.760   4.446
 5144SOL     OW16330   1.784   6.766   6.137
 5144SOL    HW116331   1.685   6.782   6.137
 5144SOL    HW216332   1.832   6.851   6.159
 5145SOL     OW16333   1.991   5.600   6.176
 5145SOL    HW116334   1.973   5.510   6.214
 5145SOL    HW216335   1.933   5.668   6.221
 5146SOL     OW16336   3.885   3.874   6.668
 5146SOL    HW116337   3.916   3.785   6.634
 5146SOL    HW216338   3.964   3.931   6.690
 5147SOL     OW16339   0.136   4.457   1.442
 5147SOL    HW116340   0.117   4.538   1.497
 5147SOL    HW216341   0.157   4.483   1.348
 5148SOL     OW16342   0.484   6.200   1.292
 5148SOL    HW116343   0.488   6.126   1.226
 5148SOL    HW216344   0.552   6.270   1.269
 5149SOL     OW16345   6.426   0.462   3.561
 5149SOL    HW116346   6.346   0.411   3.594
 5149SOL    HW216347   6.441   0.542   3.619
 5150SOL     OW16348   2.013   5.704   4.040
 5150SOL    HW116349   2.031   5.656   4.126
 5150SOL    HW216350   2.096   5.707   3.985
 5151SOL     OW16351   5.500   1.324   6.462
 5151SOL    HW116352   5.527   1.246   6.520
 5151SOL    HW216353   5.569   1.396   6.469
 5152SOL     OW16354   1.922   5.012   0.177
 5152SOL    HW116355   1.963   4.921   0.177
 5152SOL    HW216356   1.823   5.004   0.189
 5153SOL     OW16357   1.958   2.294   0.372
 5153SOL    HW116358   2.058   2.304   0.381
 5153SOL    HW216359   1.930   2.207   0.410
 5154SOL     OW16360   1.960   3.385   5.998
 5154SOL    HW116361   1.938   3.479   5.971
 5154SOL    HW216362   1.945   3.374   6.096
 5155SOL     OW16363   3.630   6.007   2.063
 5155SOL    HW116364   3.564   6.081   2.047
 5155SOL    HW216365   3.581   5.920   2.072
 5156SOL     OW16366   6.432   2.300   6.402
 5156SOL    HW116367   6.399   2.392   6.381
 5156SOL    HW216368   6.462   2.255   6.318
 5157SOL     OW16369   4.755   2.906   3.710
 5157SOL    HW116370   4.779   2.896   3.614
 5157SOL    HW216371   4.711   2.823   3.743
 5158SOL     OW16372   3.306   1.921   1.388
 5158SOL    HW116373   3.248   1.968   1.455
 5158SOL    HW216374   3.395   1.966   1.385
 5159SOL     OW16375   0.448   3.269   4.140
 5159SOL    HW116376   0.547   3.279   4.143
 5159SOL    HW216377   0.419   3.245   4.047
 5160SOL     OW16378   1.522   3.655   4.178
 5160SOL    HW116379   1.479   3.710   4.105
 5160SOL    HW216380   1.605   3.612   4.142
 5161SOL     OW16381   1.484   4.503   5.605
 5161SOL    HW116382   1.504   4.598   5.583
 5161SOL    HW216383   1.499   4.487   5.703
 5162SOL     OW16384   6.783   4.890   4.267
 5162SOL    HW116385   6.882   4.905   4.262
 5162SOL    HW216386   6.758   4.812   4.209
 5163SOL     OW16387   4.882   4.931   1.197
 5163SOL    HW116388   4.963   4.975   1.235
 5163SOL    HW216389   4.843   4.868   1.264
 5164SOL     OW16390   5.653   2.691   5.286
 5164SOL    HW116391   5.665   2.664   5.381
 5164SOL    HW216392   5.577   2.755   5.279
 5165SOL     OW16393   5.964   4.651   5.118
 5165SOL    HW116394   5.935   4.562   5.083
 5165SOL    HW216395   6.007   4.639   5.208
 5166SOL     OW16396   1.568   5.067   1.900
 5166SOL    HW116397   1.661   5.051   1.869
 5166SOL    HW216398   1.542   4.996   1.965
 5167SOL     OW16399   6.326   6.616   5.411
 5167SOL    HW116400   6.258   6.633   5.339
 5167SOL    HW216401   6.409   6.667   5.390
 5168SOL     OW16402   4.361   2.382   3.190
 5168SOL    HW116403   4.404   2.453   3.245
 5168SOL    HW216404   4.385   2.396   3.094
 5169SOL     OW16405   3.178   4.080   6.345
 5169SOL    HW116406   3.177   4.142   6.266
 5169SOL    HW216407   3.205   4.130   6.427
 5170SOL     OW16408   6.903   4.461   5.341
 5170SOL    HW116409   6.924   4.439   5.436
 5170SOL    HW216410   6.831   4.400   5.308
 5171SOL     OW16411   2.430   4.528   4.519
 5171SOL    HW116412   2.376   4.445   4.512
 5171SOL    HW216413   2.402   4.580   4.600
 5172SOL     OW16414   0.350   3.167   1.733
 5172SOL    HW116415   0.296   3.232   1.785
 5172SOL    HW216416   0.446   3.174   1.760
 5173SOL     OW16417   5.543   4.466   6.279
 5173SOL    HW116418   5.469   4.404   6.305
 5173SOL    HW216419   5.630   4.428   6.312
 5174SOL     OW16420   2.201   4.736   4.922
 5174SOL    HW116421   2.257   4.702   4.846
 5174SOL    HW216422   2.254   4.803   4.975
 5175SOL     OW16423   2.035   3.944   0.085
 5175SOL    HW116424   2.007   3.939   0.181
 5175SOL    HW216425   2.029   3.853   0.044
 5176SOL     OW16426   4.382   3.226   0.309
 5176SOL    HW116427   4.303   3.207   0.251
 5176SOL    HW216428   4.442   3.146   0.310
 5177SOL     OW16429   4.749   0.062   5.316
 5177SOL    HW116430   4.685   0.035   5.387
 5177SOL    HW216431   4.751   0.162   5.309
 5178SOL     OW16432   2.420   2.519   1.503
 5178SOL    HW116433   2.490   2.500   1.435
 5178SOL    HW216434   2.423   2.615   1.529
 5179SOL     OW16435   4.493   6.549   5.208
 5179SOL    HW116436   4.521   6.584   5.119
 5179SOL    HW216437   4.482   6.625   5.272
 5180SOL     OW16438   3.560   2.626   7.008
 5180SOL    HW116439   3.526   2.627   0.080
 5180SOL    HW216440   3.609   2.540   6.991
 5181SOL     OW16441   3.656   0.403   2.775
 5181SOL    HW116442   3.607   0.447   2.699
 5181SOL    HW216443   3.740   0.454   2.793
 5182SOL     OW16444   5.660   4.937   1.764
 5182SOL    HW116445   5.722   4.878   1.712
 5182SOL    HW216446   5.574   4.947   1.714
 5183SOL     OW16447   4.467   6.964   1.758
 5183SOL    HW116448   4.540   6.897   1.751
 5183SOL    HW216449   4.449   6.985   1.854
 5184SOL     OW16450   1.006   1.226   3.436
 5184SOL    HW116451   0.953   1.145   3.460
 5184SOL    HW216452   1.050   1.263   3.518
 5185SOL     OW16453   3.822   6.611   2.537
 5185SOL    HW116454   3.896   6.586   2.474
 5185SOL    HW216455   3.749   6.657   2.485
 5186SOL     OW16456   6.263   3.372   1.262
 5186SOL    HW116457   6.326   3.364   1.185
 5186SOL    HW216458   6.288   3.306   1.332
 5187SOL     OW16459   6.777   1.455   3.125
 5187SOL    HW116460   6.708   1.490   3.062
 5187SOL    HW216461   6.868   1.481   3.093
 5188SOL     OW16462   0.317   5.180   6.904
 5188SOL    HW116463   0.293   5.107   6.839
 5188SOL    HW216464   0.393   5.149   6.962
 5189SOL     OW16465   5.035   5.031   6.791
 5189SOL    HW116466   5.131   5.008   6.807
 5189SOL    HW216467   5.029   5.125   6.756
 5190SOL     OW16468   0.759   2.168   4.106
 5190SOL    HW116469   0.748   2.081   4.059
 5190SOL    HW216470   0.676   2.189   4.158
 5191SOL     OW16471   3.170   1.360   2.090
 5191SOL    HW116472   3.135   1.370   2.184
 5191SOL    HW216473   3.179   1.263   2.068
 5192SOL     OW16474   5.121   5.454   2.755
 5192SOL    HW116475   5.218   5.436   2.738
 5192SOL    HW216476   5.067   5.375   2.726
 5193SOL     OW16477   4.660   4.305   3.691
 5193SOL    HW116478   4.577   4.361   3.686
 5193SOL    HW216479   4.739   4.363   3.674
 5194SOL     OW16480   5.135   0.977   5.803
 5194SOL    HW116481   5.162   1.067   5.770
 5194SOL    HW216482   5.100   0.984   5.896
 5195SOL     OW16483   6.725   6.749   4.841
 5195SOL    HW116484   6.653   6.718   4.779
 5195SOL    HW216485   6.718   6.700   4.928
 5196SOL     OW16486   0.822   4.331   1.706
 5196SOL    HW116487   0.853   4.353   1.614
 5196SOL    HW216488   0.755   4.258   1.702
 5197SOL     OW16489   1.584   6.435   4.692
 5197SOL    HW116490   1.524   6.441   4.772
 5197SOL    HW216491   1.574   6.345   4.650
 5198SOL     OW16492   2.702   6.623   5.160
 5198SOL    HW116493   2.647   6.603   5.079
 5198SOL    HW216494   2.786   6.670   5.133
 5199SOL     OW16495   1.970   5.498   1.361
 5199SOL    HW116496   1.891   5.541   1.318
 5199SOL    HW216497   2.038   5.568   1.383
 5200SOL     OW16498   1.047   1.917   4.672
 5200SOL    HW116499   1.082   1.825   4.657
 5200SOL    HW216500   1.080   1.977   4.599
 5201SOL     OW16501   5.428   4.822   4.033
 5201SOL    HW116502   5.433   4.802   4.131
 5201SOL    HW216503   5.380   4.747   3.986
 5202SOL     OW16504   4.898   3.155   6.611
 5202SOL    HW116505   4.818   3.108   6.649
 5202SOL    HW216506   4.868   3.237   6.563
 5203SOL     OW16507   1.473   0.195   0.167
 5203SOL    HW116508   1.467   0.096   0.170
 5203SOL    HW216509   1.393   0.235   0.213
 5204SOL     OW16510   3.507   6.867   6.613
 5204SOL    HW116511   3.471   6.794   6.672
 5204SOL    HW216512   3.507   6.953   6.664
 5205SOL     OW16513   6.707   6.017   0.985
 5205SOL    HW116514   6.658   6.102   1.001
 5205SOL    HW216515   6.786   6.011   1.046
 5206SOL     OW16516   0.556   4.236   4.623
 5206SOL    HW116517   0.611   4.153   4.617
 5206SOL    HW216518   0.506   4.237   4.710
 5207SOL     OW16519   0.272   6.856   4.622
 5207SOL    HW116520   0.184   6.867   4.576
 5207SOL    HW216521   0.324   6.941   4.615
 5208SOL     OW16522   4.950   2.443   0.260
 5208SOL    HW116523   4.917   2.354   0.230
 5208SOL    HW216524   4.989   2.492   0.181
 5209SOL     OW16525   4.839   0.257   3.267
 5209SOL    HW116526   4.806   0.260   3.173
 5209SOL    HW216527   4.923   0.202   3.270
 5210SOL     OW16528   5.418   4.445   1.171
 5210SOL    HW116529   5.324   4.426   1.141
 5210SOL    HW216530   5.445   4.380   1.242
 5211SOL     OW16531   4.907   2.085   4.103
 5211SOL    HW116532   4.874   2.093   4.009
 5211SOL    HW216533   4.830   2.089   4.167
 5212SOL     OW16534   1.507   2.487   0.857
 5212SOL    HW116535   1.483   2.584   0.865
 5212SOL    HW216536   1.425   2.434   0.835
 5213SOL     OW16537   4.085   3.243   2.666
 5213SOL    HW116538   4.107   3.273   2.573
 5213SOL    HW216539   3.998   3.193   2.665
 5214SOL     OW16540   5.588   4.726   6.318
 5214SOL    HW116541   5.493   4.747   6.343
 5214SOL    HW216542   5.595   4.628   6.297
 5215SOL     OW16543   6.770   3.135   4.527
 5215SOL    HW116544   6.801   3.213   4.581
 5215SOL    HW216545   6.822   3.054   4.554
 5216SOL     OW16546   5.554   4.699   1.143
 5216SOL    HW116547   5.528   4.732   1.233
 5216SOL    HW216548   5.489   4.629   1.113
 5217SOL     OW16549   4.186   5.634   3.942
 5217SOL    HW116550   4.207   5.589   4.029
 5217SOL    HW216551   4.174   5.732   3.958
 5218SOL     OW16552   0.610   0.565   0.524
 5218SOL    HW116553   0.619   0.500   0.448
 5218SOL    HW216554   0.536   0.536   0.585
 5219SOL     OW16555   2.390   2.316   5.075
 5219SOL    HW116556   2.435   2.250   5.015
 5219SOL    HW216557   2.439   2.402   5.072
 5220SOL     OW16558   2.529   5.089   3.126
 5220SOL    HW116559   2.541   5.144   3.043
 5220SOL    HW216560   2.575   5.135   3.202
 5221SOL     OW16561   6.919   0.067   1.459
 5221SOL    HW116562   6.940   0.165   1.450
 5221SOL    HW216563   6.968   0.031   1.539
 5222SOL     OW16564   3.941   4.606   1.141
 5222SOL    HW116565   3.991   4.644   1.218
 5222SOL    HW216566   4.004   4.595   1.063
 5223SOL     OW16567   0.359   2.868   0.779
 5223SOL    HW116568   0.402   2.948   0.822
 5223SOL    HW216569   0.354   2.882   0.680
 5224SOL     OW16570   0.694   1.791   4.296
 5224SOL    HW116571   0.748   1.739   4.362
 5224SOL    HW216572   0.607   1.745   4.280
 5225SOL     OW16573   6.549   1.159   4.809
 5225SOL    HW116574   6.569   1.190   4.716
 5225SOL    HW216575   6.490   1.226   4.855
 5226SOL     OW16576   0.327   5.815   3.814
 5226SOL    HW116577   0.396   5.743   3.817
 5226SOL    HW216578   0.369   5.900   3.784
 5227SOL     OW16579   6.948   3.085   5.533
 5227SOL    HW116580   6.980   3.141   5.456
 5227SOL    HW216581   0.001   3.073   5.598
 5228SOL     OW16582   1.557   2.839   5.672
 5228SOL    HW116583   1.579   2.828   5.575
 5228SOL    HW216584   1.627   2.794   5.727
 5229SOL     OW16585   3.111   0.331   6.371
 5229SOL    HW116586   3.066   0.246   6.400
 5229SOL    HW216587   3.054   0.377   6.302
 5230SOL     OW16588   6.745   0.305   1.919
 5230SOL    HW116589   6.761   0.232   1.853
 5230SOL    HW216590   6.796   0.386   1.892
 5231SOL     OW16591   5.790   1.648   3.186
 5231SOL    HW116592   5.871   1.706   3.176
 5231SOL    HW216593   5.722   1.695   3.241
 5232SOL     OW16594   2.027   3.851   5.827
 5232SOL    HW116595   2.014   3.777   5.761
 5232SOL    HW216596   2.110   3.902   5.803
 5233SOL     OW16597   2.736   0.466   2.825
 5233SOL    HW116598   2.668   0.428   2.762
 5233SOL    HW216599   2.798   0.393   2.855
 5234SOL     OW16600   1.743   2.346   0.710
 5234SOL    HW116601   1.656   2.359   0.757
 5234SOL    HW216602   1.776   2.434   0.676
 5235SOL     OW16603   2.360   1.550   1.059
 5235SOL    HW116604   2.291   1.484   1.028
 5235SOL    HW216605   2.390   1.526   1.151
 5236SOL     OW16606   3.538   5.224   2.311
 5236SOL    HW116607   3.515   5.320   2.327
 5236SOL    HW216608   3.458   5.176   2.276
 5237SOL     OW16609   2.015   2.512   4.503
 5237SOL    HW116610   2.065   2.434   4.539
 5237SOL    HW216611   1.994   2.575   4.577
 5238SOL     OW16612   1.174   5.274   3.003
 5238SOL    HW116613   1.122   5.357   2.984
 5238SOL    HW216614   1.184   5.263   3.102
 5239SOL     OW16615   3.158   3.902   1.598
 5239SOL    HW116616   3.245   3.882   1.644
 5239SOL    HW216617   3.095   3.943   1.663
 5240SOL     OW16618   2.865   2.885   6.239
 5240SOL    HW116619   2.811   2.934   6.170
 5240SOL    HW216620   2.841   2.788   6.238
 5241SOL     OW16621   1.288   6.084   2.167
 5241SOL    HW116622   1.208   6.059   2.222
 5241SOL    HW216623   1.260   6.144   2.093
 5242SOL     OW16624   4.643   0.873   0.856
 5242SOL    HW116625   4.724   0.929   0.843
 5242SOL    HW216626   4.658   0.809   0.931
 5243SOL     OW16627   1.951   5.775   1.560
 5243SOL    HW116628   2.012   5.793   1.637
 5243SOL    HW216629   2.005   5.766   1.476
 5244SOL     OW16630   4.755   3.713   0.642
 5244SOL    HW116631   4.705   3.764   0.713
 5244SOL    HW216632   4.848   3.695   0.675
 5245SOL     OW16633   4.253   4.182   6.946
 5245SOL    HW116634   4.351   4.177   6.964
 5245SOL    HW216635   4.211   4.249   7.007
 5246SOL     OW16636   6.972   2.646   1.735
 5246SOL    HW116637   6.908   2.570   1.728
 5246SOL    HW216638   6.959   2.692   1.823
 5247SOL     OW16639   3.874   1.753   5.760
 5247SOL    HW116640   3.783   1.718   5.740
 5247SOL    HW216641   3.941   1.710   5.699
 5248SOL     OW16642   6.842   1.860   2.672
 5248SOL    HW116643   6.772   1.908   2.620
 5248SOL    HW216644   6.850   1.900   2.763
 5249SOL     OW16645   0.770   4.714   0.227
 5249SOL    HW116646   0.690   4.693   0.285
 5249SOL    HW216647   0.807   4.630   0.189
 5250SOL     OW16648   1.995   5.553   0.031
 5250SOL    HW116649   2.001   5.641   0.079
 5250SOL    HW216650   1.986   5.479   0.098
 5251SOL     OW16651   0.836   4.102   1.131
 5251SOL    HW116652   0.883   4.100   1.043
 5251SOL    HW216653   0.830   4.009   1.168
 5252SOL     OW16654   3.223   6.482   2.292
 5252SOL    HW116655   3.222   6.383   2.305
 5252SOL    HW216656   3.147   6.509   2.233
 5253SOL     OW16657   5.472   4.702   4.599
 5253SOL    HW116658   5.498   4.697   4.695
 5253SOL    HW216659   5.527   4.638   4.546
 5254SOL     OW16660   6.032   0.090   2.845
 5254SOL    HW116661   5.956   0.071   2.907
 5254SOL    HW216662   6.118   0.061   2.887
 5255SOL     OW16663   5.741   1.846   5.002
 5255SOL    HW116664   5.658   1.901   5.010
 5255SOL    HW216665   5.796   1.879   4.925
 5256SOL     OW16666   4.842   1.020   3.230
 5256SOL    HW116667   4.819   1.107   3.274
 5256SOL    HW216668   4.927   1.031   3.178
 5257SOL     OW16669   4.079   0.477   6.407
 5257SOL    HW116670   4.084   0.480   6.307
 5257SOL    HW216671   4.126   0.557   6.445
 5258SOL     OW16672   5.261   1.345   2.573
 5258SOL    HW116673   5.162   1.351   2.562
 5258SOL    HW216674   5.291   1.410   2.643
 5259SOL     OW16675   5.188   5.248   3.010
 5259SOL    HW116676   5.088   5.247   2.999
 5259SOL    HW216677   5.231   5.231   2.921
 5260SOL     OW16678   2.888   6.267   0.268
 5260SOL    HW116679   2.891   6.168   0.257
 5260SOL    HW216680   2.794   6.299   0.256
 5261SOL     OW16681   6.752   4.916   0.794
 5261SOL    HW116682   6.739   4.817   0.804
 5261SOL    HW216683   6.663   4.960   0.785
 5262SOL     OW16684   2.077   0.208   2.282
 5262SOL    HW116685   2.148   0.146   2.314
 5262SOL    HW216686   2.118   0.298   2.263
 5263SOL     OW16687   1.468   1.062   3.405
 5263SOL    HW116688   1.454   1.137   3.341
 5263SOL    HW216689   1.380   1.019   3.425
 5264SOL     OW16690   6.857   2.044   1.425
 5264SOL    HW116691   6.871   2.014   1.519
 5264SOL    HW216692   6.939   2.090   1.392
 5265SOL     OW16693   5.503   2.712   4.636
 5265SOL    HW116694   5.450   2.786   4.595
 5265SOL    HW216695   5.496   2.631   4.578
 5266SOL     OW16696   2.233   6.293   0.676
 5266SOL    HW116697   2.229   6.276   0.774
 5266SOL    HW216698   2.324   6.328   0.652
 5267SOL     OW16699   4.483   2.462   4.252
 5267SOL    HW116700   4.499   2.370   4.215
 5267SOL    HW216701   4.481   2.458   4.352
 5268SOL     OW16702   5.518   1.133   6.852
 5268SOL    HW116703   5.570   1.120   6.768
 5268SOL    HW216704   5.563   1.203   6.908
 5269SOL     OW16705   0.308   6.678   2.275
 5269SOL    HW116706   0.351   6.706   2.190
 5269SOL    HW216707   0.370   6.617   2.325
 5270SOL     OW16708   6.560   1.909   0.116
 5270SOL    HW116709   6.566   1.813   0.087
 5270SOL    HW216710   6.465   1.932   0.139
 5271SOL     OW16711   6.156   5.695   4.517
 5271SOL    HW116712   6.230   5.627   4.509
 5271SOL    HW216713   6.123   5.695   4.612
 5272SOL     OW16714   3.698   6.954   0.378
 5272SOL    HW116715   3.721   7.004   0.462
 5272SOL    HW216716   3.690   6.856   0.399
 5273SOL     OW16717   1.037   3.327   2.946
 5273SOL    HW116718   1.014   3.359   2.854
 5273SOL    HW216719   0.955   3.289   2.989
 5274SOL     OW16720   4.660   6.402   2.373
 5274SOL    HW116721   4.713   6.322   2.402
 5274SOL    HW216722   4.609   6.380   2.290
 5275SOL     OW16723   2.927   0.659   0.663
 5275SOL    HW116724   2.946   0.738   0.721
 5275SOL    HW216725   2.920   0.688   0.568
 5276SOL     OW16726   2.568   6.666   1.586
 5276SOL    HW116727   2.562   6.733   1.660
 5276SOL    HW216728   2.601   6.579   1.623
 5277SOL     OW16729   2.244   1.030   2.374
 5277SOL    HW116730   2.184   1.103   2.407
 5277SOL    HW216731   2.309   1.006   2.447
 5278SOL     OW16732   4.099   4.970   2.509
 5278SOL    HW116733   4.033   5.032   2.550
 5278SOL    HW216734   4.161   4.936   2.580
 5279SOL     OW16735   2.348   5.579   1.383
 5279SOL    HW116736   2.441   5.613   1.367
 5279SOL    HW216737   2.349   5.515   1.460
 5280SOL     OW16738   3.298   6.333   5.079
 5280SOL    HW116739   3.244   6.258   5.041
 5280SOL    HW216740   3.266   6.354   5.171
 5281SOL     OW16741   0.442   1.537   2.642
 5281SOL    HW116742   0.504   1.490   2.704
 5281SOL    HW216743   0.473   1.631   2.629
 5282SOL     OW16744   2.617   2.056   3.366
 5282SOL    HW116745   2.525   2.095   3.354
 5282SOL    HW216746   2.685   2.129   3.364
 5283SOL     OW16747   5.124   5.463   0.812
 5283SOL    HW116748   5.144   5.545   0.865
 5283SOL    HW216749   5.045   5.416   0.852
 5284SOL     OW16750   5.242   3.666   3.265
 5284SOL    HW116751   5.277   3.699   3.353
 5284SOL    HW216752   5.318   3.634   3.208
 5285SOL     OW16753   3.115   5.161   3.971
 5285SOL    HW116754   3.087   5.105   3.893
 5285SOL    HW216755   3.204   5.202   3.953
 5286SOL     OW16756   1.639   4.400   1.100
 5286SOL    HW116757   1.567   4.404   1.169
 5286SOL    HW216758   1.711   4.337   1.131
 5287SOL     OW16759   2.469   1.394   0.461
 5287SOL    HW116760   2.401   1.412   0.532
 5287SOL    HW216761   2.559   1.421   0.493
 5288SOL     OW16762   3.019   0.290   1.107
 5288SOL    HW116763   2.939   0.250   1.063
 5288SOL    HW216764   3.069   0.346   1.041
 5289SOL     OW16765   0.987   5.266   1.007
 5289SOL    HW116766   0.937   5.224   0.931
 5289SOL    HW216767   0.979   5.208   1.088
 5290SOL     OW16768   3.669   5.693   0.134
 5290SOL    HW116769   3.607   5.615   0.139
 5290SOL    HW216770   3.621   5.770   0.090
 5291SOL     OW16771   2.285   4.960   5.560
 5291SOL    HW116772   2.191   4.970   5.527
 5291SOL    HW216773   2.340   5.036   5.525
 5292SOL     OW16774   5.280   3.282   6.326
 5292SOL    HW116775   5.373   3.260   6.296
 5292SOL    HW216776   5.278   3.286   6.426
 5293SOL     OW16777   0.503   0.224   4.119
 5293SOL    HW116778   0.457   0.140   4.147
 5293SOL    HW216779   0.500   0.290   4.194
 5294SOL     OW16780   5.891   3.070   6.066
 5294SOL    HW116781   5.977   3.076   6.117
 5294SOL    HW216782   5.820   3.029   6.124
 5295SOL     OW16783   5.787   0.623   2.932
 5295SOL    HW116784   5.698   0.648   2.970
 5295SOL    HW216785   5.859   0.651   2.995
 5296SOL     OW16786   1.231   4.523   0.628
 5296SOL    HW116787   1.143   4.571   0.636
 5296SOL    HW216788   1.268   4.506   0.719
 5297SOL     OW16789   2.030   1.243   1.169
 5297SOL    HW116790   2.046   1.262   1.266
 5297SOL    HW216791   1.943   1.193   1.159
 5298SOL     OW16792   6.887   4.992   1.038
 5298SOL    HW116793   6.855   4.970   0.946
 5298SOL    HW216794   6.825   4.951   1.105
 5299SOL     OW16795   2.922   0.825   1.800
 5299SOL    HW116796   2.921   0.772   1.885
 5299SOL    HW216797   2.837   0.878   1.793
 5300SOL     OW16798   0.056   6.285   3.686
 5300SOL    HW116799   0.084   6.294   3.590
 5300SOL    HW216800   0.007   6.199   3.698
 5301SOL     OW16801   4.272   1.352   6.858
 5301SOL    HW116802   4.182   1.358   6.814
 5301SOL    HW216803   4.333   1.297   6.801
 5302SOL     OW16804   6.087   4.372   2.592
 5302SOL    HW116805   6.158   4.377   2.663
 5302SOL    HW216806   6.007   4.424   2.621
 5303SOL     OW16807   6.099   4.055   3.770
 5303SOL    HW116808   6.083   3.967   3.726
 5303SOL    HW216809   6.114   4.042   3.868
 5304SOL     OW16810   4.960   1.569   5.579
 5304SOL    HW116811   5.017   1.642   5.539
 5304SOL    HW216812   4.961   1.577   5.678
 5305SOL     OW16813   2.659   1.006   3.335
 5305SOL    HW116814   2.735   0.963   3.385
 5305SOL    HW216815   2.573   0.983   3.380
 5306SOL     OW16816   3.101   6.394   6.416
 5306SOL    HW116817   3.050   6.475   6.445
 5306SOL    HW216818   3.041   6.333   6.364
 5307SOL     OW16819   4.626   6.876   6.693
 5307SOL    HW116820   4.579   6.837   6.772
 5307SOL    HW216821   4.643   6.804   6.626
 5308SOL     OW16822   7.009   1.207   3.388
 5308SOL    HW116823   6.920   1.182   3.350
 5308SOL    HW216824   0.058   1.160   3.336
 5309SOL     OW16825   3.602   4.124   3.363
 5309SOL    HW116826   3.518   4.128   3.417
 5309SOL    HW216827   3.681   4.128   3.424
 5310SOL     OW16828   5.246   1.882   1.509
 5310SOL    HW116829   5.210   1.790   1.498
 5310SOL    HW216830   5.210   1.922   1.594
 5311SOL     OW16831   1.927   5.384   6.868
 5311SOL    HW116832   1.911   5.289   6.892
 5311SOL    HW216833   1.963   5.434   6.946
 5312SOL     OW16834   0.762   4.022   3.410
 5312SOL    HW116835   0.820   4.016   3.329
 5312SOL    HW216836   0.804   4.085   3.476
 5313SOL     OW16837   1.016   5.913   6.452
 5313SOL    HW116838   1.005   5.951   6.360
 5313SOL    HW216839   0.938   5.939   6.508
 5314SOL     OW16840   4.170   5.121   0.160
 5314SOL    HW116841   4.175   5.149   0.064
 5314SOL    HW216842   4.190   5.199   0.219
 5315SOL     OW16843   5.884   3.034   1.908
 5315SOL    HW116844   5.790   3.036   1.944
 5315SOL    HW216845   5.917   3.128   1.898
 5316SOL     OW16846   6.879   4.431   3.992
 5316SOL    HW116847   6.785   4.432   3.957
 5316SOL    HW216848   6.900   4.339   4.026
 5317SOL     OW16849   5.161   6.858   2.538
 5317SOL    HW116850   5.094   6.809   2.482
 5317SOL    HW216851   5.129   6.951   2.555
 5318SOL     OW16852   0.710   2.847   4.203
 5318SOL    HW116853   0.781   2.803   4.258
 5318SOL    HW216854   0.652   2.904   4.262
 5319SOL     OW16855   4.785   0.403   0.426
 5319SOL    HW116856   4.850   0.377   0.497
 5319SOL    HW216857   4.708   0.452   0.468
 5320SOL     OW16858   5.800   3.959   6.351
 5320SOL    HW116859   5.798   3.933   6.255
 5320SOL    HW216860   5.829   4.054   6.359
 5321SOL     OW16861   1.717   5.528   5.765
 5321SOL    HW116862   1.664   5.563   5.842
 5321SOL    HW216863   1.673   5.447   5.728
 5322SOL     OW16864   3.069   5.310   6.733
 5322SOL    HW116865   3.098   5.249   6.659
 5322SOL    HW216866   3.129   5.297   6.812
 5323SOL     OW16867   4.668   2.166   0.713
 5323SOL    HW116868   4.598   2.193   0.778
 5323SOL    HW216869   4.755   2.208   0.739
 5324SOL     OW16870   3.980   2.776   1.721
 5324SOL    HW116871   4.035   2.859   1.711
 5324SOL    HW216872   3.888   2.793   1.687
 5325SOL     OW16873   5.539   6.445   2.404
 5325SOL    HW116874   5.469   6.460   2.473
 5325SOL    HW216875   5.626   6.423   2.449
 5326SOL     OW16876   6.759   6.140   1.294
 5326SOL    HW116877   6.791   6.234   1.307
 5326SOL    HW216878   6.816   6.094   1.226
 5327SOL     OW16879   6.547   6.943   4.218
 5327SOL    HW116880   6.644   6.953   4.239
 5327SOL    HW216881   6.503   0.011   4.222
 5328SOL     OW16882   3.882   4.225   0.416
 5328SOL    HW116883   3.857   4.181   0.329
 5328SOL    HW216884   3.848   4.169   0.492
 5329SOL     OW16885   0.162   4.572   0.518
 5329SOL    HW116886   0.148   4.667   0.548
 5329SOL    HW216887   0.089   4.514   0.554
 5330SOL     OW16888   4.154   3.872   1.299
 5330SOL    HW116889   4.065   3.885   1.342
 5330SOL    HW216890   4.153   3.907   1.206
 5331SOL     OW16891   4.540   2.717   0.211
 5331SOL    HW116892   4.469   2.663   0.165
 5331SOL    HW216893   4.497   2.788   0.266
 5332SOL     OW16894   5.992   3.959   0.578
 5332SOL    HW116895   6.001   3.963   0.678
 5332SOL    HW216896   6.079   3.985   0.536
 5333SOL     OW16897   2.145   1.140   3.378
 5333SOL    HW116898   2.166   1.070   3.445
 5333SOL    HW216899   2.114   1.223   3.424
 5334SOL     OW16900   4.398   4.618   2.757
 5334SOL    HW116901   4.366   4.621   2.662
 5334SOL    HW216902   4.497   4.607   2.758
 5335SOL     OW16903   0.148   4.745   1.826
 5335SOL    HW116904   0.224   4.729   1.888
 5335SOL    HW216905   0.135   4.844   1.814
 5336SOL     OW16906   1.883   1.936   4.366
 5336SOL    HW116907   1.861   2.033   4.378
 5336SOL    HW216908   1.802   1.888   4.332
 5337SOL     OW16909   6.896   4.490   1.307
 5337SOL    HW116910   6.972   4.472   1.370
 5337SOL    HW216911   6.827   4.418   1.318
 5338SOL     OW16912   0.018   3.521   0.765
 5338SOL    HW116913   0.018   3.591   0.693
 5338SOL    HW216914   6.975   3.449   0.741
 5339SOL     OW16915   6.093   2.710   2.611
 5339SOL    HW116916   6.025   2.675   2.546
 5339SOL    HW216917   6.185   2.692   2.575
 5340SOL     OW16918   5.673   2.362   2.572
 5340SOL    HW116919   5.579   2.396   2.579
 5340SOL    HW216920   5.716   2.365   2.662
 5341SOL     OW16921   4.722   5.303   3.271
 5341SOL    HW116922   4.676   5.392   3.272
 5341SOL    HW216923   4.698   5.252   3.354
 5342SOL     OW16924   6.123   6.781   4.502
 5342SOL    HW116925   6.204   6.723   4.511
 5342SOL    HW216926   6.058   6.737   4.441
 5343SOL     OW16927   4.059   3.686   5.599
 5343SOL    HW116928   4.123   3.751   5.640
 5343SOL    HW216929   4.102   3.644   5.519
 5344SOL     OW16930   0.816   1.632   6.128
 5344SOL    HW116931   0.875   1.551   6.123
 5344SOL    HW216932   0.839   1.684   6.211
 5345SOL     OW16933   5.684   2.120   0.023
 5345SOL    HW116934   5.770   2.077   7.017
 5345SOL    HW216935   5.669   2.102   0.120
 5346SOL     OW16936   3.053   5.463   3.809
 5346SOL    HW116937   3.133   5.424   3.855
 5346SOL    HW216938   3.021   5.399   3.739
 5347SOL     OW16939   6.253   1.893   4.287
 5347SOL    HW116940   6.329   1.952   4.261
 5347SOL    HW216941   6.215   1.849   4.205
 5348SOL     OW16942   5.537   1.912   3.658
 5348SOL    HW116943   5.616   1.921   3.597
 5348SOL    HW216944   5.543   1.826   3.708
 5349SOL     OW16945   7.021   3.142   2.636
 5349SOL    HW116946   0.097   3.154   2.651
 5349SOL    HW216947   6.971   3.208   2.691
 5350SOL     OW16948   2.024   6.447   6.354
 5350SOL    HW116949   2.080   6.517   6.399
 5350SOL    HW216950   2.060   6.356   6.378
 5351SOL     OW16951   0.363   5.167   1.877
 5351SOL    HW116952   0.409   5.079   1.864
 5351SOL    HW216953   0.355   5.186   1.975
 5352SOL     OW16954   2.104   3.419   4.309
 5352SOL    HW116955   2.009   3.447   4.300
 5352SOL    HW216956   2.130   3.418   4.406
 5353SOL     OW16957   4.382   5.805   3.459
 5353SOL    HW116958   4.427   5.731   3.408
 5353SOL    HW216959   4.291   5.775   3.488
 5354SOL     OW16960   3.840   5.686   0.348
 5354SOL    HW116961   3.753   5.705   0.303
 5354SOL    HW216962   3.881   5.772   0.379
 5355SOL     OW16963   5.059   5.017   5.272
 5355SOL    HW116964   4.999   5.071   5.214
 5355SOL    HW216965   5.013   4.932   5.297
 5356SOL     OW16966   0.109   5.026   1.791
 5356SOL    HW116967   0.019   5.029   1.835
 5356SOL    HW216968   0.177   5.070   1.849
 5357SOL     OW16969   5.111   4.218   2.456
 5357SOL    HW116970   5.058   4.301   2.469
 5357SOL    HW216971   5.101   4.158   2.536
 5358SOL     OW16972   4.639   2.054   0.462
 5358SOL    HW116973   4.620   2.112   0.383
 5358SOL    HW216974   4.667   2.112   0.539
 5359SOL     OW16975   2.220   2.042   6.243
 5359SOL    HW116976   2.215   1.957   6.191
 5359SOL    HW216977   2.165   2.112   6.198
 5360SOL     OW16978   4.870   4.633   3.124
 5360SOL    HW116979   4.894   4.574   3.201
 5360SOL    HW216980   4.858   4.727   3.157
 5361SOL     OW16981   2.688   6.001   2.543
 5361SOL    HW116982   2.753   5.942   2.495
 5361SOL    HW216983   2.599   5.994   2.499
 5362SOL     OW16984   5.985   0.683   1.612
 5362SOL    HW116985   6.066   0.633   1.643
 5362SOL    HW216986   5.970   0.761   1.673
 5363SOL     OW16987   5.836   5.450   4.698
 5363SOL    HW116988   5.749   5.481   4.736
 5363SOL    HW216989   5.874   5.378   4.757
 5364SOL     OW16990   4.779   1.184   2.461
 5364SOL    HW116991   4.821   1.107   2.510
 5364SOL    HW216992   4.680   1.177   2.466
 5365SOL     OW16993   3.347   2.885   4.514
 5365SOL    HW116994   3.333   2.797   4.469
 5365SOL    HW216995   3.263   2.940   4.510
 5366SOL     OW16996   6.061   6.434   1.964
 5366SOL    HW116997   6.068   6.371   2.042
 5366SOL    HW216998   6.124   6.405   1.892
 5367SOL     OW16999   6.052   6.089   1.222
 5367SOL    HW117000   6.142   6.049   1.202
 5367SOL    HW217001   6.003   6.029   1.286
 5368SOL     OW17002   6.766   5.671   3.974
 5368SOL    HW117003   6.821   5.609   3.919
 5368SOL    HW217004   6.748   5.755   3.922
 5369SOL     OW17005   2.551   5.992   2.105
 5369SOL    HW117006   2.477   6.046   2.065
 5369SOL    HW217007   2.520   5.897   2.117
 5370SOL     OW17008   2.861   3.660   1.682
 5370SOL    HW117009   2.948   3.674   1.730
 5370SOL    HW217010   2.823   3.571   1.707
 5371SOL     OW17011   6.139   5.437   4.911
 5371SOL    HW117012   6.108   5.518   4.861
 5371SOL    HW217013   6.101   5.439   5.004
 5372SOL     OW17014   0.673   0.234   2.703
 5372SOL    HW117015   0.620   0.299   2.756
 5372SOL    HW217016   0.616   0.196   2.629
 5373SOL     OW17017   3.186   0.542   6.776
 5373SOL    HW117018   3.150   0.599   6.850
 5373SOL    HW217019   3.118   0.474   6.749
 5374SOL     OW17020   2.945   5.081   1.880
 5374SOL    HW117021   2.871   5.030   1.836
 5374SOL    HW217022   3.010   5.016   1.921
 5375SOL     OW17023   1.214   5.170   4.948
 5375SOL    HW117024   1.309   5.199   4.940
 5375SOL    HW217025   1.154   5.250   4.947
 5376SOL     OW17026   6.879   1.226   6.428
 5376SOL    HW117027   6.929   1.262   6.507
 5376SOL    HW217028   6.941   1.218   6.350
 5377SOL     OW17029   2.250   0.599   3.201
 5377SOL    HW117030   2.163   0.620   3.156
 5377SOL    HW217031   2.319   0.666   3.172
 5378SOL     OW17032   5.888   1.046   2.467
 5378SOL    HW117033   5.874   1.018   2.372
 5378SOL    HW217034   5.950   0.982   2.512
 5379SOL     OW17035   1.602   2.720   6.241
 5379SOL    HW117036   1.643   2.649   6.184
 5379SOL    HW217037   1.673   2.781   6.275
 5380SOL     OW17038   4.575   6.675   1.069
 5380SOL    HW117039   4.477   6.673   1.091
 5380SOL    HW217040   4.605   6.770   1.061
 5381SOL     OW17041   4.580   6.520   3.608
 5381SOL    HW117042   4.654   6.571   3.652
 5381SOL    HW217043   4.493   6.544   3.651
 5382SOL     OW17044   4.253   1.819   1.784
 5382SOL    HW117045   4.231   1.835   1.880
 5382SOL    HW217046   4.220   1.897   1.730
 5383SOL     OW17047   2.363   2.745   4.398
 5383SOL    HW117048   2.330   2.800   4.475
 5383SOL    HW217049   2.381   2.805   4.320
 5384SOL     OW17050   5.613   5.522   5.002
 5384SOL    HW117051   5.581   5.534   4.908
 5384SOL    HW217052   5.538   5.487   5.059
 5385SOL     OW17053   4.738   2.617   5.984
 5385SOL    HW117054   4.803   2.649   5.915
 5385SOL    HW217055   4.753   2.667   6.070
 5386SOL     OW17056   6.054   3.927   4.060
 5386SOL    HW117057   6.106   3.881   3.989
 5386SOL    HW217058   6.116   3.956   4.133
 5387SOL     OW17059   1.566   1.541   2.493
 5387SOL    HW117060   1.560   1.631   2.535
 5387SOL    HW217061   1.474   1.512   2.463
 5388SOL     OW17062   0.974   6.993   2.138
 5388SOL    HW117063   1.043   6.998   2.210
 5388SOL    HW217064   1.017   6.998   2.049
 5389SOL     OW17065   3.951   1.579   4.088
 5389SOL    HW117066   3.989   1.493   4.054
 5389SOL    HW217067   3.910   1.629   4.011
 5390SOL     OW17068   6.914   3.080   3.951
 5390SOL    HW117069   6.875   2.989   3.942
 5390SOL    HW217070   6.848   3.140   3.995
 5391SOL     OW17071   2.241   2.922   0.552
 5391SOL    HW117072   2.297   2.982   0.609
 5391SOL    HW217073   2.247   2.950   0.456
 5392SOL     OW17074   5.886   2.211   3.636
 5392SOL    HW117075   5.901   2.121   3.678
 5392SOL    HW217076   5.816   2.203   3.565
 5393SOL     OW17077   3.712   2.006   5.581
 5393SOL    HW117078   3.632   2.037   5.531
 5393SOL    HW217079   3.694   1.917   5.622
 5394SOL     OW17080   1.005   1.211   1.016
 5394SOL    HW117081   1.028   1.134   0.957
 5394SOL    HW217082   1.023   1.186   1.111
 5395SOL     OW17083   6.278   1.546   0.943
 5395SOL    HW117084   6.360   1.579   0.896
 5395SOL    HW217085   6.292   1.549   1.042
 5396SOL     OW17086   5.220   5.546   3.081
 5396SOL    HW117087   5.161   5.467   3.064
 5396SOL    HW217088   5.303   5.538   3.027
 5397SOL     OW17089   0.096   1.187   2.688
 5397SOL    HW117090   0.004   1.165   2.654
 5397SOL    HW217091   0.118   1.282   2.666
 5398SOL     OW17092   5.282   1.820   3.509
 5398SOL    HW117093   5.241   1.910   3.498
 5398SOL    HW217094   5.355   1.825   3.578
 5399SOL     OW17095   2.611   0.688   6.192
 5399SOL    HW117096   2.539   0.742   6.149
 5399SOL    HW217097   2.596   0.686   6.291
 5400SOL     OW17098   4.081   3.283   1.530
 5400SOL    HW117099   4.015   3.284   1.606
 5400SOL    HW217100   4.174   3.276   1.567
 5401SOL     OW17101   5.874   3.983   1.630
 5401SOL    HW117102   5.874   3.893   1.676
 5401SOL    HW217103   5.835   4.051   1.691
 5402SOL     OW17104   1.434   6.939   1.322
 5402SOL    HW117105   1.533   6.927   1.309
 5402SOL    HW217106   1.385   6.885   1.253
 5403SOL     OW17107   5.234   3.021   6.917
 5403SOL    HW117108   5.282   2.939   6.949
 5403SOL    HW217109   5.209   3.078   6.995
 5404SOL     OW17110   7.014   1.029   0.685
 5404SOL    HW117111   0.014   1.033   0.782
 5404SOL    HW217112   6.915   1.032   0.674
 5405SOL     OW17113   5.407   6.093   6.653
 5405SOL    HW117114   5.485   6.107   6.591
 5405SOL    HW217115   5.439   6.092   6.747
 5406SOL     OW17116   2.894   0.005   3.692
 5406SOL    HW117117   2.887   0.095   3.650
 5406SOL    HW217118   2.989   6.998   3.693
 5407SOL     OW17119   1.801   6.793   2.261
 5407SOL    HW117120   1.776   6.890   2.251
 5407SOL    HW217121   1.736   6.737   2.209
 5408SOL     OW17122   3.389   1.806   4.406
 5408SOL    HW117123   3.487   1.807   4.423
 5408SOL    HW217124   3.342   1.767   4.486
 5409SOL     OW17125   1.313   2.708   0.886
 5409SOL    HW117126   1.284   2.785   0.829
 5409SOL    HW217127   1.324   2.739   0.980
 5410SOL     OW17128   1.119   2.384   0.138
 5410SOL    HW117129   1.161   2.434   0.214
 5410SOL    HW217130   1.136   2.286   0.149
 5411SOL     OW17131   3.516   4.976   6.689
 5411SOL    HW117132   3.489   4.886   6.655
 5411SOL    HW217133   3.558   5.029   6.615
 5412SOL     OW17134   6.743   2.421   5.919
 5412SOL    HW117135   6.826   2.389   5.965
 5412SOL    HW217136   6.675   2.446   5.987
 5413SOL     OW17137   0.449   6.652   4.473
 5413SOL    HW117138   0.393   6.718   4.522
 5413SOL    HW217139   0.402   6.564   4.468
 5414SOL     OW17140   5.709   3.637   5.166
 5414SOL    HW117141   5.773   3.647   5.242
 5414SOL    HW217142   5.657   3.552   5.177
 5415SOL     OW17143   3.713   0.147   6.966
 5415SOL    HW117144   3.776   0.117   0.016
 5415SOL    HW217145   3.765   0.170   6.884
 5416SOL     OW17146   3.151   5.471   6.335
 5416SOL    HW117147   3.237   5.458   6.384
 5416SOL    HW217148   3.136   5.569   6.320
 5417SOL     OW17149   4.871   6.181   3.728
 5417SOL    HW117150   4.893   6.111   3.796
 5417SOL    HW217151   4.943   6.251   3.728
 5418SOL     OW17152   6.361   3.881   4.464
 5418SOL    HW117153   6.334   3.908   4.557
 5418SOL    HW217154   6.433   3.942   4.432
 5419SOL     OW17155   4.330   0.004   6.477
 5419SOL    HW117156   4.253   0.067   6.490
 5419SOL    HW217157   4.405   0.030   6.537
 5420SOL     OW17158   0.875   0.973   1.762
 5420SOL    HW117159   0.851   0.954   1.857
 5420SOL    HW217160   0.819   1.049   1.728
 5421SOL     OW17161   3.687   4.891   2.181
 5421SOL    HW117162   3.705   4.990   2.178
 5421SOL    HW217163   3.686   4.855   2.088
 5422SOL     OW17164   2.413   5.717   4.067
 5422SOL    HW117165   2.461   5.801   4.041
 5422SOL    HW217166   2.458   5.676   4.146
 5423SOL     OW17167   5.892   5.717   2.019
 5423SOL    HW117168   5.821   5.668   2.070
 5423SOL    HW217169   5.849   5.792   1.968
 5424SOL     OW17170   4.489   3.854   5.599
 5424SOL    HW117171   4.534   3.821   5.515
 5424SOL    HW217172   4.516   3.796   5.676
 5425SOL     OW17173   1.034   3.778   5.725
 5425SOL    HW117174   0.995   3.851   5.781
 5425SOL    HW217175   1.009   3.689   5.763
 5426SOL     OW17176   5.380   5.216   2.112
 5426SOL    HW117177   5.412   5.208   2.018
 5426SOL    HW217178   5.418   5.141   2.166
 5427SOL     OW17179   4.730   2.636   6.273
 5427SOL    HW117180   4.654   2.596   6.325
 5427SOL    HW217181   4.779   2.702   6.331
 5428SOL     OW17182   6.498   5.327   3.477
 5428SOL    HW117183   6.405   5.290   3.487
 5428SOL    HW217184   6.564   5.252   3.474
 5429SOL     OW17185   3.261   0.264   4.300
 5429SOL    HW117186   3.288   0.346   4.250
 5429SOL    HW217187   3.182   0.222   4.256
 5430SOL     OW17188   3.061   3.905   5.935
 5430SOL    HW117189   3.091   3.891   6.029
 5430SOL    HW217190   3.140   3.901   5.874
 5431SOL     OW17191   3.303   4.757   6.344
 5431SOL    HW117192   3.336   4.836   6.292
 5431SOL    HW217193   3.332   4.673   6.297
 5432SOL     OW17194   5.501   5.136   0.016
 5432SOL    HW117195   5.404   5.120   0.032
 5432SOL    HW217196   5.521   5.126   6.941
 5433SOL     OW17197   1.805   0.260   1.088
 5433SOL    HW117198   1.847   0.342   1.051
 5433SOL    HW217199   1.775   0.277   1.182
 5434SOL     OW17200   5.569   0.619   4.837
 5434SOL    HW117201   5.657   0.665   4.824
 5434SOL    HW217202   5.519   0.663   4.911
 5435SOL     OW17203   6.850   3.903   0.823
 5435SOL    HW117204   6.821   3.833   0.758
 5435SOL    HW217205   6.945   3.929   0.803
 5436SOL     OW17206   1.098   4.579   3.111
 5436SOL    HW117207   1.110   4.513   3.185
 5436SOL    HW217208   1.009   4.623   3.119
 5437SOL     OW17209   3.690   6.163   1.516
 5437SOL    HW117210   3.731   6.243   1.560
 5437SOL    HW217211   3.746   6.135   1.438
 5438SOL     OW17212   5.035   4.721   2.342
 5438SOL    HW117213   4.974   4.708   2.263
 5438SOL    HW217214   5.030   4.641   2.401
 5439SOL     OW17215   1.257   5.167   1.509
 5439SOL    HW117216   1.185   5.230   1.536
 5439SOL    HW217217   1.324   5.159   1.583
 5440SOL     OW17218   6.075   5.786   3.403
 5440SOL    HW117219   6.128   5.772   3.487
 5440SOL    HW217220   6.110   5.866   3.355
 5441SOL     OW17221   4.649   2.807   3.310
 5441SOL    HW117222   4.617   2.890   3.356
 5441SOL    HW217223   4.734   2.776   3.353
 5442SOL     OW17224   4.427   6.749   5.371
 5442SOL    HW117225   4.361   6.724   5.441
 5442SOL    HW217226   4.515   6.768   5.413
 5443SOL     OW17227   4.423   0.497   4.285
 5443SOL    HW117228   4.521   0.494   4.307
 5443SOL    HW217229   4.388   0.589   4.302
 5444SOL     OW17230   5.859   1.245   4.918
 5444SOL    HW117231   5.891   1.257   4.824
 5444SOL    HW217232   5.895   1.318   4.975
 5445SOL     OW17233   5.905   5.207   5.567
 5445SOL    HW117234   5.839   5.157   5.622
 5445SOL    HW217235   5.939   5.148   5.493
 5446SOL     OW17236   0.509   4.634   6.119
 5446SOL    HW117237   0.557   4.706   6.069
 5446SOL    HW217238   0.555   4.618   6.207
 5447SOL     OW17239   0.928   1.730   0.408
 5447SOL    HW117240   0.838   1.767   0.386
 5447SOL    HW217241   0.957   1.766   0.497
 5448SOL     OW17242   4.443   5.396   3.235
 5448SOL    HW117243   4.411   5.427   3.324
 5448SOL    HW217244   4.419   5.300   3.222
 5449SOL     OW17245   2.783   1.910   1.499
 5449SOL    HW117246   2.825   1.873   1.582
 5449SOL    HW217247   2.843   1.893   1.421
 5450SOL     OW17248   4.069   5.595   1.673
 5450SOL    HW117249   4.110   5.661   1.610
 5450SOL    HW217250   4.021   5.524   1.622
 5451SOL     OW17251   0.368   6.903   3.438
 5451SOL    HW117252   0.420   6.962   3.499
 5451SOL    HW217253   0.354   6.949   3.350
 5452SOL     OW17254   1.997   4.676   2.155
 5452SOL    HW117255   1.995   4.580   2.183
 5452SOL    HW217256   1.921   4.724   2.199
 5453SOL     OW17257   5.695   4.078   3.180
 5453SOL    HW117258   5.683   4.177   3.168
 5453SOL    HW217259   5.709   4.036   3.090
 5454SOL     OW17260   5.382   5.524   3.313
 5454SOL    HW117261   5.335   5.503   3.227
 5454SOL    HW217262   5.469   5.569   3.292
 5455SOL     OW17263   1.044   1.931   3.683
 5455SOL    HW117264   0.956   1.912   3.638
 5455SOL    HW217265   1.081   2.017   3.648
 5456SOL     OW17266   6.133   1.042   0.193
 5456SOL    HW117267   6.046   0.995   0.176
 5456SOL    HW217268   6.157   1.033   0.290
 5457SOL     OW17269   6.086   2.752   6.897
 5457SOL    HW117270   6.103   2.719   6.990
 5457SOL    HW217271   6.020   2.692   6.852
 5458SOL     OW17272   6.223   4.569   0.831
 5458SOL    HW117273   6.272   4.581   0.917
 5458SOL    HW217274   6.143   4.629   0.830
 5459SOL     OW17275   2.266   3.805   5.561
 5459SOL    HW117276   2.319   3.727   5.594
 5459SOL    HW217277   2.168   3.782   5.563
 5460SOL     OW17278   1.682   0.237   0.413
 5460SOL    HW117279   1.607   0.302   0.419
 5460SOL    HW217280   1.648   0.152   0.371
 5461SOL     OW17281   6.698   1.136   5.805
 5461SOL    HW117282   6.756   1.212   5.779
 5461SOL    HW217283   6.743   1.083   5.877
 5462SOL     OW17284   5.413   5.338   6.493
 5462SOL    HW117285   5.358   5.420   6.479
 5462SOL    HW217286   5.501   5.363   6.533
 5463SOL     OW17287   0.536   3.390   6.489
 5463SOL    HW117288   0.475   3.350   6.558
 5463SOL    HW217289   0.552   3.487   6.511
 5464SOL     OW17290   6.883   6.169   4.991
 5464SOL    HW117291   6.849   6.241   5.052
 5464SOL    HW217292   6.848   6.185   4.899
 5465SOL     OW17293   6.937   6.013   3.655
 5465SOL    HW117294   6.989   5.971   3.729
 5465SOL    HW217295   6.861   5.954   3.630
 5466SOL     OW17296   6.051   2.545   5.942
 5466SOL    HW117297   6.039   2.639   5.909
 5466SOL    HW217298   5.963   2.510   5.974
 5467SOL     OW17299   5.309   3.498   4.193
 5467SOL    HW117300   5.246   3.457   4.127
 5467SOL    HW217301   5.400   3.459   4.180
 5468SOL     OW17302   0.379   1.254   1.838
 5468SOL    HW117303   0.336   1.336   1.802
 5468SOL    HW217304   0.347   1.239   1.932
 5469SOL     OW17305   2.629   0.612   5.475
 5469SOL    HW117306   2.721   0.590   5.509
 5469SOL    HW217307   2.592   0.532   5.426
 5470SOL     OW17308   3.884   5.378   4.083
 5470SOL    HW117309   3.839   5.313   4.144
 5470SOL    HW217310   3.828   5.389   4.000
 5471SOL     OW17311   4.753   0.803   3.089
 5471SOL    HW117312   4.768   0.820   2.992
 5471SOL    HW217313   4.810   0.865   3.143
 5472SOL     OW17314   2.694   2.057   6.439
 5472SOL    HW117315   2.698   2.055   6.539
 5472SOL    HW217316   2.694   1.963   6.405
 5473SOL     OW17317   2.696   4.066   1.447
 5473SOL    HW117318   2.779   4.114   1.421
 5473SOL    HW217319   2.617   4.128   1.436
 5474SOL     OW17320   0.687   5.436   3.604
 5474SOL    HW117321   0.640   5.349   3.589
 5474SOL    HW217322   0.620   5.507   3.624
 5475SOL     OW17323   6.839   2.405   5.550
 5475SOL    HW117324   6.903   2.329   5.559
 5475SOL    HW217325   6.888   2.487   5.519
 5476SOL     OW17326   2.286   6.518   6.101
 5476SOL    HW117327   2.367   6.564   6.137
 5476SOL    HW217328   2.231   6.583   6.049
 5477SOL     OW17329   1.896   5.460   4.227
 5477SOL    HW117330   1.811   5.453   4.280
 5477SOL    HW217331   1.893   5.397   4.150
 5478SOL     OW17332   5.620   4.997   5.899
 5478SOL    HW117333   5.642   5.004   5.996
 5478SOL    HW217334   5.529   4.957   5.888
 5479SOL     OW17335   3.520   2.122   4.659
 5479SOL    HW117336   3.532   2.203   4.716
 5479SOL    HW217337   3.485   2.047   4.715
 5480SOL     OW17338   6.280   4.009   4.699
 5480SOL    HW117339   6.281   3.997   4.799
 5480SOL    HW217340   6.325   4.095   4.676
 5481SOL     OW17341   4.431   1.126   6.775
 5481SOL    HW117342   4.517   1.091   6.812
 5481SOL    HW217343   4.381   1.052   6.732
 5482SOL     OW17344   4.321   3.214   1.660
 5482SOL    HW117345   4.379   3.295   1.652
 5482SOL    HW217346   4.376   3.133   1.639
 5483SOL     OW17347   6.586   3.970   6.076
 5483SOL    HW117348   6.578   3.934   5.983
 5483SOL    HW217349   6.605   4.068   6.073
 5484SOL     OW17350   6.647   6.414   4.197
 5484SOL    HW117351   6.696   6.330   4.172
 5484SOL    HW217352   6.684   6.491   4.146
 5485SOL     OW17353   3.817   6.874   5.731
 5485SOL    HW117354   3.831   6.931   5.812
 5485SOL    HW217355   3.761   6.795   5.754
 5486SOL     OW17356   1.135   1.075   3.056
 5486SOL    HW117357   1.048   1.026   3.054
 5486SOL    HW217358   1.210   1.010   3.065
 5487SOL     OW17359   6.312   5.004   0.473
 5487SOL    HW117360   6.278   4.912   0.454
 5487SOL    HW217361   6.411   5.007   0.461
 5488SOL     OW17362   5.055   2.059   6.254
 5488SOL    HW117363   5.002   2.067   6.339
 5488SOL    HW217364   5.152   2.063   6.275
 5489SOL     OW17365   1.762   4.565   2.985
 5489SOL    HW117366   1.728   4.539   2.895
 5489SOL    HW217367   1.815   4.490   3.024
 5490SOL     OW17368   2.618   1.132   0.817
 5490SOL    HW117369   2.630   1.200   0.745
 5490SOL    HW217370   2.522   1.128   0.844
 5491SOL     OW17371   1.684   4.964   0.260
 5491SOL    HW117372   1.664   4.875   0.302
 5491SOL    HW217373   1.613   4.985   0.192
 5492SOL     OW17374   0.844   2.387   6.117
 5492SOL    HW117375   0.919   2.369   6.053
 5492SOL    HW217376   0.878   2.378   6.211
 5493SOL     OW17377   3.888   3.369   6.302
 5493SOL    HW117378   3.865   3.353   6.206
 5493SOL    HW217379   3.813   3.340   6.360
 5494SOL     OW17380   6.453   3.606   1.450
 5494SOL    HW117381   6.467   3.700   1.480
 5494SOL    HW217382   6.385   3.562   1.509
 5495SOL     OW17383   4.013   3.274   2.960
 5495SOL    HW117384   4.017   3.278   2.860
 5495SOL    HW217385   3.920   3.296   2.990
 5496SOL     OW17386   3.261   5.994   2.013
 5496SOL    HW117387   3.316   6.074   2.036
 5496SOL    HW217388   3.297   5.951   1.930
 5497SOL     OW17389   0.046   1.561   3.034
 5497SOL    HW117390   0.067   1.541   3.130
 5497SOL    HW217391   0.130   1.587   2.986
 5498SOL     OW17392   4.528   1.814   5.703
 5498SOL    HW117393   4.458   1.794   5.772
 5498SOL    HW217394   4.609   1.759   5.722
 5499SOL     OW17395   6.996   1.815   3.095
 5499SOL    HW117396   0.037   1.825   3.172
 5499SOL    HW217397   6.978   1.718   3.079
 5500SOL     OW17398   1.950   5.794   0.501
 5500SOL    HW117399   1.976   5.889   0.516
 5500SOL    HW217400   1.851   5.786   0.499
 5501SOL     OW17401   2.771   0.437   2.157
 5501SOL    HW117402   2.712   0.469   2.231
 5501SOL    HW217403   2.850   0.389   2.194
 5502SOL     OW17404   6.285   4.435   5.744
 5502SOL    HW117405   6.284   4.362   5.812
 5502SOL    HW217406   6.195   4.480   5.741
 5503SOL     OW17407   1.115   4.399   3.344
 5503SOL    HW117408   1.120   4.302   3.321
 5503SOL    HW217409   1.201   4.427   3.389
 5504SOL     OW17410   3.407   1.906   4.776
 5504SOL    HW117411   3.315   1.868   4.787
 5504SOL    HW217412   3.474   1.833   4.780
 5505SOL     OW17413   3.153   5.647   5.361
 5505SOL    HW117414   3.154   5.746   5.352
 5505SOL    HW217415   3.193   5.605   5.279
 5506SOL     OW17416   6.365   0.786   4.976
 5506SOL    HW117417   6.397   0.832   5.059
 5506SOL    HW217418   6.266   0.776   4.979
 5507SOL     OW17419   2.738   6.875   3.987
 5507SOL    HW117420   2.786   6.957   4.017
 5507SOL    HW217421   2.803   6.800   3.976
 5508SOL     OW17422   2.339   0.295   6.291
 5508SOL    HW117423   2.399   0.329   6.364
 5508SOL    HW217424   2.282   0.221   6.327
 5509SOL     OW17425   5.756   6.959   0.351
 5509SOL    HW117426   5.677   6.987   0.297
 5509SOL    HW217427   5.814   0.016   0.369
 5510SOL     OW17428   4.510   0.500   5.939
 5510SOL    HW117429   4.496   0.595   5.965
 5510SOL    HW217430   4.507   0.442   6.021
 5511SOL     OW17431   0.245   0.572   2.065
 5511SOL    HW117432   0.177   0.515   2.111
 5511SOL    HW217433   0.198   0.646   2.016
 5512SOL     OW17434   0.887   1.479   6.471
 5512SOL    HW117435   0.934   1.452   6.555
 5512SOL    HW217436   0.874   1.399   6.412
 5513SOL     OW17437   4.623   4.506   4.608
 5513SOL    HW117438   4.713   4.530   4.645
 5513SOL    HW217439   4.552   4.534   4.673
 5514SOL     OW17440   5.519   4.906   2.708
 5514SOL    HW117441   5.513   4.825   2.766
 5514SOL    HW217442   5.573   4.977   2.754
 5515SOL     OW17443   6.802   2.510   2.179
 5515SOL    HW117444   6.768   2.547   2.266
 5515SOL    HW217445   6.828   2.414   2.192
 5516SOL     OW17446   1.532   3.165   6.809
 5516SOL    HW117447   1.457   3.100   6.795
 5516SOL    HW217448   1.599   3.126   6.872
 5517SOL     OW17449   3.122   1.901   1.051
 5517SOL    HW117450   3.206   1.953   1.067
 5517SOL    HW217451   3.043   1.954   1.084
 5518SOL     OW17452   5.849   5.380   5.832
 5518SOL    HW117453   5.844   5.462   5.775
 5518SOL    HW217454   5.887   5.304   5.779
 5519SOL     OW17455   5.559   3.354   3.836
 5519SOL    HW117456   5.552   3.396   3.926
 5519SOL    HW217457   5.607   3.416   3.774
 5520SOL     OW17458   1.469   3.559   2.267
 5520SOL    HW117459   1.440   3.560   2.171
 5520SOL    HW217460   1.389   3.547   2.326
 5521SOL     OW17461   5.388   6.315   1.963
 5521SOL    HW117462   5.456   6.333   2.034
 5521SOL    HW217463   5.434   6.284   1.880
 5522SOL     OW17464   2.541   3.296   1.692
 5522SOL    HW117465   2.481   3.354   1.748
 5522SOL    HW217466   2.636   3.307   1.721
 5523SOL     OW17467   3.014   6.841   2.713
 5523SOL    HW117468   2.952   6.827   2.790
 5523SOL    HW217469   3.106   6.863   2.748
 5524SOL     OW17470   1.077   5.046   5.417
 5524SOL    HW117471   1.171   5.051   5.383
 5524SOL    HW217472   1.015   5.080   5.346
 5525SOL     OW17473   6.806   5.155   6.882
 5525SOL    HW117474   6.771   5.141   6.975
 5525SOL    HW217475   6.904   5.178   6.886
 5526SOL     OW17476   6.333   3.340   3.225
 5526SOL    HW117477   6.319   3.243   3.244
 5526SOL    HW217478   6.296   3.363   3.135
 5527SOL     OW17479   1.398   2.642   1.629
 5527SOL    HW117480   1.363   2.595   1.548
 5527SOL    HW217481   1.393   2.582   1.708
 5528SOL     OW17482   0.515   2.487   5.038
 5528SOL    HW117483   0.530   2.579   5.003
 5528SOL    HW217484   0.575   2.422   4.991
 5529SOL     OW17485   2.150   0.657   4.727
 5529SOL    HW117486   2.094   0.588   4.682
 5529SOL    HW217487   2.220   0.612   4.783
 5530SOL     OW17488   0.263   2.282   0.306
 5530SOL    HW117489   0.271   2.182   0.308
 5530SOL    HW217490   0.191   2.311   0.368
 5531SOL     OW17491   4.031   3.470   5.044
 5531SOL    HW117492   4.016   3.428   4.955
 5531SOL    HW217493   4.008   3.405   5.116
 5532SOL     OW17494   1.543   1.201   0.306
 5532SOL    HW117495   1.634   1.174   0.274
 5532SOL    HW217496   1.508   1.276   0.249
 5533SOL     OW17497   3.026   0.766   2.821
 5533SOL    HW117498   3.077   0.829   2.880
 5533SOL    HW217499   3.018   0.677   2.866
 5534SOL     OW17500   1.249   3.487   6.743
 5534SOL    HW117501   1.300   3.520   6.664
 5534SOL    HW217502   1.313   3.458   6.814
 5535SOL     OW17503   6.565   3.195   3.369
 5535SOL    HW117504   6.499   3.147   3.426
 5535SOL    HW217505   6.528   3.284   3.342
 5536SOL     OW17506   2.220   0.673   4.403
 5536SOL    HW117507   2.167   0.747   4.362
 5536SOL    HW217508   2.159   0.614   4.456
 5537SOL     OW17509   3.732   0.397   5.094
 5537SOL    HW117510   3.814   0.401   5.152
 5537SOL    HW217511   3.754   0.351   5.008
 5538SOL     OW17512   4.175   0.991   5.615
 5538SOL    HW117513   4.136   0.984   5.707
 5538SOL    HW217514   4.208   0.902   5.585
 5539SOL     OW17515   1.131   1.187   2.238
 5539SOL    HW117516   1.210   1.126   2.231
 5539SOL    HW217517   1.161   1.282   2.240
 5540SOL     OW17518   5.173   3.088   1.149
 5540SOL    HW117519   5.204   3.004   1.104
 5540SOL    HW217520   5.074   3.081   1.165
 5541SOL     OW17521   5.215   3.683   5.600
 5541SOL    HW117522   5.152   3.702   5.676
 5541SOL    HW217523   5.286   3.753   5.597
 5542SOL     OW17524   5.596   4.972   6.180
 5542SOL    HW117525   5.497   4.971   6.162
 5542SOL    HW217526   5.622   4.886   6.223
 5543SOL     OW17527   1.983   6.040   6.832
 5543SOL    HW117528   1.931   5.960   6.805
 5543SOL    HW217529   1.953   6.119   6.779
 5544SOL     OW17530   4.767   5.374   5.812
 5544SOL    HW117531   4.719   5.420   5.886
 5544SOL    HW217532   4.702   5.351   5.739
 5545SOL     OW17533   4.268   1.491   2.816
 5545SOL    HW117534   4.316   1.469   2.902
 5545SOL    HW217535   4.181   1.534   2.837
 5546SOL     OW17536   1.005   6.091   4.899
 5546SOL    HW117537   0.982   6.168   4.958
 5546SOL    HW217538   0.960   6.008   4.933
 5547SOL     OW17539   4.415   2.021   5.537
 5547SOL    HW117540   4.460   1.956   5.597
 5547SOL    HW217541   4.468   2.106   5.534
 5548SOL     OW17542   6.914   4.044   5.592
 5548SOL    HW117543   6.859   3.965   5.567
 5548SOL    HW217544   6.923   4.049   5.692
 5549SOL     OW17545   4.191   3.462   1.823
 5549SOL    HW117546   4.200   3.382   1.764
 5549SOL    HW217547   4.247   3.537   1.787
 5550SOL     OW17548   2.305   4.186   3.238
 5550SOL    HW117549   2.291   4.282   3.214
 5550SOL    HW217550   2.305   4.175   3.337
 5551SOL     OW17551   1.628   5.288   2.943
 5551SOL    HW117552   1.662   5.330   3.027
 5551SOL    HW217553   1.703   5.282   2.877
 5552SOL     OW17554   6.279   6.876   5.590
 5552SOL    HW117555   6.347   6.805   5.611
 5552SOL    HW217556   6.253   6.870   5.494
 5553SOL     OW17557   4.614   0.298   6.855
 5553SOL    HW117558   4.699   0.246   6.868
 5553SOL    HW217559   4.587   0.339   6.942
 5554SOL     OW17560   4.968   3.374   1.496
 5554SOL    HW117561   4.961   3.317   1.577
 5554SOL    HW217562   4.895   3.351   1.432
 5555SOL     OW17563   0.732   3.841   2.995
 5555SOL    HW117564   0.796   3.902   2.948
 5555SOL    HW217565   0.782   3.784   3.060
 5556SOL     OW17566   6.159   1.104   4.299
 5556SOL    HW117567   6.226   1.145   4.237
 5556SOL    HW217568   6.151   1.160   4.381
 5557SOL     OW17569   3.279   5.689   1.763
 5557SOL    HW117570   3.310   5.777   1.727
 5557SOL    HW217571   3.179   5.683   1.759
 5558SOL     OW17572   3.410   3.964   0.597
 5558SOL    HW117573   3.472   4.033   0.558
 5558SOL    HW217574   3.449   3.929   0.682
 5559SOL     OW17575   1.344   0.246   2.511
 5559SOL    HW117576   1.379   0.289   2.428
 5559SOL    HW217577   1.256   0.204   2.493
 5560SOL     OW17578   6.854   5.648   2.268
 5560SOL    HW117579   6.887   5.612   2.181
 5560SOL    HW217580   6.892   5.739   2.283
 5561SOL     OW17581   3.087   0.506   4.766
 5561SOL    HW117582   3.176   0.547   4.784
 5561SOL    HW217583   3.097   0.426   4.708
 5562SOL     OW17584   4.460   4.452   6.913
 5562SOL    HW117585   4.471   4.538   6.863
 5562SOL    HW217586   4.394   4.464   6.987
 5563SOL     OW17587   3.055   5.176   3.019
 5563SOL    HW117588   3.119   5.158   3.094
 5563SOL    HW217589   2.968   5.129   3.037
 5564SOL     OW17590   4.890   6.849   6.776
 5564SOL    HW117591   4.798   6.877   6.750
 5564SOL    HW217592   4.924   6.908   6.850
 5565SOL     OW17593   4.334   2.811   6.865
 5565SOL    HW117594   4.416   2.754   6.869
 5565SOL    HW217595   4.346   2.890   6.925
 5566SOL     OW17596   2.192   4.299   0.789
 5566SOL    HW117597   2.239   4.378   0.749
 5566SOL    HW217598   2.252   4.253   0.853
 5567SOL     OW17599   0.253   3.519   2.006
 5567SOL    HW117600   0.162   3.502   1.969
 5567SOL    HW217601   0.315   3.544   1.931
 5568SOL     OW17602   4.270   0.256   3.056
 5568SOL    HW117603   4.175   0.286   3.067
 5568SOL    HW217604   4.323   0.284   3.136
 5569SOL     OW17605   2.410   1.960   2.842
 5569SOL    HW117606   2.472   1.893   2.802
 5569SOL    HW217607   2.458   2.012   2.913
 5570SOL     OW17608   6.650   3.304   3.080
 5570SOL    HW117609   6.609   3.384   3.123
 5570SOL    HW217610   6.689   3.331   2.991
 5571SOL     OW17611   6.634   5.041   1.914
 5571SOL    HW117612   6.574   5.092   1.975
 5571SOL    HW217613   6.728   5.074   1.925
 5572SOL     OW17614   1.773   3.818   4.619
 5572SOL    HW117615   1.737   3.824   4.526
 5572SOL    HW217616   1.700   3.789   4.681
 5573SOL     OW17617   1.353   5.385   5.218
 5573SOL    HW117618   1.274   5.414   5.165
 5573SOL    HW217619   1.406   5.317   5.165
 5574SOL     OW17620   0.621   2.931   6.903
 5574SOL    HW117621   0.678   2.889   6.973
 5574SOL    HW217622   0.620   3.030   6.915
 5575SOL     OW17623   0.067   0.114   0.884
 5575SOL    HW117624   0.130   0.044   0.851
 5575SOL    HW217625   0.119   0.195   0.913
 5576SOL     OW17626   1.173   3.998   2.800
 5576SOL    HW117627   1.198   4.077   2.856
 5576SOL    HW217628   1.256   3.958   2.760
 5577SOL     OW17629   2.257   3.050   0.305
 5577SOL    HW117630   2.342   3.098   0.286
 5577SOL    HW217631   2.192   3.113   0.347
 5578SOL     OW17632   3.700   4.022   2.411
 5578SOL    HW117633   3.620   4.056   2.459
 5578SOL    HW217634   3.779   4.021   2.472
 5579SOL     OW17635   0.715   3.810   0.915
 5579SOL    HW117636   0.765   3.782   0.997
 5579SOL    HW217637   0.619   3.825   0.938
 5580SOL     OW17638   4.447   2.229   6.087
 5580SOL    HW117639   4.521   2.286   6.051
 5580SOL    HW217640   4.361   2.279   6.081
 5581SOL     OW17641   1.111   1.162   1.266
 5581SOL    HW117642   1.080   1.228   1.334
 5581SOL    HW217643   1.164   1.090   1.311
 5582SOL     OW17644   2.611   3.777   6.948
 5582SOL    HW117645   2.601   3.806   0.021
 5582SOL    HW217646   2.704   3.742   6.934
 5583SOL     OW17647   3.982   0.849   2.530
 5583SOL    HW117648   4.027   0.897   2.604
 5583SOL    HW217649   3.923   0.913   2.479
 5584SOL     OW17650   6.247   3.446   4.183
 5584SOL    HW117651   6.232   3.353   4.216
 5584SOL    HW217652   6.342   3.456   4.154
 5585SOL     OW17653   4.949   5.249   3.418
 5585SOL    HW117654   4.874   5.280   3.360
 5585SOL    HW217655   4.947   5.149   3.425
 5586SOL     OW17656   6.999   3.654   5.921
 5586SOL    HW117657   7.008   3.705   5.836
 5586SOL    HW217658   0.064   3.652   5.969
 5587SOL     OW17659   4.006   0.187   0.438
 5587SOL    HW117660   4.004   0.157   0.343
 5587SOL    HW217661   4.099   0.212   0.463
 5588SOL     OW17662   2.432   6.281   2.553
 5588SOL    HW117663   2.354   6.323   2.508
 5588SOL    HW217664   2.443   6.320   2.644
 5589SOL     OW17665   6.140   4.229   6.589
 5589SOL    HW117666   6.231   4.204   6.624
 5589SOL    HW217667   6.075   4.226   6.664
 5590SOL     OW17668   6.488   6.381   3.504
 5590SOL    HW117669   6.427   6.453   3.538
 5590SOL    HW217670   6.438   6.295   3.496
 5591SOL     OW17671   0.331   2.172   1.264
 5591SOL    HW117672   0.414   2.196   1.314
 5591SOL    HW217673   0.334   2.215   1.174
 5592SOL     OW17674   1.953   5.371   3.919
 5592SOL    HW117675   2.027   5.353   3.855
 5592SOL    HW217676   1.942   5.470   3.931
 5593SOL     OW17677   0.109   2.974   6.775
 5593SOL    HW117678   0.146   2.908   6.709
 5593SOL    HW217679   0.018   3.004   6.745
 5594SOL     OW17680   4.966   0.881   4.861
 5594SOL    HW117681   4.876   0.913   4.834
 5594SOL    HW217682   4.982   0.904   4.957
 5595SOL     OW17683   0.915   1.442   4.682
 5595SOL    HW117684   0.946   1.513   4.744
 5595SOL    HW217685   0.874   1.484   4.601
 5596SOL     OW17686   4.357   6.383   2.727
 5596SOL    HW117687   4.431   6.315   2.729
 5596SOL    HW217688   4.391   6.469   2.765
 5597SOL     OW17689   4.861   2.446   4.294
 5597SOL    HW117690   4.910   2.531   4.274
 5597SOL    HW217691   4.795   2.462   4.367
 5598SOL     OW17692   5.450   3.438   4.603
 5598SOL    HW117693   5.496   3.431   4.514
 5598SOL    HW217694   5.516   3.421   4.676
 5599SOL     OW17695   1.092   1.312   4.048
 5599SOL    HW117696   1.012   1.370   4.034
 5599SOL    HW217697   1.167   1.344   3.989
 5600SOL     OW17698   0.606   1.174   2.241
 5600SOL    HW117699   0.511   1.191   2.215
 5600SOL    HW217700   0.632   1.235   2.315
 5601SOL     OW17701   2.761   0.325   5.893
 5601SOL    HW117702   2.750   0.237   5.847
 5601SOL    HW217703   2.849   0.365   5.869
 5602SOL     OW17704   6.906   1.367   0.389
 5602SOL    HW117705   6.829   1.427   0.367
 5602SOL    HW217706   6.976   1.419   0.437
 5603SOL     OW17707   5.668   2.567   6.578
 5603SOL    HW117708   5.708   2.477   6.558
 5603SOL    HW217709   5.587   2.581   6.522
 5604SOL     OW17710   6.480   2.327   5.062
 5604SOL    HW117711   6.389   2.346   5.100
 5604SOL    HW217712   6.503   2.231   5.077
 5605SOL     OW17713   0.806   0.620   4.645
 5605SOL    HW117714   0.835   0.566   4.565
 5605SOL    HW217715   0.713   0.655   4.629
 5606SOL     OW17716   4.556   6.894   0.643
 5606SOL    HW117717   4.651   6.896   0.611
 5606SOL    HW217718   4.526   6.986   0.667
 5607SOL     OW17719   5.526   0.336   2.472
 5607SOL    HW117720   5.591   0.355   2.546
 5607SOL    HW217721   5.574   0.291   2.397
 5608SOL     OW17722   4.762   0.099   4.993
 5608SOL    HW117723   4.688   0.127   5.054
 5608SOL    HW217724   4.835   0.167   4.995
 5609SOL     OW17725   2.263   4.962   1.281
 5609SOL    HW117726   2.283   4.865   1.297
 5609SOL    HW217727   2.335   5.003   1.226
 5610SOL     OW17728   4.327   6.535   0.872
 5610SOL    HW117729   4.338   6.440   0.902
 5610SOL    HW217730   4.247   6.541   0.812
 5611SOL     OW17731   1.132   5.494   2.594
 5611SOL    HW117732   1.098   5.402   2.610
 5611SOL    HW217733   1.070   5.560   2.636
 5612SOL     OW17734   3.609   1.905   6.802
 5612SOL    HW117735   3.702   1.937   6.821
 5612SOL    HW217736   3.554   1.912   6.886
 5613SOL     OW17737   5.258   3.948   3.630
 5613SOL    HW117738   5.288   3.854   3.619
 5613SOL    HW217739   5.329   4.000   3.679
 5614SOL     OW17740   4.600   2.707   4.102
 5614SOL    HW117741   4.553   2.639   4.157
 5614SOL    HW217742   4.536   2.779   4.075
 5615SOL     OW17743   0.584   0.982   5.305
 5615SOL    HW117744   0.495   1.011   5.269
 5615SOL    HW217745   0.646   1.061   5.309
 5616SOL     OW17746   2.129   1.407   5.025
 5616SOL    HW117747   2.100   1.316   4.996
 5616SOL    HW217748   2.052   1.454   5.068
 5617SOL     OW17749   2.508   6.800   6.575
 5617SOL    HW117750   2.537   6.728   6.638
 5617SOL    HW217751   2.493   6.761   6.485
 5618SOL     OW17752   6.230   3.788   3.862
 5618SOL    HW117753   6.320   3.786   3.818
 5618SOL    HW217754   6.203   3.694   3.885
 5619SOL     OW17755   3.213   3.806   6.424
 5619SOL    HW117756   3.203   3.890   6.372
 5619SOL    HW217757   3.124   3.779   6.461
 5620SOL     OW17758   3.751   3.251   0.979
 5620SOL    HW117759   3.686   3.250   1.055
 5620SOL    HW217760   3.731   3.330   0.920
 5621SOL     OW17761   1.082   2.428   5.902
 5621SOL    HW117762   1.157   2.398   5.962
 5621SOL    HW217763   1.066   2.525   5.915
 5622SOL     OW17764   4.617   0.011   5.868
 5622SOL    HW117765   4.560   0.058   5.935
 5622SOL    HW217766   4.676   6.967   5.914
 5623SOL     OW17767   1.994   6.179   6.159
 5623SOL    HW117768   2.024   6.177   6.254
 5623SOL    HW217769   1.921   6.112   6.145
 5624SOL     OW17770   0.863   4.533   3.415
 5624SOL    HW117771   0.825   4.579   3.495
 5624SOL    HW217772   0.960   4.556   3.405
 5625SOL     OW17773   6.116   1.627   4.417
 5625SOL    HW117774   6.081   1.717   4.443
 5625SOL    HW217775   6.216   1.627   4.418
 5626SOL     OW17776   2.752   6.777   4.718
 5626SOL    HW117777   2.725   6.749   4.626
 5626SOL    HW217778   2.844   6.744   4.737
 5627SOL     OW17779   0.973   6.044   0.084
 5627SOL    HW117780   1.043   6.080   0.021
 5627SOL    HW217781   1.013   5.973   0.142
 5628SOL     OW17782   1.381   2.781   6.095
 5628SOL    HW117783   1.315   2.706   6.107
 5628SOL    HW217784   1.464   2.760   6.145
 5629SOL     OW17785   3.314   3.608   2.263
 5629SOL    HW117786   3.298   3.693   2.214
 5629SOL    HW217787   3.355   3.628   2.352
 5630SOL     OW17788   1.451   5.049   0.113
 5630SOL    HW117789   1.494   5.026   0.025
 5630SOL    HW217790   1.457   5.148   0.127
 5631SOL     OW17791   4.753   1.915   6.778
 5631SOL    HW117792   4.801   1.830   6.800
 5631SOL    HW217793   4.667   1.895   6.731
 5632SOL     OW17794   4.042   2.775   5.913
 5632SOL    HW117795   4.002   2.765   6.004
 5632SOL    HW217796   4.007   2.703   5.853
 5633SOL     OW17797   6.006   2.824   3.891
 5633SOL    HW117798   6.053   2.742   3.858
 5633SOL    HW217799   5.999   2.820   3.991
 5634SOL     OW17800   2.410   6.085   5.160
 5634SOL    HW117801   2.453   6.100   5.071
 5634SOL    HW217802   2.382   5.990   5.168
 5635SOL     OW17803   2.248   3.675   5.252
 5635SOL    HW117804   2.311   3.618   5.305
 5635SOL    HW217805   2.283   3.768   5.247
 5636SOL     OW17806   3.341   6.420   2.666
 5636SOL    HW117807   3.262   6.438   2.724
 5636SOL    HW217808   3.413   6.487   2.686
 5637SOL     OW17809   5.214   6.938   3.472
 5637SOL    HW117810   5.225   6.908   3.377
 5637SOL    HW217811   5.118   6.930   3.499
 5638SOL     OW17812   5.578   3.657   1.210
 5638SOL    HW117813   5.540   3.740   1.169
 5638SOL    HW217814   5.583   3.668   1.309
 5639SOL     OW17815   0.319   0.347   0.125
 5639SOL    HW117816   0.232   0.312   0.162
 5639SOL    HW217817   0.302   0.394   0.039
 5640SOL     OW17818   2.938   0.942   3.925
 5640SOL    HW117819   3.030   0.967   3.958
 5640SOL    HW217820   2.882   0.913   4.002
 5641SOL     OW17821   0.883   4.867   5.485
 5641SOL    HW117822   0.959   4.930   5.471
 5641SOL    HW217823   0.801   4.903   5.440
 5642SOL     OW17824   1.988   6.661   0.040
 5642SOL    HW117825   1.939   6.732   7.012
 5642SOL    HW217826   1.991   6.577   7.008
 5643SOL     OW17827   4.495   1.017   4.727
 5643SOL    HW117828   4.409   0.994   4.773
 5643SOL    HW217829   4.541   1.090   4.777
 5644SOL     OW17830   3.166   0.054   5.462
 5644SOL    HW117831   3.181   0.152   5.448
 5644SOL    HW217832   3.244   0.015   5.510
 5645SOL     OW17833   6.452   4.078   3.794
 5645SOL    HW117834   6.492   4.069   3.885
 5645SOL    HW217835   6.357   4.049   3.796
 5646SOL     OW17836   1.825   5.140   3.186
 5646SOL    HW117837   1.775   5.153   3.272
 5646SOL    HW217838   1.849   5.229   3.148
 5647SOL     OW17839   5.145   6.456   1.376
 5647SOL    HW117840   5.204   6.509   1.315
 5647SOL    HW217841   5.143   6.360   1.346
 5648SOL     OW17842   1.952   5.626   2.789
 5648SOL    HW117843   1.993   5.696   2.848
 5648SOL    HW217844   1.965   5.536   2.830
 5649SOL     OW17845   1.450   6.486   3.883
 5649SOL    HW117846   1.520   6.486   3.812
 5649SOL    HW217847   1.488   6.451   3.968
 5650SOL     OW17848   1.011   4.660   0.720
 5650SOL    HW117849   1.035   4.755   0.740
 5650SOL    HW217850   1.002   4.609   0.806
 5651SOL     OW17851   1.294   0.667   0.320
 5651SOL    HW117852   1.367   0.727   0.353
 5651SOL    HW217853   1.209   0.689   0.366
 5652SOL     OW17854   0.249   5.435   1.764
 5652SOL    HW117855   0.194   5.356   1.736
 5652SOL    HW217856   0.342   5.405   1.785
 5653SOL     OW17857   0.397   5.679   0.032
 5653SOL    HW117858   0.445   5.607   0.083
 5653SOL    HW217859   0.448   5.700   6.971
 5654SOL     OW17860   1.347   5.349   4.498
 5654SOL    HW117861   1.296   5.262   4.500
 5654SOL    HW217862   1.426   5.339   4.439
 5655SOL     OW17863   0.080   2.857   3.708
 5655SOL    HW117864   0.159   2.842   3.767
 5655SOL    HW217865   7.018   2.846   3.761
 5656SOL     OW17866   6.725   4.236   6.196
 5656SOL    HW117867   6.825   4.239   6.193
 5656SOL    HW217868   6.689   4.326   6.171
 5657SOL     OW17869   4.715   4.349   4.913
 5657SOL    HW117870   4.715   4.333   4.814
 5657SOL    HW217871   4.790   4.298   4.955
 5658SOL     OW17872   3.044   3.192   6.290
 5658SOL    HW117873   2.973   3.138   6.244
 5658SOL    HW217874   3.032   3.288   6.267
 5659SOL     OW17875   3.627   3.791   5.952
 5659SOL    HW117876   3.645   3.764   6.047
 5659SOL    HW217877   3.619   3.709   5.895
 5660SOL     OW17878   4.717   0.410   6.589
 5660SOL    HW117879   4.813   0.437   6.597
 5660SOL    HW217880   4.679   0.394   6.680
 5661SOL     OW17881   1.306   5.263   5.818
 5661SOL    HW117882   1.232   5.329   5.801
 5661SOL    HW217883   1.268   5.171   5.825
 5662SOL     OW17884   2.380   6.724   2.501
 5662SOL    HW117885   2.471   6.692   2.475
 5662SOL    HW217886   2.388   6.815   2.543
 5663SOL     OW17887   1.413   2.532   0.525
 5663SOL    HW117888   1.422   2.473   0.605
 5663SOL    HW217889   1.485   2.600   0.525
 5664SOL     OW17890   5.732   3.771   4.764
 5664SOL    HW117891   5.785   3.853   4.783
 5664SOL    HW217892   5.641   3.797   4.732
 5665SOL     OW17893   1.127   5.887   6.886
 5665SOL    HW117894   1.042   5.836   6.899
 5665SOL    HW217895   1.165   5.865   6.796
 5666SOL     OW17896   6.363   1.053   3.696
 5666SOL    HW117897   6.293   1.043   3.766
 5666SOL    HW217898   6.454   1.050   3.738
 5667SOL     OW17899   1.910   5.078   4.451
 5667SOL    HW117900   2.000   5.113   4.425
 5667SOL    HW217901   1.866   5.036   4.371
 5668SOL     OW17902   6.291   2.728   2.865
 5668SOL    HW117903   6.202   2.773   2.878
 5668SOL    HW217904   6.363   2.797   2.863
 5669SOL     OW17905   6.486   5.054   0.190
 5669SOL    HW117906   6.452   4.997   0.114
 5669SOL    HW217907   6.584   5.070   0.179
 5670SOL     OW17908   1.845   3.016   3.077
 5670SOL    HW117909   1.826   3.114   3.085
 5670SOL    HW217910   1.906   2.987   3.151
 5671SOL     OW17911   6.587   5.616   5.238
 5671SOL    HW117912   6.591   5.517   5.245
 5671SOL    HW217913   6.521   5.652   5.304
 5672SOL     OW17914   4.821   3.934   5.275
 5672SOL    HW117915   4.743   3.878   5.301
 5672SOL    HW217916   4.797   4.031   5.283
 5673SOL     OW17917   1.123   6.794   1.506
 5673SOL    HW117918   1.176   6.729   1.452
 5673SOL    HW217919   1.079   6.860   1.444
 5674SOL     OW17920   2.342   4.617   4.217
 5674SOL    HW117921   2.342   4.580   4.310
 5674SOL    HW217922   2.396   4.701   4.214
 5675SOL     OW17923   3.867   1.639   0.007
 5675SOL    HW117924   3.773   1.667   0.027
 5675SOL    HW217925   3.867   1.577   6.951
 5676SOL     OW17926   2.879   1.911   1.868
 5676SOL    HW117927   2.848   2.006   1.867
 5676SOL    HW217928   2.962   1.903   1.924
 5677SOL     OW17929   6.695   0.666   0.670
 5677SOL    HW117930   6.775   0.675   0.612
 5677SOL    HW217931   6.676   0.754   0.715
 5678SOL     OW17932   4.389   1.189   2.203
 5678SOL    HW117933   4.420   1.168   2.110
 5678SOL    HW217934   4.297   1.229   2.199
 5679SOL     OW17935   5.916   1.977   4.815
 5679SOL    HW117936   5.900   2.073   4.838
 5679SOL    HW217937   5.983   1.971   4.740
 5680SOL     OW17938   1.827   4.782   6.046
 5680SOL    HW117939   1.908   4.819   6.001
 5680SOL    HW217940   1.780   4.719   5.984
 5681SOL     OW17941   0.556   4.096   2.964
 5681SOL    HW117942   0.528   4.126   2.873
 5681SOL    HW217943   0.633   4.032   2.956
 5682SOL     OW17944   2.749   5.597   2.904
 5682SOL    HW117945   2.808   5.516   2.899
 5682SOL    HW217946   2.672   5.578   2.966
 5683SOL     OW17947   4.209   2.684   6.316
 5683SOL    HW117948   4.189   2.676   6.414
 5683SOL    HW217949   4.169   2.606   6.267
 5684SOL     OW17950   2.355   3.815   6.186
 5684SOL    HW117951   2.272   3.868   6.171
 5684SOL    HW217952   2.353   3.733   6.129
 5685SOL     OW17953   1.799   2.032   3.651
 5685SOL    HW117954   1.844   2.037   3.741
 5685SOL    HW217955   1.856   2.078   3.583
 5686SOL     OW17956   3.367   0.861   5.452
 5686SOL    HW117957   3.400   0.909   5.534
 5686SOL    HW217958   3.409   0.770   5.448
 5687SOL     OW17959   7.010   6.390   6.348
 5687SOL    HW117960   7.008   6.304   6.399
 5687SOL    HW217961   6.924   6.439   6.363
 5688SOL     OW17962   2.316   2.711   3.511
 5688SOL    HW117963   2.289   2.761   3.594
 5688SOL    HW217964   2.235   2.695   3.455
 5689SOL     OW17965   2.296   0.328   1.734
 5689SOL    HW117966   2.282   0.355   1.639
 5689SOL    HW217967   2.346   0.400   1.782
 5690SOL     OW17968   1.001   5.036   6.657
 5690SOL    HW117969   1.053   5.010   6.739
 5690SOL    HW217970   0.911   5.070   6.685
 5691SOL     OW17971   3.671   0.789   2.660
 5691SOL    HW117972   3.616   0.834   2.590
 5691SOL    HW217973   3.727   0.717   2.619
 5692SOL     OW17974   4.562   4.640   0.727
 5692SOL    HW117975   4.639   4.647   0.789
 5692SOL    HW217976   4.586   4.678   0.638
 5693SOL     OW17977   4.197   0.499   1.242
 5693SOL    HW117978   4.099   0.497   1.222
 5693SOL    HW217979   4.223   0.417   1.293
 5694SOL     OW17980   0.592   6.959   2.206
 5694SOL    HW117981   0.560   6.915   2.289
 5694SOL    HW217982   0.674   6.912   2.172
 5695SOL     OW17983   1.016   0.619   2.410
 5695SOL    HW117984   0.962   0.582   2.486
 5695SOL    HW217985   0.960   0.621   2.327
 5696SOL     OW17986   1.753   0.678   4.357
 5696SOL    HW117987   1.757   0.598   4.418
 5696SOL    HW217988   1.666   0.677   4.308
 5697SOL     OW17989   6.238   2.104   1.622
 5697SOL    HW117990   6.178   2.053   1.560
 5697SOL    HW217991   6.248   2.197   1.588
 5698SOL     OW17992   1.890   3.713   3.514
 5698SOL    HW117993   1.988   3.713   3.498
 5698SOL    HW217994   1.871   3.737   3.609
 5699SOL     OW17995   2.097   2.239   2.847
 5699SOL    HW117996   2.058   2.173   2.911
 5699SOL    HW217997   2.178   2.199   2.804
 5700SOL     OW17998   6.704   0.096   2.322
 5700SOL    HW117999   6.667   0.003   2.319
 5700SOL    HW218000   6.736   0.116   2.414
 5701SOL     OW18001   0.138   1.391   0.956
 5701SOL    HW118002   0.098   1.371   0.866
 5701SOL    HW218003   0.234   1.418   0.944
 5702SOL     OW18004   1.820   6.514   4.579
 5702SOL    HW118005   1.729   6.496   4.616
 5702SOL    HW218006   1.865   6.585   4.633
 5703SOL     OW18007   0.022   4.312   6.144
 5703SOL    HW118008   0.027   4.222   6.185
 5703SOL    HW218009   6.999   4.375   6.207
 5704SOL     OW18010   5.132   4.377   3.643
 5704SOL    HW118011   5.123   4.476   3.634
 5704SOL    HW218012   5.122   4.334   3.553
 5705SOL     OW18013   6.100   5.788   6.300
 5705SOL    HW118014   6.143   5.717   6.356
 5705SOL    HW218015   6.022   5.748   6.251
 5706SOL     OW18016   5.341   2.884   1.055
 5706SOL    HW118017   5.435   2.882   1.021
 5706SOL    HW218018   5.335   2.834   1.141
 5707SOL     OW18019   5.241   0.320   1.350
 5707SOL    HW118020   5.273   0.344   1.441
 5707SOL    HW218021   5.305   0.355   1.282
 5708SOL     OW18022   5.106   6.208   2.830
 5708SOL    HW118023   5.052   6.277   2.879
 5708SOL    HW218024   5.096   6.120   2.874
 5709SOL     OW18025   0.015   0.885   2.292
 5709SOL    HW118026   0.019   0.798   2.244
 5709SOL    HW218027   6.966   0.881   2.362
 5710SOL     OW18028   2.900   2.587   0.914
 5710SOL    HW118029   2.801   2.593   0.903
 5710SOL    HW218030   2.938   2.524   0.845
 5711SOL     OW18031   5.100   0.792   1.756
 5711SOL    HW118032   5.056   0.757   1.839
 5711SOL    HW218033   5.055   0.876   1.727
 5712SOL     OW18034   6.234   5.880   0.916
 5712SOL    HW118035   6.324   5.867   0.957
 5712SOL    HW218036   6.191   5.961   0.955
 5713SOL     OW18037   2.965   5.056   0.708
 5713SOL    HW118038   3.019   5.138   0.723
 5713SOL    HW218039   2.901   5.044   0.784
 5714SOL     OW18040   6.528   6.490   1.494
 5714SOL    HW118041   6.435   6.520   1.472
 5714SOL    HW218042   6.561   6.543   1.572
 5715SOL     OW18043   0.631   6.632   1.013
 5715SOL    HW118044   0.588   6.607   0.926
 5715SOL    HW218045   0.723   6.666   0.996
 5716SOL     OW18046   1.089   5.329   6.253
 5716SOL    HW118047   1.125   5.273   6.178
 5716SOL    HW218048   1.031   5.273   6.312
 5717SOL     OW18049   2.151   5.026   2.479
 5717SOL    HW118050   2.231   5.055   2.532
 5717SOL    HW218051   2.177   5.010   2.384
 5718SOL     OW18052   0.999   2.883   0.499
 5718SOL    HW118053   1.006   2.788   0.471
 5718SOL    HW218054   0.922   2.927   0.453
 5719SOL     OW18055   2.774   3.590   1.359
 5719SOL    HW118056   2.744   3.556   1.270
 5719SOL    HW218057   2.755   3.688   1.366
 5720SOL     OW18058   2.094   6.402   5.196
 5720SOL    HW118059   2.146   6.470   5.247
 5720SOL    HW218060   2.144   6.316   5.194
 5721SOL     OW18061   5.809   4.525   1.074
 5721SOL    HW118062   5.830   4.437   1.116
 5721SOL    HW218063   5.717   4.553   1.101
 5722SOL     OW18064   0.324   1.361   5.042
 5722SOL    HW118065   0.298   1.356   4.945
 5722SOL    HW218066   0.401   1.423   5.052
 5723SOL     OW18067   3.783   3.526   6.977
 5723SOL    HW118068   3.828   3.615   6.986
 5723SOL    HW218069   3.687   3.539   6.952
 5724SOL     OW18070   6.142   2.436   3.032
 5724SOL    HW118071   6.236   2.467   3.043
 5724SOL    HW218072   6.089   2.505   2.983
 5725SOL     OW18073   5.756   5.545   3.027
 5725SOL    HW118074   5.807   5.459   3.031
 5725SOL    HW218075   5.820   5.622   3.019
 5726SOL     OW18076   5.588   4.325   3.429
 5726SOL    HW118077   5.538   4.370   3.503
 5726SOL    HW218078   5.653   4.260   3.468
 5727SOL     OW18079   0.258   2.690   4.741
 5727SOL    HW118080   0.286   2.765   4.801
 5727SOL    HW218081   0.338   2.634   4.719
 5728SOL     OW18082   4.806   6.154   5.306
 5728SOL    HW118083   4.830   6.224   5.239
 5728SOL    HW218084   4.706   6.143   5.308
 5729SOL     OW18085   2.070   2.214   6.100
 5729SOL    HW118086   2.029   2.136   6.051
 5729SOL    HW218087   2.006   2.246   6.170
 5730SOL     OW18088   6.819   4.482   5.959
 5730SOL    HW118089   6.720   4.481   5.947
 5730SOL    HW218090   6.852   4.577   5.955
 5731SOL     OW18091   6.653   0.019   1.568
 5731SOL    HW118092   6.749   0.030   1.542
 5731SOL    HW218093   6.617   0.107   1.599
 5732SOL     OW18094   1.297   6.244   4.183
 5732SOL    HW118095   1.339   6.329   4.150
 5732SOL    HW218096   1.365   6.192   4.234
 5733SOL     OW18097   3.956   6.665   5.058
 5733SOL    HW118098   3.989   6.753   5.024
 5733SOL    HW218099   3.872   6.640   5.009
 5734SOL     OW18100   1.734   6.143   4.954
 5734SOL    HW118101   1.778   6.181   4.873
 5734SOL    HW218102   1.638   6.124   4.934
 5735SOL     OW18103   2.904   1.702   2.145
 5735SOL    HW118104   2.836   1.760   2.100
 5735SOL    HW218105   2.986   1.697   2.089
 5736SOL     OW18106   0.578   4.786   0.003
 5736SOL    HW118107   0.644   4.761   0.074
 5736SOL    HW218108   0.517   4.709   7.007
 5737SOL     OW18109   6.042   6.352   6.544
 5737SOL    HW118110   6.092   6.362   6.630
 5737SOL    HW218111   6.087   6.283   6.487
 5738SOL     OW18112   1.874   3.346   6.714
 5738SOL    HW118113   1.858   3.437   6.753
 5738SOL    HW218114   1.804   3.325   6.647
 5739SOL     OW18115   1.346   0.999   0.289
 5739SOL    HW118116   1.374   0.948   0.207
 5739SOL    HW218117   1.414   1.069   0.309
 5740SOL     OW18118   4.293   6.131   0.077
 5740SOL    HW118119   4.278   6.183   0.161
 5740SOL    HW218120   4.309   6.035   0.100
 5741SOL     OW18121   6.807   5.673   4.865
 5741SOL    HW118122   6.736   5.732   4.826
 5741SOL    HW218123   6.897   5.712   4.845
 5742SOL     OW18124   6.266   6.827   2.569
 5742SOL    HW118125   6.192   6.882   2.608
 5742SOL    HW218126   6.353   6.876   2.579
 5743SOL     OW18127   2.727   7.005   5.159
 5743SOL    HW118128   2.790   6.980   5.086
 5743SOL    HW218129   2.661   0.048   5.125
 5744SOL     OW18130   5.246   1.513   0.332
 5744SOL    HW118131   5.163   1.496   0.279
 5744SOL    HW218132   5.225   1.510   0.429
 5745SOL     OW18133   1.629   1.702   4.560
 5745SOL    HW118134   1.532   1.677   4.561
 5745SOL    HW218135   1.675   1.658   4.482
 5746SOL     OW18136   5.293   1.702   6.881
 5746SOL    HW118137   5.348   1.776   6.919
 5746SOL    HW218138   5.197   1.715   6.907
 5747SOL     OW18139   0.222   5.377   2.580
 5747SOL    HW118140   0.173   5.302   2.536
 5747SOL    HW218141   0.308   5.343   2.619
 5748SOL     OW18142   2.382   4.793   1.859
 5748SOL    HW118143   2.462   4.743   1.893
 5748SOL    HW218144   2.359   4.762   1.767
 5749SOL     OW18145   2.151   1.926   3.334
 5749SOL    HW118146   2.120   1.992   3.266
 5749SOL    HW218147   2.122   1.834   3.308
 5750SOL     OW18148   6.129   4.803   4.612
 5750SOL    HW118149   6.228   4.815   4.610
 5750SOL    HW218150   6.089   4.873   4.672
 5751SOL     OW18151   1.999   3.298   5.316
 5751SOL    HW118152   1.976   3.239   5.393
 5751SOL    HW218153   2.013   3.243   5.234
 5752SOL     OW18154   6.632   6.789   5.782
 5752SOL    HW118155   6.699   6.715   5.785
 5752SOL    HW218156   6.541   6.752   5.763
 5753SOL     OW18157   3.575   3.150   6.737
 5753SOL    HW118158   3.654   3.206   6.710
 5753SOL    HW218159   3.518   3.132   6.657
 5754SOL     OW18160   5.408   5.485   2.183
 5754SOL    HW118161   5.340   5.491   2.257
 5754SOL    HW218162   5.403   5.394   2.141
 5755SOL     OW18163   3.559   3.871   6.958
 5755SOL    HW118164   3.550   3.772   6.963
 5755SOL    HW218165   3.566   3.899   6.862
 5756SOL     OW18166   6.662   5.121   3.770
 5756SOL    HW118167   6.604   5.043   3.791
 5756SOL    HW218168   6.650   5.148   3.675
 5757SOL     OW18169   6.263   5.580   1.151
 5757SOL    HW118170   6.238   5.555   1.058
 5757SOL    HW218171   6.344   5.528   1.179
 5758SOL     OW18172   2.181   2.155   5.131
 5758SOL    HW118173   2.132   2.153   5.044
 5758SOL    HW218174   2.265   2.208   5.121
 5759SOL     OW18175   4.969   1.377   6.126
 5759SOL    HW118176   5.058   1.365   6.082
 5759SOL    HW218177   4.928   1.464   6.096
 5760SOL     OW18178   1.171   5.224   2.323
 5760SOL    HW118179   1.159   5.214   2.422
 5760SOL    HW218180   1.116   5.156   2.275
 5761SOL     OW18181   4.831   6.560   4.755
 5761SOL    HW118182   4.854   6.545   4.851
 5761SOL    HW218183   4.753   6.622   4.749
 5762SOL     OW18184   5.366   6.511   1.232
 5762SOL    HW118185   5.396   6.554   1.317
 5762SOL    HW218186   5.386   6.413   1.235
 5763SOL     OW18187   1.274   0.327   0.553
 5763SOL    HW118188   1.349   0.359   0.495
 5763SOL    HW218189   1.238   0.241   0.516
 5764SOL     OW18190   5.670   4.156   5.302
 5764SOL    HW118191   5.683   4.254   5.283
 5764SOL    HW218192   5.710   4.102   5.227
 5765SOL     OW18193   6.332   4.171   6.994
 5765SOL    HW118194   6.335   4.188   6.895
 5765SOL    HW218195   6.306   4.076   7.011
 5766SOL     OW18196   2.992   1.867   2.360
 5766SOL    HW118197   2.974   1.960   2.329
 5766SOL    HW218198   2.968   1.802   2.289
 5767SOL     OW18199   0.351   6.206   0.669
 5767SOL    HW118200   0.378   6.222   0.764
 5767SOL    HW218201   0.255   6.177   0.667
 5768SOL     OW18202   6.584   1.065   2.865
 5768SOL    HW118203   6.496   1.030   2.896
 5768SOL    HW218204   6.587   1.063   2.765
 5769SOL     OW18205   2.914   6.177   3.578
 5769SOL    HW118206   2.948   6.220   3.495
 5769SOL    HW218207   2.908   6.078   3.564
 5770SOL     OW18208   6.580   6.909   1.174
 5770SOL    HW118209   6.622   6.997   1.152
 5770SOL    HW218210   6.623   6.870   1.255
 5771SOL     OW18211   1.263   0.403   1.325
 5771SOL    HW118212   1.356   0.434   1.344
 5771SOL    HW218213   1.239   0.423   1.231
 5772SOL     OW18214   5.854   3.417   0.672
 5772SOL    HW118215   5.848   3.322   0.700
 5772SOL    HW218216   5.762   3.453   0.657
 5773SOL     OW18217   5.393   6.443   3.639
 5773SOL    HW118218   5.304   6.428   3.684
 5773SOL    HW218219   5.465   6.449   3.707
 5774SOL     OW18220   2.174   4.692   3.714
 5774SOL    HW118221   2.092   4.642   3.744
 5774SOL    HW218222   2.158   4.730   3.623
 5775SOL     OW18223   6.678   6.856   6.671
 5775SOL    HW118224   6.726   6.852   6.583
 5775SOL    HW218225   6.744   6.872   6.744
 5776SOL     OW18226   5.003   0.307   5.961
 5776SOL    HW118227   5.103   0.306   5.957
 5776SOL    HW218228   4.973   0.335   6.052
 5777SOL     OW18229   0.039   1.222   4.279
 5777SOL    HW118230   0.091   1.249   4.198
 5777SOL    HW218231   6.972   1.189   4.252
 5778SOL     OW18232   1.315   6.564   2.991
 5778SOL    HW118233   1.222   6.531   2.975
 5778SOL    HW218234   1.312   6.644   3.051
 5779SOL     OW18235   4.049   1.192   1.433
 5779SOL    HW118236   4.062   1.150   1.343
 5779SOL    HW218237   3.965   1.156   1.473
 5780SOL     OW18238   0.137   3.977   1.576
 5780SOL    HW118239   0.192   4.056   1.547
 5780SOL    HW218240   0.041   4.005   1.583
 5781SOL     OW18241   2.197   4.544   5.125
 5781SOL    HW118242   2.195   4.446   5.105
 5781SOL    HW218243   2.197   4.595   5.039
 5782SOL     OW18244   2.164   1.034   1.421
 5782SOL    HW118245   2.170   1.040   1.322
 5782SOL    HW218246   2.130   0.943   1.447
 5783SOL     OW18247   1.261   0.134   1.270
 5783SOL    HW118248   1.329   0.069   1.303
 5783SOL    HW218249   1.289   0.227   1.294
 5784SOL     OW18250   0.663   5.846   0.269
 5784SOL    HW118251   0.568   5.824   0.250
 5784SOL    HW218252   0.692   5.923   0.211
 5785SOL     OW18253   1.626   1.642   0.169
 5785SOL    HW118254   1.604   1.553   0.131
 5785SOL    HW218255   1.684   1.631   0.249
 5786SOL     OW18256   1.732   3.043   1.825
 5786SOL    HW118257   1.726   3.136   1.862
 5786SOL    HW218258   1.825   3.025   1.795
 5787SOL     OW18259   6.059   2.492   4.850
 5787SOL    HW118260   6.061   2.522   4.946
 5787SOL    HW218261   6.130   2.424   4.835
 5788SOL     OW18262   2.903   0.851   2.344
 5788SOL    HW118263   2.901   0.861   2.443
 5788SOL    HW218264   2.841   0.777   2.316
 5789SOL     OW18265   4.535   4.172   6.898
 5789SOL    HW118266   4.602   4.147   6.968
 5789SOL    HW218267   4.544   4.269   6.876
 5790SOL     OW18268   5.539   5.826   4.622
 5790SOL    HW118269   5.544   5.879   4.707
 5790SOL    HW218270   5.583   5.878   4.548
 5791SOL     OW18271   4.103   0.953   2.765
 5791SOL    HW118272   4.136   1.048   2.770
 5791SOL    HW218273   4.159   0.895   2.823
 5792SOL     OW18274   4.987   3.820   3.016
 5792SOL    HW118275   4.983   3.746   3.084
 5792SOL    HW218276   5.033   3.787   2.934
 5793SOL     OW18277   5.178   2.301   5.214
 5793SOL    HW118278   5.097   2.294   5.156
 5793SOL    HW218279   5.215   2.394   5.208
 5794SOL     OW18280   3.333   6.523   6.354
 5794SOL    HW118281   3.249   6.484   6.392
 5794SOL    HW218282   3.352   6.481   6.265
 5795SOL     OW18283   0.990   5.076   2.180
 5795SOL    HW118284   0.900   5.031   2.178
 5795SOL    HW218285   0.979   5.172   2.154
 5796SOL     OW18286   4.190   1.745   6.737
 5796SOL    HW118287   4.256   1.673   6.758
 5796SOL    HW218288   4.194   1.766   6.639
 5797SOL     OW18289   5.307   2.611   0.169
 5797SOL    HW118290   5.210   2.630   0.157
 5797SOL    HW218291   5.327   2.518   0.136
 5798SOL     OW18292   1.830   4.197   5.353
 5798SOL    HW118293   1.785   4.192   5.264
 5798SOL    HW218294   1.912   4.140   5.352
 5799SOL     OW18295   1.679   6.566   3.157
 5799SOL    HW118296   1.586   6.602   3.148
 5799SOL    HW218297   1.730   6.585   3.074
 5800SOL     OW18298   0.485   6.528   0.755
 5800SOL    HW118299   0.418   6.589   0.712
 5800SOL    HW218300   0.553   6.501   0.687
 5801SOL     OW18301   2.167   2.315   2.469
 5801SOL    HW118302   2.225   2.314   2.388
 5801SOL    HW218303   2.179   2.230   2.520
 5802SOL     OW18304   7.010   1.532   2.077
 5802SOL    HW118305   6.953   1.603   2.034
 5802SOL    HW218306   0.041   1.573   2.150
 5803SOL     OW18307   1.152   5.048   4.219
 5803SOL    HW118308   1.132   5.058   4.317
 5803SOL    HW218309   1.191   4.957   4.202
 5804SOL     OW18310   6.441   0.692   3.710
 5804SOL    HW118311   6.347   0.704   3.742
 5804SOL    HW218312   6.453   0.738   3.622
 5805SOL     OW18313   2.498   2.914   1.034
 5805SOL    HW118314   2.409   2.959   1.041
 5805SOL    HW218315   2.548   2.950   0.956
 5806SOL     OW18316   0.622   3.167   3.144
 5806SOL    HW118317   0.563   3.136   3.218
 5806SOL    HW218318   0.649   3.089   3.088
 5807SOL     OW18319   0.965   0.006   0.536
 5807SOL    HW118320   0.933   0.062   0.460
 5807SOL    HW218321   0.971   0.061   0.619
 5808SOL     OW18322   5.842   0.662   4.827
 5808SOL    HW118323   5.876   0.756   4.819
 5808SOL    HW218324   5.874   0.609   4.748
 5809SOL     OW18325   0.785   2.077   5.930
 5809SOL    HW118326   0.688   2.088   5.907
 5809SOL    HW218327   0.795   2.010   6.003
 5810SOL     OW18328   3.897   0.022   5.305
 5810SOL    HW118329   3.889   6.953   5.343
 5810SOL    HW218330   3.970   0.023   5.236
 5811SOL     OW18331   2.919   3.511   5.667
 5811SOL    HW118332   2.997   3.490   5.725
 5811SOL    HW218333   2.941   3.588   5.608
 5812SOL     OW18334   5.816   2.659   0.656
 5812SOL    HW118335   5.742   2.717   0.689
 5812SOL    HW218336   5.832   2.677   0.559
 5813SOL     OW18337   4.273   6.705   1.465
 5813SOL    HW118338   4.312   6.796   1.465
 5813SOL    HW218339   4.343   6.638   1.491
 5814SOL     OW18340   5.527   1.796   1.924
 5814SOL    HW118341   5.482   1.868   1.977
 5814SOL    HW218342   5.602   1.836   1.871
 5815SOL     OW18343   6.415   1.633   3.598
 5815SOL    HW118344   6.399   1.534   3.604
 5815SOL    HW218345   6.420   1.660   3.502
 5816SOL     OW18346   7.011   3.939   3.035
 5816SOL    HW118347   0.055   4.008   3.008
 5816SOL    HW218348   6.976   3.961   3.127
 5817SOL     OW18349   5.642   4.634   3.380
 5817SOL    HW118350   5.688   4.675   3.459
 5817SOL    HW218351   5.665   4.685   3.297
 5818SOL     OW18352   2.423   0.255   5.755
 5818SOL    HW118353   2.388   0.243   5.662
 5818SOL    HW218354   2.508   0.307   5.753
 5819SOL     OW18355   4.562   4.927   6.905
 5819SOL    HW118356   4.601   4.921   6.997
 5819SOL    HW218357   4.507   5.010   6.898
 5820SOL     OW18358   5.930   5.276   2.548
 5820SOL    HW118359   5.850   5.322   2.587
 5820SOL    HW218360   5.901   5.193   2.501
 5821SOL     OW18361   6.289   0.800   1.131
 5821SOL    HW118362   6.372   0.775   1.181
 5821SOL    HW218363   6.260   0.892   1.158
 5822SOL     OW18364   2.157   3.260   2.749
 5822SOL    HW118365   2.136   3.190   2.818
 5822SOL    HW218366   2.129   3.226   2.659
 5823SOL     OW18367   2.066   6.248   4.065
 5823SOL    HW118368   2.110   6.314   4.124
 5823SOL    HW218369   2.078   6.156   4.102
 5824SOL     OW18370   0.614   0.042   1.375
 5824SOL    HW118371   0.598   6.980   1.325
 5824SOL    HW218372   0.542   0.108   1.353
 5825SOL     OW18373   6.305   0.590   4.260
 5825SOL    HW118374   6.404   0.601   4.269
 5825SOL    HW218375   6.259   0.666   4.305
 5826SOL     OW18376   0.745   6.853   4.864
 5826SOL    HW118377   0.687   6.812   4.794
 5826SOL    HW218378   0.695   6.927   4.910
 5827SOL     OW18379   2.288   4.816   5.314
 5827SOL    HW118380   2.296   4.856   5.406
 5827SOL    HW218381   2.192   4.809   5.289
 5828SOL     OW18382   4.254   6.790   4.497
 5828SOL    HW118383   4.241   6.876   4.546
 5828SOL    HW218384   4.191   6.785   4.420
 5829SOL     OW18385   2.728   1.189   3.960
 5829SOL    HW118386   2.792   1.120   3.927
 5829SOL    HW218387   2.638   1.147   3.973
 5830SOL     OW18388   4.002   5.689   5.053
 5830SOL    HW118389   4.023   5.765   5.115
 5830SOL    HW218390   4.028   5.602   5.097
 5831SOL     OW18391   1.748   1.506   5.232
 5831SOL    HW118392   1.735   1.423   5.286
 5831SOL    HW218393   1.658   1.546   5.211
 5832SOL     OW18394   2.798   5.204   1.068
 5832SOL    HW118395   2.778   5.245   0.979
 5832SOL    HW218396   2.851   5.121   1.055
 5833SOL     OW18397   4.487   3.566   6.172
 5833SOL    HW118398   4.432   3.573   6.089
 5833SOL    HW218399   4.450   3.628   6.242
 5834SOL     OW18400   5.680   3.892   6.693
 5834SOL    HW118401   5.762   3.866   6.641
 5834SOL    HW218402   5.701   3.972   6.749
 5835SOL     OW18403   5.133   0.889   2.675
 5835SOL    HW118404   5.093   0.903   2.585
 5835SOL    HW218405   5.211   0.951   2.686
 5836SOL     OW18406   3.991   6.842   2.245
 5836SOL    HW118407   3.921   6.845   2.175
 5836SOL    HW218408   4.016   6.746   2.263
 5837SOL     OW18409   3.342   4.291   6.813
 5837SOL    HW118410   3.316   4.379   6.852
 5837SOL    HW218411   3.428   4.260   6.853
 5838SOL     OW18412   3.182   1.763   0.795
 5838SOL    HW118413   3.170   1.821   0.875
 5838SOL    HW218414   3.153   1.812   0.713
 5839SOL     OW18415   1.510   1.749   1.058
 5839SOL    HW118416   1.443   1.783   1.124
 5839SOL    HW218417   1.559   1.671   1.097
 5840SOL     OW18418   1.107   3.579   3.086
 5840SOL    HW118419   1.067   3.563   3.176
 5840SOL    HW218420   1.065   3.518   3.019
 5841SOL     OW18421   5.458   2.316   0.740
 5841SOL    HW118422   5.503   2.244   0.793
 5841SOL    HW218423   5.362   2.292   0.728
 5842SOL     OW18424   2.891   1.624   0.841
 5842SOL    HW118425   2.964   1.639   0.774
 5842SOL    HW218426   2.822   1.562   0.802
 5843SOL     OW18427   1.901   3.404   1.396
 5843SOL    HW118428   1.999   3.418   1.415
 5843SOL    HW218429   1.882   3.306   1.391
 5844SOL     OW18430   0.815   0.632   4.930
 5844SOL    HW118431   0.812   0.612   4.832
 5844SOL    HW218432   0.822   0.731   4.943
 5845SOL     OW18433   1.154   6.200   1.676
 5845SOL    HW118434   1.137   6.284   1.626
 5845SOL    HW218435   1.246   6.203   1.716
 5846SOL     OW18436   6.319   4.209   5.904
 5846SOL    HW118437   6.310   4.154   5.821
 5846SOL    HW218438   6.411   4.198   5.942
 5847SOL     OW18439   3.041   3.315   0.623
 5847SOL    HW118440   2.959   3.322   0.680
 5847SOL    HW218441   3.121   3.298   0.680
 5848SOL     OW18442   2.507   5.648   3.062
 5848SOL    HW118443   2.533   5.624   3.156
 5848SOL    HW218444   2.462   5.570   3.019
 5849SOL     OW18445   2.622   6.114   5.681
 5849SOL    HW118446   2.636   6.132   5.583
 5849SOL    HW218447   2.537   6.158   5.710
 5850SOL     OW18448   0.981   1.566   1.616
 5850SOL    HW118449   0.890   1.556   1.575
 5850SOL    HW218450   0.988   1.655   1.660
 5851SOL     OW18451   5.850   3.093   4.840
 5851SOL    HW118452   5.813   3.015   4.891
 5851SOL    HW218453   5.788   3.115   4.764
 5852SOL     OW18454   4.990   5.207   2.690
 5852SOL    HW118455   4.903   5.250   2.711
 5852SOL    HW218456   4.989   5.112   2.723
 5853SOL     OW18457   3.598   4.629   5.344
 5853SOL    HW118458   3.658   4.710   5.344
 5853SOL    HW218459   3.507   4.655   5.375
 5854SOL     OW18460   3.039   5.185   6.202
 5854SOL    HW118461   3.135   5.209   6.218
 5854SOL    HW218462   3.033   5.093   6.162
 5855SOL     OW18463   2.040   2.725   4.098
 5855SOL    HW118464   2.115   2.666   4.130
 5855SOL    HW218465   1.978   2.744   4.174
 5856SOL     OW18466   1.773   0.030   2.896
 5856SOL    HW118467   1.858   0.064   2.936
 5856SOL    HW218468   1.730   6.988   2.959
 5857SOL     OW18469   6.958   4.254   5.838
 5857SOL    HW118470   0.023   4.217   5.872
 5857SOL    HW218471   6.943   4.344   5.878
 5858SOL     OW18472   2.244   0.742   3.545
 5858SOL    HW118473   2.212   0.693   3.464
 5858SOL    HW218474   2.256   0.677   3.620
 5859SOL     OW18475   5.903   0.155   2.304
 5859SOL    HW118476   5.885   0.078   2.365
 5859SOL    HW218477   5.918   0.121   2.211
 5860SOL     OW18478   0.350   2.994   4.160
 5860SOL    HW118479   0.398   2.931   4.099
 5860SOL    HW218480   0.375   3.088   4.138
 5861SOL     OW18481   4.621   0.784   4.946
 5861SOL    HW118482   4.603   0.850   5.019
 5861SOL    HW218483   4.606   0.829   4.857
 5862SOL     OW18484   6.924   5.007   3.565
 5862SOL    HW118485   6.903   4.994   3.662
 5862SOL    HW218486   6.954   5.101   3.550
 5863SOL     OW18487   3.860   0.253   5.462
 5863SOL    HW118488   3.775   0.306   5.458
 5863SOL    HW218489   3.850   0.170   5.406
 5864SOL     OW18490   2.889   3.691   2.513
 5864SOL    HW118491   2.886   3.620   2.443
 5864SOL    HW218492   2.843   3.773   2.479
 5865SOL     OW18493   5.866   1.255   5.235
 5865SOL    HW118494   5.784   1.290   5.280
 5865SOL    HW218495   5.926   1.331   5.211
 5866SOL     OW18496   3.700   2.898   2.600
 5866SOL    HW118497   3.626   2.874   2.663
 5866SOL    HW218498   3.676   2.867   2.508
 5867SOL     OW18499   2.710   2.374   1.530
 5867SOL    HW118500   2.747   2.456   1.574
 5867SOL    HW218501   2.786   2.313   1.505
 5868SOL     OW18502   0.837   1.239   6.274
 5868SOL    HW118503   0.901   1.169   6.307
 5868SOL    HW218504   0.881   1.292   6.201
 5869SOL     OW18505   1.451   4.783   4.426
 5869SOL    HW118506   1.461   4.864   4.483
 5869SOL    HW218507   1.522   4.717   4.450
 5870SOL     OW18508   4.428   4.608   4.794
 5870SOL    HW118509   4.501   4.674   4.814
 5870SOL    HW218510   4.409   4.554   4.876
 5871SOL     OW18511   3.216   3.550   2.952
 5871SOL    HW118512   3.258   3.626   3.001
 5871SOL    HW218513   3.277   3.471   2.954
 5872SOL     OW18514   3.282   6.193   2.342
 5872SOL    HW118515   3.308   6.097   2.336
 5872SOL    HW218516   3.235   6.210   2.429
 5873SOL     OW18517   3.781   4.844   2.426
 5873SOL    HW118518   3.745   4.854   2.333
 5873SOL    HW218519   3.865   4.790   2.423
 5874SOL     OW18520   2.842   4.854   5.943
 5874SOL    HW118521   2.823   4.762   5.908
 5874SOL    HW218522   2.807   4.863   6.036
 5875SOL     OW18523   2.985   0.967   0.345
 5875SOL    HW118524   2.986   0.874   0.309
 5875SOL    HW218525   3.079   0.997   0.362
 5876SOL     OW18526   3.789   3.263   2.279
 5876SOL    HW118527   3.738   3.197   2.335
 5876SOL    HW218528   3.765   3.250   2.183
 5877SOL     OW18529   5.871   4.774   1.657
 5877SOL    HW118530   5.928   4.712   1.710
 5877SOL    HW218531   5.830   4.724   1.580
 5878SOL     OW18532   2.453   4.747   2.585
 5878SOL    HW118533   2.508   4.800   2.521
 5878SOL    HW218534   2.448   4.652   2.553
 5879SOL     OW18535   0.019   4.120   6.839
 5879SOL    HW118536   6.990   4.085   6.917
 5879SOL    HW218537   0.038   4.044   6.776
 5880SOL     OW18538   2.705   6.338   1.644
 5880SOL    HW118539   2.737   6.243   1.648
 5880SOL    HW218540   2.615   6.341   1.600
 5881SOL     OW18541   0.537   5.202   4.033
 5881SOL    HW118542   0.633   5.188   4.054
 5881SOL    HW218543   0.502   5.124   3.980
 5882SOL     OW18544   4.977   0.351   1.261
 5882SOL    HW118545   4.938   0.418   1.324
 5882SOL    HW218546   5.076   0.347   1.274
 5883SOL     OW18547   6.838   2.954   6.882
 5883SOL    HW118548   6.840   2.858   6.909
 5883SOL    HW218549   6.794   2.963   6.793
 5884SOL     OW18550   0.929   1.515   2.593
 5884SOL    HW118551   0.993   1.591   2.604
 5884SOL    HW218552   0.965   1.451   2.525
 5885SOL     OW18553   5.762   6.353   1.380
 5885SOL    HW118554   5.794   6.265   1.414
 5885SOL    HW218555   5.830   6.392   1.318
 5886SOL     OW18556   0.716   2.082   5.523
 5886SOL    HW118557   0.717   2.002   5.583
 5886SOL    HW218558   0.752   2.161   5.573
 5887SOL     OW18559   3.199   1.031   4.351
 5887SOL    HW118560   3.113   1.031   4.402
 5887SOL    HW218561   3.274   1.005   4.412
 5888SOL     OW18562   2.091   6.039   3.642
 5888SOL    HW118563   2.019   6.091   3.688
 5888SOL    HW218564   2.093   6.063   3.545
 5889SOL     OW18565   2.555   0.340   1.262
 5889SOL    HW118566   2.553   0.347   1.362
 5889SOL    HW218567   2.639   0.380   1.227
 5890SOL     OW18568   2.110   5.736   5.515
 5890SOL    HW118569   2.052   5.817   5.508
 5890SOL    HW218570   2.067   5.669   5.576
 5891SOL     OW18571   3.727   2.998   0.335
 5891SOL    HW118572   3.683   3.080   0.297
 5891SOL    HW218573   3.709   2.921   0.274
 5892SOL     OW18574   0.645   6.422   1.266
 5892SOL    HW118575   0.656   6.416   1.167
 5892SOL    HW218576   0.589   6.502   1.288
 5893SOL     OW18577   1.462   2.065   3.863
 5893SOL    HW118578   1.424   2.145   3.909
 5893SOL    HW218579   1.560   2.079   3.847
 5894SOL     OW18580   1.509   3.604   3.148
 5894SOL    HW118581   1.605   3.580   3.135
 5894SOL    HW218582   1.495   3.635   3.242
 5895SOL     OW18583   5.350   3.160   4.762
 5895SOL    HW118584   5.405   3.079   4.742
 5895SOL    HW218585   5.376   3.234   4.701
 5896SOL     OW18586   4.021   2.242   6.935
 5896SOL    HW118587   4.033   2.338   6.912
 5896SOL    HW218588   4.013   2.232   0.012
 5897SOL     OW18589   3.835   1.166   0.577
 5897SOL    HW118590   3.807   1.262   0.581
 5897SOL    HW218591   3.929   1.157   0.610
 5898SOL     OW18592   2.106   6.759   2.122
 5898SOL    HW118593   2.009   6.770   2.101
 5898SOL    HW218594   2.144   6.847   2.152
 5899SOL     OW18595   5.941   6.714   4.312
 5899SOL    HW118596   5.845   6.734   4.291
 5899SOL    HW218597   5.963   6.622   4.279
 5900SOL     OW18598   4.795   4.910   3.208
 5900SOL    HW118599   4.698   4.930   3.204
 5900SOL    HW218600   4.832   4.938   3.297
 5901SOL     OW18601   2.196   6.383   6.744
 5901SOL    HW118602   2.220   6.393   6.647
 5901SOL    HW218603   2.250   6.310   6.785
 5902SOL     OW18604   6.935   2.522   0.201
 5902SOL    HW118605   6.865   2.588   0.230
 5902SOL    HW218606   6.891   2.445   0.155
 5903SOL     OW18607   6.005   4.231   6.860
 5903SOL    HW118608   6.043   4.149   6.902
 5903SOL    HW218609   5.980   4.297   6.931
 5904SOL     OW18610   0.376   3.576   2.238
 5904SOL    HW118611   0.319   3.593   2.318
 5904SOL    HW218612   0.320   3.538   2.165
 5905SOL     OW18613   6.889   6.272   2.487
 5905SOL    HW118614   6.892   6.234   2.579
 5905SOL    HW218615   6.982   6.290   2.455
 5906SOL     OW18616   5.922   1.190   3.657
 5906SOL    HW118617   5.863   1.110   3.664
 5906SOL    HW218618   5.993   1.186   3.727
 5907SOL     OW18619   0.337   6.548   1.334
 5907SOL    HW118620   0.348   6.505   1.423
 5907SOL    HW218621   0.359   6.645   1.341
 5908SOL     OW18622   0.477   2.642   5.298
 5908SOL    HW118623   0.553   2.705   5.309
 5908SOL    HW218624   0.491   2.586   5.217
 5909SOL     OW18625   0.763   5.941   0.687
 5909SOL    HW118626   0.801   6.033   0.699
 5909SOL    HW218627   0.673   5.948   0.644
 5910SOL     OW18628   1.844   2.309   3.479
 5910SOL    HW118629   1.923   2.253   3.504
 5910SOL    HW218630   1.792   2.333   3.561
 5911SOL     OW18631   6.390   5.457   6.813
 5911SOL    HW118632   6.487   5.468   6.789
 5911SOL    HW218633   6.381   5.387   6.884
 5912SOL     OW18634   6.529   1.504   4.682
 5912SOL    HW118635   6.624   1.534   4.694
 5912SOL    HW218636   6.482   1.506   4.770
 5913SOL     OW18637   5.712   2.820   0.405
 5913SOL    HW118638   5.738   2.900   0.458
 5913SOL    HW218639   5.620   2.791   0.431
 5914SOL     OW18640   1.340   6.435   6.234
 5914SOL    HW118641   1.302   6.395   6.317
 5914SOL    HW218642   1.350   6.533   6.246
 5915SOL     OW18643   3.522   0.021   6.817
 5915SOL    HW118644   3.601   0.056   6.867
 5915SOL    HW218645   3.439   0.066   6.850
 5916SOL     OW18646   1.633   6.629   2.082
 5916SOL    HW118647   1.711   6.569   2.100
 5916SOL    HW218648   1.553   6.595   2.131
 5917SOL     OW18649   3.084   4.456   6.801
 5917SOL    HW118650   3.043   4.405   6.877
 5917SOL    HW218651   3.111   4.392   6.730
 5918SOL     OW18652   2.844   6.421   6.174
 5918SOL    HW118653   2.907   6.479   6.123
 5918SOL    HW218654   2.784   6.373   6.110
 5919SOL     OW18655   3.364   3.118   3.385
 5919SOL    HW118656   3.346   3.036   3.330
 5919SOL    HW218657   3.404   3.189   3.327
 5920SOL     OW18658   6.230   0.126   5.674
 5920SOL    HW118659   6.175   0.112   5.756
 5920SOL    HW218660   6.273   0.040   5.648
 5921SOL     OW18661   3.446   4.716   6.590
 5921SOL    HW118662   3.401   4.711   6.501
 5921SOL    HW218663   3.391   4.667   6.658
 5922SOL     OW18664   6.434   3.584   2.997
 5922SOL    HW118665   6.351   3.537   3.026
 5922SOL    HW218666   6.445   3.668   3.050
 5923SOL     OW18667   6.372   0.859   1.444
 5923SOL    HW118668   6.431   0.796   1.392
 5923SOL    HW218669   6.277   0.830   1.437
 5924SOL     OW18670   5.492   7.019   2.530
 5924SOL    HW118671   5.478   0.095   2.522
 5924SOL    HW218672   5.431   6.982   2.601
 5925SOL     OW18673   4.698   5.184   1.308
 5925SOL    HW118674   4.790   5.216   1.286
 5925SOL    HW218675   4.670   5.220   1.397
 5926SOL     OW18676   4.048   4.829   2.882
 5926SOL    HW118677   4.054   4.731   2.864
 5926SOL    HW218678   3.954   4.860   2.871
 5927SOL     OW18679   1.409   3.910   1.689
 5927SOL    HW118680   1.388   3.928   1.593
 5927SOL    HW218681   1.331   3.936   1.746
 5928SOL     OW18682   4.355   0.717   0.746
 5928SOL    HW118683   4.360   0.701   0.844
 5928SOL    HW218684   4.275   0.669   0.709
 5929SOL     OW18685   0.231   0.523   5.748
 5929SOL    HW118686   0.329   0.537   5.740
 5929SOL    HW218687   0.185   0.611   5.757
 5930SOL     OW18688   1.158   3.242   1.589
 5930SOL    HW118689   1.136   3.187   1.509
 5930SOL    HW218690   1.202   3.184   1.658
 5931SOL     OW18691   5.853   6.042   3.136
 5931SOL    HW118692   5.871   6.132   3.175
 5931SOL    HW218693   5.810   6.052   3.046
 5932SOL     OW18694   2.899   0.416   6.199
 5932SOL    HW118695   2.829   0.481   6.171
 5932SOL    HW218696   2.867   0.323   6.181
 5933SOL     OW18697   6.569   5.291   4.481
 5933SOL    HW118698   6.656   5.243   4.470
 5933SOL    HW218699   6.552   5.347   4.400
 5934SOL     OW18700   3.358   3.586   5.680
 5934SOL    HW118701   3.457   3.586   5.675
 5934SOL    HW218702   3.327   3.522   5.750
 5935SOL     OW18703   0.451   6.438   4.852
 5935SOL    HW118704   0.450   6.516   4.915
 5935SOL    HW218705   0.528   6.447   4.788
 5936SOL     OW18706   3.568   3.481   3.184
 5936SOL    HW118707   3.481   3.439   3.161
 5936SOL    HW218708   3.626   3.414   3.231
 5937SOL     OW18709   0.070   2.854   2.310
 5937SOL    HW118710   0.019   2.930   2.351
 5937SOL    HW218711   0.093   2.876   2.215
 5938SOL     OW18712   6.304   5.031   5.325
 5938SOL    HW118713   6.330   5.107   5.384
 5938SOL    HW218714   6.258   4.961   5.379
 5939SOL     OW18715   3.802   6.844   4.329
 5939SOL    HW118716   3.801   6.811   4.235
 5939SOL    HW218717   3.784   6.942   4.330
 5940SOL     OW18718   4.874   5.521   2.848
 5940SOL    HW118719   4.961   5.487   2.812
 5940SOL    HW218720   4.880   5.620   2.860
 5941SOL     OW18721   6.568   1.885   1.832
 5941SOL    HW118722   6.614   1.968   1.798
 5941SOL    HW218723   6.491   1.863   1.772
 5942SOL     OW18724   6.356   3.386   6.364
 5942SOL    HW118725   6.383   3.482   6.377
 5942SOL    HW218726   6.294   3.359   6.438
 5943SOL     OW18727   3.868   3.645   0.600
 5943SOL    HW118728   3.801   3.580   0.564
 5943SOL    HW218729   3.959   3.623   0.564
 5944SOL     OW18730   0.780   3.232   6.727
 5944SOL    HW118731   0.712   3.200   6.661
 5944SOL    HW218732   0.858   3.272   6.678
 5945SOL     OW18733   0.561   5.658   5.292
 5945SOL    HW118734   0.529   5.643   5.199
 5945SOL    HW218735   0.500   5.612   5.356
 5946SOL     OW18736   3.898   4.415   6.859
 5946SOL    HW118737   3.918   4.381   6.767
 5946SOL    HW218738   3.962   4.375   6.924
 5947SOL     OW18739   3.177   3.471   4.619
 5947SOL    HW118740   3.229   3.402   4.569
 5947SOL    HW218741   3.084   3.438   4.636
 5948SOL     OW18742   5.168   3.902   2.050
 5948SOL    HW118743   5.069   3.916   2.061
 5948SOL    HW218744   5.215   3.937   2.131
 5949SOL     OW18745   6.032   5.724   1.251
 5949SOL    HW118746   6.127   5.700   1.230
 5949SOL    HW218747   6.031   5.800   1.317
 5950SOL     OW18748   5.540   2.559   5.969
 5950SOL    HW118749   5.500   2.588   5.882
 5950SOL    HW218750   5.468   2.555   6.039
 5951SOL     OW18751   1.112   4.742   5.620
 5951SOL    HW118752   1.028   4.783   5.583
 5951SOL    HW218753   1.119   4.647   5.588
 5952SOL     OW18754   4.038   4.739   1.767
 5952SOL    HW118755   4.040   4.818   1.705
 5952SOL    HW218756   4.021   4.770   1.860
 5953SOL     OW18757   6.165   2.440   5.147
 5953SOL    HW118758   6.171   2.341   5.132
 5953SOL    HW218759   6.097   2.459   5.217
 5954SOL     OW18760   0.397   5.605   4.757
 5954SOL    HW118761   0.382   5.564   4.847
 5954SOL    HW218762   0.467   5.676   4.765
 5955SOL     OW18763   5.005   4.650   1.331
 5955SOL    HW118764   4.921   4.597   1.316
 5955SOL    HW218765   5.045   4.676   1.243
 5956SOL     OW18766   5.010   2.698   4.326
 5956SOL    HW118767   5.062   2.684   4.411
 5956SOL    HW218768   4.934   2.760   4.344
 5957SOL     OW18769   1.293   1.024   2.680
 5957SOL    HW118770   1.260   0.936   2.715
 5957SOL    HW218771   1.217   1.074   2.639
 5958SOL     OW18772   3.934   6.746   2.764
 5958SOL    HW118773   3.874   6.821   2.791
 5958SOL    HW218774   3.934   6.738   2.664
 5959SOL     OW18775   5.242   2.271   4.808
 5959SOL    HW118776   5.284   2.250   4.720
 5959SOL    HW218777   5.302   2.331   4.861
 5960SOL     OW18778   3.596   6.605   5.588
 5960SOL    HW118779   3.503   6.629   5.615
 5960SOL    HW218780   3.653   6.593   5.669
 5961SOL     OW18781   4.023   1.849   2.480
 5961SOL    HW118782   3.999   1.864   2.576
 5961SOL    HW218783   4.084   1.769   2.474
 5962SOL     OW18784   5.430   6.261   0.121
 5962SOL    HW118785   5.499   6.291   0.055
 5962SOL    HW218786   5.374   6.339   0.149
 5963SOL     OW18787   3.820   4.737   6.647
 5963SOL    HW118788   3.859   4.686   6.724
 5963SOL    HW218789   3.868   4.711   6.563
 5964SOL     OW18790   2.003   6.657   2.386
 5964SOL    HW118791   1.911   6.687   2.362
 5964SOL    HW218792   2.063   6.669   2.306
 5965SOL     OW18793   1.663   0.009   6.693
 5965SOL    HW118794   1.738   6.977   6.733
 5965SOL    HW218795   1.617   0.060   6.766
 5966SOL     OW18796   1.886   0.366   5.542
 5966SOL    HW118797   1.794   0.336   5.569
 5966SOL    HW218798   1.944   0.287   5.529
 5967SOL     OW18799   2.462   2.179   4.810
 5967SOL    HW118800   2.469   2.087   4.772
 5967SOL    HW218801   2.382   2.225   4.772
 5968SOL     OW18802   5.576   2.438   0.288
 5968SOL    HW118803   5.502   2.384   0.249
 5968SOL    HW218804   5.538   2.513   0.342
 5969SOL     OW18805   5.347   1.052   6.324
 5969SOL    HW118806   5.335   0.957   6.352
 5969SOL    HW218807   5.275   1.108   6.366
 5970SOL     OW18808   0.585   3.262   0.715
 5970SOL    HW118809   0.561   3.348   0.760
 5970SOL    HW218810   0.569   3.186   0.778
 5971SOL     OW18811   6.388   0.003   3.240
 5971SOL    HW118812   6.291   7.006   3.222
 5971SOL    HW218813   6.399   0.030   3.336
 5972SOL     OW18814   4.941   5.140   0.696
 5972SOL    HW118815   4.985   5.107   0.613
 5972SOL    HW218816   4.864   5.080   0.719
 5973SOL     OW18817   1.814   3.291   2.643
 5973SOL    HW118818   1.750   3.220   2.673
 5973SOL    HW218819   1.894   3.248   2.601
 5974SOL     OW18820   3.824   0.525   6.504
 5974SOL    HW118821   3.909   0.495   6.460
 5974SOL    HW218822   3.753   0.456   6.487
 5975SOL     OW18823   5.207   4.475   0.442
 5975SOL    HW118824   5.119   4.430   0.425
 5975SOL    HW218825   5.211   4.560   0.389
 5976SOL     OW18826   3.673   3.601   5.763
 5976SOL    HW118827   3.666   3.502   5.764
 5976SOL    HW218828   3.769   3.629   5.770
 5977SOL     OW18829   0.305   4.985   0.362
 5977SOL    HW118830   0.255   5.060   0.319
 5977SOL    HW218831   0.403   5.002   0.357
 5978SOL     OW18832   3.339   5.213   6.869
 5978SOL    HW118833   3.408   5.193   6.938
 5978SOL    HW218834   3.305   5.306   6.882
 5979SOL     OW18835   6.593   0.594   1.556
 5979SOL    HW118836   6.593   0.586   1.456
 5979SOL    HW218837   6.674   0.548   1.593
 5980SOL     OW18838   3.518   2.681   1.835
 5980SOL    HW118839   3.582   2.722   1.900
 5980SOL    HW218840   3.564   2.606   1.787
 5981SOL     OW18841   4.600   2.855   0.551
 5981SOL    HW118842   4.530   2.907   0.600
 5981SOL    HW218843   4.685   2.855   0.604
 5982SOL     OW18844   5.954   1.904   2.573
 5982SOL    HW118845   5.908   1.831   2.624
 5982SOL    HW218846   5.885   1.970   2.542
 5983SOL     OW18847   6.997   0.878   4.709
 5983SOL    HW118848   6.977   0.861   4.805
 5983SOL    HW218849   0.053   0.939   4.701
 5984SOL     OW18850   6.334   6.668   3.491
 5984SOL    HW118851   6.364   6.664   3.396
 5984SOL    HW218852   6.405   6.712   3.546
 5985SOL     OW18853   5.976   1.782   3.657
 5985SOL    HW118854   6.055   1.833   3.624
 5985SOL    HW218855   6.001   1.686   3.669
 5986SOL     OW18856   4.330   3.898   5.306
 5986SOL    HW118857   4.288   3.985   5.329
 5986SOL    HW218858   4.268   3.823   5.330
 5987SOL     OW18859   6.939   0.636   4.597
 5987SOL    HW118860   6.840   0.631   4.603
 5987SOL    HW218861   6.971   0.723   4.633
 5988SOL     OW18862   3.012   1.561   0.093
 5988SOL    HW118863   2.955   1.502   0.149
 5988SOL    HW218864   3.042   1.640   0.146
 5989SOL     OW18865   0.801   6.021   6.579
 5989SOL    HW118866   0.784   5.984   6.670
 5989SOL    HW218867   0.849   6.109   6.588
 5990SOL     OW18868   3.804   4.469   1.325
 5990SOL    HW118869   3.853   4.524   1.258
 5990SOL    HW218870   3.844   4.378   1.330
 5991SOL     OW18871   4.821   5.895   0.840
 5991SOL    HW118872   4.785   5.830   0.774
 5991SOL    HW218873   4.758   5.972   0.849
 5992SOL     OW18874   3.308   0.278   1.787
 5992SOL    HW118875   3.408   0.274   1.783
 5992SOL    HW218876   3.271   0.290   1.694
 5993SOL     OW18877   6.176   3.296   0.607
 5993SOL    HW118878   6.245   3.350   0.655
 5993SOL    HW218879   6.089   3.302   0.655
 5994SOL     OW18880   6.837   2.810   1.164
 5994SOL    HW118881   6.839   2.844   1.258
 5994SOL    HW218882   6.878   2.718   1.161
 5995SOL     OW18883   4.822   3.356   1.210
 5995SOL    HW118884   4.810   3.415   1.130
 5995SOL    HW218885   4.734   3.341   1.254
 5996SOL     OW18886   2.615   5.646   1.309
 5996SOL    HW118887   2.680   5.722   1.313
 5996SOL    HW218888   2.652   5.574   1.250
 5997SOL     OW18889   6.470   6.815   2.956
 5997SOL    HW118890   6.504   6.734   2.908
 5997SOL    HW218891   6.382   6.794   2.999
 5998SOL     OW18892   5.997   0.804   2.059
 5998SOL    HW118893   5.984   0.765   2.150
 5998SOL    HW218894   6.086   0.776   2.023
 5999SOL     OW18895   4.065   3.581   1.024
 5999SOL    HW118896   4.132   3.556   1.094
 5999SOL    HW218897   4.109   3.578   0.934
 6000SOL     OW18898   0.152   5.447   0.320
 6000SOL    HW118899   0.193   5.443   0.228
 6000SOL    HW218900   0.060   5.484   0.313
 6001SOL     OW18901   4.985   6.373   5.518
 6001SOL    HW118902   4.976   6.328   5.430
 6001SOL    HW218903   4.908   6.436   5.531
 6002SOL     OW18904   6.963   6.770   4.725
 6002SOL    HW118905   0.008   6.778   4.798
 6002SOL    HW218906   6.872   6.758   4.765
 6003SOL     OW18907   6.344   2.762   4.454
 6003SOL    HW118908   6.358   2.764   4.355
 6003SOL    HW218909   6.433   2.765   4.500
 6004SOL     OW18910   5.211   2.474   3.279
 6004SOL    HW118911   5.205   2.501   3.183
 6004SOL    HW218912   5.145   2.401   3.297
 6005SOL     OW18913   4.632   4.130   5.139
 6005SOL    HW118914   4.579   4.194   5.194
 6005SOL    HW218915   4.592   4.123   5.047
 6006SOL     OW18916   3.512   6.924   5.291
 6006SOL    HW118917   3.559   6.985   5.227
 6006SOL    HW218918   3.492   6.838   5.245
 6007SOL     OW18919   0.367   4.232   5.970
 6007SOL    HW118920   0.455   4.200   5.935
 6007SOL    HW218921   0.357   4.330   5.952
 6008SOL     OW18922   2.387   4.274   5.276
 6008SOL    HW118923   2.316   4.307   5.214
 6008SOL    HW218924   2.352   4.195   5.327
 6009SOL     OW18925   4.543   5.659   3.220
 6009SOL    HW118926   4.506   5.729   3.160
 6009SOL    HW218927   4.530   5.569   3.179
 6010SOL     OW18928   6.993   4.290   4.601
 6010SOL    HW118929   0.000   4.385   4.596
 6010SOL    HW218930   6.896   4.287   4.625
 6011SOL     OW18931   4.861   1.504   2.963
 6011SOL    HW118932   4.955   1.472   2.952
 6011SOL    HW218933   4.855   1.563   3.044
 6012SOL     OW18934   6.056   0.518   0.037
 6012SOL    HW118935   6.016   0.600   7.019
 6012SOL    HW218936   6.024   0.509   0.132
 6013SOL     OW18937   5.048   0.913   2.408
 6013SOL    HW118938   5.050   1.012   2.393
 6013SOL    HW218939   4.955   0.886   2.434
 6014SOL     OW18940   2.940   3.308   4.590
 6014SOL    HW118941   2.903   3.216   4.606
 6014SOL    HW218942   2.932   3.330   4.493
 6015SOL     OW18943   6.481   2.473   4.630
 6015SOL    HW118944   6.534   2.516   4.557
 6015SOL    HW218945   6.447   2.543   4.692
 6016SOL     OW18946   4.803   1.735   5.001
 6016SOL    HW118947   4.766   1.652   5.043
 6016SOL    HW218948   4.835   1.713   4.908
 6017SOL     OW18949   6.737   3.287   5.149
 6017SOL    HW118950   6.702   3.372   5.109
 6017SOL    HW218951   6.797   3.308   5.226
 6018SOL     OW18952   3.366   1.274   4.849
 6018SOL    HW118953   3.313   1.359   4.850
 6018SOL    HW218954   3.462   1.294   4.866
 6019SOL     OW18955   0.894   3.740   6.008
 6019SOL    HW118956   0.833   3.703   5.938
 6019SOL    HW218957   0.984   3.696   6.000
 6020SOL     OW18958   1.217   5.136   0.706
 6020SOL    HW118959   1.313   5.108   0.704
 6020SOL    HW218960   1.210   5.235   0.694
 6021SOL     OW18961   4.009   0.436   2.475
 6021SOL    HW118962   4.060   0.409   2.393
 6021SOL    HW218963   4.060   0.409   2.556
 6022SOL     OW18964   6.318   1.008   2.945
 6022SOL    HW118965   6.328   0.947   3.023
 6022SOL    HW218966   6.292   1.099   2.976
 6023SOL     OW18967   4.840   0.505   1.468
 6023SOL    HW118968   4.769   0.541   1.407
 6023SOL    HW218969   4.803   0.497   1.561
 6024SOL     OW18970   0.242   4.568   1.189
 6024SOL    HW118971   0.164   4.625   1.162
 6024SOL    HW218972   0.327   4.619   1.174
 6025SOL     OW18973   2.809   1.443   4.059
 6025SOL    HW118974   2.886   1.474   4.002
 6025SOL    HW218975   2.782   1.351   4.032
 6026SOL     OW18976   6.407   4.060   4.086
 6026SOL    HW118977   6.343   4.083   4.159
 6026SOL    HW218978   6.416   3.960   4.080
 6027SOL     OW18979   5.605   3.768   6.281
 6027SOL    HW118980   5.643   3.852   6.321
 6027SOL    HW218981   5.645   3.689   6.326
 6028SOL     OW18982   5.020   4.656   0.610
 6028SOL    HW118983   5.078   4.730   0.643
 6028SOL    HW218984   5.077   4.585   0.569
 6029SOL     OW18985   2.500   0.233   3.328
 6029SOL    HW118986   2.548   0.219   3.241
 6029SOL    HW218987   2.534   0.168   3.395
 6030SOL     OW18988   4.898   3.770   4.762
 6030SOL    HW118989   4.896   3.730   4.671
 6030SOL    HW218990   4.848   3.711   4.826
 6031SOL     OW18991   0.922   5.837   4.073
 6031SOL    HW118992   0.892   5.932   4.071
 6031SOL    HW218993   0.925   5.805   4.167
 6032SOL     OW18994   3.222   6.434   4.246
 6032SOL    HW118995   3.226   6.379   4.162
 6032SOL    HW218996   3.256   6.379   4.323
 6033SOL     OW18997   2.337   2.581   2.569
 6033SOL    HW118998   2.284   2.502   2.537
 6033SOL    HW218999   2.277   2.644   2.618
 6034SOL     OW19000   1.354   0.103   6.369
 6034SOL    HW119001   1.420   0.032   6.395
 6034SOL    HW219002   1.268   0.060   6.342
 6035SOL     OW19003   0.630   0.909   2.796
 6035SOL    HW119004   0.681   0.826   2.818
 6035SOL    HW219005   0.664   0.947   2.710
 6036SOL     OW19006   6.063   4.740   1.208
 6036SOL    HW119007   6.022   4.799   1.278
 6036SOL    HW219008   6.069   4.790   1.122
 6037SOL     OW19009   4.183   1.362   0.886
 6037SOL    HW119010   4.193   1.402   0.795
 6037SOL    HW219011   4.247   1.406   0.949
 6038SOL     OW19012   0.923   2.338   6.364
 6038SOL    HW119013   0.897   2.245   6.388
 6038SOL    HW219014   0.926   2.394   6.447
 6039SOL     OW19015   3.716   3.758   3.886
 6039SOL    HW119016   3.682   3.777   3.978
 6039SOL    HW219017   3.805   3.712   3.892
 6040SOL     OW19018   1.570   1.805   6.979
 6040SOL    HW119019   1.656   1.853   6.967
 6040SOL    HW219020   1.580   1.733   0.025
 6041SOL     OW19021   2.807   2.609   5.696
 6041SOL    HW119022   2.798   2.517   5.659
 6041SOL    HW219023   2.850   2.669   5.628
 6042SOL     OW19024   3.954   6.452   3.535
 6042SOL    HW119025   3.903   6.370   3.558
 6042SOL    HW219026   3.951   6.467   3.436
 6043SOL     OW19027   1.947   1.030   3.630
 6043SOL    HW119028   2.044   1.005   3.635
 6043SOL    HW219029   1.895   0.953   3.593
 6044SOL     OW19030   1.763   1.645   1.863
 6044SOL    HW119031   1.673   1.616   1.895
 6044SOL    HW219032   1.826   1.647   1.940
 6045SOL     OW19033   5.267   3.303   3.503
 6045SOL    HW119034   5.170   3.311   3.481
 6045SOL    HW219035   5.281   3.314   3.601
 6046SOL     OW19036   3.660   2.509   1.682
 6046SOL    HW119037   3.736   2.515   1.617
 6046SOL    HW219038   3.681   2.440   1.751
 6047SOL     OW19039   5.615   2.098   0.821
 6047SOL    HW119040   5.624   2.033   0.746
 6047SOL    HW219041   5.598   2.048   0.906
 6048SOL     OW19042   5.694   5.085   4.843
 6048SOL    HW119043   5.621   5.100   4.776
 6048SOL    HW219044   5.730   4.992   4.832
 6049SOL     OW19045   5.395   4.830   5.946
 6049SOL    HW119046   5.432   4.743   5.978
 6049SOL    HW219047   5.306   4.846   5.987
 6050SOL     OW19048   3.071   5.369   0.872
 6050SOL    HW119049   3.168   5.342   0.877
 6050SOL    HW219050   3.065   5.462   0.836
 6051SOL     OW19051   0.705   1.524   2.771
 6051SOL    HW119052   0.701   1.440   2.825
 6051SOL    HW219053   0.780   1.517   2.704
 6052SOL     OW19054   5.433   0.319   1.158
 6052SOL    HW119055   5.519   0.364   1.179
 6052SOL    HW219056   5.428   0.301   1.060
 6053SOL     OW19057   4.679   1.401   6.057
 6053SOL    HW119058   4.745   1.345   6.007
 6053SOL    HW219059   4.590   1.396   6.011
 6054SOL     OW19060   3.842   5.403   0.395
 6054SOL    HW119061   3.879   5.494   0.378
 6054SOL    HW219062   3.899   5.357   0.463
 6055SOL     OW19063   3.301   5.197   6.278
 6055SOL    HW119064   3.325   5.289   6.309
 6055SOL    HW219065   3.380   5.137   6.284
 6056SOL     OW19066   5.904   2.666   5.157
 6056SOL    HW119067   5.960   2.744   5.131
 6056SOL    HW219068   5.808   2.694   5.162
 6057SOL     OW19069   4.811   0.557   2.535
 6057SOL    HW119070   4.885   0.588   2.595
 6057SOL    HW219071   4.796   0.624   2.462
 6058SOL     OW19072   6.135   3.773   0.796
 6058SOL    HW119073   6.095   3.684   0.819
 6058SOL    HW219074   6.189   3.806   0.873
 6059SOL     OW19075   5.282   4.384   5.477
 6059SOL    HW119076   5.222   4.440   5.419
 6059SOL    HW219077   5.234   4.362   5.562
 6060SOL     OW19078   3.362   3.240   0.362
 6060SOL    HW119079   3.394   3.191   0.443
 6060SOL    HW219080   3.407   3.202   0.281
 6061SOL     OW19081   3.796   4.635   0.504
 6061SOL    HW119082   3.841   4.722   0.483
 6061SOL    HW219083   3.765   4.634   0.599
 6062SOL     OW19084   2.651   2.040   6.979
 6062SOL    HW119085   2.585   1.974   7.016
 6062SOL    HW219086   2.732   2.043   0.015
 6063SOL     OW19087   3.921   4.327   5.598
 6063SOL    HW119088   3.959   4.268   5.527
 6063SOL    HW219089   3.838   4.371   5.564
 6064SOL     OW19090   6.977   0.454   0.498
 6064SOL    HW119091   6.934   0.363   0.490
 6064SOL    HW219092   6.945   0.512   0.424
 6065SOL     OW19093   1.174   5.325   1.932
 6065SOL    HW119094   1.239   5.262   1.974
 6065SOL    HW219095   1.220   5.377   1.860
 6066SOL     OW19096   5.399   0.809   3.593
 6066SOL    HW119097   5.329   0.755   3.546
 6066SOL    HW219098   5.481   0.813   3.537
 6067SOL     OW19099   6.082   0.118   5.199
 6067SOL    HW119100   6.176   0.141   5.174
 6067SOL    HW219101   6.019   0.181   5.155
 6068SOL     OW19102   5.122   1.495   4.921
 6068SOL    HW119103   5.050   1.480   4.989
 6068SOL    HW219104   5.102   1.441   4.839
 6069SOL     OW19105   0.212   3.065   5.684
 6069SOL    HW119106   0.238   3.075   5.588
 6069SOL    HW219107   0.290   3.034   5.737
 6070SOL     OW19108   3.667   2.159   1.668
 6070SOL    HW119109   3.683   2.229   1.738
 6070SOL    HW219110   3.700   2.071   1.701
 6071SOL     OW19111   0.178   6.218   4.551
 6071SOL    HW119112   0.177   6.267   4.638
 6071SOL    HW219113   0.212   6.125   4.565
 6072SOL     OW19114   0.375   2.022   0.526
 6072SOL    HW119115   0.278   2.024   0.550
 6072SOL    HW219116   0.386   1.983   0.435
 6073SOL     OW19117   4.906   3.108   1.182
 6073SOL    HW119118   4.886   3.078   1.088
 6073SOL    HW219119   4.882   3.204   1.192
 6074SOL     OW19120   1.113   6.522   2.503
 6074SOL    HW119121   1.050   6.487   2.434
 6074SOL    HW219122   1.166   6.597   2.464
 6075SOL     OW19123   4.734   6.790   6.367
 6075SOL    HW119124   4.678   6.831   6.295
 6075SOL    HW219125   4.803   6.856   6.398
 6076SOL     OW19126   2.512   4.986   4.189
 6076SOL    HW119127   2.425   4.974   4.237
 6076SOL    HW219128   2.521   5.082   4.161
 6077SOL     OW19129   5.244   6.465   0.983
 6077SOL    HW119130   5.298   6.504   1.058
 6077SOL    HW219131   5.179   6.534   0.950
 6078SOL     OW19132   4.241   4.214   0.488
 6078SOL    HW119133   4.229   4.209   0.587
 6078SOL    HW219134   4.330   4.254   0.466
 6079SOL     OW19135   4.254   4.545   6.284
 6079SOL    HW119136   4.350   4.561   6.263
 6079SOL    HW219137   4.200   4.553   6.201
 6080SOL     OW19138   1.262   4.676   1.579
 6080SOL    HW119139   1.343   4.732   1.599
 6080SOL    HW219140   1.209   4.718   1.506
 6081SOL     OW19141   0.770   3.868   5.367
 6081SOL    HW119142   0.674   3.873   5.339
 6081SOL    HW219143   0.777   3.876   5.467
 6082SOL     OW19144   3.826   0.496   1.821
 6082SOL    HW119145   3.831   0.397   1.834
 6082SOL    HW219146   3.740   0.520   1.776
 6083SOL     OW19147   5.491   0.072   0.344
 6083SOL    HW119148   5.467   0.168   0.341
 6083SOL    HW219149   5.427   0.023   0.404
 6084SOL     OW19150   0.876   6.273   1.777
 6084SOL    HW119151   0.972   6.288   1.752
 6084SOL    HW219152   0.845   6.186   1.737
 6085SOL     OW19153   6.342   6.081   6.546
 6085SOL    HW119154   6.395   6.162   6.569
 6085SOL    HW219155   6.337   6.021   6.627
 6086SOL     OW19156   4.044   2.872   6.785
 6086SOL    HW119157   3.995   2.941   6.732
 6086SOL    HW219158   4.093   2.917   6.860
 6087SOL     OW19159   4.891   6.374   0.231
 6087SOL    HW119160   4.963   6.425   0.278
 6087SOL    HW219161   4.885   6.405   0.136
 6088SOL     OW19162   5.240   6.522   5.376
 6088SOL    HW119163   5.219   6.430   5.344
 6088SOL    HW219164   5.309   6.562   5.316
 6089SOL     OW19165   6.904   1.882   2.306
 6089SOL    HW119166   6.805   1.870   2.318
 6089SOL    HW219167   6.924   1.897   2.209
 6090SOL     OW19168   3.084   5.228   4.274
 6090SOL    HW119169   3.122   5.232   4.181
 6090SOL    HW219170   2.995   5.182   4.271
 6091SOL     OW19171   2.562   1.038   1.556
 6091SOL    HW119172   2.534   1.028   1.460
 6091SOL    HW219173   2.588   1.133   1.574
 6092SOL     OW19174   3.894   0.253   1.928
 6092SOL    HW119175   3.984   0.219   1.900
 6092SOL    HW219176   3.905   0.330   1.991
 6093SOL     OW19177   1.924   1.664   2.103
 6093SOL    HW119178   1.975   1.580   2.087
 6093SOL    HW219179   1.941   1.696   2.196
 6094SOL     OW19180   0.793   6.755   4.390
 6094SOL    HW119181   0.777   6.774   4.487
 6094SOL    HW219182   0.884   6.786   4.364
 6095SOL     OW19183   4.531   5.590   6.974
 6095SOL    HW119184   4.555   5.614   6.880
 6095SOL    HW219185   4.584   5.646   0.014
 6096SOL     OW19186   5.769   6.336   2.550
 6096SOL    HW119187   5.703   6.265   2.574
 6096SOL    HW219188   5.862   6.301   2.562
 6097SOL     OW19189   1.344   5.768   1.739
 6097SOL    HW119190   1.429   5.808   1.775
 6097SOL    HW219191   1.365   5.681   1.695
 6098SOL     OW19192   6.887   0.889   5.523
 6098SOL    HW119193   6.856   0.984   5.516
 6098SOL    HW219194   6.808   0.828   5.520
 6099SOL     OW19195   5.350   6.191   5.866
 6099SOL    HW119196   5.291   6.247   5.807
 6099SOL    HW219197   5.446   6.209   5.843
 6100SOL     OW19198   0.557   5.513   2.469
 6100SOL    HW119199   0.574   5.561   2.555
 6100SOL    HW219200   0.488   5.442   2.484
 6101SOL     OW19201   6.640   2.218   1.798
 6101SOL    HW119202   6.710   2.175   1.854
 6101SOL    HW219203   6.595   2.291   1.851
 6102SOL     OW19204   4.348   6.043   2.584
 6102SOL    HW119205   4.400   6.059   2.500
 6102SOL    HW219206   4.268   6.103   2.585
 6103SOL     OW19207   6.992   1.516   1.163
 6103SOL    HW119208   6.955   1.439   1.215
 6103SOL    HW219209   0.027   1.481   1.089
 6104SOL     OW19210   6.252   1.456   5.195
 6104SOL    HW119211   6.350   1.470   5.179
 6104SOL    HW219212   6.239   1.388   5.267
 6105SOL     OW19213   2.801   5.373   5.853
 6105SOL    HW119214   2.851   5.383   5.939
 6105SOL    HW219215   2.806   5.278   5.823
 6106SOL     OW19216   0.713   3.869   0.417
 6106SOL    HW119217   0.614   3.861   0.430
 6106SOL    HW219218   0.753   3.778   0.414
 6107SOL     OW19219   5.047   5.300   4.535
 6107SOL    HW119220   5.116   5.229   4.544
 6107SOL    HW219221   5.088   5.382   4.495
 6108SOL     OW19222   1.354   1.675   1.887
 6108SOL    HW119223   1.396   1.697   1.799
 6108SOL    HW219224   1.426   1.657   1.955
 6109SOL     OW19225   5.625   0.630   3.898
 6109SOL    HW119226   5.668   0.553   3.945
 6109SOL    HW219227   5.527   0.631   3.919
 6110SOL     OW19228   0.647   2.608   6.057
 6110SOL    HW119229   0.694   2.695   6.074
 6110SOL    HW219230   0.704   2.533   6.088
 6111SOL     OW19231   1.125   3.559   2.013
 6111SOL    HW119232   1.096   3.650   2.043
 6111SOL    HW219233   1.223   3.561   1.991
 6112SOL     OW19234   3.516   0.733   2.200
 6112SOL    HW119235   3.579   0.722   2.123
 6112SOL    HW219236   3.543   0.671   2.274
 6113SOL     OW19237   2.525   3.823   6.663
 6113SOL    HW119238   2.531   3.821   6.763
 6113SOL    HW219239   2.600   3.878   6.626
 6114SOL     OW19240   4.503   2.110   2.331
 6114SOL    HW119241   4.530   2.194   2.379
 6114SOL    HW219242   4.437   2.060   2.387
 6115SOL     OW19243   0.288   1.383   5.451
 6115SOL    HW119244   0.315   1.287   5.454
 6115SOL    HW219245   0.190   1.390   5.434
 6116SOL     OW19246   4.013   2.258   5.226
 6116SOL    HW119247   4.063   2.185   5.272
 6116SOL    HW219248   3.957   2.307   5.292
 6117SOL     OW19249   1.200   1.276   2.854
 6117SOL    HW119250   1.168   1.205   2.916
 6117SOL    HW219251   1.291   1.308   2.883
 6118SOL     OW19252   6.333   1.217   1.161
 6118SOL    HW119253   6.335   1.317   1.165
 6118SOL    HW219254   6.365   1.179   1.247
 6119SOL     OW19255   0.142   2.634   0.236
 6119SOL    HW119256   0.140   2.692   0.154
 6119SOL    HW219257   0.079   2.557   0.223
 6120SOL     OW19258   2.057   0.151   5.505
 6120SOL    HW119259   2.042   0.080   5.574
 6120SOL    HW219260   2.000   0.132   5.425
 6121SOL     OW19261   0.385   3.987   5.714
 6121SOL    HW119262   0.402   3.926   5.637
 6121SOL    HW219263   0.352   4.076   5.680
 6122SOL     OW19264   5.535   5.833   6.118
 6122SOL    HW119265   5.442   5.858   6.093
 6122SOL    HW219266   5.597   5.907   6.094
 6123SOL     OW19267   4.965   1.174   5.381
 6123SOL    HW119268   5.035   1.243   5.397
 6123SOL    HW219269   5.001   1.084   5.405
 6124SOL     OW19270   1.923   0.174   5.287
 6124SOL    HW119271   1.872   0.258   5.266
 6124SOL    HW219272   1.959   0.135   5.202
 6125SOL     OW19273   2.723   3.892   0.494
 6125SOL    HW119274   2.772   3.979   0.490
 6125SOL    HW219275   2.628   3.906   0.465
 6126SOL     OW19276   0.675   2.265   4.949
 6126SOL    HW119277   0.764   2.223   4.934
 6126SOL    HW219278   0.650   2.256   5.046
 6127SOL     OW19279   4.261   1.093   1.761
 6127SOL    HW119280   4.222   1.175   1.719
 6127SOL    HW219281   4.193   1.048   1.818
 6128SOL     OW19282   5.422   5.456   0.969
 6128SOL    HW119283   5.368   5.409   1.039
 6128SOL    HW219284   5.403   5.554   0.971
 6129SOL     OW19285   2.130   4.167   3.534
 6129SOL    HW119286   2.121   4.108   3.453
 6129SOL    HW219287   2.213   4.221   3.526
 6130SOL     OW19288   5.867   2.577   2.460
 6130SOL    HW119289   5.784   2.525   2.481
 6130SOL    HW219290   5.887   2.568   2.362
 6131SOL     OW19291   0.556   1.951   2.306
 6131SOL    HW119292   0.600   2.035   2.275
 6131SOL    HW219293   0.605   1.871   2.271
 6132SOL     OW19294   3.722   1.895   6.545
 6132SOL    HW119295   3.675   1.902   6.633
 6132SOL    HW219296   3.665   1.844   6.481
 6133SOL     OW19297   1.154   2.355   3.310
 6133SOL    HW119298   1.162   2.271   3.365
 6133SOL    HW219299   1.245   2.394   3.295
 6134SOL     OW19300   5.217   6.572   6.861
 6134SOL    HW119301   5.220   6.672   6.854
 6134SOL    HW219302   5.310   6.536   6.854
 6135SOL     OW19303   6.212   6.863   0.249
 6135SOL    HW119304   6.302   6.905   0.239
 6135SOL    HW219305   6.147   6.909   0.188
 6136SOL     OW19306   1.547   2.771   1.388
 6136SOL    HW119307   1.537   2.738   1.482
 6136SOL    HW219308   1.467   2.747   1.335
 6137SOL     OW19309   0.644   4.379   3.047
 6137SOL    HW119310   0.630   4.284   3.022
 6137SOL    HW219311   0.561   4.414   3.093
 6138SOL     OW19312   3.583   0.314   2.090
 6138SOL    HW119313   3.519   0.343   2.018
 6138SOL    HW219314   3.667   0.366   2.083
 6139SOL     OW19315   0.750   6.527   5.658
 6139SOL    HW119316   0.682   6.453   5.652
 6139SOL    HW219317   0.779   6.554   5.567
 6140SOL     OW19318   0.993   0.457   2.792
 6140SOL    HW119319   1.081   0.478   2.749
 6140SOL    HW219320   0.983   0.509   2.876
 6141SOL     OW19321   0.685   0.252   6.810
 6141SOL    HW119322   0.755   0.309   6.853
 6141SOL    HW219323   0.616   0.311   6.769
 6142SOL     OW19324   0.864   0.691   6.806
 6142SOL    HW119325   0.931   0.627   6.766
 6142SOL    HW219326   0.802   0.722   6.734
 6143SOL     OW19327   0.135   4.012   0.802
 6143SOL    HW119328   0.145   3.913   0.795
 6143SOL    HW219329   0.224   4.052   0.824
 6144SOL     OW19330   4.613   4.774   3.535
 6144SOL    HW119331   4.547   4.737   3.469
 6144SOL    HW219332   4.568   4.791   3.622
 6145SOL     OW19333   5.915   4.181   4.054
 6145SOL    HW119334   5.852   4.176   3.976
 6145SOL    HW219335   5.952   4.090   4.073
 6146SOL     OW19336   3.790   0.056   3.768
 6146SOL    HW119337   3.691   0.059   3.757
 6146SOL    HW219338   3.828   0.147   3.750
 6147SOL     OW19339   1.705   2.953   4.698
 6147SOL    HW119340   1.684   2.946   4.600
 6147SOL    HW219341   1.631   2.914   4.751
 6148SOL     OW19342   4.362   5.315   6.599
 6148SOL    HW119343   4.403   5.236   6.644
 6148SOL    HW219344   4.263   5.302   6.593
 6149SOL     OW19345   2.358   6.897   2.236
 6149SOL    HW119346   2.408   6.811   2.235
 6149SOL    HW219347   2.331   6.919   2.330
 6150SOL     OW19348   6.383   4.206   6.713
 6150SOL    HW119349   6.433   4.286   6.679
 6150SOL    HW219350   6.444   4.127   6.713
 6151SOL     OW19351   5.541   5.532   4.469
 6151SOL    HW119352   5.469   5.601   4.474
 6151SOL    HW219353   5.509   5.453   4.418
 6152SOL     OW19354   1.079   5.589   4.515
 6152SOL    HW119355   1.153   5.590   4.448
 6152SOL    HW219356   1.004   5.533   4.481
 6153SOL     OW19357   4.395   5.433   0.937
 6153SOL    HW119358   4.484   5.465   0.905
 6153SOL    HW219359   4.407   5.366   1.010
 6154SOL     OW19360   4.997   3.500   2.999
 6154SOL    HW119361   5.002   3.546   3.088
 6154SOL    HW219362   5.089   3.495   2.959
 6155SOL     OW19363   2.939   0.815   3.201
 6155SOL    HW119364   2.880   0.848   3.128
 6155SOL    HW219365   2.913   0.859   3.287
 6156SOL     OW19366   5.132   3.835   1.614
 6156SOL    HW119367   5.056   3.895   1.640
 6156SOL    HW219368   5.096   3.759   1.559
 6157SOL     OW19369   0.629   2.391   3.264
 6157SOL    HW119370   0.592   2.361   3.176
 6157SOL    HW219371   0.726   2.367   3.268
 6158SOL     OW19372   3.495   2.128   6.444
 6158SOL    HW119373   3.485   2.028   6.440
 6158SOL    HW219374   3.405   2.171   6.439
 6159SOL     OW19375   5.433   3.049   0.216
 6159SOL    HW119376   5.482   3.099   0.287
 6159SOL    HW219377   5.337   3.075   0.217
 6160SOL     OW19378   6.608   0.015   6.078
 6160SOL    HW119379   6.696   6.991   6.081
 6160SOL    HW219380   6.538   6.975   6.043
 6161SOL     OW19381   5.294   2.387   6.524
 6161SOL    HW119382   5.237   2.375   6.443
 6161SOL    HW219383   5.295   2.484   6.549
 6162SOL     OW19384   5.889   6.805   3.262
 6162SOL    HW119385   5.843   6.876   3.315
 6162SOL    HW219386   5.927   6.736   3.323
 6163SOL     OW19387   5.732   6.035   2.360
 6163SOL    HW119388   5.716   6.051   2.263
 6163SOL    HW219389   5.766   5.941   2.373
 6164SOL     OW19390   3.663   4.158   4.115
 6164SOL    HW119391   3.691   4.232   4.177
 6164SOL    HW219392   3.719   4.077   4.132
 6165SOL     OW19393   4.316   2.402   6.794
 6165SOL    HW119394   4.350   2.321   6.746
 6165SOL    HW219395   4.341   2.484   6.743
 6166SOL     OW19396   6.831   2.002   6.839
 6166SOL    HW119397   6.742   2.033   6.804
 6166SOL    HW219398   6.890   1.976   6.762
 6167SOL     OW19399   1.624   4.739   3.104
 6167SOL    HW119400   1.682   4.670   3.062
 6167SOL    HW219401   1.580   4.793   3.032
 6168SOL     OW19402   6.408   2.519   3.458
 6168SOL    HW119403   6.381   2.471   3.542
 6168SOL    HW219404   6.407   2.618   3.476
 6169SOL     OW19405   1.082   0.965   5.899
 6169SOL    HW119406   1.154   0.987   5.833
 6169SOL    HW219407   1.085   0.867   5.920
 6170SOL     OW19408   3.738   4.329   6.424
 6170SOL    HW119409   3.750   4.305   6.328
 6170SOL    HW219410   3.707   4.424   6.432
 6171SOL     OW19411   1.274   3.605   2.462
 6171SOL    HW119412   1.300   3.572   2.553
 6171SOL    HW219413   1.252   3.702   2.467
 6172SOL     OW19414   0.442   0.654   2.231
 6172SOL    HW119415   0.377   0.612   2.166
 6172SOL    HW219416   0.526   0.601   2.232
 6173SOL     OW19417   0.700   5.017   2.696
 6173SOL    HW119418   0.778   4.989   2.640
 6173SOL    HW219419   0.732   5.074   2.772
 6174SOL     OW19420   5.858   4.502   2.686
 6174SOL    HW119421   5.812   4.466   2.768
 6174SOL    HW219422   5.876   4.600   2.698
 6175SOL     OW19423   5.493   6.655   2.235
 6175SOL    HW119424   5.526   6.576   2.287
 6175SOL    HW219425   5.438   6.625   2.158
 6176SOL     OW19426   6.327   3.846   0.045
 6176SOL    HW119427   6.425   3.825   0.043
 6176SOL    HW219428   6.280   3.789   7.000
 6177SOL     OW19429   5.424   1.368   1.159
 6177SOL    HW119430   5.454   1.451   1.113
 6177SOL    HW219431   5.325   1.357   1.147
 6178SOL     OW19432   4.667   4.991   2.052
 6178SOL    HW119433   4.579   5.017   2.092
 6178SOL    HW219434   4.735   5.063   2.069
 6179SOL     OW19435   0.242   3.392   5.150
 6179SOL    HW119436   0.212   3.472   5.203
 6179SOL    HW219437   0.206   3.398   5.057
 6180SOL     OW19438   3.507   6.825   7.001
 6180SOL    HW119439   3.521   6.729   6.976
 6180SOL    HW219440   3.491   6.879   6.918
 6181SOL     OW19441   4.588   6.204   0.452
 6181SOL    HW119442   4.582   6.116   0.499
 6181SOL    HW219443   4.622   6.190   0.359
 6182SOL     OW19444   5.043   5.745   5.634
 6182SOL    HW119445   5.026   5.763   5.537
 6182SOL    HW219446   5.115   5.677   5.643
 6183SOL     OW19447   1.987   0.248   3.231
 6183SOL    HW119448   2.079   0.264   3.268
 6183SOL    HW219449   1.931   0.329   3.245
 6184SOL     OW19450   1.536   6.886   6.466
 6184SOL    HW119451   1.577   6.909   6.554
 6184SOL    HW219452   1.479   6.804   6.476
 6185SOL     OW19453   0.826   3.708   0.186
 6185SOL    HW119454   0.899   3.753   0.237
 6185SOL    HW219455   0.849   3.611   0.174
 6186SOL     OW19456   5.805   7.020   3.936
 6186SOL    HW119457   5.864   0.076   3.954
 6186SOL    HW219458   5.855   6.953   3.881
 6187SOL     OW19459   5.050   4.648   3.673
 6187SOL    HW119460   4.971   4.605   3.629
 6187SOL    HW219461   5.017   4.717   3.737
 6188SOL     OW19462   2.126   5.746   1.360
 6188SOL    HW119463   2.115   5.764   1.262
 6188SOL    HW219464   2.215   5.703   1.376
 6189SOL     OW19465   4.856   4.940   3.503
 6189SOL    HW119466   4.785   4.870   3.510
 6189SOL    HW219467   4.944   4.897   3.483
 6190SOL     OW19468   5.550   3.887   6.021
 6190SOL    HW119469   5.624   3.867   6.085
 6190SOL    HW219470   5.470   3.922   6.071
 6191SOL     OW19471   5.493   2.498   0.949
 6191SOL    HW119472   5.490   2.443   0.866
 6191SOL    HW219473   5.524   2.441   1.025
 6192SOL     OW19474   3.287   3.719   0.681
 6192SOL    HW119475   3.336   3.721   0.768
 6192SOL    HW219476   3.306   3.803   0.630
 6193SOL     OW19477   3.851   0.420   2.186
 6193SOL    HW119478   3.917   0.483   2.144
 6193SOL    HW219479   3.900   0.345   2.229
 6194SOL     OW19480   1.917   0.070   0.458
 6194SOL    HW119481   1.913   0.036   0.552
 6194SOL    HW219482   1.841   0.133   0.441
 6195SOL     OW19483   4.016   5.494   5.519
 6195SOL    HW119484   3.948   5.425   5.498
 6195SOL    HW219485   3.990   5.544   5.602
 6196SOL     OW19486   0.118   2.493   6.620
 6196SOL    HW119487   0.186   2.567   6.622
 6196SOL    HW219488   0.154   2.417   6.566
 6197SOL     OW19489   3.848   3.799   0.858
 6197SOL    HW119490   3.945   3.819   0.873
 6197SOL    HW219491   3.836   3.760   0.766
 6198SOL     OW19492   3.753   5.716   2.853
 6198SOL    HW119493   3.746   5.619   2.832
 6198SOL    HW219494   3.769   5.727   2.951
 6199SOL     OW19495   0.098   0.197   0.534
 6199SOL    HW119496   0.001   0.184   0.557
 6199SOL    HW219497   0.139   0.262   0.598
 6200SOL     OW19498   2.796   1.317   6.669
 6200SOL    HW119499   2.817   1.319   6.767
 6200SOL    HW219500   2.879   1.335   6.617
 6201SOL     OW19501   2.432   5.462   5.789
 6201SOL    HW119502   2.430   5.541   5.728
 6201SOL    HW219503   2.512   5.469   5.849
 6202SOL     OW19504   3.873   1.576   1.383
 6202SOL    HW119505   3.820   1.495   1.409
 6202SOL    HW219506   3.952   1.548   1.329
 6203SOL     OW19507   5.471   0.132   3.379
 6203SOL    HW119508   5.555   0.144   3.326
 6203SOL    HW219509   5.450   0.035   3.387
 6204SOL     OW19510   0.647   4.988   5.348
 6204SOL    HW119511   0.584   5.021   5.418
 6204SOL    HW219512   0.601   4.921   5.290
 6205SOL     OW19513   5.661   5.805   6.814
 6205SOL    HW119514   5.661   5.792   6.715
 6205SOL    HW219515   5.663   5.903   6.834
 6206SOL     OW19516   6.614   0.528   2.315
 6206SOL    HW119517   6.602   0.503   2.411
 6206SOL    HW219518   6.615   0.446   2.258
 6207SOL     OW19519   1.630   3.441   4.747
 6207SOL    HW119520   1.698   3.407   4.683
 6207SOL    HW219521   1.654   3.533   4.777
 6208SOL     OW19522   6.010   0.271   5.527
 6208SOL    HW119523   6.075   0.205   5.565
 6208SOL    HW219524   6.008   0.353   5.584
 6209SOL     OW19525   3.735   6.240   0.006
 6209SOL    HW119526   3.725   6.310   0.077
 6209SOL    HW219527   3.832   6.230   7.005
 6210SOL     OW19528   5.307   4.723   3.319
 6210SOL    HW119529   5.253   4.763   3.245
 6210SOL    HW219530   5.403   4.750   3.308
 6211SOL     OW19531   2.750   0.172   6.168
 6211SOL    HW119532   2.716   0.224   6.090
 6211SOL    HW219533   2.726   0.076   6.157
 6212SOL     OW19534   0.232   5.402   3.038
 6212SOL    HW119535   0.283   5.430   2.958
 6212SOL    HW219536   0.293   5.399   3.117
 6213SOL     OW19537   5.803   6.682   6.603
 6213SOL    HW119538   5.814   6.775   6.637
 6213SOL    HW219539   5.797   6.618   6.680
 6214SOL     OW19540   6.141   5.462   2.961
 6214SOL    HW119541   6.069   5.393   2.968
 6214SOL    HW219542   6.127   5.533   3.029
 6215SOL     OW19543   3.620   1.761   0.045
 6215SOL    HW119544   3.538   1.814   0.024
 6215SOL    HW219545   3.622   1.740   0.142
 6216SOL     OW19546   6.409   1.875   1.599
 6216SOL    HW119547   6.436   1.902   1.507
 6216SOL    HW219548   6.336   1.936   1.632
 6217SOL     OW19549   5.253   2.641   1.865
 6217SOL    HW119550   5.333   2.681   1.909
 6217SOL    HW219551   5.172   2.696   1.886
 6218SOL     OW19552   3.762   4.886   3.732
 6218SOL    HW119553   3.783   4.975   3.773
 6218SOL    HW219554   3.842   4.854   3.679
 6219SOL     OW19555   0.995   1.592   4.898
 6219SOL    HW119556   1.058   1.658   4.939
 6219SOL    HW219557   0.976   1.519   4.964
 6220SOL     OW19558   2.020   4.431   5.695
 6220SOL    HW119559   2.082   4.464   5.624
 6220SOL    HW219560   1.925   4.440   5.664
 6221SOL     OW19561   5.160   5.235   5.386
 6221SOL    HW119562   5.140   5.152   5.334
 6221SOL    HW219563   5.174   5.211   5.483
 6222SOL     OW19564   0.828   6.698   1.332
 6222SOL    HW119565   0.890   6.629   1.294
 6222SOL    HW219566   0.749   6.653   1.373
 6223SOL     OW19567   6.437   3.092   4.635
 6223SOL    HW119568   6.383   3.168   4.671
 6223SOL    HW219569   6.505   3.127   4.570
 6224SOL     OW19570   1.944   1.557   6.020
 6224SOL    HW119571   1.913   1.601   5.935
 6224SOL    HW219572   2.034   1.517   6.006
 6225SOL     OW19573   3.001   3.287   1.533
 6225SOL    HW119574   2.926   3.243   1.485
 6225SOL    HW219575   3.044   3.354   1.473
 6226SOL     OW19576   5.869   1.991   3.802
 6226SOL    HW119577   5.880   1.901   3.759
 6226SOL    HW219578   5.899   1.985   3.898
 6227SOL     OW19579   3.065   4.881   6.416
 6227SOL    HW119580   3.031   4.865   6.509
 6227SOL    HW219581   3.145   4.825   6.399
 6228SOL     OW19582   0.314   2.296   2.696
 6228SOL    HW119583   0.363   2.214   2.725
 6228SOL    HW219584   0.318   2.365   2.769
 6229SOL     OW19585   1.859   1.807   2.890
 6229SOL    HW119586   1.868   1.732   2.956
 6229SOL    HW219587   1.820   1.887   2.935
 6230SOL     OW19588   1.172   1.396   4.556
 6230SOL    HW119589   1.207   1.427   4.468
 6230SOL    HW219590   1.087   1.444   4.577
 6231SOL     OW19591   6.904   5.212   1.810
 6231SOL    HW119592   6.828   5.277   1.814
 6231SOL    HW219593   6.923   5.189   1.714
 6232SOL     OW19594   6.671   1.396   6.981
 6232SOL    HW119595   6.757   1.380   0.006
 6232SOL    HW219596   6.595   1.365   0.016
 6233SOL     OW19597   5.613   1.662   6.997
 6233SOL    HW119598   5.542   1.593   6.988
 6233SOL    HW219599   5.617   1.717   6.913
 6234SOL     OW19600   0.563   1.413   5.351
 6234SOL    HW119601   0.592   1.484   5.288
 6234SOL    HW219602   0.466   1.395   5.339
 6235SOL     OW19603   1.643   0.308   2.825
 6235SOL    HW119604   1.721   0.277   2.770
 6235SOL    HW219605   1.560   0.262   2.794
 6236SOL     OW19606   0.851   5.193   0.708
 6236SOL    HW119607   0.834   5.104   0.667
 6236SOL    HW219608   0.922   5.241   0.657
 6237SOL     OW19609   4.552   5.955   0.579
 6237SOL    HW119610   4.580   5.957   0.675
 6237SOL    HW219611   4.456   5.983   0.573
 6238SOL     OW19612   4.603   5.125   2.958
 6238SOL    HW119613   4.525   5.170   2.914
 6238SOL    HW219614   4.605   5.148   3.055
 6239SOL     OW19615   2.647   6.692   1.975
 6239SOL    HW119616   2.675   6.725   2.065
 6239SOL    HW219617   2.642   6.593   1.976
 6240SOL     OW19618   2.757   2.134   0.792
 6240SOL    HW119619   2.853   2.163   0.784
 6240SOL    HW219620   2.739   2.106   0.886
 6241SOL     OW19621   2.447   1.269   2.651
 6241SOL    HW119622   2.414   1.175   2.663
 6241SOL    HW219623   2.541   1.276   2.685
 6242SOL     OW19624   5.908   1.349   3.423
 6242SOL    HW119625   5.818   1.392   3.428
 6242SOL    HW219626   5.923   1.291   3.503
 6243SOL     OW19627   6.152   6.882   3.194
 6243SOL    HW119628   6.197   6.803   3.152
 6243SOL    HW219629   6.053   6.870   3.191
 6244SOL     OW19630   1.593   2.395   1.792
 6244SOL    HW119631   1.621   2.448   1.712
 6244SOL    HW219632   1.631   2.303   1.786
 6245SOL     OW19633   3.053   4.331   1.687
 6245SOL    HW119634   3.088   4.395   1.618
 6245SOL    HW219635   2.973   4.371   1.731
 6246SOL     OW19636   3.101   2.725   6.540
 6246SOL    HW119637   3.010   2.698   6.507
 6246SOL    HW219638   3.107   2.707   6.638
 6247SOL     OW19639   0.426   6.471   3.497
 6247SOL    HW119640   0.442   6.392   3.438
 6247SOL    HW219641   0.467   6.552   3.454
 6248SOL     OW19642   1.134   4.023   1.244
 6248SOL    HW119643   1.069   3.987   1.177
 6248SOL    HW219644   1.088   4.037   1.332
 6249SOL     OW19645   0.431   4.697   0.614
 6249SOL    HW119646   0.333   4.707   0.628
 6249SOL    HW219647   0.475   4.670   0.700
 6250SOL     OW19648   6.351   6.078   0.381
 6250SOL    HW119649   6.434   6.025   0.397
 6250SOL    HW219650   6.366   6.143   0.306
 6251SOL     OW19651   3.815   6.705   0.697
 6251SOL    HW119652   3.770   6.711   0.787
 6251SOL    HW219653   3.905   6.749   0.702
 6252SOL     OW19654   1.863   6.263   4.752
 6252SOL    HW119655   1.845   6.336   4.686
 6252SOL    HW219656   1.850   6.174   4.707
 6253SOL     OW19657   2.341   4.430   2.883
 6253SOL    HW119658   2.318   4.518   2.924
 6253SOL    HW219659   2.263   4.368   2.890
 6254SOL     OW19660   5.207   1.290   6.480
 6254SOL    HW119661   5.298   1.328   6.492
 6254SOL    HW219662   5.171   1.258   6.568
 6255SOL     OW19663   1.290   0.978   1.376
 6255SOL    HW119664   1.325   0.947   1.464
 6255SOL    HW219665   1.219   0.915   1.344
 6256SOL     OW19666   4.423   5.051   2.569
 6256SOL    HW119667   4.418   5.150   2.577
 6256SOL    HW219668   4.368   5.009   2.642
 6257SOL     OW19669   5.628   2.410   1.222
 6257SOL    HW119670   5.642   2.396   1.320
 6257SOL    HW219671   5.582   2.330   1.183
 6258SOL     OW19672   4.713   0.829   3.376
 6258SOL    HW119673   4.778   0.903   3.355
 6258SOL    HW219674   4.665   0.803   3.292
 6259SOL     OW19675   2.832   1.220   1.211
 6259SOL    HW119676   2.887   1.141   1.181
 6259SOL    HW219677   2.845   1.296   1.148
 6260SOL     OW19678   3.165   4.173   0.204
 6260SOL    HW119679   3.153   4.173   0.303
 6260SOL    HW219680   3.185   4.265   0.172
 6261SOL     OW19681   3.410   6.666   6.778
 6261SOL    HW119682   3.433   6.570   6.763
 6261SOL    HW219683   3.314   6.673   6.805
 6262SOL     OW19684   2.258   4.049   0.549
 6262SOL    HW119685   2.256   3.997   0.635
 6262SOL    HW219686   2.247   4.146   0.569
 6263SOL     OW19687   0.435   6.741   6.261
 6263SOL    HW119688   0.359   6.743   6.326
 6263SOL    HW219689   0.491   6.659   6.277
 6264SOL     OW19690   1.742   6.816   0.735
 6264SOL    HW119691   1.801   6.896   0.746
 6264SOL    HW219692   1.787   6.736   0.774
 6265SOL     OW19693   3.164   4.146   1.278
 6265SOL    HW119694   3.139   4.077   1.210
 6265SOL    HW219695   3.183   4.233   1.231
 6266SOL     OW19696   4.318   0.738   4.331
 6266SOL    HW119697   4.220   0.758   4.324
 6266SOL    HW219698   4.370   0.808   4.283
 6267SOL     OW19699   3.177   0.113   0.174
 6267SOL    HW119700   3.105   0.178   0.198
 6267SOL    HW219701   3.266   0.158   0.181
 6268SOL     OW19702   2.512   6.165   3.069
 6268SOL    HW119703   2.607   6.191   3.084
 6268SOL    HW219704   2.508   6.073   3.030
 6269SOL     OW19705   6.961   6.076   2.317
 6269SOL    HW119706   0.037   6.067   2.333
 6269SOL    HW219707   6.924   6.144   2.379
 6270SOL     OW19708   1.779   0.412   6.034
 6270SOL    HW119709   1.801   0.315   6.022
 6270SOL    HW219710   1.863   0.462   6.058
 6271SOL     OW19711   6.614   3.031   6.153
 6271SOL    HW119712   6.574   2.942   6.133
 6271SOL    HW219713   6.694   3.046   6.094
 6272SOL     OW19714   0.790   2.863   4.895
 6272SOL    HW119715   0.773   2.872   4.993
 6272SOL    HW219716   0.888   2.855   4.879
 6273SOL     OW19717   1.314   0.954   2.207
 6273SOL    HW119718   1.404   0.930   2.243
 6273SOL    HW219719   1.276   0.876   2.157
 6274SOL     OW19720   2.402   5.709   5.644
 6274SOL    HW119721   2.485   5.760   5.667
 6274SOL    HW219722   2.331   5.772   5.615
 6275SOL     OW19723   2.853   6.602   5.490
 6275SOL    HW119724   2.778   6.536   5.491
 6275SOL    HW219725   2.823   6.686   5.535
 6276SOL     OW19726   1.625   4.961   3.315
 6276SOL    HW119727   1.546   4.911   3.351
 6276SOL    HW219728   1.639   4.934   3.220
 6277SOL     OW19729   4.760   2.620   2.857
 6277SOL    HW119730   4.747   2.697   2.919
 6277SOL    HW219731   4.683   2.615   2.794
 6278SOL     OW19732   4.860   0.388   4.938
 6278SOL    HW119733   4.957   0.365   4.948
 6278SOL    HW219734   4.840   0.471   4.990
 6279SOL     OW19735   3.574   1.291   6.791
 6279SOL    HW119736   3.600   1.219   6.726
 6279SOL    HW219737   3.587   1.258   6.884
 6280SOL     OW19738   0.513   2.642   5.602
 6280SOL    HW119739   0.611   2.639   5.621
 6280SOL    HW219740   0.497   2.645   5.504
 6281SOL     OW19741   2.632   6.421   5.483
 6281SOL    HW119742   2.582   6.484   5.542
 6281SOL    HW219743   2.568   6.376   5.421
 6282SOL     OW19744   1.243   0.178   4.665
 6282SOL    HW119745   1.210   0.153   4.574
 6282SOL    HW219746   1.299   0.261   4.658
 6283SOL     OW19747   6.667   2.515   5.107
 6283SOL    HW119748   6.598   2.444   5.093
 6283SOL    HW219749   6.752   2.487   5.062
 6284SOL     OW19750   2.256   5.297   5.161
 6284SOL    HW119751   2.321   5.253   5.223
 6284SOL    HW219752   2.195   5.358   5.212
 6285SOL     OW19753   1.320   2.687   3.678
 6285SOL    HW119754   1.279   2.741   3.752
 6285SOL    HW219755   1.253   2.621   3.644
 6286SOL     OW19756   6.452   1.721   4.008
 6286SOL    HW119757   6.520   1.650   3.990
 6286SOL    HW219758   6.375   1.710   3.946
 6287SOL     OW19759   4.999   4.451   2.520
 6287SOL    HW119760   5.027   4.499   2.602
 6287SOL    HW219761   4.900   4.436   2.522
 6288SOL     OW19762   5.586   3.863   1.786
 6288SOL    HW119763   5.526   3.935   1.750
 6288SOL    HW219764   5.638   3.899   1.863
 6289SOL     OW19765   1.568   3.034   2.726
 6289SOL    HW119766   1.469   3.023   2.726
 6289SOL    HW219767   1.612   2.944   2.728
 6290SOL     OW19768   5.587   3.776   4.282
 6290SOL    HW119769   5.552   3.738   4.368
 6290SOL    HW219770   5.677   3.738   4.263
 6291SOL     OW19771   4.010   3.083   4.066
 6291SOL    HW119772   3.926   3.037   4.093
 6291SOL    HW219773   4.063   3.107   4.147
 6292SOL     OW19774   0.391   3.148   3.309
 6292SOL    HW119775   0.386   3.176   3.405
 6292SOL    HW219776   0.356   3.221   3.251
 6293SOL     OW19777   4.285   6.785   0.210
 6293SOL    HW119778   4.370   6.732   0.217
 6293SOL    HW219779   4.235   6.757   0.128
 6294SOL     OW19780   3.816   4.896   3.327
 6294SOL    HW119781   3.879   4.825   3.360
 6294SOL    HW219782   3.869   4.974   3.294
 6295SOL     OW19783   5.221   5.518   5.363
 6295SOL    HW119784   5.238   5.419   5.369
 6295SOL    HW219785   5.287   5.559   5.300
 6296SOL     OW19786   6.857   7.002   4.311
 6296SOL    HW119787   6.928   6.932   4.324
 6296SOL    HW219788   6.877   0.058   4.370
 6297SOL     OW19789   4.650   6.856   5.173
 6297SOL    HW119790   4.692   6.942   5.199
 6297SOL    HW219791   4.575   6.834   5.235
 6298SOL     OW19792   1.583   3.907   6.161
 6298SOL    HW119793   1.594   4.005   6.148
 6298SOL    HW219794   1.583   3.861   6.073
 6299SOL     OW19795   5.939   2.147   6.942
 6299SOL    HW119796   5.877   2.222   6.919
 6299SOL    HW219797   5.997   2.127   6.863
 6300SOL     OW19798   5.564   0.830   4.997
 6300SOL    HW119799   5.520   0.913   4.963
 6300SOL    HW219800   5.588   0.842   5.093
 6301SOL     OW19801   2.669   0.445   0.952
 6301SOL    HW119802   2.590   0.489   0.995
 6301SOL    HW219803   2.659   0.449   0.853
 6302SOL     OW19804   1.056   1.641   3.944
 6302SOL    HW119805   1.155   1.640   3.959
 6302SOL    HW219806   1.037   1.651   3.846
 6303SOL     OW19807   2.704   0.746   4.732
 6303SOL    HW119808   2.639   0.754   4.657
 6303SOL    HW219809   2.744   0.655   4.733
 6304SOL     OW19810   2.463   1.039   1.291
 6304SOL    HW119811   2.381   0.994   1.256
 6304SOL    HW219812   2.494   1.107   1.225
 6305SOL     OW19813   5.900   6.343   0.865
 6305SOL    HW119814   5.923   6.271   0.799
 6305SOL    HW219815   5.892   6.303   0.957
 6306SOL     OW19816   0.000   3.667   4.490
 6306SOL    HW119817   6.976   3.683   4.577
 6306SOL    HW219818   0.082   3.724   4.485
 6307SOL     OW19819   3.676   4.682   5.844
 6307SOL    HW119820   3.672   4.782   5.849
 6307SOL    HW219821   3.717   4.655   5.757
 6308SOL     OW19822   1.350   1.822   5.398
 6308SOL    HW119823   1.409   1.821   5.317
 6308SOL    HW219824   1.396   1.773   5.472
 6309SOL     OW19825   4.856   4.095   4.447
 6309SOL    HW119826   4.823   4.075   4.539
 6309SOL    HW219827   4.820   4.184   4.417
 6310SOL     OW19828   2.049   5.030   4.127
 6310SOL    HW119829   1.953   5.053   4.111
 6310SOL    HW219830   2.075   4.956   4.066
 6311SOL     OW19831   6.229   0.986   5.338
 6311SOL    HW119832   6.187   1.074   5.361
 6311SOL    HW219833   6.188   0.951   5.254
 6312SOL     OW19834   4.542   5.276   5.546
 6312SOL    HW119835   4.564   5.234   5.458
 6312SOL    HW219836   4.540   5.376   5.535
 6313SOL     OW19837   1.771   5.804   3.206
 6313SOL    HW119838   1.800   5.717   3.245
 6313SOL    HW219839   1.835   5.876   3.234
 6314SOL     OW19840   3.566   6.822   1.817
 6314SOL    HW119841   3.491   6.793   1.877
 6314SOL    HW219842   3.535   6.898   1.760
 6315SOL     OW19843   4.043   2.504   6.868
 6315SOL    HW119844   4.127   2.484   6.817
 6315SOL    HW219845   3.968   2.519   6.803
 6316SOL     OW19846   4.467   2.554   6.353
 6316SOL    HW119847   4.380   2.590   6.322
 6316SOL    HW219848   4.464   2.454   6.352
 6317SOL     OW19849   5.500   6.750   3.110
 6317SOL    HW119850   5.536   6.785   3.023
 6317SOL    HW219851   5.556   6.672   3.139
 6318SOL     OW19852   2.679   2.451   5.265
 6318SOL    HW119853   2.772   2.437   5.231
 6318SOL    HW219854   2.657   2.381   5.333
 6319SOL     OW19855   0.348   3.001   3.732
 6319SOL    HW119856   0.415   2.973   3.800
 6319SOL    HW219857   0.337   2.928   3.664
 6320SOL     OW19858   5.737   4.390   3.868
 6320SOL    HW119859   5.671   4.427   3.802
 6320SOL    HW219860   5.783   4.311   3.828
 6321SOL     OW19861   3.120   5.451   1.155
 6321SOL    HW119862   3.113   5.389   1.233
 6321SOL    HW219863   3.111   5.398   1.070
 6322SOL     OW19864   1.743   2.012   6.193
 6322SOL    HW119865   1.667   1.986   6.133
 6322SOL    HW219866   1.740   1.956   6.276
 6323SOL     OW19867   3.484   2.451   1.448
 6323SOL    HW119868   3.538   2.430   1.367
 6323SOL    HW219869   3.544   2.456   1.528
 6324SOL     OW19870   4.769   0.951   6.080
 6324SOL    HW119871   4.864   0.947   6.049
 6324SOL    HW219872   4.715   1.004   6.015
 6325SOL     OW19873   1.400   2.210   1.570
 6325SOL    HW119874   1.383   2.295   1.520
 6325SOL    HW219875   1.496   2.184   1.559
 6326SOL     OW19876   5.421   5.776   1.407
 6326SOL    HW119877   5.497   5.712   1.417
 6326SOL    HW219878   5.455   5.864   1.376
 6327SOL     OW19879   6.984   0.478   5.133
 6327SOL    HW119880   0.014   0.495   5.050
 6327SOL    HW219881   6.962   0.565   5.177
 6328SOL     OW19882   2.347   3.602   6.992
 6328SOL    HW119883   2.339   3.509   0.006
 6328SOL    HW219884   2.444   3.628   6.988
 6329SOL     OW19885   1.154   2.251   3.645
 6329SOL    HW119886   1.244   2.268   3.686
 6329SOL    HW219887   1.165   2.201   3.559
 6330SOL     OW19888   5.108   0.970   0.906
 6330SOL    HW119889   5.180   0.955   0.838
 6330SOL    HW219890   5.130   1.051   0.961
 6331SOL     OW19891   6.344   2.906   0.925
 6331SOL    HW119892   6.426   2.886   0.979
 6331SOL    HW219893   6.292   2.980   0.968
 6332SOL     OW19894   6.355   4.967   2.396
 6332SOL    HW119895   6.278   4.981   2.333
 6332SOL    HW219896   6.428   4.918   2.349
 6333SOL     OW19897   4.148   5.029   3.758
 6333SOL    HW119898   4.213   5.103   3.772
 6333SOL    HW219899   4.135   4.978   3.843
 6334SOL     OW19900   2.057   6.843   2.617
 6334SOL    HW119901   1.992   6.920   2.615
 6334SOL    HW219902   2.071   6.809   2.525
 6335SOL     OW19903   5.559   1.805   0.372
 6335SOL    HW119904   5.566   1.723   0.429
 6335SOL    HW219905   5.493   1.789   0.299
 6336SOL     OW19906   0.116   1.984   5.014
 6336SOL    HW119907   0.025   1.948   4.995
 6336SOL    HW219908   0.108   2.073   5.060
 6337SOL     OW19909   4.704   3.652   6.030
 6337SOL    HW119910   4.717   3.750   6.043
 6337SOL    HW219911   4.631   3.619   6.090
 6338SOL     OW19912   2.673   2.300   2.425
 6338SOL    HW119913   2.716   2.257   2.504
 6338SOL    HW219914   2.706   2.257   2.341
 6339SOL     OW19915   0.358   2.532   3.742
 6339SOL    HW119916   0.322   2.530   3.648
 6339SOL    HW219917   0.458   2.535   3.740
 6340SOL     OW19918   2.545   5.519   3.298
 6340SOL    HW119919   2.495   5.573   3.366
 6340SOL    HW219920   2.614   5.462   3.344
 6341SOL     OW19921   6.766   4.766   3.803
 6341SOL    HW119922   6.804   4.774   3.711
 6341SOL    HW219923   6.840   4.763   3.870
 6342SOL     OW19924   2.512   1.850   1.783
 6342SOL    HW119925   2.547   1.865   1.690
 6342SOL    HW219926   2.511   1.936   1.833
 6343SOL     OW19927   4.990   2.793   6.864
 6343SOL    HW119928   4.937   2.742   6.796
 6343SOL    HW219929   5.066   2.737   6.896
 6344SOL     OW19930   6.574   3.793   5.859
 6344SOL    HW119931   6.524   3.776   5.774
 6344SOL    HW219932   6.613   3.707   5.892
 6345SOL     OW19933   4.478   1.143   1.944
 6345SOL    HW119934   4.404   1.091   1.902
 6345SOL    HW219935   4.514   1.209   1.878
 6346SOL     OW19936   6.489   3.754   3.749
 6346SOL    HW119937   6.457   3.695   3.676
 6346SOL    HW219938   6.583   3.783   3.730
 6347SOL     OW19939   3.146   0.639   1.719
 6347SOL    HW119940   3.118   0.578   1.794
 6347SOL    HW219941   3.071   0.700   1.695
 6348SOL     OW19942   0.536   4.108   5.077
 6348SOL    HW119943   0.604   4.035   5.074
 6348SOL    HW219944   0.580   4.195   5.054
 6349SOL     OW19945   2.556   0.825   1.934
 6349SOL    HW119946   2.589   0.731   1.933
 6349SOL    HW219947   2.613   0.881   1.874
 6350SOL     OW19948   2.062   4.934   3.515
 6350SOL    HW119949   1.987   4.997   3.502
 6350SOL    HW219950   2.088   4.894   3.427
 6351SOL     OW19951   6.635   2.450   1.962
 6351SOL    HW119952   6.709   2.452   2.029
 6351SOL    HW219953   6.587   2.538   1.963
 6352SOL     OW19954   1.533   5.379   4.305
 6352SOL    HW119955   1.495   5.444   4.240
 6352SOL    HW219956   1.588   5.428   4.373
 6353SOL     OW19957   6.438   0.492   6.284
 6353SOL    HW119958   6.453   0.395   6.267
 6353SOL    HW219959   6.499   0.523   6.357
 6354SOL     OW19960   1.045   6.914   2.559
 6354SOL    HW119961   1.088   6.971   2.489
 6354SOL    HW219962   0.968   6.865   2.518
 6355SOL     OW19963   0.671   4.461   5.227
 6355SOL    HW119964   0.741   4.409   5.274
 6355SOL    HW219965   0.656   4.548   5.274
 6356SOL     OW19966   5.033   4.954   1.938
 6356SOL    HW119967   4.968   5.003   1.997
 6356SOL    HW219968   5.073   4.878   1.989
 6357SOL     OW19969   5.088   2.691   1.128
 6357SOL    HW119970   5.131   2.733   1.208
 6357SOL    HW219971   5.013   2.631   1.158
 6358SOL     OW19972   0.450   2.221   4.767
 6358SOL    HW119973   0.367   2.216   4.823
 6358SOL    HW219974   0.529   2.236   4.827
 6359SOL     OW19975   6.670   0.743   5.555
 6359SOL    HW119976   6.659   0.677   5.482
 6359SOL    HW219977   6.626   0.829   5.529
 6360SOL     OW19978   2.241   4.366   4.070
 6360SOL    HW119979   2.237   4.457   4.111
 6360SOL    HW219980   2.250   4.298   4.142
 6361SOL     OW19981   5.382   6.820   6.969
 6361SOL    HW119982   5.344   6.863   0.029
 6361SOL    HW219983   5.396   6.890   6.899
 6362SOL     OW19984   6.006   5.187   0.018
 6362SOL    HW119985   5.910   5.163   0.032
 6362SOL    HW219986   6.055   5.179   0.105
 6363SOL     OW19987   2.414   5.265   3.531
 6363SOL    HW119988   2.333   5.212   3.504
 6363SOL    HW219989   2.419   5.269   3.630
 6364SOL     OW19990   3.003   1.391   5.869
 6364SOL    HW119991   3.033   1.482   5.842
 6364SOL    HW219992   2.904   1.383   5.858
 6365SOL     OW19993   4.539   6.965   4.428
 6365SOL    HW119994   4.566   0.031   4.392
 6365SOL    HW219995   4.559   6.960   4.526
 6366SOL     OW19996   0.811   5.999   5.538
 6366SOL    HW119997   0.855   5.912   5.518
 6366SOL    HW219998   0.716   5.998   5.506
 6367SOL     OW19999   4.550   0.675   4.034
 6367SOL    HW120000   4.548   0.583   4.073
 6367SOL    HW220001   4.528   0.742   4.105
 6368SOL     OW20002   2.945   0.384   3.938
 6368SOL    HW120003   3.011   0.423   4.004
 6368SOL    HW220004   2.980   0.396   3.845
 6369SOL     OW20005   3.545   4.918   4.373
 6369SOL    HW120006   3.484   4.897   4.448
 6369SOL    HW220007   3.492   4.939   4.291
 6370SOL     OW20008   1.213   2.313   2.565
 6370SOL    HW120009   1.268   2.396   2.562
 6370SOL    HW220010   1.259   2.240   2.514
 6371SOL     OW20011   4.900   3.220   3.834
 6371SOL    HW120012   4.901   3.297   3.898
 6371SOL    HW220013   4.898   3.134   3.884
 6372SOL     OW20014   2.909   6.857   1.666
 6372SOL    HW120015   2.987   6.887   1.611
 6372SOL    HW220016   2.834   6.923   1.657
 6373SOL     OW20017   6.113   4.596   4.257
 6373SOL    HW120018   6.128   4.595   4.355
 6373SOL    HW220019   6.071   4.510   4.228
 6374SOL     OW20020   2.940   3.603   3.916
 6374SOL    HW120021   2.969   3.698   3.906
 6374SOL    HW220022   2.851   3.599   3.961
 6375SOL     OW20023   1.087   1.305   3.177
 6375SOL    HW120024   1.127   1.223   3.135
 6375SOL    HW220025   1.070   1.288   3.274
 6376SOL     OW20026   6.656   1.786   5.008
 6376SOL    HW120027   6.633   1.839   4.926
 6376SOL    HW220028   6.731   1.723   4.987
 6377SOL     OW20029   6.688   0.969   6.081
 6377SOL    HW120030   6.640   0.894   6.126
 6377SOL    HW220031   6.622   1.038   6.051
 6378SOL     OW20032   5.193   4.820   3.080
 6378SOL    HW120033   5.112   4.787   3.031
 6378SOL    HW220034   5.170   4.902   3.131
 6379SOL     OW20035   2.408   4.934   4.641
 6379SOL    HW120036   2.366   4.878   4.570
 6379SOL    HW220037   2.373   5.028   4.634
 6380SOL     OW20038   0.955   1.609   5.575
 6380SOL    HW120039   0.879   1.544   5.565
 6380SOL    HW220040   1.031   1.564   5.622
 6381SOL     OW20041   3.339   2.882   2.617
 6381SOL    HW120042   3.247   2.903   2.652
 6381SOL    HW220043   3.394   2.842   2.690
 6382SOL     OW20044   1.532   2.713   0.141
 6382SOL    HW120045   1.436   2.738   0.157
 6382SOL    HW220046   1.569   2.770   0.068
 6383SOL     OW20047   2.045   2.114   3.525
 6383SOL    HW120048   2.048   2.014   3.514
 6383SOL    HW220049   2.135   2.146   3.556
 6384SOL     OW20050   6.044   4.511   1.784
 6384SOL    HW120051   5.950   4.487   1.808
 6384SOL    HW220052   6.082   4.571   1.854
 6385SOL     OW20053   5.788   4.713   4.489
 6385SOL    HW120054   5.689   4.728   4.477
 6385SOL    HW220055   5.834   4.726   4.401
 6386SOL     OW20056   2.527   4.472   0.569
 6386SOL    HW120057   2.618   4.447   0.534
 6386SOL    HW220058   2.527   4.465   0.668
 6387SOL     OW20059   1.234   2.029   6.049
 6387SOL    HW120060   1.239   2.129   6.045
 6387SOL    HW220061   1.180   1.996   5.972
 6388SOL     OW20062   4.078   4.305   1.212
 6388SOL    HW120063   3.985   4.278   1.237
 6388SOL    HW220064   4.141   4.276   1.284
 6389SOL     OW20065   1.027   6.052   1.940
 6389SOL    HW120066   0.933   6.072   1.966
 6389SOL    HW220067   1.055   6.114   1.866
 6390SOL     OW20068   0.391   2.820   3.516
 6390SOL    HW120069   0.345   2.738   3.482
 6390SOL    HW220070   0.489   2.802   3.524
 6391SOL     OW20071   2.827   0.897   6.882
 6391SOL    HW120072   2.757   0.969   6.881
 6391SOL    HW220073   2.910   0.933   6.923
 6392SOL     OW20074   2.200   6.632   4.036
 6392SOL    HW120075   2.238   6.701   4.097
 6392SOL    HW220076   2.251   6.546   4.046
 6393SOL     OW20077   5.814   6.424   1.805
 6393SOL    HW120078   5.785   6.519   1.823
 6393SOL    HW220079   5.903   6.408   1.847
 6394SOL     OW20080   2.561   4.875   0.965
 6394SOL    HW120081   2.464   4.874   0.942
 6394SOL    HW220082   2.573   4.874   1.064
 6395SOL     OW20083   5.975   1.915   1.682
 6395SOL    HW120084   6.001   2.006   1.714
 6395SOL    HW220085   5.989   1.909   1.583
 6396SOL     OW20086   5.865   2.693   6.352
 6396SOL    HW120087   5.799   2.747   6.299
 6396SOL    HW220088   5.836   2.689   6.447
 6397SOL     OW20089   6.450   1.976   6.871
 6397SOL    HW120090   6.496   1.961   6.958
 6397SOL    HW220091   6.379   1.906   6.858
 6398SOL     OW20092   3.588   1.216   0.872
 6398SOL    HW120093   3.673   1.255   0.837
 6398SOL    HW220094   3.511   1.273   0.844
 6399SOL     OW20095   1.703   5.241   6.122
 6399SOL    HW120096   1.680   5.144   6.134
 6399SOL    HW220097   1.773   5.267   6.188
 6400SOL     OW20098   2.322   5.468   2.984
 6400SOL    HW120099   2.227   5.437   2.991
 6400SOL    HW220100   2.357   5.445   2.893
 6401SOL     OW20101   6.792   4.799   3.437
 6401SOL    HW120102   6.843   4.856   3.500
 6401SOL    HW220103   6.844   4.716   3.416
 6402SOL     OW20104   2.729   0.583   3.335
 6402SOL    HW120105   2.639   0.583   3.293
 6402SOL    HW220106   2.781   0.662   3.303
 6403SOL     OW20107   0.781   5.561   6.275
 6403SOL    HW120108   0.799   5.506   6.357
 6403SOL    HW220109   0.764   5.656   6.301
 6404SOL     OW20110   3.901   1.336   3.488
 6404SOL    HW120111   3.986   1.382   3.466
 6404SOL    HW220112   3.910   1.238   3.470
 6405SOL     OW20113   1.991   1.360   2.813
 6405SOL    HW120114   1.941   1.282   2.776
 6405SOL    HW220115   1.951   1.389   2.900
 6406SOL     OW20116   1.400   2.356   3.776
 6406SOL    HW120117   1.336   2.410   3.831
 6406SOL    HW220118   1.481   2.334   3.831
 6407SOL     OW20119   2.877   6.584   3.794
 6407SOL    HW120120   2.785   6.545   3.800
 6407SOL    HW220121   2.944   6.510   3.788
 6408SOL     OW20122   6.275   2.593   0.075
 6408SOL    HW120123   6.238   2.558   7.012
 6408SOL    HW220124   6.201   2.606   0.141
 6409SOL     OW20125   6.393   4.281   3.169
 6409SOL    HW120126   6.342   4.213   3.116
 6409SOL    HW220127   6.339   4.364   3.177
 6410SOL     OW20128   1.603   1.853   0.578
 6410SOL    HW120129   1.529   1.817   0.634
 6410SOL    HW220130   1.691   1.833   0.621
 6411SOL     OW20131   0.275   2.317   3.197
 6411SOL    HW120132   0.316   2.408   3.195
 6411SOL    HW220133   0.347   2.248   3.210
 6412SOL     OW20134   0.089   3.253   5.356
 6412SOL    HW120135   0.159   3.183   5.370
 6412SOL    HW220136   0.100   3.294   5.265
 6413SOL     OW20137   5.581   4.312   2.027
 6413SOL    HW120138   5.539   4.221   2.031
 6413SOL    HW220139   5.509   4.380   2.017
 6414SOL     OW20140   5.818   0.518   1.828
 6414SOL    HW120141   5.768   0.594   1.868
 6414SOL    HW220142   5.875   0.551   1.753
 6415SOL     OW20143   3.042   1.984   2.620
 6415SOL    HW120144   3.119   2.029   2.574
 6415SOL    HW220145   3.071   1.893   2.650
 6416SOL     OW20146   0.912   0.726   6.098
 6416SOL    HW120147   0.986   0.703   6.160
 6416SOL    HW220148   0.842   0.654   6.101
 6417SOL     OW20149   0.769   5.270   3.231
 6417SOL    HW120150   0.766   5.171   3.241
 6417SOL    HW220151   0.688   5.301   3.181
 6418SOL     OW20152   6.730   5.162   2.612
 6418SOL    HW120153   6.766   5.176   2.704
 6418SOL    HW220154   6.806   5.153   2.548
 6419SOL     OW20155   3.298   5.371   2.031
 6419SOL    HW120156   3.223   5.341   1.971
 6419SOL    HW220157   3.381   5.383   1.976
 6420SOL     OW20158   3.396   3.605   6.384
 6420SOL    HW120159   3.440   3.626   6.472
 6420SOL    HW220160   3.328   3.675   6.364
 6421SOL     OW20161   6.337   1.546   1.205
 6421SOL    HW120162   6.288   1.546   1.292
 6421SOL    HW220163   6.343   1.639   1.170
 6422SOL     OW20164   6.926   6.693   3.802
 6422SOL    HW120165   6.849   6.738   3.847
 6422SOL    HW220166   7.010   6.710   3.854
 6423SOL     OW20167   4.653   4.537   1.689
 6423SOL    HW120168   4.592   4.460   1.670
 6423SOL    HW220169   4.600   4.622   1.690
 6424SOL     OW20170   6.559   4.538   5.848
 6424SOL    HW120171   6.634   4.549   5.784
 6424SOL    HW220172   6.497   4.467   5.814
 6425SOL     OW20173   6.671   5.175   4.038
 6425SOL    HW120174   6.666   5.115   3.959
 6425SOL    HW220175   6.585   5.225   4.049
 6426SOL     OW20176   0.521   3.511   3.739
 6426SOL    HW120177   0.443   3.552   3.785
 6426SOL    HW220178   0.595   3.578   3.731
 6427SOL     OW20179   1.601   3.723   6.596
 6427SOL    HW120180   1.687   3.673   6.586
 6427SOL    HW220181   1.599   3.769   6.685
 6428SOL     OW20182   6.613   3.715   1.110
 6428SOL    HW120183   6.666   3.632   1.090
 6428SOL    HW220184   6.621   3.737   1.207
 6429SOL     OW20185   0.844   0.942   4.858
 6429SOL    HW120186   0.852   1.034   4.818
 6429SOL    HW220187   0.884   0.942   4.950
 6430SOL     OW20188   4.751   0.990   1.777
 6430SOL    HW120189   4.745   1.055   1.853
 6430SOL    HW220190   4.685   0.916   1.793
 6431SOL     OW20191   6.082   0.237   3.489
 6431SOL    HW120192   6.158   0.217   3.552
 6431SOL    HW220193   6.112   0.222   3.395
 6432SOL     OW20194   4.422   4.558   0.264
 6432SOL    HW120195   4.334   4.545   0.217
 6432SOL    HW220196   4.484   4.611   0.206
 6433SOL     OW20197   3.072   4.381   0.860
 6433SOL    HW120198   3.008   4.406   0.932
 6433SOL    HW220199   3.102   4.286   0.872
 6434SOL     OW20200   1.334   3.895   1.414
 6434SOL    HW120201   1.326   3.796   1.412
 6434SOL    HW220202   1.244   3.936   1.400
 6435SOL     OW20203   3.714   4.974   6.947
 6435SOL    HW120204   3.665   4.959   6.861
 6435SOL    HW220205   3.810   4.950   6.935
 6436SOL     OW20206   2.066   2.943   3.924
 6436SOL    HW120207   2.090   3.035   3.957
 6436SOL    HW220208   2.044   2.885   4.002
 6437SOL     OW20209   1.327   1.369   0.020
 6437SOL    HW120210   1.278   1.437   6.989
 6437SOL    HW220211   1.408   1.339   6.992
 6438SOL     OW20212   0.181   4.509   5.312
 6438SOL    HW120213   0.199   4.426   5.365
 6438SOL    HW220214   0.084   4.515   5.291
 6439SOL     OW20215   0.707   6.762   0.659
 6439SOL    HW120216   0.805   6.749   0.679
 6439SOL    HW220217   0.683   6.710   0.577
 6440SOL     OW20218   2.133   1.358   1.738
 6440SOL    HW120219   2.148   1.419   1.816
 6440SOL    HW220220   2.213   1.359   1.679
 6441SOL     OW20221   1.068   0.149   2.455
 6441SOL    HW120222   1.041   0.185   2.366
 6441SOL    HW220223   0.996   0.164   2.522
 6442SOL     OW20224   2.196   1.693   3.626
 6442SOL    HW120225   2.160   1.632   3.555
 6442SOL    HW220226   2.120   1.733   3.678
 6443SOL     OW20227   3.477   2.978   0.897
 6443SOL    HW120228   3.492   3.053   0.962
 6443SOL    HW220229   3.390   2.932   0.919
 6444SOL     OW20230   0.287   2.517   3.472
 6444SOL    HW120231   0.360   2.457   3.441
 6444SOL    HW220232   0.198   2.472   3.459
 6445SOL     OW20233   4.679   2.533   5.299
 6445SOL    HW120234   4.587   2.567   5.278
 6445SOL    HW220235   4.685   2.511   5.396
 6446SOL     OW20236   0.182   1.601   6.220
 6446SOL    HW120237   0.207   1.640   6.309
 6446SOL    HW220238   0.099   1.546   6.230
 6447SOL     OW20239   0.458   6.117   2.515
 6447SOL    HW120240   0.514   6.094   2.436
 6447SOL    HW220241   0.468   6.214   2.537
 6448SOL     OW20242   6.258   3.929   2.365
 6448SOL    HW120243   6.354   3.956   2.377
 6448SOL    HW220244   6.204   3.963   2.442
 6449SOL     OW20245   3.709   4.295   1.686
 6449SOL    HW120246   3.647   4.371   1.668
 6449SOL    HW220247   3.804   4.327   1.684
 6450SOL     OW20248   6.938   3.072   1.584
 6450SOL    HW120249   6.853   3.123   1.600
 6450SOL    HW220250   6.981   3.053   1.672
 6451SOL     OW20251   3.149   6.534   5.566
 6451SOL    HW120252   3.057   6.567   5.544
 6451SOL    HW220253   3.151   6.435   5.561
 6452SOL     OW20254   3.719   6.650   4.956
 6452SOL    HW120255   3.716   6.555   4.926
 6452SOL    HW220256   3.685   6.709   4.883
 6453SOL     OW20257   1.854   6.788   6.774
 6453SOL    HW120258   1.872   6.778   6.676
 6453SOL    HW220259   1.771   6.738   6.798
 6454SOL     OW20260   3.098   1.177   3.728
 6454SOL    HW120261   3.054   1.238   3.795
 6454SOL    HW220262   3.125   1.092   3.773
 6455SOL     OW20263   0.874   2.665   4.334
 6455SOL    HW120264   0.845   2.624   4.421
 6455SOL    HW220265   0.934   2.743   4.352
 6456SOL     OW20266   1.546   0.646   3.554
 6456SOL    HW120267   1.572   0.720   3.492
 6456SOL    HW220268   1.627   0.597   3.584
 6457SOL     OW20269   5.530   1.504   0.931
 6457SOL    HW120270   5.489   1.555   0.856
 6457SOL    HW220271   5.616   1.547   0.957
 6458SOL     OW20272   0.847   5.957   2.459
 6458SOL    HW120273   0.802   6.001   2.381
 6458SOL    HW220274   0.844   6.019   2.538
 6459SOL     OW20275   5.386   5.613   0.677
 6459SOL    HW120276   5.470   5.579   0.634
 6459SOL    HW220277   5.409   5.653   0.766
 6460SOL     OW20278   4.207   5.422   6.136
 6460SOL    HW120279   4.287   5.434   6.195
 6460SOL    HW220280   4.151   5.504   6.138
 6461SOL     OW20281   3.259   5.572   5.106
 6461SOL    HW120282   3.192   5.498   5.098
 6461SOL    HW220283   3.350   5.538   5.083
 6462SOL     OW20284   2.092   3.092   5.148
 6462SOL    HW120285   2.155   3.051   5.214
 6462SOL    HW220286   2.072   3.027   5.075
 6463SOL     OW20287   2.274   4.430   6.566
 6463SOL    HW120288   2.206   4.356   6.558
 6463SOL    HW220289   2.355   4.407   6.512
 6464SOL     OW20290   1.081   4.527   4.381
 6464SOL    HW120291   1.154   4.459   4.387
 6464SOL    HW220292   1.119   4.618   4.401
 6465SOL     OW20293   5.796   2.826   3.732
 6465SOL    HW120294   5.774   2.730   3.720
 6465SOL    HW220295   5.881   2.834   3.784
 6466SOL     OW20296   0.253   2.385   5.048
 6466SOL    HW120297   0.349   2.407   5.026
 6466SOL    HW220298   0.194   2.421   4.976
 6467SOL     OW20299   2.395   1.349   6.811
 6467SOL    HW120300   2.463   1.416   6.839
 6467SOL    HW220301   2.310   1.396   6.786
 6468SOL     OW20302   3.995   5.811   1.332
 6468SOL    HW120303   3.913   5.755   1.328
 6468SOL    HW220304   4.076   5.752   1.341
 6469SOL     OW20305   5.600   0.983   5.645
 6469SOL    HW120306   5.522   0.924   5.626
 6469SOL    HW220307   5.652   0.947   5.723
 6470SOL     OW20308   6.427   5.191   6.291
 6470SOL    HW120309   6.333   5.178   6.260
 6470SOL    HW220310   6.484   5.221   6.215
 6471SOL     OW20311   6.353   5.579   6.113
 6471SOL    HW120312   6.440   5.553   6.073
 6471SOL    HW220313   6.329   5.514   6.185
 6472SOL     OW20314   0.513   5.240   1.047
 6472SOL    HW120315   0.498   5.267   1.143
 6472SOL    HW220316   0.538   5.143   1.044
 6473SOL     OW20317   2.210   1.759   5.771
 6473SOL    HW120318   2.252   1.725   5.687
 6473SOL    HW220319   2.239   1.703   5.849
 6474SOL     OW20320   1.698   4.170   5.877
 6474SOL    HW120321   1.614   4.140   5.921
 6474SOL    HW220322   1.702   4.134   5.784
 6475SOL     OW20323   6.106   6.068   4.211
 6475SOL    HW120324   6.198   6.069   4.251
 6475SOL    HW220325   6.109   6.113   4.121
 6476SOL     OW20326   4.903   3.806   2.099
 6476SOL    HW120327   4.902   3.711   2.070
 6476SOL    HW220328   4.818   3.828   2.147
 6477SOL     OW20329   6.786   4.862   1.250
 6477SOL    HW120330   6.702   4.810   1.232
 6477SOL    HW220331   6.816   4.845   1.344
 6478SOL     OW20332   2.882   5.810   2.473
 6478SOL    HW120333   2.806   5.765   2.426
 6478SOL    HW220334   2.938   5.741   2.519
 6479SOL     OW20335   4.170   5.183   2.351
 6479SOL    HW120336   4.199   5.264   2.402
 6479SOL    HW220337   4.166   5.104   2.413
 6480SOL     OW20338   4.133   2.973   5.738
 6480SOL    HW120339   4.104   2.906   5.807
 6480SOL    HW220340   4.055   2.998   5.682
 6481SOL     OW20341   3.444   1.923   1.733
 6481SOL    HW120342   3.359   1.878   1.763
 6481SOL    HW220343   3.422   2.000   1.673
 6482SOL     OW20344   6.936   0.783   6.572
 6482SOL    HW120345   6.879   0.852   6.528
 6482SOL    HW220346   7.019   0.769   6.519
 6483SOL     OW20347   2.338   6.383   1.834
 6483SOL    HW120348   2.353   6.402   1.737
 6483SOL    HW220349   2.357   6.287   1.853
 6484SOL     OW20350   3.532   0.042   2.447
 6484SOL    HW120351   3.577   0.081   2.366
 6484SOL    HW220352   3.447   0.091   2.464
 6485SOL     OW20353   1.568   3.197   3.394
 6485SOL    HW120354   1.652   3.217   3.445
 6485SOL    HW220355   1.492   3.249   3.433
 6486SOL     OW20356   1.266   4.601   3.799
 6486SOL    HW120357   1.252   4.626   3.703
 6486SOL    HW220358   1.359   4.567   3.811
 6487SOL     OW20359   6.441   5.713   4.896
 6487SOL    HW120360   6.468   5.781   4.964
 6487SOL    HW220361   6.432   5.757   4.806
 6488SOL     OW20362   3.069   6.269   5.531
 6488SOL    HW120363   3.064   6.197   5.600
 6488SOL    HW220364   3.015   6.244   5.451
 6489SOL     OW20365   2.045   3.272   6.489
 6489SOL    HW120366   2.044   3.303   6.584
 6489SOL    HW220367   2.124   3.213   6.473
 6490SOL     OW20368   4.299   2.269   0.234
 6490SOL    HW120369   4.296   2.366   0.211
 6490SOL    HW220370   4.309   2.258   0.333
 6491SOL     OW20371   4.078   1.060   6.921
 6491SOL    HW120372   4.091   0.977   6.867
 6491SOL    HW220373   4.073   1.139   6.861
 6492SOL     OW20374   6.133   6.312   6.802
 6492SOL    HW120375   6.052   6.275   6.848
 6492SOL    HW220376   6.207   6.323   6.870
 6493SOL     OW20377   1.342   6.398   5.205
 6493SOL    HW120378   1.342   6.490   5.243
 6493SOL    HW220379   1.433   6.358   5.213
 6494SOL     OW20380   0.680   0.363   2.998
 6494SOL    HW120381   0.723   0.288   3.048
 6494SOL    HW220382   0.743   0.441   2.996
 6495SOL     OW20383   5.285   6.182   3.875
 6495SOL    HW120384   5.372   6.155   3.834
 6495SOL    HW220385   5.299   6.200   3.973
 6496SOL     OW20386   6.886   6.306   2.076
 6496SOL    HW120387   6.912   6.224   2.128
 6496SOL    HW220388   6.956   6.377   2.089
 6497SOL     OW20389   2.625   3.109   0.750
 6497SOL    HW120390   2.526   3.122   0.749
 6497SOL    HW220391   2.646   3.011   0.760
 6498SOL     OW20392   2.365   4.953   3.903
 6498SOL    HW120393   2.334   4.939   3.809
 6498SOL    HW220394   2.465   4.951   3.905
 6499SOL     OW20395   4.870   0.976   5.106
 6499SOL    HW120396   4.890   0.887   5.145
 6499SOL    HW220397   4.929   1.045   5.147
 6500SOL     OW20398   6.411   4.127   3.531
 6500SOL    HW120399   6.492   4.185   3.518
 6500SOL    HW220400   6.405   4.100   3.627
 6501SOL     OW20401   6.192   3.088   1.051
 6501SOL    HW120402   6.233   3.049   1.134
 6501SOL    HW220403   6.093   3.080   1.056
 6502SOL     OW20404   0.045   4.105   3.729
 6502SOL    HW120405   0.035   4.202   3.752
 6502SOL    HW220406   0.090   4.096   3.640
 6503SOL     OW20407   6.237   6.786   3.763
 6503SOL    HW120408   6.255   6.801   3.666
 6503SOL    HW220409   6.311   6.827   3.817
 6504SOL     OW20410   4.049   6.787   6.523
 6504SOL    HW120411   4.147   6.773   6.531
 6504SOL    HW220412   4.031   6.852   6.449
 6505SOL     OW20413   6.440   4.828   1.015
 6505SOL    HW120414   6.442   4.786   0.925
 6505SOL    HW220415   6.514   4.790   1.071
 6506SOL     OW20416   0.769   2.938   0.912
 6506SOL    HW120417   0.734   2.870   0.847
 6506SOL    HW220418   0.857   2.973   0.879
 6507SOL     OW20419   1.326   5.943   0.070
 6507SOL    HW120420   1.413   5.938   0.022
 6507SOL    HW220421   1.254   5.900   0.015
 6508SOL     OW20422   2.429   1.626   3.419
 6508SOL    HW120423   2.497   1.696   3.441
 6508SOL    HW220424   2.359   1.625   3.491
 6509SOL     OW20425   1.817   2.345   4.902
 6509SOL    HW120426   1.766   2.320   4.984
 6509SOL    HW220427   1.783   2.292   4.824
 6510SOL     OW20428   0.436   5.288   6.643
 6510SOL    HW120429   0.395   5.218   6.584
 6510SOL    HW220430   0.393   5.286   6.733
 6511SOL     OW20431   6.050   0.416   4.354
 6511SOL    HW120432   5.962   0.372   4.371
 6511SOL    HW220433   6.075   0.405   4.258
 6512SOL     OW20434   4.509   0.332   2.883
 6512SOL    HW120435   4.514   0.407   2.817
 6512SOL    HW220436   4.426   0.342   2.938
 6513SOL     OW20437   3.660   6.323   4.025
 6513SOL    HW120438   3.678   6.417   3.994
 6513SOL    HW220439   3.563   6.302   4.013
 6514SOL     OW20440   5.491   6.913   3.521
 6514SOL    HW120441   5.393   6.918   3.500
 6514SOL    HW220442   5.504   6.922   3.620
 6515SOL     OW20443   0.052   4.911   4.218
 6515SOL    HW120444   0.048   4.988   4.153
 6515SOL    HW220445   0.111   4.839   4.181
 6516SOL     OW20446   0.200   1.896   6.716
 6516SOL    HW120447   0.214   1.843   6.800
 6516SOL    HW220448   0.235   1.844   6.638
 6517SOL     OW20449   6.661   1.795   0.679
 6517SOL    HW120450   6.718   1.872   0.708
 6517SOL    HW220451   6.699   1.754   0.596
 6518SOL     OW20452   0.919   6.471   0.296
 6518SOL    HW120453   0.942   6.467   0.199
 6518SOL    HW220454   1.003   6.485   0.349
 6519SOL     OW20455   2.620   1.765   3.803
 6519SOL    HW120456   2.678   1.695   3.762
 6519SOL    HW220457   2.555   1.799   3.735
 6520SOL     OW20458   6.078   5.357   3.320
 6520SOL    HW120459   6.089   5.380   3.417
 6520SOL    HW220460   6.075   5.441   3.266
 6521SOL     OW20461   0.967   1.176   4.748
 6521SOL    HW120462   0.937   1.271   4.738
 6521SOL    HW220463   1.020   1.150   4.667
 6522SOL     OW20464   2.818   5.401   6.814
 6522SOL    HW120465   2.905   5.357   6.838
 6522SOL    HW220466   2.771   5.347   6.745
 6523SOL     OW20467   2.905   1.780   6.732
 6523SOL    HW120468   2.984   1.727   6.762
 6523SOL    HW220469   2.897   1.774   6.632
 6524SOL     OW20470   3.577   2.988   3.704
 6524SOL    HW120471   3.574   2.949   3.795
 6524SOL    HW220472   3.637   2.933   3.646
 6525SOL     OW20473   2.144   2.733   2.713
 6525SOL    HW120474   2.093   2.785   2.782
 6525SOL    HW220475   2.087   2.659   2.679
 6526SOL     OW20476   0.470   6.678   5.029
 6526SOL    HW120477   0.526   6.703   5.108
 6526SOL    HW220478   0.447   6.759   4.976
 6527SOL     OW20479   0.929   1.410   5.071
 6527SOL    HW120480   0.868   1.341   5.032
 6527SOL    HW220481   0.954   1.383   5.164
 6528SOL     OW20482   0.187   0.822   3.894
 6528SOL    HW120483   0.129   0.757   3.844
 6528SOL    HW220484   0.277   0.780   3.911
 6529SOL     OW20485   6.188   1.854   3.487
 6529SOL    HW120486   6.174   1.950   3.465
 6529SOL    HW220487   6.284   1.831   3.476
 6530SOL     OW20488   6.687   3.416   0.748
 6530SOL    HW120489   6.770   3.366   0.775
 6530SOL    HW220490   6.629   3.356   0.693
 6531SOL     OW20491   5.498   3.098   4.178
 6531SOL    HW120492   5.418   3.039   4.183
 6531SOL    HW220493   5.552   3.073   4.097
 6532SOL     OW20494   5.961   1.808   0.551
 6532SOL    HW120495   5.941   1.900   0.586
 6532SOL    HW220496   6.059   1.800   0.533
 6533SOL     OW20497   5.316   6.200   1.539
 6533SOL    HW120498   5.331   6.243   1.450
 6533SOL    HW220499   5.381   6.236   1.606
 6534SOL     OW20500   2.357   3.681   1.276
 6534SOL    HW120501   2.379   3.586   1.256
 6534SOL    HW220502   2.441   3.732   1.295
 6535SOL     OW20503   0.574   2.732   4.979
 6535SOL    HW120504   0.652   2.771   4.930
 6535SOL    HW220505   0.526   2.805   5.028
 6536SOL     OW20506   6.478   3.077   6.598
 6536SOL    HW120507   6.432   2.999   6.555
 6536SOL    HW220508   6.556   3.045   6.652
 6537SOL     OW20509   6.693   6.478   6.912
 6537SOL    HW120510   6.779   6.461   6.863
 6537SOL    HW220511   6.665   6.573   6.899
 6538SOL     OW20512   4.112   4.305   0.232
 6538SOL    HW120513   4.033   4.257   0.194
 6538SOL    HW220514   4.136   4.266   0.321
 6539SOL     OW20515   2.447   2.187   6.362
 6539SOL    HW120516   2.378   2.127   6.322
 6539SOL    HW220517   2.533   2.137   6.372
 6540SOL     OW20518   3.750   1.828   4.453
 6540SOL    HW120519   3.736   1.797   4.358
 6540SOL    HW220520   3.721   1.923   4.461
 6541SOL     OW20521   3.059   2.057   4.907
 6541SOL    HW120522   2.962   2.043   4.889
 6541SOL    HW220523   3.073   2.145   4.952
 6542SOL     OW20524   6.158   4.710   2.999
 6542SOL    HW120525   6.108   4.790   3.033
 6542SOL    HW220526   6.209   4.736   2.917
 6543SOL     OW20527   6.453   5.308   0.257
 6543SOL    HW120528   6.392   5.319   0.336
 6543SOL    HW220529   6.467   5.211   0.239
 6544SOL     OW20530   0.443   6.101   4.032
 6544SOL    HW120531   0.407   6.131   3.944
 6544SOL    HW220532   0.527   6.151   4.052
 6545SOL     OW20533   5.072   1.767   6.235
 6545SOL    HW120534   5.061   1.865   6.251
 6545SOL    HW220535   4.984   1.726   6.215
 6546SOL     OW20536   4.530   4.229   6.150
 6546SOL    HW120537   4.464   4.291   6.108
 6546SOL    HW220538   4.486   4.142   6.170
 6547SOL     OW20539   4.339   1.706   5.872
 6547SOL    HW120540   4.260   1.690   5.930
 6547SOL    HW220541   4.348   1.632   5.805
 6548SOL     OW20542   0.813   4.412   6.595
 6548SOL    HW120543   0.909   4.411   6.625
 6548SOL    HW220544   0.765   4.334   6.634
 6549SOL     OW20545   3.591   1.396   1.167
 6549SOL    HW120546   3.654   1.319   1.154
 6549SOL    HW220547   3.571   1.406   1.264
 6550SOL     OW20548   0.508   6.244   3.375
 6550SOL    HW120549   0.592   6.233   3.429
 6550SOL    HW220550   0.495   6.164   3.317
 6551SOL     OW20551   1.689   4.266   2.206
 6551SOL    HW120552   1.757   4.309   2.146
 6551SOL    HW220553   1.695   4.167   2.198
 6552SOL     OW20554   2.255   5.843   5.069
 6552SOL    HW120555   2.321   5.792   5.013
 6552SOL    HW220556   2.212   5.782   5.134
 6553SOL     OW20557   0.124   2.802   1.237
 6553SOL    HW120558   0.102   2.876   1.301
 6553SOL    HW220559   0.223   2.789   1.234
 6554SOL     OW20560   5.790   1.505   5.818
 6554SOL    HW120561   5.755   1.421   5.776
 6554SOL    HW220562   5.715   1.552   5.864
 6555SOL     OW20563   2.045   0.845   2.352
 6555SOL    HW120564   2.114   0.917   2.361
 6555SOL    HW220565   2.078   0.774   2.290
 6556SOL     OW20566   4.708   4.639   5.018
 6556SOL    HW120567   4.652   4.721   5.026
 6556SOL    HW220568   4.757   4.640   4.931
 6557SOL     OW20569   5.412   5.733   0.982
 6557SOL    HW120570   5.489   5.756   1.042
 6557SOL    HW220571   5.334   5.791   1.005
 6558SOL     OW20572   6.496   5.463   0.858
 6558SOL    HW120573   6.399   5.442   0.873
 6558SOL    HW220574   6.506   5.557   0.827
 6559SOL     OW20575   5.924   3.767   1.057
 6559SOL    HW120576   5.933   3.757   1.156
 6559SOL    HW220577   5.927   3.676   1.014
 6560SOL     OW20578   3.704   2.859   1.674
 6560SOL    HW120579   3.606   2.845   1.660
 6560SOL    HW220580   3.733   2.944   1.630
 6561SOL     OW20581   4.031   3.792   2.732
 6561SOL    HW120582   3.969   3.719   2.703
 6561SOL    HW220583   3.997   3.833   2.817
 6562SOL     OW20584   5.959   4.731   6.564
 6562SOL    HW120585   5.980   4.794   6.489
 6562SOL    HW220586   6.001   4.642   6.546
 6563SOL     OW20587   0.750   5.899   6.823
 6563SOL    HW120588   0.800   5.847   6.892
 6563SOL    HW220589   0.660   5.859   6.809
 6564SOL     OW20590   1.172   3.414   2.296
 6564SOL    HW120591   1.187   3.481   2.369
 6564SOL    HW220592   1.141   3.461   2.213
 6565SOL     OW20593   6.286   2.358   4.853
 6565SOL    HW120594   6.325   2.443   4.816
 6565SOL    HW220595   6.349   2.319   4.920
 6566SOL     OW20596   3.484   0.377   1.492
 6566SOL    HW120597   3.485   0.290   1.442
 6566SOL    HW220598   3.390   0.402   1.514
 6567SOL     OW20599   4.721   2.784   1.314
 6567SOL    HW120600   4.639   2.841   1.317
 6567SOL    HW220601   4.801   2.843   1.302
 6568SOL     OW20602   4.725   4.797   2.271
 6568SOL    HW120603   4.704   4.892   2.249
 6568SOL    HW220604   4.750   4.748   2.188
 6569SOL     OW20605   2.974   4.776   1.012
 6569SOL    HW120606   2.981   4.678   1.028
 6569SOL    HW220607   2.903   4.794   0.944
 6570SOL     OW20608   4.421   0.211   1.698
 6570SOL    HW120609   4.513   0.228   1.734
 6570SOL    HW220610   4.402   0.113   1.700
 6571SOL     OW20611   2.020   5.871   2.939
 6571SOL    HW120612   2.083   5.939   2.902
 6571SOL    HW220613   2.017   5.879   3.039
 6572SOL     OW20614   6.341   4.443   5.031
 6572SOL    HW120615   6.413   4.376   5.047
 6572SOL    HW220616   6.338   4.508   5.108
 6573SOL     OW20617   3.274   0.955   2.940
 6573SOL    HW120618   3.282   0.943   3.039
 6573SOL    HW220619   3.339   0.895   2.894
 6574SOL     OW20620   2.353   6.134   2.005
 6574SOL    HW120621   2.335   6.200   2.077
 6574SOL    HW220622   2.268   6.088   1.979
 6575SOL     OW20623   0.627   1.622   1.766
 6575SOL    HW120624   0.649   1.640   1.862
 6575SOL    HW220625   0.625   1.523   1.750
 6576SOL     OW20626   1.176   6.234   6.447
 6576SOL    HW120627   1.212   6.156   6.397
 6576SOL    HW220628   1.076   6.236   6.437
 6577SOL     OW20629   0.518   1.817   3.723
 6577SOL    HW120630   0.418   1.817   3.718
 6577SOL    HW220631   0.546   1.842   3.816
 6578SOL     OW20632   6.710   5.555   3.685
 6578SOL    HW120633   6.809   5.554   3.672
 6578SOL    HW220634   6.671   5.468   3.656
 6579SOL     OW20635   7.008   4.082   4.430
 6579SOL    HW120636   0.026   4.142   4.499
 6579SOL    HW220637   0.042   4.084   4.348
 6580SOL     OW20638   6.391   1.170   0.911
 6580SOL    HW120639   6.360   1.233   0.840
 6580SOL    HW220640   6.363   1.205   1.001
 6581SOL     OW20641   3.774   1.283   5.460
 6581SOL    HW120642   3.681   1.288   5.422
 6581SOL    HW220643   3.826   1.364   5.431
 6582SOL     OW20644   1.483   6.857   2.017
 6582SOL    HW120645   1.570   6.810   2.034
 6582SOL    HW220646   1.417   6.830   2.087
 6583SOL     OW20647   4.726   1.672   5.791
 6583SOL    HW120648   4.799   1.607   5.807
 6583SOL    HW220649   4.692   1.706   5.878
 6584SOL     OW20650   5.678   2.074   6.551
 6584SOL    HW120651   5.608   2.107   6.614
 6584SOL    HW220652   5.712   1.985   6.582
 6585SOL     OW20653   0.351   1.321   0.251
 6585SOL    HW120654   0.336   1.235   0.301
 6585SOL    HW220655   0.403   1.384   0.308
 6586SOL     OW20656   6.502   2.190   6.137
 6586SOL    HW120657   6.502   2.269   6.075
 6586SOL    HW220658   6.557   2.117   6.097
 6587SOL     OW20659   2.719   5.856   4.494
 6587SOL    HW120660   2.708   5.780   4.429
 6587SOL    HW220661   2.680   5.939   4.455
 6588SOL     OW20662   1.748   3.928   1.442
 6588SOL    HW120663   1.831   3.883   1.474
 6588SOL    HW220664   1.739   4.016   1.487
 6589SOL     OW20665   5.094   0.501   6.808
 6589SOL    HW120666   5.029   0.545   6.869
 6589SOL    HW220667   5.064   0.513   6.713
 6590SOL     OW20668   0.063   1.689   4.823
 6590SOL    HW120669   0.030   1.758   4.887
 6590SOL    HW220670   0.126   1.627   4.871
 6591SOL     OW20671   5.972   6.811   2.780
 6591SOL    HW120672   6.032   6.752   2.833
 6591SOL    HW220673   5.912   6.862   2.842
 6592SOL     OW20674   4.355   0.039   4.245
 6592SOL    HW120675   4.382   6.987   4.305
 6592SOL    HW220676   4.330   0.119   4.300
 6593SOL     OW20677   2.292   2.207   3.615
 6593SOL    HW120678   2.244   2.276   3.668
 6593SOL    HW220679   2.372   2.175   3.666
 6594SOL     OW20680   4.520   1.021   0.109
 6594SOL    HW120681   4.527   0.992   0.204
 6594SOL    HW220682   4.438   1.077   0.098
 6595SOL     OW20683   0.661   3.961   1.371
 6595SOL    HW120684   0.700   3.890   1.313
 6595SOL    HW220685   0.561   3.955   1.368
 6596SOL     OW20686   4.060   0.469   5.880
 6596SOL    HW120687   4.125   0.467   5.804
 6596SOL    HW220688   4.006   0.384   5.881
 6597SOL     OW20689   0.981   6.557   4.075
 6597SOL    HW120690   1.004   6.636   4.132
 6597SOL    HW220691   0.922   6.587   4.000
 6598SOL     OW20692   1.723   5.690   5.144
 6598SOL    HW120693   1.814   5.716   5.111
 6598SOL    HW220694   1.671   5.647   5.070
 6599SOL     OW20695   4.094   5.214   5.948
 6599SOL    HW120696   4.111   5.269   5.866
 6599SOL    HW220697   4.116   5.269   6.029
 6600SOL     OW20698   5.487   5.099   5.072
 6600SOL    HW120699   5.568   5.043   5.053
 6600SOL    HW220700   5.515   5.193   5.087
 6601SOL     OW20701   0.594   0.320   0.279
 6601SOL    HW120702   0.669   0.377   0.245
 6601SOL    HW220703   0.517   0.325   0.216
 6602SOL     OW20704   7.018   2.552   1.150
 6602SOL    HW120705   0.050   2.628   1.113
 6602SOL    HW220706   6.992   2.491   1.075
 6603SOL     OW20707   1.557   3.288   4.220
 6603SOL    HW120708   1.496   3.214   4.247
 6603SOL    HW220709   1.524   3.330   4.136
 6604SOL     OW20710   2.749   6.066   1.563
 6604SOL    HW120711   2.676   6.016   1.610
 6604SOL    HW220712   2.732   6.064   1.464
 6605SOL     OW20713   4.435   4.824   0.475
 6605SOL    HW120714   4.381   4.794   0.553
 6605SOL    HW220715   4.487   4.746   0.438
 6606SOL     OW20716   4.441   0.059   2.389
 6606SOL    HW120717   4.367   7.016   2.375
 6606SOL    HW220718   4.528   0.018   2.361
 6607SOL     OW20719   1.985   1.117   1.860
 6607SOL    HW120720   2.036   1.175   1.797
 6607SOL    HW220721   2.025   1.124   1.952
 6608SOL     OW20722   5.236   3.507   2.491
 6608SOL    HW120723   5.317   3.450   2.499
 6608SOL    HW220724   5.264   3.603   2.481
 6609SOL     OW20725   5.087   0.863   6.653
 6609SOL    HW120726   4.989   0.871   6.635
 6609SOL    HW220727   5.119   0.945   6.701
 6610SOL     OW20728   1.968   6.889   0.266
 6610SOL    HW120729   1.950   6.969   0.323
 6610SOL    HW220730   1.902   6.885   0.192
 6611SOL     OW20731   6.784   2.507   3.169
 6611SOL    HW120732   6.741   2.584   3.122
 6611SOL    HW220733   6.754   2.421   3.127
 6612SOL     OW20734   1.696   4.283   6.568
 6612SOL    HW120735   1.670   4.341   6.646
 6612SOL    HW220736   1.722   4.341   6.491
 6613SOL     OW20737   5.855   6.157   3.634
 6613SOL    HW120738   5.812   6.240   3.596
 6613SOL    HW220739   5.821   6.077   3.586
 6614SOL     OW20740   4.983   6.560   6.540
 6614SOL    HW120741   4.983   6.568   6.441
 6614SOL    HW220742   5.013   6.646   6.581
 6615SOL     OW20743   0.564   3.865   4.519
 6615SOL    HW120744   0.532   3.826   4.433
 6615SOL    HW220745   0.650   3.820   4.546
 6616SOL     OW20746   3.939   1.618   5.994
 6616SOL    HW120747   3.891   1.635   6.079
 6616SOL    HW220748   3.909   1.684   5.925
 6617SOL     OW20749   3.783   6.680   3.572
 6617SOL    HW120750   3.843   6.600   3.570
 6617SOL    HW220751   3.729   6.684   3.488
 6618SOL     OW20752   1.036   3.179   2.413
 6618SOL    HW120753   1.052   3.271   2.378
 6618SOL    HW220754   1.045   3.179   2.512
 6619SOL     OW20755   4.883   6.852   4.262
 6619SOL    HW120756   4.976   6.828   4.288
 6619SOL    HW220757   4.820   6.780   4.291
 6620SOL     OW20758   1.437   3.235   5.905
 6620SOL    HW120759   1.467   3.190   5.989
 6620SOL    HW220760   1.432   3.168   5.831
 6621SOL     OW20761   3.076   3.828   0.847
 6621SOL    HW120762   3.131   3.778   0.780
 6621SOL    HW220763   2.979   3.807   0.833
 6622SOL     OW20764   5.744   5.727   1.223
 6622SOL    HW120765   5.697   5.683   1.300
 6622SOL    HW220766   5.841   5.737   1.245
 6623SOL     OW20767   3.521   3.176   2.149
 6623SOL    HW120768   3.456   3.104   2.124
 6623SOL    HW220769   3.522   3.187   2.248
 6624SOL     OW20770   2.724   6.180   4.502
 6624SOL    HW120771   2.797   6.159   4.567
 6624SOL    HW220772   2.658   6.241   4.546
 6625SOL     OW20773   5.920   1.565   6.601
 6625SOL    HW120774   6.000   1.616   6.568
 6625SOL    HW220775   5.951   1.482   6.647
 6626SOL     OW20776   3.403   4.914   3.207
 6626SOL    HW120777   3.340   4.891   3.132
 6626SOL    HW220778   3.378   4.862   3.288
 6627SOL     OW20779   2.323   0.795   5.809
 6627SOL    HW120780   2.399   0.851   5.776
 6627SOL    HW220781   2.237   0.835   5.777
 6628SOL     OW20782   4.739   5.107   2.501
 6628SOL    HW120783   4.736   5.207   2.496
 6628SOL    HW220784   4.647   5.071   2.515
 6629SOL     OW20785   3.534   6.041   1.082
 6629SOL    HW120786   3.522   6.056   0.984
 6629SOL    HW220787   3.609   6.099   1.115
 6630SOL     OW20788   3.660   1.814   0.577
 6630SOL    HW120789   3.632   1.780   0.667
 6630SOL    HW220790   3.697   1.906   0.586
 6631SOL     OW20791   4.263   6.888   2.313
 6631SOL    HW120792   4.306   6.827   2.247
 6631SOL    HW220793   4.164   6.876   2.310
 6632SOL     OW20794   0.153   1.397   1.530
 6632SOL    HW120795   0.252   1.405   1.528
 6632SOL    HW220796   0.121   1.359   1.442
 6633SOL     OW20797   1.435   5.610   6.107
 6633SOL    HW120798   1.494   5.650   6.037
 6633SOL    HW220799   1.447   5.511   6.108
 6634SOL     OW20800   6.526   3.511   6.175
 6634SOL    HW120801   6.549   3.425   6.130
 6634SOL    HW220802   6.428   3.531   6.162
 6635SOL     OW20803   4.343   4.990   3.491
 6635SOL    HW120804   4.412   5.060   3.507
 6635SOL    HW220805   4.313   4.952   3.578
 6636SOL     OW20806   1.631   3.370   5.264
 6636SOL    HW120807   1.701   3.298   5.259
 6636SOL    HW220808   1.542   3.331   5.240
 6637SOL     OW20809   0.943   0.112   6.978
 6637SOL    HW120810   0.846   0.087   6.969
 6637SOL    HW220811   0.999   0.030   6.969
 6638SOL     OW20812   3.642   4.998   4.730
 6638SOL    HW120813   3.593   5.079   4.764
 6638SOL    HW220814   3.730   4.991   4.776
 6639SOL     OW20815   5.806   5.763   5.929
 6639SOL    HW120816   5.853   5.721   5.851
 6639SOL    HW220817   5.754   5.843   5.897
 6640SOL     OW20818   0.258   1.695   4.578
 6640SOL    HW120819   0.167   1.737   4.575
 6640SOL    HW220820   0.328   1.766   4.582
 6641SOL     OW20821   3.269   3.693   6.667
 6641SOL    HW120822   3.263   3.763   6.738
 6641SOL    HW220823   3.263   3.737   6.577
 6642SOL     OW20824   2.354   5.316   6.847
 6642SOL    HW120825   2.273   5.302   6.789
 6642SOL    HW220826   2.332   5.382   6.919
 6643SOL     OW20827   6.240   4.465   7.021
 6643SOL    HW120828   6.185   4.473   0.081
 6643SOL    HW220829   6.254   4.368   6.999
 6644SOL     OW20830   2.989   4.666   1.691
 6644SOL    HW120831   2.929   4.608   1.747
 6644SOL    HW220832   3.084   4.635   1.702
 6645SOL     OW20833   6.954   4.991   0.620
 6645SOL    HW120834   6.877   4.961   0.676
 6645SOL    HW220835   6.969   5.089   0.633
 6646SOL     OW20836   4.647   5.653   4.545
 6646SOL    HW120837   4.679   5.747   4.537
 6646SOL    HW220838   4.642   5.627   4.641
 6647SOL     OW20839   3.284   1.210   2.571
 6647SOL    HW120840   3.281   1.309   2.581
 6647SOL    HW220841   3.225   1.167   2.640
 6648SOL     OW20842   3.756   5.421   2.804
 6648SOL    HW120843   3.692   5.440   2.729
 6648SOL    HW220844   3.711   5.363   2.873
 6649SOL     OW20845   5.730   2.325   6.489
 6649SOL    HW120846   5.716   2.229   6.513
 6649SOL    HW220847   5.770   2.331   6.397
 6650SOL     OW20848   3.972   1.119   3.315
 6650SOL    HW120849   3.982   1.037   3.372
 6650SOL    HW220850   3.980   1.094   3.219
 6651SOL     OW20851   1.546   2.116   0.711
 6651SOL    HW120852   1.524   2.042   0.647
 6651SOL    HW220853   1.636   2.153   0.690
 6652SOL     OW20854   6.607   4.078   0.730
 6652SOL    HW120855   6.550   4.117   0.802
 6652SOL    HW220856   6.693   4.046   0.770
 6653SOL     OW20857   4.109   3.658   3.141
 6653SOL    HW120858   4.132   3.732   3.078
 6653SOL    HW220859   4.071   3.696   3.225
 6654SOL     OW20860   2.150   2.962   1.308
 6654SOL    HW120861   2.248   2.957   1.326
 6654SOL    HW220862   2.135   3.003   1.218
 6655SOL     OW20863   2.667   0.017   1.645
 6655SOL    HW120864   2.581   6.999   1.614
 6655SOL    HW220865   2.663   0.030   1.744
 6656SOL     OW20866   6.906   1.155   2.524
 6656SOL    HW120867   6.904   1.223   2.450
 6656SOL    HW220868   6.853   1.075   2.498
 6657SOL     OW20869   4.301   6.675   6.474
 6657SOL    HW120870   4.267   6.686   6.381
 6657SOL    HW220871   4.323   6.579   6.491
 6658SOL     OW20872   5.867   1.022   5.781
 6658SOL    HW120873   5.889   1.059   5.690
 6658SOL    HW220874   5.944   0.966   5.813
 6659SOL     OW20875   2.409   2.227   6.956
 6659SOL    HW120876   2.508   2.235   6.972
 6659SOL    HW220877   2.375   2.144   6.999
 6660SOL     OW20878   6.785   6.418   1.366
 6660SOL    HW120879   6.854   6.440   1.435
 6660SOL    HW220880   6.695   6.415   1.409
 6661SOL     OW20881   0.081   5.051   3.794
 6661SOL    HW120882   0.094   5.136   3.743
 6661SOL    HW220883   0.063   5.072   3.890
 6662SOL     OW20884   1.124   1.054   0.095
 6662SOL    HW120885   1.098   0.968   0.139
 6662SOL    HW220886   1.211   1.085   0.132
 6663SOL     OW20887   6.968   5.571   3.588
 6663SOL    HW120888   7.008   5.487   3.550
 6663SOL    HW220889   6.990   5.577   3.686
 6664SOL     OW20890   1.306   0.284   1.590
 6664SOL    HW120891   1.358   0.199   1.588
 6664SOL    HW220892   1.305   0.325   1.498
 6665SOL     OW20893   1.415   0.109   3.826
 6665SOL    HW120894   1.507   0.136   3.853
 6665SOL    HW220895   1.419   0.025   3.771
 6666SOL     OW20896   6.020   1.977   5.088
 6666SOL    HW120897   5.954   1.916   5.131
 6666SOL    HW220898   5.998   1.987   4.991
 6667SOL     OW20899   6.322   4.727   4.862
 6667SOL    HW120900   6.383   4.732   4.783
 6667SOL    HW220901   6.358   4.785   4.935
 6668SOL     OW20902   0.224   5.818   2.273
 6668SOL    HW120903   0.151   5.809   2.341
 6668SOL    HW220904   0.183   5.823   2.182
 6669SOL     OW20905   2.124   3.937   3.777
 6669SOL    HW120906   2.195   3.898   3.836
 6669SOL    HW220907   2.096   4.025   3.814
 6670SOL     OW20908   3.658   4.581   6.477
 6670SOL    HW120909   3.585   4.614   6.538
 6670SOL    HW220910   3.736   4.644   6.482
 6671SOL     OW20911   5.591   4.731   0.134
 6671SOL    HW120912   5.600   4.814   0.190
 6671SOL    HW220913   5.494   4.715   0.116
 6672SOL     OW20914   0.892   0.785   5.322
 6672SOL    HW120915   0.942   0.771   5.236
 6672SOL    HW220916   0.824   0.713   5.332
 6673SOL     OW20917   4.964   5.931   2.722
 6673SOL    HW120918   5.056   5.938   2.760
 6673SOL    HW220919   4.901   5.898   2.792
 6674SOL     OW20920   0.784   5.603   5.871
 6674SOL    HW120921   0.719   5.662   5.919
 6674SOL    HW220922   0.862   5.583   5.930
 6675SOL     OW20923   5.607   3.798   0.970
 6675SOL    HW120924   5.680   3.740   1.007
 6675SOL    HW220925   5.648   3.872   0.917
 6676SOL     OW20926   0.829   3.461   5.618
 6676SOL    HW120927   0.884   3.487   5.539
 6676SOL    HW220928   0.814   3.362   5.618
 6677SOL     OW20929   6.991   3.048   0.051
 6677SOL    HW120930   6.931   3.017   7.000
 6677SOL    HW220931   0.051   2.991   0.052
 6678SOL     OW20932   1.259   2.666   6.658
 6678SOL    HW120933   1.270   2.570   6.631
 6678SOL    HW220934   1.333   2.721   6.619
 6679SOL     OW20935   1.492   1.575   5.096
 6679SOL    HW120936   1.440   1.490   5.096
 6679SOL    HW220937   1.448   1.641   5.035
 6680SOL     OW20938   3.939   5.813   5.846
 6680SOL    HW120939   3.863   5.851   5.794
 6680SOL    HW220940   4.019   5.871   5.835
 6681SOL     OW20941   5.438   6.063   6.924
 6681SOL    HW120942   5.434   6.125   7.002
 6681SOL    HW220943   5.356   6.006   6.922
 6682SOL     OW20944   0.457   4.714   2.717
 6682SOL    HW120945   0.530   4.724   2.785
 6682SOL    HW220946   0.405   4.631   2.736
 6683SOL     OW20947   4.957   1.855   5.200
 6683SOL    HW120948   4.901   1.862   5.283
 6683SOL    HW220949   4.898   1.842   5.121
 6684SOL     OW20950   2.266   6.720   1.598
 6684SOL    HW120951   2.193   6.691   1.660
 6684SOL    HW220952   2.326   6.784   1.645
 6685SOL     OW20953   5.104   1.739   5.979
 6685SOL    HW120954   5.137   1.827   5.947
 6685SOL    HW220955   5.130   1.726   6.075
 6686SOL     OW20956   6.202   4.011   4.287
 6686SOL    HW120957   6.204   4.099   4.336
 6686SOL    HW220958   6.251   3.942   4.340
 6687SOL     OW20959   1.118   1.568   0.639
 6687SOL    HW120960   1.114   1.665   0.614
 6687SOL    HW220961   1.053   1.550   0.713
 6688SOL     OW20962   6.826   4.316   2.472
 6688SOL    HW120963   6.757   4.321   2.399
 6688SOL    HW220964   6.917   4.305   2.432
 6689SOL     OW20965   4.658   2.782   0.993
 6689SOL    HW120966   4.645   2.766   1.091
 6689SOL    HW220967   4.603   2.717   0.941
 6690SOL     OW20968   2.252   1.740   1.805
 6690SOL    HW120969   2.335   1.795   1.799
 6690SOL    HW220970   2.239   1.709   1.899
 6691SOL     OW20971   2.732   5.594   0.907
 6691SOL    HW120972   2.749   5.690   0.887
 6691SOL    HW220973   2.720   5.581   1.005
 6692SOL     OW20974   2.749   4.444   5.398
 6692SOL    HW120975   2.730   4.353   5.361
 6692SOL    HW220976   2.796   4.499   5.330
 6693SOL     OW20977   4.357   3.645   5.926
 6693SOL    HW120978   4.436   3.669   5.869
 6693SOL    HW220979   4.297   3.584   5.875
 6694SOL     OW20980   4.404   5.916   0.228
 6694SOL    HW120981   4.393   5.895   0.325
 6694SOL    HW220982   4.489   5.874   0.194
 6695SOL     OW20983   0.705   2.150   6.433
 6695SOL    HW120984   0.622   2.107   6.469
 6695SOL    HW220985   0.725   2.233   6.486
 6696SOL     OW20986   2.024   2.745   1.444
 6696SOL    HW120987   2.039   2.841   1.417
 6696SOL    HW220988   1.947   2.708   1.393
 6697SOL     OW20989   4.744   2.106   2.667
 6697SOL    HW120990   4.674   2.163   2.624
 6697SOL    HW220991   4.699   2.035   2.721
 6698SOL     OW20992   3.591   2.387   0.752
 6698SOL    HW120993   3.509   2.410   0.804
 6698SOL    HW220994   3.629   2.469   0.710
 6699SOL     OW20995   3.922   4.309   6.615
 6699SOL    HW120996   3.852   4.316   6.544
 6699SOL    HW220997   3.986   4.236   6.592
 6700SOL     OW20998   0.377   5.457   0.460
 6700SOL    HW120999   0.286   5.473   0.422
 6700SOL    HW221000   0.402   5.534   0.519
 6701SOL     OW21001   5.935   2.802   1.115
 6701SOL    HW121002   5.908   2.706   1.111
 6701SOL    HW221003   6.006   2.820   1.048
 6702SOL     OW21004   2.891   2.036   0.156
 6702SOL    HW121005   2.943   2.119   0.134
 6702SOL    HW221006   2.837   2.051   0.238
 6703SOL     OW21007   6.310   2.240   6.989
 6703SOL    HW121008   6.322   2.159   6.933
 6703SOL    HW221009   6.242   2.300   6.947
 6704SOL     OW21010   4.532   2.478   2.334
 6704SOL    HW121011   4.571   2.561   2.294
 6704SOL    HW221012   4.445   2.457   2.289
 6705SOL     OW21013   0.139   2.579   2.151
 6705SOL    HW121014   0.124   2.542   2.060
 6705SOL    HW221015   0.147   2.678   2.146
 6706SOL     OW21016   0.802   3.462   0.391
 6706SOL    HW121017   0.726   3.397   0.382
 6706SOL    HW221018   0.801   3.502   0.483
 6707SOL     OW21019   6.333   6.271   4.778
 6707SOL    HW121020   6.305   6.202   4.711
 6707SOL    HW221021   6.279   6.260   4.862
 6708SOL     OW21022   1.621   5.435   2.641
 6708SOL    HW121023   1.551   5.494   2.682
 6708SOL    HW221024   1.581   5.345   2.623
 6709SOL     OW21025   3.569   6.536   1.218
 6709SOL    HW121026   3.519   6.460   1.177
 6709SOL    HW221027   3.505   6.611   1.236
 6710SOL     OW21028   2.004   2.467   5.887
 6710SOL    HW121029   2.009   2.477   5.986
 6710SOL    HW221030   2.011   2.557   5.844
 6711SOL     OW21031   5.234   4.036   6.425
 6711SOL    HW121032   5.263   4.132   6.426
 6711SOL    HW221033   5.293   3.982   6.485
 6712SOL     OW21034   3.917   5.612   0.053
 6712SOL    HW121035   3.928   5.519   0.087
 6712SOL    HW221036   3.824   5.643   0.069
 6713SOL     OW21037   2.523   1.932   1.523
 6713SOL    HW121038   2.489   2.022   1.495
 6713SOL    HW221039   2.621   1.925   1.501
 6714SOL     OW21040   4.982   6.976   5.219
 6714SOL    HW121041   5.067   0.003   5.236
 6714SOL    HW221042   4.904   0.007   5.253
 6715SOL     OW21043   0.539   1.066   0.110
 6715SOL    HW121044   0.449   1.022   0.117
 6715SOL    HW221045   0.534   1.139   0.042
 6716SOL     OW21046   1.638   6.193   0.973
 6716SOL    HW121047   1.706   6.252   1.018
 6716SOL    HW221048   1.599   6.242   0.895
 6717SOL     OW21049   3.706   3.443   0.491
 6717SOL    HW121050   3.762   3.368   0.458
 6717SOL    HW221051   3.648   3.477   0.416
 6718SOL     OW21052   3.702   5.577   6.269
 6718SOL    HW121053   3.718   5.626   6.184
 6718SOL    HW221054   3.749   5.624   6.344
 6719SOL     OW21055   0.190   0.011   5.986
 6719SOL    HW121056   0.275   0.060   6.006
 6719SOL    HW221057   0.145   0.054   5.908
 6720SOL     OW21058   2.542   5.921   1.670
 6720SOL    HW121059   2.502   5.830   1.658
 6720SOL    HW221060   2.469   5.989   1.681
 6721SOL     OW21061   5.214   6.607   4.643
 6721SOL    HW121062   5.277   6.631   4.717
 6721SOL    HW221063   5.128   6.655   4.655
 6722SOL     OW21064   4.824   3.198   0.692
 6722SOL    HW121065   4.820   3.183   0.593
 6722SOL    HW221066   4.867   3.120   0.736
 6723SOL     OW21067   2.045   6.218   3.438
 6723SOL    HW121068   2.119   6.270   3.482
 6723SOL    HW221069   1.986   6.280   3.387
 6724SOL     OW21070   2.354   4.484   6.206
 6724SOL    HW121071   2.344   4.418   6.132
 6724SOL    HW221072   2.264   4.512   6.239
 6725SOL     OW21073   0.972   4.400   2.813
 6725SOL    HW121074   0.935   4.340   2.743
 6725SOL    HW221075   1.013   4.481   2.770
 6726SOL     OW21076   1.688   2.778   4.244
 6726SOL    HW121077   1.634   2.843   4.296
 6726SOL    HW221078   1.630   2.732   4.176
 6727SOL     OW21079   5.457   3.561   6.283
 6727SOL    HW121080   5.526   3.630   6.260
 6727SOL    HW221081   5.400   3.595   6.358
 6728SOL     OW21082   3.903   2.160   4.435
 6728SOL    HW121083   3.945   2.093   4.497
 6728SOL    HW221084   3.959   2.242   4.432
 6729SOL     OW21085   6.897   0.624   2.338
 6729SOL    HW121086   6.911   0.695   2.407
 6729SOL    HW221087   6.798   0.609   2.326
 6730SOL     OW21088   2.609   0.089   6.804
 6730SOL    HW121089   2.564   0.135   6.880
 6730SOL    HW221090   2.545   0.079   6.728
 6731SOL     OW21091   2.856   4.657   1.436
 6731SOL    HW121092   2.866   4.559   1.419
 6731SOL    HW221093   2.907   4.682   1.518
 6732SOL     OW21094   2.172   5.960   0.222
 6732SOL    HW121095   2.185   6.020   0.143
 6732SOL    HW221096   2.197   6.008   0.306
 6733SOL     OW21097   4.354   5.670   5.788
 6733SOL    HW121098   4.408   5.636   5.864
 6733SOL    HW221099   4.369   5.769   5.778
 6734SOL     OW21100   0.982   3.550   5.381
 6734SOL    HW121101   1.060   3.486   5.382
 6734SOL    HW221102   1.013   3.639   5.347
 6735SOL     OW21103   0.168   5.248   5.208
 6735SOL    HW121104   0.069   5.235   5.213
 6735SOL    HW221105   0.194   5.274   5.115
 6736SOL     OW21106   2.423   3.408   1.225
 6736SOL    HW121107   2.465   3.362   1.303
 6736SOL    HW221108   2.466   3.377   1.140
 6737SOL     OW21109   2.065   1.383   2.126
 6737SOL    HW121110   1.984   1.401   2.182
 6737SOL    HW221111   2.083   1.285   2.125
 6738SOL     OW21112   2.460   1.509   2.487
 6738SOL    HW121113   2.497   1.434   2.542
 6738SOL    HW221114   2.527   1.536   2.418
 6739SOL     OW21115   3.788   5.995   5.100
 6739SOL    HW121116   3.804   5.991   5.198
 6739SOL    HW221117   3.695   6.027   5.082
 6740SOL     OW21118   1.431   1.109   4.340
 6740SOL    HW121119   1.487   1.191   4.337
 6740SOL    HW221120   1.489   1.028   4.334
 6741SOL     OW21121   5.619   1.253   6.175
 6741SOL    HW121122   5.602   1.322   6.105
 6741SOL    HW221123   5.549   1.259   6.246
 6742SOL     OW21124   0.130   4.948   5.425
 6742SOL    HW121125   0.070   4.914   5.352
 6742SOL    HW221126   0.087   5.026   5.470
 6743SOL     OW21127   4.136   3.001   0.702
 6743SOL    HW121128   4.083   3.080   0.732
 6743SOL    HW221129   4.228   3.007   0.741
 6744SOL     OW21130   4.100   4.530   5.556
 6744SOL    HW121131   4.174   4.514   5.621
 6744SOL    HW221132   4.031   4.458   5.565
 6745SOL     OW21133   1.085   4.950   3.182
 6745SOL    HW121134   1.135   5.037   3.181
 6745SOL    HW221135   1.060   4.927   3.276
 6746SOL     OW21136   0.572   1.238   1.467
 6746SOL    HW121137   0.500   1.285   1.519
 6746SOL    HW221138   0.660   1.257   1.509
 6747SOL     OW21139   5.656   6.787   4.325
 6747SOL    HW121140   5.594   6.791   4.403
 6747SOL    HW221141   5.656   6.875   4.277
 6748SOL     OW21142   0.821   0.403   1.881
 6748SOL    HW121143   0.817   0.338   1.958
 6748SOL    HW221144   0.815   0.353   1.795
 6749SOL     OW21145   3.566   0.820   6.935
 6749SOL    HW121146   3.519   0.744   6.889
 6749SOL    HW221147   3.664   0.816   6.915
 6750SOL     OW21148   2.739   2.287   4.217
 6750SOL    HW121149   2.737   2.268   4.315
 6750SOL    HW221150   2.834   2.280   4.184
 6751SOL     OW21151   2.594   2.467   4.082
 6751SOL    HW121152   2.623   2.462   3.987
 6751SOL    HW221153   2.649   2.404   4.137
 6752SOL     OW21154   5.892   3.067   1.114
 6752SOL    HW121155   5.823   3.107   1.054
 6752SOL    HW221156   5.886   2.967   1.110
 6753SOL     OW21157   4.244   1.973   6.340
 6753SOL    HW121158   4.213   2.068   6.334
 6753SOL    HW221159   4.329   1.969   6.393
 6754SOL     OW21160   5.969   1.504   6.143
 6754SOL    HW121161   5.944   1.442   6.069
 6754SOL    HW221162   6.057   1.548   6.121
 6755SOL     OW21163   5.710   2.161   3.435
 6755SOL    HW121164   5.630   2.218   3.455
 6755SOL    HW221165   5.729   2.162   3.337
 6756SOL     OW21166   4.696   4.758   4.218
 6756SOL    HW121167   4.700   4.660   4.239
 6756SOL    HW221168   4.777   4.803   4.255
 6757SOL     OW21169   4.864   6.284   1.296
 6757SOL    HW121170   4.784   6.294   1.236
 6757SOL    HW221171   4.836   6.296   1.391
 6758SOL     OW21172   5.180   3.192   2.369
 6758SOL    HW121173   5.155   3.223   2.277
 6758SOL    HW221174   5.119   3.235   2.436
 6759SOL     OW21175   1.167   4.657   2.787
 6759SOL    HW121176   1.230   4.581   2.772
 6759SOL    HW221177   1.193   4.706   2.870
 6760SOL     OW21178   0.121   4.452   4.196
 6760SOL    HW121179   0.159   4.381   4.137
 6760SOL    HW221180   0.179   4.534   4.190
 6761SOL     OW21181   5.196   2.911   5.552
 6761SOL    HW121182   5.169   2.911   5.648
 6761SOL    HW221183   5.263   2.838   5.536
 6762SOL     OW21184   6.271   5.252   3.898
 6762SOL    HW121185   6.239   5.346   3.913
 6762SOL    HW221186   6.305   5.215   3.985
 6763SOL     OW21187   5.906   6.796   5.388
 6763SOL    HW121188   5.916   6.891   5.358
 6763SOL    HW221189   5.858   6.744   5.318
 6764SOL     OW21190   2.932   3.726   6.562
 6764SOL    HW121191   2.923   3.642   6.615
 6764SOL    HW221192   2.973   3.797   6.620
 6765SOL     OW21193   6.627   4.599   3.326
 6765SOL    HW121194   6.698   4.669   3.338
 6765SOL    HW221195   6.615   4.549   3.412
 6766SOL     OW21196   1.692   0.885   5.412
 6766SOL    HW121197   1.752   0.853   5.339
 6766SOL    HW221198   1.748   0.928   5.484
 6767SOL     OW21199   0.585   2.587   6.437
 6767SOL    HW121200   0.661   2.648   6.418
 6767SOL    HW221201   0.619   2.503   6.480
 6768SOL     OW21202   0.789   0.125   4.137
 6768SOL    HW121203   0.732   0.043   4.130
 6768SOL    HW221204   0.732   0.207   4.129
 6769SOL     OW21205   2.388   2.794   5.734
 6769SOL    HW121206   2.349   2.755   5.651
 6769SOL    HW221207   2.317   2.844   5.784
 6770SOL     OW21208   0.105   1.872   3.349
 6770SOL    HW121209   0.152   1.948   3.395
 6770SOL    HW221210   0.093   1.797   3.413
 6771SOL     OW21211   3.518   1.977   3.941
 6771SOL    HW121212   3.603   2.017   3.976
 6771SOL    HW221213   3.501   2.009   3.848
 6772SOL     OW21214   6.343   1.380   2.890
 6772SOL    HW121215   6.330   1.302   2.952
 6772SOL    HW221216   6.306   1.357   2.800
 6773SOL     OW21217   0.008   5.974   1.647
 6773SOL    HW121218   0.037   5.888   1.604
 6773SOL    HW221219   6.944   6.004   1.608
 6774SOL     OW21220   2.169   2.306   5.749
 6774SOL    HW121221   2.085   2.348   5.785
 6774SOL    HW221222   2.175   2.212   5.781
 6775SOL     OW21223   0.567   1.885   4.892
 6775SOL    HW121224   0.482   1.877   4.945
 6775SOL    HW221225   0.545   1.914   4.799
 6776SOL     OW21226   3.536   4.149   1.859
 6776SOL    HW121227   3.601   4.186   1.792
 6776SOL    HW221228   3.444   4.178   1.835
 6777SOL     OW21229   5.314   5.406   1.200
 6777SOL    HW121230   5.247   5.481   1.209
 6777SOL    HW221231   5.267   5.325   1.164
 6778SOL     OW21232   0.126   4.222   2.566
 6778SOL    HW121233   0.191   4.147   2.555
 6778SOL    HW221234   0.173   4.309   2.555
 6779SOL     OW21235   5.902   4.339   5.644
 6779SOL    HW121236   5.821   4.281   5.637
 6779SOL    HW221237   5.975   4.302   5.586
 6780SOL     OW21238   2.970   2.270   2.679
 6780SOL    HW121239   3.066   2.246   2.692
 6780SOL    HW221240   2.926   2.201   2.622
 6781SOL     OW21241   6.883   1.175   4.057
 6781SOL    HW121242   6.883   1.077   4.040
 6781SOL    HW221243   6.956   1.218   4.005
 6782SOL     OW21244   6.787   2.027   3.127
 6782SOL    HW121245   6.749   2.060   3.041
 6782SOL    HW221246   6.844   1.946   3.110
 6783SOL     OW21247   1.427   4.797   5.205
 6783SOL    HW121248   1.480   4.847   5.273
 6783SOL    HW221249   1.334   4.782   5.240
 6784SOL     OW21250   1.587   3.702   1.674
 6784SOL    HW121251   1.680   3.718   1.642
 6784SOL    HW221252   1.535   3.787   1.670
 6785SOL     OW21253   5.267   5.116   4.559
 6785SOL    HW121254   5.345   5.141   4.617
 6785SOL    HW221255   5.232   5.027   4.589
 6786SOL     OW21256   6.827   2.278   6.815
 6786SOL    HW121257   6.824   2.179   6.800
 6786SOL    HW221258   6.799   2.325   6.732
 6787SOL     OW21259   4.104   2.128   6.647
 6787SOL    HW121260   4.013   2.132   6.608
 6787SOL    HW221261   4.099   2.140   6.746
 6788SOL     OW21262   0.150   4.026   3.500
 6788SOL    HW121263   0.242   3.993   3.519
 6788SOL    HW221264   0.094   3.951   3.463
 6789SOL     OW21265   6.438   3.773   4.102
 6789SOL    HW121266   6.429   3.709   4.026
 6789SOL    HW221267   6.491   3.732   4.175
 6790SOL     OW21268   0.655   4.856   5.672
 6790SOL    HW121269   0.700   4.813   5.593
 6790SOL    HW221270   0.630   4.950   5.648
 6791SOL     OW21271   3.644   0.608   3.653
 6791SOL    HW121272   3.676   0.689   3.604
 6791SOL    HW221273   3.593   0.549   3.590
 6792SOL     OW21274   4.217   0.172   5.776
 6792SOL    HW121275   4.118   0.163   5.773
 6792SOL    HW221276   4.259   0.093   5.730
 6793SOL     OW21277   2.365   3.141   0.749
 6793SOL    HW121278   2.343   3.201   0.672
 6793SOL    HW221279   2.281   3.117   0.797
 6794SOL     OW21280   5.081   1.736   5.418
 6794SOL    HW121281   5.178   1.712   5.424
 6794SOL    HW221282   5.056   1.754   5.323
 6795SOL     OW21283   0.857   1.342   1.317
 6795SOL    HW121284   0.801   1.291   1.252
 6795SOL    HW221285   0.906   1.414   1.268
 6796SOL     OW21286   6.920   0.791   2.566
 6796SOL    HW121287   6.834   0.839   2.580
 6796SOL    HW221288   6.979   0.803   2.646
 6797SOL     OW21289   0.468   2.549   1.004
 6797SOL    HW121290   0.489   2.578   0.911
 6797SOL    HW221291   0.425   2.458   1.002
 6798SOL     OW21292   5.299   0.473   1.596
 6798SOL    HW121293   5.239   0.544   1.558
 6798SOL    HW221294   5.383   0.515   1.630
 6799SOL     OW21295   5.734   0.546   3.637
 6799SOL    HW121296   5.753   0.581   3.729
 6799SOL    HW221297   5.689   0.616   3.583
 6800SOL     OW21298   6.973   2.077   1.116
 6800SOL    HW121299   0.006   2.091   1.198
 6800SOL    HW221300   0.009   2.082   1.035
 6801SOL     OW21301   0.715   5.625   5.599
 6801SOL    HW121302   0.633   5.681   5.590
 6801SOL    HW221303   0.737   5.614   5.696
 6802SOL     OW21304   2.834   5.064   1.544
 6802SOL    HW121305   2.742   5.025   1.548
 6802SOL    HW221306   2.828   5.163   1.552
 6803SOL     OW21307   4.949   4.996   5.794
 6803SOL    HW121308   5.007   4.947   5.729
 6803SOL    HW221309   4.988   5.086   5.812
 6804SOL     OW21310   3.170   4.851   3.065
 6804SOL    HW121311   3.167   4.872   3.163
 6804SOL    HW221312   3.077   4.835   3.032
 6805SOL     OW21313   0.047   4.268   5.119
 6805SOL    HW121314   0.005   4.238   5.204
 6805SOL    HW221315   0.134   4.220   5.106
 6806SOL     OW21316   6.930   1.420   2.410
 6806SOL    HW121317   7.007   1.456   2.357
 6806SOL    HW221318   6.899   1.489   2.475
 6807SOL     OW21319   3.307   3.584   1.566
 6807SOL    HW121320   3.325   3.682   1.556
 6807SOL    HW221321   3.236   3.556   1.501
 6808SOL     OW21322   3.400   0.961   4.506
 6808SOL    HW121323   3.431   0.964   4.601
 6808SOL    HW221324   3.473   0.994   4.446
 6809SOL     OW21325   5.116   3.292   2.101
 6809SOL    HW121326   5.127   3.374   2.045
 6809SOL    HW221327   5.139   3.211   2.047
 6810SOL     OW21328   2.511   0.394   3.850
 6810SOL    HW121329   2.559   0.418   3.935
 6810SOL    HW221330   2.533   0.462   3.780
 6811SOL     OW21331   6.630   1.290   1.152
 6811SOL    HW121332   6.581   1.243   1.225
 6811SOL    HW221333   6.720   1.319   1.186
 6812SOL     OW21334   3.277   3.918   5.299
 6812SOL    HW121335   3.273   3.855   5.377
 6812SOL    HW221336   3.318   4.004   5.328
 6813SOL     OW21337   6.318   3.872   1.847
 6813SOL    HW121338   6.263   3.856   1.929
 6813SOL    HW221339   6.258   3.896   1.771
 6814SOL     OW21340   5.039   1.170   6.285
 6814SOL    HW121341   5.007   1.243   6.225
 6814SOL    HW221342   5.114   1.204   6.342
 6815SOL     OW21343   1.903   4.755   6.316
 6815SOL    HW121344   1.900   4.792   6.223
 6815SOL    HW221345   1.957   4.816   6.374
 6816SOL     OW21346   0.815   1.243   3.182
 6816SOL    HW121347   0.912   1.266   3.178
 6816SOL    HW221348   0.767   1.307   3.242
 6817SOL     OW21349   3.708   2.070   2.277
 6817SOL    HW121350   3.622   2.088   2.324
 6817SOL    HW221351   3.705   2.108   2.185
 6818SOL     OW21352   1.861   6.759   5.659
 6818SOL    HW121353   1.812   6.677   5.632
 6818SOL    HW221354   1.873   6.819   5.580
 6819SOL     OW21355   4.558   4.535   2.081
 6819SOL    HW121356   4.632   4.570   2.024
 6819SOL    HW221357   4.541   4.439   2.061
 6820SOL     OW21358   2.827   5.880   1.264
 6820SOL    HW121359   2.776   5.966   1.253
 6820SOL    HW221360   2.899   5.875   1.195
 6821SOL     OW21361   4.097   2.575   5.430
 6821SOL    HW121362   4.155   2.590   5.351
 6821SOL    HW221363   4.152   2.541   5.506
 6822SOL     OW21364   6.750   3.009   6.645
 6822SOL    HW121365   6.808   3.084   6.615
 6822SOL    HW221366   6.776   2.925   6.597
 6823SOL     OW21367   6.252   3.676   6.825
 6823SOL    HW121368   6.160   3.642   6.808
 6823SOL    HW221369   6.292   3.628   6.904
 6824SOL     OW21370   0.259   1.933   5.629
 6824SOL    HW121371   0.208   1.981   5.700
 6824SOL    HW221372   0.290   1.998   5.560
 6825SOL     OW21373   5.941   4.952   1.363
 6825SOL    HW121374   5.866   4.967   1.299
 6825SOL    HW221375   5.935   5.017   1.439
 6826SOL     OW21376   0.255   3.724   3.027
 6826SOL    HW121377   0.175   3.785   3.029
 6826SOL    HW221378   0.237   3.648   2.965
 6827SOL     OW21379   4.703   5.894   4.983
 6827SOL    HW121380   4.624   5.832   4.982
 6827SOL    HW221381   4.776   5.854   5.039
 6828SOL     OW21382   3.225   1.695   2.465
 6828SOL    HW121383   3.157   1.768   2.456
 6828SOL    HW221384   3.315   1.730   2.438
 6829SOL     OW21385   4.635   6.740   4.730
 6829SOL    HW121386   4.644   6.840   4.737
 6829SOL    HW221387   4.586   6.717   4.646
 6830SOL     OW21388   5.071   0.384   3.006
 6830SOL    HW121389   5.004   0.440   3.056
 6830SOL    HW221390   5.023   0.320   2.947
 6831SOL     OW21391   1.609   1.380   6.346
 6831SOL    HW121392   1.514   1.410   6.340
 6831SOL    HW221393   1.664   1.453   6.385
 6832SOL     OW21394   3.014   2.898   0.123
 6832SOL    HW121395   3.110   2.926   0.112
 6832SOL    HW221396   3.007   2.799   0.110
 6833SOL     OW21397   2.645   4.975   6.197
 6833SOL    HW121398   2.603   4.884   6.197
 6833SOL    HW221399   2.579   5.043   6.228
 6834SOL     OW21400   5.459   0.497   0.725
 6834SOL    HW121401   5.481   0.566   0.793
 6834SOL    HW221402   5.525   0.500   0.651
 6835SOL     OW21403   2.466   1.890   4.740
 6835SOL    HW121404   2.394   1.851   4.684
 6835SOL    HW221405   2.552   1.844   4.720
 6836SOL     OW21406   2.055   4.488   6.155
 6836SOL    HW121407   2.054   4.526   6.248
 6836SOL    HW221408   1.966   4.446   6.136
 6837SOL     OW21409   0.400   0.184   1.390
 6837SOL    HW121410   0.384   0.262   1.450
 6837SOL    HW221411   0.318   0.165   1.337
 6838SOL     OW21412   3.002   4.021   5.279
 6838SOL    HW121413   3.091   3.986   5.309
 6838SOL    HW221414   3.004   4.121   5.277
 6839SOL     OW21415   5.722   2.578   3.772
 6839SOL    HW121416   5.633   2.558   3.814
 6839SOL    HW221417   5.792   2.520   3.814
 6840SOL     OW21418   2.642   6.812   5.357
 6840SOL    HW121419   2.651   6.717   5.327
 6840SOL    HW221420   2.639   6.872   5.277
 6841SOL     OW21421   3.915   5.404   1.516
 6841SOL    HW121422   3.976   5.392   1.438
 6841SOL    HW221423   3.823   5.372   1.491
 6842SOL     OW21424   6.988   4.079   6.254
 6842SOL    HW121425   6.975   3.985   6.224
 6842SOL    HW221426   6.980   4.084   6.353
 6843SOL     OW21427   3.535   1.766   2.145
 6843SOL    HW121428   3.567   1.827   2.072
 6843SOL    HW221429   3.614   1.726   2.192
 6844SOL     OW21430   5.020   5.143   4.193
 6844SOL    HW121431   4.969   5.227   4.173
 6844SOL    HW221432   4.967   5.085   4.254
 6845SOL     OW21433   4.944   4.531   2.152
 6845SOL    HW121434   4.886   4.573   2.081
 6845SOL    HW221435   4.897   4.451   2.189
 6846SOL     OW21436   3.684   2.896   2.324
 6846SOL    HW121437   3.780   2.921   2.312
 6846SOL    HW221438   3.653   2.843   2.244
 6847SOL     OW21439   6.207   2.994   1.727
 6847SOL    HW121440   6.191   2.905   1.683
 6847SOL    HW221441   6.272   3.047   1.673
 6848SOL     OW21442   1.199   6.281   3.462
 6848SOL    HW121443   1.208   6.256   3.558
 6848SOL    HW221444   1.290   6.289   3.421
 6849SOL     OW21445   4.001   5.857   3.950
 6849SOL    HW121446   3.905   5.883   3.956
 6849SOL    HW221447   4.058   5.939   3.952
 6850SOL     OW21448   5.233   2.918   2.973
 6850SOL    HW121449   5.323   2.885   2.999
 6850SOL    HW221450   5.167   2.843   2.978
 6851SOL     OW21451   1.715   5.079   5.672
 6851SOL    HW121452   1.689   4.986   5.698
 6851SOL    HW221453   1.813   5.092   5.689
 6852SOL     OW21454   1.200   4.368   1.758
 6852SOL    HW121455   1.176   4.465   1.760
 6852SOL    HW221456   1.213   4.339   1.663
 6853SOL     OW21457   0.515   4.523   5.614
 6853SOL    HW121458   0.530   4.560   5.522
 6853SOL    HW221459   0.474   4.594   5.671
 6854SOL     OW21460   6.955   3.196   6.603
 6854SOL    HW121461   6.972   3.192   6.504
 6854SOL    HW221462   6.919   3.287   6.626
 6855SOL     OW21463   3.206   6.901   2.345
 6855SOL    HW121464   3.250   6.820   2.384
 6855SOL    HW221465   3.198   6.890   2.246
 6856SOL     OW21466   6.065   3.476   4.970
 6856SOL    HW121467   6.083   3.574   4.966
 6856SOL    HW221468   5.968   3.459   4.956
 6857SOL     OW21469   3.054   2.320   6.248
 6857SOL    HW121470   2.997   2.284   6.322
 6857SOL    HW221471   3.150   2.309   6.271
 6858SOL     OW21472   3.819   3.025   5.247
 6858SOL    HW121473   3.865   2.940   5.272
 6858SOL    HW221474   3.885   3.100   5.245
 6859SOL     OW21475   3.217   0.300   0.453
 6859SOL    HW121476   3.286   0.372   0.455
 6859SOL    HW221477   3.142   0.327   0.393
 6860SOL     OW21478   5.654   4.003   0.757
 6860SOL    HW121479   5.578   4.059   0.790
 6860SOL    HW221480   5.656   4.005   0.657
 6861SOL     OW21481   5.911   5.139   0.471
 6861SOL    HW121482   5.881   5.223   0.516
 6861SOL    HW221483   5.981   5.161   0.403
 6862SOL     OW21484   3.278   5.431   4.327
 6862SOL    HW121485   3.186   5.392   4.326
 6862SOL    HW221486   3.331   5.389   4.400
 6863SOL     OW21487   5.925   2.227   4.323
 6863SOL    HW121488   5.956   2.208   4.417
 6863SOL    HW221489   5.956   2.153   4.263
 6864SOL     OW21490   2.996   6.276   4.254
 6864SOL    HW121491   3.082   6.326   4.244
 6864SOL    HW221492   3.001   6.217   4.335
 6865SOL     OW21493   6.687   4.179   4.107
 6865SOL    HW121494   6.710   4.228   4.191
 6865SOL    HW221495   6.588   4.166   4.102
 6866SOL     OW21496   6.747   3.393   1.946
 6866SOL    HW121497   6.688   3.429   2.019
 6866SOL    HW221498   6.764   3.296   1.963
 6867SOL     OW21499   2.149   4.138   2.042
 6867SOL    HW121500   2.165   4.066   1.975
 6867SOL    HW221501   2.230   4.148   2.100
 6868SOL     OW21502   2.034   5.800   4.506
 6868SOL    HW121503   1.966   5.759   4.567
 6868SOL    HW221504   2.118   5.746   4.509
 6869SOL     OW21505   5.417   2.327   5.459
 6869SOL    HW121506   5.336   2.316   5.516
 6869SOL    HW221507   5.401   2.286   5.370
 6870SOL     OW21508   5.967   3.811   3.006
 6870SOL    HW121509   6.020   3.870   3.067
 6870SOL    HW221510   5.958   3.720   3.046
 6871SOL     OW21511   5.470   5.268   1.415
 6871SOL    HW121512   5.406   5.274   1.492
 6871SOL    HW221513   5.453   5.344   1.352
 6872SOL     OW21514   2.087   3.259   0.404
 6872SOL    HW121515   2.004   3.202   0.403
 6872SOL    HW221516   2.064   3.349   0.441
 6873SOL     OW21517   6.040   3.627   6.301
 6873SOL    HW121518   5.943   3.621   6.322
 6873SOL    HW221519   6.093   3.612   6.385
 6874SOL     OW21520   0.502   2.589   4.683
 6874SOL    HW121521   0.580   2.561   4.739
 6874SOL    HW221522   0.530   2.662   4.621
 6875SOL     OW21523   1.967   1.187   2.490
 6875SOL    HW121524   1.888   1.242   2.519
 6875SOL    HW221525   2.050   1.243   2.494
 6876SOL     OW21526   3.682   5.978   0.254
 6876SOL    HW121527   3.604   5.952   0.197
 6876SOL    HW221528   3.650   6.005   0.345
 6877SOL     OW21529   2.261   3.773   0.222
 6877SOL    HW121530   2.270   3.694   0.160
 6877SOL    HW221531   2.208   3.844   0.177
 6878SOL     OW21532   2.153   1.405   5.313
 6878SOL    HW121533   2.116   1.486   5.268
 6878SOL    HW221534   2.253   1.408   5.310
 6879SOL     OW21535   1.094   2.558   6.958
 6879SOL    HW121536   1.180   2.574   6.909
 6879SOL    HW221537   1.110   2.491   0.008
 6880SOL     OW21538   2.127   3.971   4.798
 6880SOL    HW121539   2.197   3.975   4.869
 6880SOL    HW221540   2.058   3.903   4.823
 6881SOL     OW21541   0.395   3.934   1.323
 6881SOL    HW121542   0.339   4.015   1.336
 6881SOL    HW221543   0.339   3.852   1.334
 6882SOL     OW21544   2.356   0.726   5.061
 6882SOL    HW121545   2.437   0.711   5.117
 6882SOL    HW221546   2.362   0.817   5.019
 6883SOL     OW21547   4.223   0.696   1.619
 6883SOL    HW121548   4.201   0.677   1.714
 6883SOL    HW221549   4.141   0.728   1.571
 6884SOL     OW21550   2.242   4.756   4.474
 6884SOL    HW121551   2.162   4.698   4.488
 6884SOL    HW221552   2.228   4.814   4.393
 6885SOL     OW21553   2.710   6.055   4.277
 6885SOL    HW121554   2.723   6.110   4.360
 6885SOL    HW221555   2.776   6.083   4.208
 6886SOL     OW21556   5.342   1.092   2.650
 6886SOL    HW121557   5.316   1.183   2.619
 6886SOL    HW221558   5.438   1.075   2.627
 6887SOL     OW21559   5.932   0.915   4.798
 6887SOL    HW121560   6.011   0.865   4.763
 6887SOL    HW221561   5.956   1.011   4.811
 6888SOL     OW21562   6.516   0.343   4.753
 6888SOL    HW121563   6.497   0.407   4.827
 6888SOL    HW221564   6.435   0.287   4.736
 6889SOL     OW21565   1.248   4.225   6.108
 6889SOL    HW121566   1.270   4.238   6.205
 6889SOL    HW221567   1.214   4.311   6.070
 6890SOL     OW21568   1.996   6.555   1.211
 6890SOL    HW121569   2.061   6.576   1.137
 6890SOL    HW221570   1.964   6.640   1.252
 6891SOL     OW21571   2.172   3.449   3.706
 6891SOL    HW121572   2.187   3.478   3.611
 6891SOL    HW221573   2.210   3.358   3.720
 6892SOL     OW21574   3.116   0.487   4.123
 6892SOL    HW121575   3.088   0.475   4.218
 6892SOL    HW221576   3.161   0.575   4.112
 6893SOL     OW21577   4.788   5.932   3.001
 6893SOL    HW121578   4.797   5.886   3.090
 6893SOL    HW221579   4.871   5.985   2.983
 6894SOL     OW21580   5.499   5.524   0.346
 6894SOL    HW121581   5.497   5.469   0.263
 6894SOL    HW221582   5.424   5.590   0.344
 6895SOL     OW21583   2.623   4.031   0.080
 6895SOL    HW121584   2.544   4.059   0.134
 6895SOL    HW221585   2.699   4.094   0.097
 6896SOL     OW21586   3.699   0.232   3.217
 6896SOL    HW121587   3.743   0.143   3.233
 6896SOL    HW221588   3.708   0.257   3.121
 6897SOL     OW21589   3.600   3.980   0.294
 6897SOL    HW121590   3.673   3.943   0.237
 6897SOL    HW221591   3.637   4.014   0.380
 6898SOL     OW21592   4.170   1.332   1.647
 6898SOL    HW121593   4.125   1.287   1.570
 6898SOL    HW221594   4.149   1.430   1.646
 6899SOL     OW21595   4.720   6.575   6.612
 6899SOL    HW121596   4.733   6.633   6.532
 6899SOL    HW221597   4.804   6.524   6.630
 6900SOL     OW21598   5.641   0.360   6.160
 6900SOL    HW121599   5.618   0.264   6.174
 6900SOL    HW221600   5.624   0.411   6.244
 6901SOL     OW21601   1.755   0.200   6.458
 6901SOL    HW121602   1.717   0.138   6.527
 6901SOL    HW221603   1.683   0.261   6.424
 6902SOL     OW21604   0.699   6.149   6.938
 6902SOL    HW121605   0.764   6.091   6.889
 6902SOL    HW221606   0.695   6.121   0.012
 6903SOL     OW21607   3.988   4.440   0.555
 6903SOL    HW121608   3.979   4.353   0.506
 6903SOL    HW221609   3.911   4.499   0.531
 6904SOL     OW21610   6.424   1.343   3.685
 6904SOL    HW121611   6.503   1.288   3.657
 6904SOL    HW221612   6.342   1.307   3.641
 6905SOL     OW21613   5.732   6.524   0.751
 6905SOL    HW121614   5.645   6.533   0.800
 6905SOL    HW221615   5.791   6.460   0.801
 6906SOL     OW21616   3.739   0.807   3.122
 6906SOL    HW121617   3.679   0.882   3.149
 6906SOL    HW221618   3.764   0.817   3.025
 6907SOL     OW21619   3.659   1.137   1.708
 6907SOL    HW121620   3.605   1.085   1.642
 6907SOL    HW221621   3.606   1.149   1.792
 6908SOL     OW21622   1.204   6.786   5.412
 6908SOL    HW121623   1.136   6.843   5.458
 6908SOL    HW221624   1.192   6.691   5.441
 6909SOL     OW21625   4.760   4.240   0.525
 6909SOL    HW121626   4.770   4.220   0.623
 6909SOL    HW221627   4.730   4.158   0.477
 6910SOL     OW21628   6.130   1.728   1.799
 6910SOL    HW121629   6.106   1.757   1.892
 6910SOL    HW221630   6.090   1.791   1.733
 6911SOL     OW21631   4.054   0.796   4.304
 6911SOL    HW121632   4.031   0.806   4.207
 6911SOL    HW221633   3.972   0.810   4.359
 6912SOL     OW21634   4.849   4.697   0.816
 6912SOL    HW121635   4.902   4.693   0.730
 6912SOL    HW221636   4.849   4.790   0.851
 6913SOL     OW21637   5.440   5.209   4.813
 6913SOL    HW121638   5.447   5.149   4.893
 6913SOL    HW221639   5.411   5.300   4.841
 6914SOL     OW21640   6.012   5.456   0.494
 6914SOL    HW121641   6.001   5.533   0.430
 6914SOL    HW221642   5.953   5.470   0.573
 6915SOL     OW21643   0.306   4.899   3.340
 6915SOL    HW121644   0.314   4.950   3.254
 6915SOL    HW221645   0.349   4.809   3.328
 6916SOL     OW21646   6.371   3.568   0.008
 6916SOL    HW121647   6.418   3.593   0.093
 6916SOL    HW221648   6.407   3.480   6.998
 6917SOL     OW21649   5.012   6.615   6.262
 6917SOL    HW121650   4.951   6.693   6.254
 6917SOL    HW221651   5.054   6.596   6.173
 6918SOL     OW21652   0.060   3.751   4.023
 6918SOL    HW121653   6.994   3.772   3.982
 6918SOL    HW221654   0.132   3.795   3.970
 6919SOL     OW21655   1.801   6.460   2.493
 6919SOL    HW121656   1.890   6.501   2.470
 6919SOL    HW221657   1.816   6.372   2.537
 6920SOL     OW21658   5.157   5.653   4.754
 6920SOL    HW121659   5.155   5.729   4.820
 6920SOL    HW221660   5.190   5.687   4.666
 6921SOL     OW21661   6.878   0.462   3.399
 6921SOL    HW121662   6.812   0.421   3.462
 6921SOL    HW221663   6.952   0.397   3.382
 6922SOL     OW21664   2.723   5.867   0.927
 6922SOL    HW121665   2.723   5.945   0.865
 6922SOL    HW221666   2.797   5.876   0.993
 6923SOL     OW21667   4.736   0.100   4.303
 6923SOL    HW121668   4.747   0.001   4.313
 6923SOL    HW221669   4.720   0.123   4.208
 6924SOL     OW21670   0.245   5.137   1.562
 6924SOL    HW121671   0.204   5.097   1.644
 6924SOL    HW221672   0.256   5.067   1.492
 6925SOL     OW21673   4.552   6.552   2.866
 6925SOL    HW121674   4.596   6.490   2.931
 6925SOL    HW221675   4.468   6.590   2.906
 6926SOL     OW21676   3.026   3.853   3.911
 6926SOL    HW121677   3.025   3.910   3.993
 6926SOL    HW221678   3.084   3.895   3.841
 6927SOL     OW21679   5.147   3.890   6.169
 6927SOL    HW121680   5.064   3.837   6.185
 6927SOL    HW221681   5.178   3.929   6.256
 6928SOL     OW21682   4.965   0.522   6.534
 6928SOL    HW121683   4.944   0.617   6.509
 6928SOL    HW221684   5.005   0.475   6.455
 6929SOL     OW21685   4.248   6.257   0.337
 6929SOL    HW121686   4.302   6.327   0.385
 6929SOL    HW221687   4.151   6.282   0.342
 6930SOL     OW21688   0.774   6.811   2.051
 6930SOL    HW121689   0.850   6.849   2.103
 6930SOL    HW221690   0.801   6.798   1.956
 6931SOL     OW21691   1.770   0.317   1.381
 6931SOL    HW121692   1.841   0.373   1.426
 6931SOL    HW221693   1.726   0.259   1.449
 6932SOL     OW21694   2.756   1.685   6.995
 6932SOL    HW121695   2.834   1.647   0.023
 6932SOL    HW221696   2.789   1.746   6.923
 6933SOL     OW21697   4.089   5.549   5.842
 6933SOL    HW121698   4.034   5.633   5.838
 6933SOL    HW221699   4.184   5.569   5.819
 6934SOL     OW21700   4.756   3.527   0.336
 6934SOL    HW121701   4.787   3.437   0.367
 6934SOL    HW221702   4.806   3.598   0.386
 6935SOL     OW21703   4.465   6.543   3.333
 6935SOL    HW121704   4.496   6.498   3.417
 6935SOL    HW221705   4.378   6.502   3.305
 6936SOL     OW21706   0.743   2.520   1.083
 6936SOL    HW121707   0.664   2.528   1.022
 6936SOL    HW221708   0.780   2.427   1.077
 6937SOL     OW21709   4.718   6.335   6.233
 6937SOL    HW121710   4.664   6.269   6.285
 6937SOL    HW221711   4.813   6.305   6.228
 6938SOL     OW21712   4.854   3.290   5.092
 6938SOL    HW121713   4.814   3.382   5.086
 6938SOL    HW221714   4.952   3.298   5.111
 6939SOL     OW21715   0.038   4.286   2.323
 6939SOL    HW121716   7.009   4.216   2.275
 6939SOL    HW221717   0.082   4.245   2.403
 6940SOL     OW21718   4.901   0.591   5.868
 6940SOL    HW121719   4.909   0.503   5.915
 6940SOL    HW221720   4.992   0.624   5.844
 6941SOL     OW21721   3.777   3.090   3.436
 6941SOL    HW121722   3.733   3.011   3.392
 6941SOL    HW221723   3.836   3.059   3.510
 6942SOL     OW21724   6.902   3.243   0.769
 6942SOL    HW121725   6.966   3.213   0.840
 6942SOL    HW221726   6.923   3.196   0.683
 6943SOL     OW21727   5.394   6.354   6.074
 6943SOL    HW121728   5.452   6.306   6.140
 6943SOL    HW221729   5.365   6.290   6.003
 6944SOL     OW21730   1.271   5.500   6.418
 6944SOL    HW121731   1.279   5.455   6.507
 6944SOL    HW221732   1.203   5.451   6.362
 6945SOL     OW21733   6.119   3.112   6.211
 6945SOL    HW121734   6.095   3.104   6.308
 6945SOL    HW221735   6.204   3.164   6.201
 6946SOL     OW21736   5.736   4.382   2.897
 6946SOL    HW121737   5.713   4.403   2.992
 6946SOL    HW221738   5.663   4.326   2.856
 6947SOL     OW21739   3.483   6.757   2.921
 6947SOL    HW121740   3.388   6.751   2.950
 6947SOL    HW221741   3.497   6.842   2.871
 6948SOL     OW21742   4.829   0.899   6.764
 6948SOL    HW121743   4.876   0.890   6.852
 6948SOL    HW221744   4.755   0.832   6.759
 6949SOL     OW21745   5.259   6.872   3.206
 6949SOL    HW121746   5.251   6.908   3.113
 6949SOL    HW221747   5.343   6.818   3.213
 6950SOL     OW21748   2.059   0.792   2.852
 6950SOL    HW121749   2.009   0.879   2.845
 6950SOL    HW221750   2.037   0.747   2.939
 6951SOL     OW21751   6.411   6.098   5.490
 6951SOL    HW121752   6.398   6.028   5.419
 6951SOL    HW221753   6.429   6.054   5.577
 6952SOL     OW21754   0.365   5.339   4.228
 6952SOL    HW121755   0.440   5.382   4.278
 6952SOL    HW221756   0.401   5.280   4.156
 6953SOL     OW21757   4.813   1.284   5.801
 6953SOL    HW121758   4.808   1.184   5.809
 6953SOL    HW221759   4.816   1.310   5.705
 6954SOL     OW21760   6.552   3.190   4.383
 6954SOL    HW121761   6.636   3.175   4.435
 6954SOL    HW221762   6.567   3.263   4.316
 6955SOL     OW21763   0.132   6.259   1.586
 6955SOL    HW121764   0.145   6.229   1.491
 6955SOL    HW221765   0.093   6.183   1.639
 6956SOL     OW21766   4.590   5.279   2.078
 6956SOL    HW121767   4.617   5.375   2.093
 6956SOL    HW221768   4.497   5.276   2.043
 6957SOL     OW21769   0.336   4.796   2.038
 6957SOL    HW121770   0.410   4.838   1.987
 6957SOL    HW221771   0.353   4.805   2.136
 6958SOL     OW21772   2.268   2.998   6.126
 6958SOL    HW121773   2.248   2.901   6.139
 6958SOL    HW221774   2.360   3.018   6.159
 6959SOL     OW21775   3.554   1.682   4.831
 6959SOL    HW121776   3.626   1.697   4.899
 6959SOL    HW221777   3.590   1.627   4.756
 6960SOL     OW21778   6.960   4.937   0.086
 6960SOL    HW121779   6.927   4.844   0.068
 6960SOL    HW221780   0.022   4.952   0.036
 6961SOL     OW21781   1.161   2.082   3.419
 6961SOL    HW121782   1.114   2.012   3.366
 6961SOL    HW221783   1.246   2.046   3.456
 6962SOL     OW21784   4.902   5.130   2.114
 6962SOL    HW121785   4.891   5.064   2.189
 6962SOL    HW221786   4.958   5.207   2.144
 6963SOL     OW21787   0.864   5.009   1.665
 6963SOL    HW121788   0.787   5.050   1.713
 6963SOL    HW221789   0.834   4.976   1.576
 6964SOL     OW21790   4.542   5.378   5.236
 6964SOL    HW121791   4.610   5.315   5.272
 6964SOL    HW221792   4.535   5.366   5.137
 6965SOL     OW21793   6.774   3.552   6.317
 6965SOL    HW121794   6.784   3.650   6.303
 6965SOL    HW221795   6.703   3.516   6.256
 6966SOL     OW21796   5.018   2.718   2.749
 6966SOL    HW121797   5.045   2.655   2.676
 6966SOL    HW221798   4.926   2.696   2.781
 6967SOL     OW21799   1.354   2.307   5.939
 6967SOL    HW121800   1.315   2.258   5.861
 6967SOL    HW221801   1.396   2.392   5.907
 6968SOL     OW21802   4.278   5.775   1.577
 6968SOL    HW121803   4.284   5.736   1.485
 6968SOL    HW221804   4.323   5.715   1.643
 6969SOL     OW21805   3.451   1.613   1.072
 6969SOL    HW121806   3.505   1.532   1.093
 6969SOL    HW221807   3.432   1.664   1.156
 6970SOL     OW21808   3.669   4.289   0.728
 6970SOL    HW121809   3.682   4.346   0.809
 6970SOL    HW221810   3.578   4.305   0.690
 6971SOL     OW21811   6.299   2.396   1.532
 6971SOL    HW121812   6.377   2.345   1.495
 6971SOL    HW221813   6.247   2.435   1.457
 6972SOL     OW21814   5.359   4.445   4.293
 6972SOL    HW121815   5.408   4.370   4.248
 6972SOL    HW221816   5.422   4.522   4.307
 6973SOL     OW21817   2.069   5.358   4.490
 6973SOL    HW121818   2.036   5.426   4.424
 6973SOL    HW221819   1.997   5.340   4.557
 6974SOL     OW21820   3.137   4.068   3.375
 6974SOL    HW121821   3.072   4.011   3.426
 6974SOL    HW221822   3.130   4.048   3.278
 6975SOL     OW21823   3.796   0.693   6.255
 6975SOL    HW121824   3.755   0.782   6.232
 6975SOL    HW221825   3.739   0.647   6.323
 6976SOL     OW21826   2.395   4.943   6.778
 6976SOL    HW121827   2.407   4.889   6.861
 6976SOL    HW221828   2.431   4.893   6.700
 6977SOL     OW21829   3.808   1.409   2.576
 6977SOL    HW121830   3.840   1.419   2.482
 6977SOL    HW221831   3.708   1.410   2.577
 6978SOL     OW21832   0.130   0.417   1.777
 6978SOL    HW121833   0.219   0.398   1.736
 6978SOL    HW221834   0.113   0.351   1.850
 6979SOL     OW21835   0.612   4.654   2.464
 6979SOL    HW121836   0.551   4.726   2.498
 6979SOL    HW221837   0.702   4.663   2.507
 6980SOL     OW21838   2.300   1.016   3.176
 6980SOL    HW121839   2.326   1.083   3.106
 6980SOL    HW221840   2.264   1.064   3.256
 6981SOL     OW21841   2.297   4.364   0.459
 6981SOL    HW121842   2.283   4.411   0.372
 6981SOL    HW221843   2.374   4.405   0.508
 6982SOL     OW21844   1.497   0.649   4.248
 6982SOL    HW121845   1.492   0.608   4.156
 6982SOL    HW221846   1.418   0.709   4.262
 6983SOL     OW21847   6.838   0.295   4.786
 6983SOL    HW121848   6.892   0.256   4.860
 6983SOL    HW221849   6.753   0.243   4.776
 6984SOL     OW21850   1.790   1.911   5.804
 6984SOL    HW121851   1.861   1.957   5.859
 6984SOL    HW221852   1.714   1.974   5.788
 6985SOL     OW21853   3.925   5.936   2.131
 6985SOL    HW121854   3.846   5.946   2.191
 6985SOL    HW221855   3.898   5.886   2.048
 6986SOL     OW21856   1.877   6.422   5.399
 6986SOL    HW121857   1.972   6.393   5.401
 6986SOL    HW221858   1.842   6.418   5.306
 6987SOL     OW21859   6.917   2.795   6.517
 6987SOL    HW121860   6.894   2.706   6.479
 6987SOL    HW221861   6.988   2.838   6.461
 6988SOL     OW21862   5.143   1.471   3.942
 6988SOL    HW121863   5.241   1.482   3.925
 6988SOL    HW221864   5.104   1.556   3.976
 6989SOL     OW21865   1.362   1.538   3.660
 6989SOL    HW121866   1.291   1.606   3.677
 6989SOL    HW221867   1.384   1.537   3.563
 6990SOL     OW21868   4.674   2.988   6.734
 6990SOL    HW121869   4.718   2.900   6.716
 6990SOL    HW221870   4.586   2.991   6.688
 6991SOL     OW21871   2.396   4.696   5.616
 6991SOL    HW121872   2.485   4.722   5.576
 6991SOL    HW221873   2.339   4.778   5.623
 6992SOL     OW21874   5.999   6.394   4.378
 6992SOL    HW121875   5.948   6.312   4.354
 6992SOL    HW221876   6.083   6.398   4.323
 6993SOL     OW21877   0.063   0.309   3.267
 6993SOL    HW121878   0.028   0.224   3.227
 6993SOL    HW221879   0.107   0.364   3.195
 6994SOL     OW21880   1.760   3.604   5.763
 6994SOL    HW121881   1.784   3.692   5.721
 6994SOL    HW221882   1.749   3.617   5.862
 6995SOL     OW21883   5.881   5.793   4.494
 6995SOL    HW121884   5.978   5.809   4.508
 6995SOL    HW221885   5.864   5.694   4.485
 6996SOL     OW21886   2.595   0.715   5.193
 6996SOL    HW121887   2.645   0.705   5.107
 6996SOL    HW221888   2.646   0.670   5.266
 6997SOL     OW21889   5.044   5.985   4.714
 6997SOL    HW121890   5.045   5.961   4.616
 6997SOL    HW221891   5.137   5.975   4.751
 6998SOL     OW21892   2.164   2.997   1.876
 6998SOL    HW121893   2.157   2.962   1.969
 6998SOL    HW221894   2.089   2.959   1.821
 6999SOL     OW21895   2.273   2.051   5.821
 6999SOL    HW121896   2.305   2.073   5.914
 6999SOL    HW221897   2.229   1.962   5.821
 7000SOL     OW21898   0.571   6.244   2.860
 7000SOL    HW121899   0.651   6.242   2.920
 7000SOL    HW221900   0.489   6.229   2.914
 7001SOL     OW21901   2.163   2.933   5.818
 7001SOL    HW121902   2.120   2.919   5.907
 7001SOL    HW221903   2.139   3.023   5.783
 7002SOL     OW21904   1.571   5.135   4.151
 7002SOL    HW121905   1.482   5.113   4.110
 7002SOL    HW221906   1.566   5.226   4.194
 7003SOL     OW21907   3.107   0.058   0.554
 7003SOL    HW121908   3.159   6.999   0.530
 7003SOL    HW221909   3.156   0.140   0.523
 7004SOL     OW21910   1.942   4.382   1.480
 7004SOL    HW121911   1.905   4.428   1.561
 7004SOL    HW221912   1.951   4.448   1.405
 7005SOL     OW21913   6.101   6.617   6.462
 7005SOL    HW121914   6.049   6.611   6.377
 7005SOL    HW221915   6.079   6.539   6.520
 7006SOL     OW21916   4.797   4.020   4.722
 7006SOL    HW121917   4.732   4.017   4.798
 7006SOL    HW221918   4.842   3.931   4.714
 7007SOL     OW21919   5.003   6.778   2.949
 7007SOL    HW121920   4.922   6.824   2.913
 7007SOL    HW221921   5.081   6.840   2.945
 7008SOL     OW21922   2.239   5.467   4.921
 7008SOL    HW121923   2.318   5.501   4.871
 7008SOL    HW221924   2.265   5.446   5.015
 7009SOL     OW21925   6.282   5.824   2.354
 7009SOL    HW121926   6.225   5.837   2.273
 7009SOL    HW221927   6.355   5.759   2.333
 7010SOL     OW21928   3.228   4.507   6.022
 7010SOL    HW121929   3.267   4.565   5.951
 7010SOL    HW221930   3.144   4.549   6.057
 7011SOL     OW21931   2.250   6.887   5.495
 7011SOL    HW121932   2.191   6.938   5.431
 7011SOL    HW221933   2.224   6.909   5.589
 7012SOL     OW21934   1.115   0.167   1.778
 7012SOL    HW121935   1.157   0.185   1.867
 7012SOL    HW221936   1.161   0.221   1.707
 7013SOL     OW21937   1.056   6.998   1.360
 7013SOL    HW121938   0.980   0.037   1.340
 7013SOL    HW221939   1.139   0.029   1.375
 7014SOL     OW21940   3.259   4.561   0.943
 7014SOL    HW121941   3.279   4.607   0.857
 7014SOL    HW221942   3.185   4.495   0.929
 7015SOL     OW21943   5.103   3.001   2.599
 7015SOL    HW121944   5.172   2.933   2.623
 7015SOL    HW221945   5.131   3.049   2.516
 7016SOL     OW21946   4.595   4.790   1.857
 7016SOL    HW121947   4.496   4.793   1.847
 7016SOL    HW221948   4.622   4.840   1.939
 7017SOL     OW21949   3.045   1.738   3.373
 7017SOL    HW121950   3.104   1.749   3.294
 7017SOL    HW221951   2.993   1.653   3.365
 7018SOL     OW21952   0.266   4.146   4.576
 7018SOL    HW121953   0.187   4.205   4.591
 7018SOL    HW221954   0.277   4.085   4.654
 7019SOL     OW21955   2.475   4.734   6.618
 7019SOL    HW121956   2.546   4.687   6.566
 7019SOL    HW221957   2.417   4.666   6.664
 7020SOL     OW21958   6.134   0.261   6.999
 7020SOL    HW121959   6.109   0.351   0.013
 7020SOL    HW221960   6.160   0.270   6.903
 7021SOL     OW21961   2.433   1.028   5.044
 7021SOL    HW121962   2.382   1.015   5.129
 7021SOL    HW221963   2.474   1.119   5.044
 7022SOL     OW21964   5.123   3.310   0.617
 7022SOL    HW121965   5.057   3.250   0.662
 7022SOL    HW221966   5.185   3.348   0.685
 7023SOL     OW21967   6.163   2.435   2.236
 7023SOL    HW121968   6.068   2.448   2.208
 7023SOL    HW221969   6.167   2.417   2.335
 7024SOL     OW21970   1.894   6.134   6.588
 7024SOL    HW121971   1.841   6.051   6.574
 7024SOL    HW221972   1.833   6.209   6.611
 7025SOL     OW21973   3.046   1.986   6.485
 7025SOL    HW121974   2.976   1.946   6.426
 7025SOL    HW221975   3.036   2.085   6.486
 7026SOL     OW21976   3.104   1.855   2.021
 7026SOL    HW121977   3.131   1.949   2.040
 7026SOL    HW221978   3.169   1.793   2.065
 7027SOL     OW21979   3.991   5.500   3.719
 7027SOL    HW121980   3.964   5.593   3.694
 7027SOL    HW221981   4.060   5.504   3.792
 7028SOL     OW21982   4.830   6.869   3.511
 7028SOL    HW121983   4.825   6.897   3.415
 7028SOL    HW221984   4.882   6.784   3.519
 7029SOL     OW21985   3.783   6.492   0.151
 7029SOL    HW121986   3.824   6.523   0.065
 7029SOL    HW221987   3.819   6.547   0.226
 7030SOL     OW21988   0.338   3.393   5.620
 7030SOL    HW121989   0.434   3.411   5.597
 7030SOL    HW221990   0.308   3.309   5.575
 7031SOL     OW21991   2.208   5.595   4.236
 7031SOL    HW121992   2.281   5.614   4.169
 7031SOL    HW221993   2.238   5.624   4.327
 7032SOL     OW21994   4.570   6.797   2.710
 7032SOL    HW121995   4.579   6.716   2.768
 7032SOL    HW221996   4.558   6.769   2.615
 7033SOL     OW21997   0.172   1.071   3.747
 7033SOL    HW121998   0.168   0.980   3.790
 7033SOL    HW221999   0.214   1.064   3.657
 7034SOL     OW22000   4.980   0.089   2.902
 7034SOL    HW122001   5.004   0.109   2.807
 7034SOL    HW222002   4.907   0.021   2.904
 7035SOL     OW22003   0.446   6.391   2.615
 7035SOL    HW122004   0.353   6.385   2.649
 7035SOL    HW222005   0.511   6.368   2.688
 7036SOL     OW22006   6.878   5.917   1.888
 7036SOL    HW122007   6.956   5.962   1.846
 7036SOL    HW222008   6.842   5.847   1.826
 7037SOL     OW22009   0.583   6.097   5.197
 7037SOL    HW122010   0.641   6.040   5.139
 7037SOL    HW222011   0.582   6.060   5.290
 7038SOL     OW22012   1.161   4.133   3.323
 7038SOL    HW122013   1.095   4.060   3.339
 7038SOL    HW222014   1.238   4.123   3.386
 7039SOL     OW22015   3.620   0.031   6.390
 7039SOL    HW122016   3.557   0.095   6.433
 7039SOL    HW222017   3.629   6.972   6.448
 7040SOL     OW22018   4.537   3.003   6.098
 7040SOL    HW122019   4.583   3.020   6.185
 7040SOL    HW222020   4.502   3.089   6.062
 7041SOL     OW22021   1.314   0.867   3.078
 7041SOL    HW122022   1.408   0.854   3.108
 7041SOL    HW222023   1.291   0.799   3.008
 7042SOL     OW22024   4.411   5.669   6.081
 7042SOL    HW122025   4.429   5.583   6.129
 7042SOL    HW222026   4.486   5.733   6.097
 7043SOL     OW22027   1.379   2.489   3.190
 7043SOL    HW122028   1.449   2.560   3.177
 7043SOL    HW222029   1.312   2.494   3.116
 7044SOL     OW22030   4.675   4.591   2.723
 7044SOL    HW122031   4.645   4.670   2.670
 7044SOL    HW222032   4.686   4.512   2.663
 7045SOL     OW22033   4.668   6.485   1.299
 7045SOL    HW122034   4.632   6.541   1.224
 7045SOL    HW222035   4.751   6.527   1.335
 7046SOL     OW22036   3.956   0.519   4.758
 7046SOL    HW122037   3.904   0.579   4.696
 7046SOL    HW222038   3.995   0.574   4.832
 7047SOL     OW22039   0.780   1.905   3.640
 7047SOL    HW122040   0.712   1.834   3.655
 7047SOL    HW222041   0.754   1.987   3.691
 7048SOL     OW22042   0.292   5.843   1.024
 7048SOL    HW122043   0.384   5.872   1.053
 7048SOL    HW222044   0.299   5.792   0.938
 7049SOL     OW22045   1.608   0.938   0.582
 7049SOL    HW122046   1.591   1.036   0.571
 7049SOL    HW222047   1.597   0.912   0.678
 7050SOL     OW22048   3.516   4.048   4.640
 7050SOL    HW122049   3.426   4.084   4.668
 7050SOL    HW222050   3.534   4.075   4.545
 7051SOL     OW22051   6.895   0.335   1.092
 7051SOL    HW122052   6.987   0.299   1.079
 7051SOL    HW222053   6.866   0.385   1.010
 7052SOL     OW22054   0.009   1.820   4.502
 7052SOL    HW122055   6.952   1.875   4.523
 7052SOL    HW222056   0.068   1.869   4.438
 7053SOL     OW22057   0.374   4.036   6.583
 7053SOL    HW122058   0.394   3.997   6.673
 7053SOL    HW222059   0.460   4.047   6.532
 7054SOL     OW22060   6.185   6.748   1.436
 7054SOL    HW122061   6.131   6.808   1.377
 7054SOL    HW222062   6.259   6.801   1.477
 7055SOL     OW22063   4.614   0.442   5.697
 7055SOL    HW122064   4.686   0.378   5.724
 7055SOL    HW222065   4.578   0.487   5.779
 7056SOL     OW22066   5.396   4.606   2.992
 7056SOL    HW122067   5.489   4.643   2.992
 7056SOL    HW222068   5.333   4.673   3.033
 7057SOL     OW22069   0.194   4.265   4.010
 7057SOL    HW122070   0.147   4.278   3.923
 7057SOL    HW222071   0.257   4.187   4.002
 7058SOL     OW22072   0.286   5.321   4.957
 7058SOL    HW122073   0.267   5.297   4.861
 7058SOL    HW222074   0.384   5.330   4.971
 7059SOL     OW22075   0.560   6.907   1.712
 7059SOL    HW122076   0.492   6.834   1.714
 7059SOL    HW222077   0.645   6.872   1.673
 7060SOL     OW22078   3.204   0.115   1.177
 7060SOL    HW122079   3.137   0.189   1.168
 7060SOL    HW222080   3.158   0.027   1.170
 7061SOL     OW22081   0.349   1.773   3.160
 7061SOL    HW122082   0.281   1.770   3.233
 7061SOL    HW222083   0.334   1.856   3.105
 7062SOL     OW22084   5.994   1.930   5.471
 7062SOL    HW122085   5.902   1.969   5.471
 7062SOL    HW222086   6.012   1.888   5.382
 7063SOL     OW22087   1.938   6.422   1.433
 7063SOL    HW122088   1.921   6.324   1.436
 7063SOL    HW222089   1.946   6.452   1.338
 7064SOL     OW22090   4.354   2.489   1.686
 7064SOL    HW122091   4.398   2.519   1.771
 7064SOL    HW222092   4.305   2.566   1.645
 7065SOL     OW22093   4.487   4.199   1.251
 7065SOL    HW122094   4.424   4.220   1.325
 7065SOL    HW222095   4.581   4.211   1.283
 7066SOL     OW22096   3.874   0.455   0.566
 7066SOL    HW122097   3.807   0.481   0.497
 7066SOL    HW222098   3.921   0.371   0.538
 7067SOL     OW22099   1.065   4.135   5.529
 7067SOL    HW122100   1.138   4.176   5.585
 7067SOL    HW222101   1.098   4.124   5.435
 7068SOL     OW22102   0.911   2.614   3.172
 7068SOL    HW122103   0.907   2.571   3.082
 7068SOL    HW222104   0.999   2.661   3.183
 7069SOL     OW22105   6.544   3.531   5.538
 7069SOL    HW122106   6.489   3.596   5.485
 7069SOL    HW222107   6.486   3.454   5.565
 7070SOL     OW22108   6.382   4.582   5.291
 7070SOL    HW122109   6.309   4.581   5.360
 7070SOL    HW222110   6.424   4.672   5.290
 7071SOL     OW22111   0.986   5.834   5.103
 7071SOL    HW122112   1.060   5.891   5.141
 7071SOL    HW222113   0.951   5.773   5.175
 7072SOL     OW22114   6.891   6.220   5.992
 7072SOL    HW122115   6.950   6.194   5.915
 7072SOL    HW222116   6.796   6.223   5.961
 7073SOL     OW22117   0.245   0.829   5.555
 7073SOL    HW122118   0.226   0.921   5.520
 7073SOL    HW222119   0.198   0.762   5.497
 7074SOL     OW22120   3.254   2.744   1.846
 7074SOL    HW122121   3.352   2.725   1.851
 7074SOL    HW222122   3.206   2.661   1.818
 7075SOL     OW22123   1.606   5.856   4.316
 7075SOL    HW122124   1.561   5.846   4.405
 7075SOL    HW222125   1.689   5.801   4.314
 7076SOL     OW22126   3.148   1.917   6.779
 7076SOL    HW122127   3.051   1.891   6.781
 7076SOL    HW222128   3.190   1.882   6.695
 7077SOL     OW22129   2.213   5.643   5.270
 7077SOL    HW122130   2.309   5.641   5.296
 7077SOL    HW222131   2.157   5.658   5.351
 7078SOL     OW22132   6.242   6.689   3.032
 7078SOL    HW122133   6.228   6.605   3.084
 7078SOL    HW222134   6.213   6.675   2.937
 7079SOL     OW22135   6.765   6.138   5.586
 7079SOL    HW122136   6.677   6.183   5.603
 7079SOL    HW222137   6.751   6.059   5.526
 7080SOL     OW22138   4.161   2.316   3.680
 7080SOL    HW122139   4.191   2.226   3.713
 7080SOL    HW222140   4.103   2.359   3.748
 7081SOL     OW22141   3.206   1.167   5.040
 7081SOL    HW122142   3.261   1.189   4.960
 7081SOL    HW222143   3.158   1.249   5.071
 7082SOL     OW22144   5.305   1.283   6.887
 7082SOL    HW122145   5.325   1.364   6.942
 7082SOL    HW222146   5.386   1.225   6.882
 7083SOL     OW22147   2.887   1.492   6.285
 7083SOL    HW122148   2.977   1.450   6.292
 7083SOL    HW222149   2.885   1.557   6.209
 7084SOL     OW22150   6.789   6.957   5.511
 7084SOL    HW122151   6.820   0.029   5.518
 7084SOL    HW222152   6.689   6.954   5.518
 7085SOL     OW22153   2.320   2.389   3.192
 7085SOL    HW122154   2.359   2.319   3.253
 7085SOL    HW222155   2.381   2.468   3.188
 7086SOL     OW22156   5.239   0.824   6.446
 7086SOL    HW122157   5.186   0.847   6.527
 7086SOL    HW222158   5.289   0.739   6.461
 7087SOL     OW22159   1.170   3.372   4.674
 7087SOL    HW122160   1.123   3.459   4.689
 7087SOL    HW222161   1.148   3.337   4.583
 7088SOL     OW22162   4.861   2.997   4.552
 7088SOL    HW122163   4.956   2.984   4.580
 7088SOL    HW222164   4.838   3.094   4.559
 7089SOL     OW22165   3.509   2.557   6.277
 7089SOL    HW122166   3.518   2.630   6.344
 7089SOL    HW222167   3.437   2.581   6.211
 7090SOL     OW22168   1.623   1.274   5.367
 7090SOL    HW122169   1.587   1.251   5.458
 7090SOL    HW222170   1.716   1.240   5.358
 7091SOL     OW22171   0.284   0.973   0.193
 7091SOL    HW122172   0.208   1.038   0.202
 7091SOL    HW222173   0.253   0.895   0.139
 7092SOL     OW22174   4.166   3.974   0.129
 7092SOL    HW122175   4.231   3.905   0.160
 7092SOL    HW222176   4.201   4.018   0.046
 7093SOL     OW22177   3.340   4.047   4.172
 7093SOL    HW122178   3.342   4.120   4.103
 7093SOL    HW222179   3.277   4.072   4.245
 7094SOL     OW22180   0.576   6.645   5.837
 7094SOL    HW122181   0.540   6.572   5.895
 7094SOL    HW222182   0.658   6.613   5.790
 7095SOL     OW22183   1.993   3.068   6.789
 7095SOL    HW122184   2.092   3.061   6.774
 7095SOL    HW222185   1.966   3.165   6.783
 7096SOL     OW22186   5.249   2.279   3.833
 7096SOL    HW122187   5.199   2.202   3.793
 7096SOL    HW222188   5.341   2.249   3.859
 7097SOL     OW22189   6.788   0.457   1.632
 7097SOL    HW122190   6.859   0.425   1.568
 7097SOL    HW222191   6.831   0.512   1.704
 7098SOL     OW22192   1.174   5.981   5.248
 7098SOL    HW122193   1.169   6.080   5.236
 7098SOL    HW222194   1.227   5.960   5.330
 7099SOL     OW22195   1.114   1.630   5.344
 7099SOL    HW122196   1.047   1.668   5.408
 7099SOL    HW222197   1.206   1.647   5.380
 7100SOL     OW22198   4.986   3.914   0.964
 7100SOL    HW122199   5.031   3.842   0.911
 7100SOL    HW222200   4.968   3.880   1.057
 7101SOL     OW22201   3.048   0.288   4.582
 7101SOL    HW122202   2.968   0.263   4.528
 7101SOL    HW222203   3.082   0.208   4.631
 7102SOL     OW22204   4.233   1.004   0.949
 7102SOL    HW122205   4.179   0.924   0.924
 7102SOL    HW222206   4.304   1.018   0.881
 7103SOL     OW22207   3.641   5.766   6.719
 7103SOL    HW122208   3.636   5.699   6.793
 7103SOL    HW222209   3.551   5.809   6.706
 7104SOL     OW22210   1.639   2.919   3.496
 7104SOL    HW122211   1.654   2.978   3.417
 7104SOL    HW222212   1.686   2.958   3.576
 7105SOL     OW22213   3.314   3.413   4.965
 7105SOL    HW122214   3.365   3.386   4.884
 7105SOL    HW222215   3.322   3.343   5.036
 7106SOL     OW22216   3.938   3.022   4.753
 7106SOL    HW122217   3.964   3.053   4.662
 7106SOL    HW222218   4.019   2.995   4.804
 7107SOL     OW22219   2.916   1.362   0.230
 7107SOL    HW122220   2.869   1.278   0.205
 7107SOL    HW222221   2.895   1.386   0.325
 7108SOL     OW22222   4.008   6.545   1.538
 7108SOL    HW122223   3.952   6.617   1.578
 7108SOL    HW222224   4.100   6.580   1.520
 7109SOL     OW22225   3.330   0.160   6.050
 7109SOL    HW122226   3.374   0.122   5.969
 7109SOL    HW222227   3.289   0.086   6.104
 7110SOL     OW22228   5.360   5.316   4.278
 7110SOL    HW122229   5.382   5.220   4.299
 7110SOL    HW222230   5.392   5.337   4.186
 7111SOL     OW22231   1.536   3.393   3.977
 7111SOL    HW122232   1.604   3.458   3.943
 7111SOL    HW222233   1.495   3.343   3.900
 7112SOL     OW22234   1.568   5.787   4.017
 7112SOL    HW122235   1.535   5.863   3.961
 7112SOL    HW222236   1.553   5.808   4.114
 7113SOL     OW22237   4.049   3.800   4.555
 7113SOL    HW122238   4.058   3.749   4.641
 7113SOL    HW222239   4.065   3.738   4.478
 7114SOL     OW22240   3.739   0.725   1.534
 7114SOL    HW122241   3.704   0.681   1.617
 7114SOL    HW222242   3.666   0.728   1.466
 7115SOL     OW22243   5.447   2.210   1.195
 7115SOL    HW122244   5.430   2.184   1.290
 7115SOL    HW222245   5.359   2.220   1.148
 7116SOL     OW22246   5.853   4.185   3.712
 7116SOL    HW122247   5.828   4.167   3.617
 7116SOL    HW222248   5.952   4.175   3.723
 7117SOL     OW22249   0.044   6.267   3.402
 7117SOL    HW122250   6.981   6.315   3.422
 7117SOL    HW222251   0.024   6.171   3.383
 7118SOL     OW22252   5.375   3.637   1.443
 7118SOL    HW122253   5.388   3.732   1.472
 7118SOL    HW222254   5.356   3.635   1.345
 7119SOL     OW22255   5.683   1.015   3.231
 7119SOL    HW122256   5.630   1.042   3.311
 7119SOL    HW222257   5.740   1.092   3.201
 7120SOL     OW22258   4.614   1.497   2.997
 7120SOL    HW122259   4.700   1.545   3.013
 7120SOL    HW222260   4.624   1.402   3.026
 7121SOL     OW22261   2.063   6.883   3.542
 7121SOL    HW122262   2.045   6.846   3.633
 7121SOL    HW222263   2.160   6.874   3.521
 7122SOL     OW22264   6.730   0.956   0.299
 7122SOL    HW122265   6.663   0.924   0.365
 7122SOL    HW222266   6.699   0.932   0.206
 7123SOL     OW22267   2.740   5.483   1.748
 7123SOL    HW122268   2.772   5.472   1.842
 7123SOL    HW222269   2.683   5.565   1.741
 7124SOL     OW22270   0.646   4.899   0.730
 7124SOL    HW122271   0.714   4.882   0.801
 7124SOL    HW222272   0.676   4.857   0.644
 7125SOL     OW22273   6.261   6.485   1.421
 7125SOL    HW122274   6.227   6.579   1.421
 7125SOL    HW222275   6.302   6.464   1.332
 7126SOL     OW22276   2.462   3.619   0.632
 7126SOL    HW122277   2.450   3.690   0.563
 7126SOL    HW222278   2.374   3.600   0.676
 7127SOL     OW22279   3.471   5.420   4.110
 7127SOL    HW122280   3.412   5.412   4.189
 7127SOL    HW222281   3.559   5.375   4.129
 7128SOL     OW22282   3.333   4.689   0.699
 7128SOL    HW122283   3.346   4.666   0.603
 7128SOL    HW222284   3.316   4.787   0.708
 7129SOL     OW22285   3.068   0.871   1.354
 7129SOL    HW122286   2.990   0.808   1.351
 7129SOL    HW222287   3.066   0.923   1.439
 7130SOL     OW22288   3.431   5.102   4.173
 7130SOL    HW122289   3.458   5.076   4.080
 7130SOL    HW222290   3.339   5.067   4.191
 7131SOL     OW22291   2.634   1.634   1.352
 7131SOL    HW122292   2.729   1.665   1.345
 7131SOL    HW222293   2.587   1.689   1.421
 7132SOL     OW22294   4.048   3.388   3.214
 7132SOL    HW122295   4.079   3.471   3.167
 7132SOL    HW222296   4.058   3.310   3.153
 7133SOL     OW22297   4.897   4.986   2.953
 7133SOL    HW122298   4.889   5.083   2.928
 7133SOL    HW222299   4.864   4.974   3.047
 7134SOL     OW22300   6.644   5.939   3.973
 7134SOL    HW122301   6.664   5.996   3.894
 7134SOL    HW222302   6.544   5.930   3.983
 7135SOL     OW22303   1.269   0.792   4.265
 7135SOL    HW122304   1.189   0.734   4.275
 7135SOL    HW222305   1.247   0.870   4.207
 7136SOL     OW22306   1.667   1.369   0.731
 7136SOL    HW122307   1.698   1.354   0.825
 7136SOL    HW222308   1.582   1.318   0.716
 7137SOL     OW22309   4.287   0.943   4.548
 7137SOL    HW122310   4.309   0.865   4.490
 7137SOL    HW222311   4.367   0.966   4.604
 7138SOL     OW22312   3.435   2.795   1.574
 7138SOL    HW122313   3.395   2.881   1.604
 7138SOL    HW222314   3.441   2.732   1.652
 7139SOL     OW22315   4.908   3.229   1.929
 7139SOL    HW122316   4.842   3.154   1.940
 7139SOL    HW222317   4.991   3.209   1.981
 7140SOL     OW22318   5.947   3.080   5.209
 7140SOL    HW122319   5.848   3.095   5.201
 7140SOL    HW222320   5.974   2.999   5.157
 7141SOL     OW22321   3.481   0.491   0.780
 7141SOL    HW122322   3.571   0.481   0.823
 7141SOL    HW222323   3.450   0.401   0.748
 7142SOL     OW22324   4.280   0.222   3.559
 7142SOL    HW122325   4.303   0.148   3.496
 7142SOL    HW222326   4.241   0.184   3.643
 7143SOL     OW22327   1.796   3.621   6.039
 7143SOL    HW122328   1.835   3.706   6.077
 7143SOL    HW222329   1.746   3.573   6.111
 7144SOL     OW22330   0.938   1.173   2.786
 7144SOL    HW122331   0.861   1.232   2.809
 7144SOL    HW222332   1.023   1.215   2.820
 7145SOL     OW22333   4.539   6.552   6.254
 7145SOL    HW122334   4.588   6.466   6.237
 7145SOL    HW222335   4.590   6.606   6.322
 7146SOL     OW22336   2.492   6.814   0.793
 7146SOL    HW122337   2.450   6.729   0.827
 7146SOL    HW222338   2.558   6.792   0.722
 7147SOL     OW22339   6.776   6.601   3.600
 7147SOL    HW122340   6.768   6.668   3.526
 7147SOL    HW222341   6.855   6.624   3.657
 7148SOL     OW22342   1.014   6.412   1.579
 7148SOL    HW122343   0.987   6.508   1.585
 7148SOL    HW222344   0.957   6.366   1.511
 7149SOL     OW22345   6.819   0.704   3.538
 7149SOL    HW122346   6.861   0.638   3.476
 7149SOL    HW222347   6.724   0.720   3.510
 7150SOL     OW22348   4.845   3.091   1.458
 7150SOL    HW122349   4.754   3.052   1.444
 7150SOL    HW222350   4.887   3.111   1.369
 7151SOL     OW22351   1.472   5.831   0.833
 7151SOL    HW122352   1.554   5.833   0.776
 7151SOL    HW222353   1.402   5.890   0.793
 7152SOL     OW22354   0.717   3.363   5.195
 7152SOL    HW122355   0.809   3.329   5.213
 7152SOL    HW222356   0.712   3.400   5.102
 7153SOL     OW22357   3.976   6.809   5.529
 7153SOL    HW122358   3.929   6.772   5.449
 7153SOL    HW222359   3.909   6.825   5.602
 7154SOL     OW22360   4.066   5.801   4.348
 7154SOL    HW122361   4.005   5.724   4.328
 7154SOL    HW222362   4.046   5.835   4.440
 7155SOL     OW22363   1.164   6.309   2.017
 7155SOL    HW122364   1.229   6.382   1.995
 7155SOL    HW222365   1.100   6.296   1.942
 7156SOL     OW22366   6.921   4.887   5.252
 7156SOL    HW122367   6.919   4.795   5.211
 7156SOL    HW222368   6.884   4.883   5.344
 7157SOL     OW22369   6.275   5.421   0.479
 7157SOL    HW122370   6.180   5.451   0.489
 7157SOL    HW222371   6.335   5.500   0.487
 7158SOL     OW22372   6.761   6.729   3.346
 7158SOL    HW122373   6.785   6.694   3.255
 7158SOL    HW222374   6.817   6.810   3.366
 7159SOL     OW22375   0.381   4.623   1.542
 7159SOL    HW122376   0.433   4.600   1.625
 7159SOL    HW222377   0.284   4.604   1.557
 7160SOL     OW22378   6.545   0.268   1.694
 7160SOL    HW122379   6.611   0.341   1.680
 7160SOL    HW222380   6.506   0.274   1.786
 7161SOL     OW22381   3.326   3.544   3.960
 7161SOL    HW122382   3.292   3.628   4.002
 7161SOL    HW222383   3.401   3.565   3.898
 7162SOL     OW22384   3.516   5.214   4.806
 7162SOL    HW122385   3.589   5.278   4.828
 7162SOL    HW222386   3.430   5.247   4.846
 7163SOL     OW22387   3.493   0.463   3.470
 7163SOL    HW122388   3.504   0.511   3.383
 7163SOL    HW222389   3.561   0.389   3.475
 7164SOL     OW22390   2.280   1.298   2.853
 7164SOL    HW122391   2.200   1.335   2.807
 7164SOL    HW222392   2.354   1.286   2.788
 7165SOL     OW22393   5.901   1.216   0.424
 7165SOL    HW122394   5.929   1.187   0.516
 7165SOL    HW222395   5.977   1.262   0.379
 7166SOL     OW22396   4.889   4.444   1.616
 7166SOL    HW122397   4.951   4.522   1.607
 7166SOL    HW222398   4.796   4.478   1.634
 7167SOL     OW22399   5.078   3.883   4.962
 7167SOL    HW122400   5.087   3.981   4.947
 7167SOL    HW222401   5.028   3.841   4.886
 7168SOL     OW22402   1.323   1.661   4.065
 7168SOL    HW122403   1.345   1.751   4.101
 7168SOL    HW222404   1.407   1.606   4.060
 7169SOL     OW22405   1.692   3.346   5.772
 7169SOL    HW122406   1.711   3.440   5.745
 7169SOL    HW222407   1.634   3.345   5.853
 7170SOL     OW22408   4.730   5.307   2.713
 7170SOL    HW122409   4.647   5.276   2.761
 7170SOL    HW222410   4.753   5.399   2.743
 7171SOL     OW22411   4.647   3.106   5.778
 7171SOL    HW122412   4.588   3.030   5.803
 7171SOL    HW222413   4.685   3.148   5.860
 7172SOL     OW22414   1.237   6.713   0.234
 7172SOL    HW122415   1.231   6.797   0.181
 7172SOL    HW222416   1.329   6.703   0.272
 7173SOL     OW22417   5.959   5.094   4.392
 7173SOL    HW122418   5.985   5.019   4.331
 7173SOL    HW222419   6.019   5.172   4.378
 7174SOL     OW22420   1.666   5.188   6.669
 7174SOL    HW122421   1.640   5.189   6.573
 7174SOL    HW222422   1.766   5.185   6.677
 7175SOL     OW22423   5.246   3.566   1.197
 7175SOL    HW122424   5.308   3.490   1.180
 7175SOL    HW222425   5.172   3.564   1.129
 7176SOL     OW22426   6.955   4.798   2.550
 7176SOL    HW122427   6.967   4.703   2.578
 7176SOL    HW222428   6.917   4.801   2.458
 7177SOL     OW22429   1.769   5.645   3.902
 7177SOL    HW122430   1.684   5.691   3.928
 7177SOL    HW222431   1.847   5.693   3.941
 7178SOL     OW22432   1.779   2.731   5.815
 7178SOL    HW122433   1.770   2.707   5.912
 7178SOL    HW222434   1.874   2.715   5.786
 7179SOL     OW22435   2.691   3.358   5.784
 7179SOL    HW122436   2.598   3.329   5.762
 7179SOL    HW222437   2.744   3.363   5.699
 7180SOL     OW22438   0.869   5.144   6.428
 7180SOL    HW122439   0.791   5.092   6.462
 7180SOL    HW222440   0.952   5.110   6.472
 7181SOL     OW22441   3.841   0.762   0.310
 7181SOL    HW122442   3.879   0.729   0.224
 7181SOL    HW222443   3.805   0.855   0.297
 7182SOL     OW22444   2.029   4.174   5.659
 7182SOL    HW122445   2.019   4.268   5.691
 7182SOL    HW222446   2.078   4.121   5.729
 7183SOL     OW22447   1.758   4.935   2.536
 7183SOL    HW122448   1.682   4.880   2.569
 7183SOL    HW222449   1.842   4.906   2.583
 7184SOL     OW22450   1.109   6.856   3.938
 7184SOL    HW122451   1.089   6.934   3.998
 7184SOL    HW222452   1.195   6.813   3.967
 7185SOL     OW22453   5.292   2.923   6.658
 7185SOL    HW122454   5.243   2.920   6.745
 7185SOL    HW222455   5.389   2.939   6.675
 7186SOL     OW22456   6.801   0.205   5.505
 7186SOL    HW122457   6.878   0.262   5.534
 7186SOL    HW222458   6.800   0.199   5.405
 7187SOL     OW22459   1.791   4.486   1.686
 7187SOL    HW122460   1.844   4.513   1.767
 7187SOL    HW222461   1.725   4.415   1.711
 7188SOL     OW22462   5.169   7.003   1.680
 7188SOL    HW122463   5.239   0.041   1.715
 7188SOL    HW222464   5.209   6.915   1.655
 7189SOL     OW22465   6.322   1.406   6.465
 7189SOL    HW122466   6.290   1.443   6.553
 7189SOL    HW222467   6.261   1.437   6.392
 7190SOL     OW22468   5.121   4.223   3.428
 7190SOL    HW122469   5.209   4.213   3.382
 7190SOL    HW222470   5.049   4.236   3.359
 7191SOL     OW22471   1.031   3.748   2.381
 7191SOL    HW122472   1.032   3.739   2.282
 7191SOL    HW222473   1.015   3.659   2.423
 7192SOL     OW22474   2.270   5.972   5.704
 7192SOL    HW122475   2.192   5.985   5.644
 7192SOL    HW222476   2.351   6.013   5.663
 7193SOL     OW22477   2.927   2.301   4.430
 7193SOL    HW122478   2.973   2.263   4.510
 7193SOL    HW222479   2.993   2.308   4.354
 7194SOL     OW22480   2.185   1.739   1.106
 7194SOL    HW122481   2.262   1.680   1.080
 7194SOL    HW222482   2.167   1.729   1.203
 7195SOL     OW22483   0.260   4.919   1.075
 7195SOL    HW122484   0.229   5.001   1.027
 7195SOL    HW222485   0.354   4.899   1.048
 7196SOL     OW22486   3.076   3.126   3.114
 7196SOL    HW122487   3.029   3.181   3.044
 7196SOL    HW222488   3.013   3.056   3.148
 7197SOL     OW22489   6.597   1.913   5.234
 7197SOL    HW122490   6.613   1.858   5.152
 7197SOL    HW222491   6.516   1.879   5.282
 7198SOL     OW22492   1.415   6.665   5.715
 7198SOL    HW122493   1.507   6.628   5.703
 7198SOL    HW222494   1.352   6.591   5.738
 7199SOL     OW22495   0.385   0.505   2.579
 7199SOL    HW122496   0.418   0.482   2.671
 7199SOL    HW222497   0.442   0.578   2.540
 7200SOL     OW22498   2.431   0.950   0.495
 7200SOL    HW122499   2.476   0.924   0.409
 7200SOL    HW222500   2.423   1.050   0.499
 7201SOL     OW22501   1.733   4.998   2.956
 7201SOL    HW122502   1.731   5.065   3.030
 7201SOL    HW222503   1.641   4.984   2.921
 7202SOL     OW22504   3.882   0.161   6.387
 7202SOL    HW122505   3.917   0.199   6.301
 7202SOL    HW222506   3.800   0.108   6.369
 7203SOL     OW22507   6.487   0.181   0.644
 7203SOL    HW122508   6.396   0.153   0.614
 7203SOL    HW222509   6.488   0.280   0.659
 7204SOL     OW22510   6.782   0.089   4.000
 7204SOL    HW122511   6.793   0.091   3.901
 7204SOL    HW222512   6.742   0.175   4.031
 7205SOL     OW22513   1.897   5.561   3.349
 7205SOL    HW122514   1.887   5.577   3.447
 7205SOL    HW222515   1.991   5.581   3.322
 7206SOL     OW22516   0.437   1.346   1.261
 7206SOL    HW122517   0.511   1.333   1.327
 7206SOL    HW222518   0.411   1.257   1.222
 7207SOL     OW22519   3.323   0.043   0.938
 7207SOL    HW122520   3.288   0.083   1.023
 7207SOL    HW222521   3.352   0.116   0.877
 7208SOL     OW22522   3.688   6.715   4.554
 7208SOL    HW122523   3.696   6.765   4.468
 7208SOL    HW222524   3.731   6.767   4.627
 7209SOL     OW22525   3.422   2.876   4.171
 7209SOL    HW122526   3.342   2.894   4.113
 7209SOL    HW222527   3.400   2.898   4.266
 7210SOL     OW22528   4.646   1.095   3.533
 7210SOL    HW122529   4.586   1.173   3.552
 7210SOL    HW222530   4.592   1.020   3.493
 7211SOL     OW22531   0.848   6.250   3.750
 7211SOL    HW122532   0.815   6.298   3.668
 7211SOL    HW222533   0.891   6.164   3.723
 7212SOL     OW22534   0.259   5.949   4.560
 7212SOL    HW122535   0.163   5.934   4.533
 7212SOL    HW222536   0.315   5.960   4.478
 7213SOL     OW22537   5.657   0.039   5.367
 7213SOL    HW122538   5.745   0.030   5.413
 7213SOL    HW222539   5.640   6.980   5.312
 7214SOL     OW22540   2.251   5.155   4.539
 7214SOL    HW122541   2.184   5.225   4.515
 7214SOL    HW222542   2.290   5.175   4.629
 7215SOL     OW22543   1.400   3.056   4.182
 7215SOL    HW122544   1.372   2.960   4.174
 7215SOL    HW222545   1.490   3.068   4.140
 7216SOL     OW22546   2.657   5.675   6.781
 7216SOL    HW122547   2.629   5.601   6.720
 7216SOL    HW222548   2.701   5.636   6.862
 7217SOL     OW22549   1.795   4.621   2.668
 7217SOL    HW122550   1.875   4.681   2.665
 7217SOL    HW222551   1.712   4.675   2.655
 7218SOL     OW22552   4.840   2.015   5.448
 7218SOL    HW122553   4.816   2.006   5.545
 7218SOL    HW222554   4.905   2.091   5.437
 7219SOL     OW22555   4.680   7.014   3.700
 7219SOL    HW122556   4.628   0.074   3.678
 7219SOL    HW222557   4.688   6.957   3.618
 7220SOL     OW22558   6.684   0.840   3.223
 7220SOL    HW122559   6.682   0.892   3.138
 7220SOL    HW222560   6.670   0.743   3.204
 7221SOL     OW22561   5.890   4.541   5.435
 7221SOL    HW122562   5.856   4.509   5.347
 7221SOL    HW222563   5.859   4.479   5.508
 7222SOL     OW22564   5.980   6.445   1.221
 7222SOL    HW122565   6.063   6.394   1.202
 7222SOL    HW222566   5.984   6.534   1.174
 7223SOL     OW22567   3.122   1.876   0.535
 7223SOL    HW122568   3.209   1.879   0.486
 7223SOL    HW222569   3.074   1.963   0.525
 7224SOL     OW22570   5.932   1.325   4.658
 7224SOL    HW122571   5.852   1.367   4.616
 7224SOL    HW222572   5.953   1.238   4.612
 7225SOL     OW22573   1.505   5.557   0.242
 7225SOL    HW122574   1.604   5.568   0.256
 7225SOL    HW222575   1.471   5.486   0.303
 7226SOL     OW22576   0.283   6.814   0.268
 7226SOL    HW122577   0.251   6.866   0.188
 7226SOL    HW222578   0.211   6.753   0.299
 7227SOL     OW22579   0.501   1.735   6.857
 7227SOL    HW122580   0.516   1.707   6.762
 7227SOL    HW222581   0.548   1.822   6.873
 7228SOL     OW22582   6.835   6.529   1.785
 7228SOL    HW122583   6.779   6.598   1.738
 7228SOL    HW222584   6.823   6.538   1.884
 7229SOL     OW22585   1.070   0.584   4.305
 7229SOL    HW122586   0.998   0.640   4.346
 7229SOL    HW222587   1.072   0.495   4.351
 7230SOL     OW22588   4.556   5.622   4.113
 7230SOL    HW122589   4.565   5.592   4.208
 7230SOL    HW222590   4.568   5.722   4.108
 7231SOL     OW22591   5.780   1.696   6.208
 7231SOL    HW122592   5.839   1.767   6.244
 7231SOL    HW222593   5.836   1.622   6.170
 7232SOL     OW22594   4.256   4.896   2.715
 7232SOL    HW122595   4.304   4.811   2.737
 7232SOL    HW222596   4.203   4.926   2.794
 7233SOL     OW22597   0.272   2.836   5.267
 7233SOL    HW122598   0.252   2.877   5.356
 7233SOL    HW222599   0.331   2.756   5.279
 7234SOL     OW22600   6.025   2.136   1.823
 7234SOL    HW122601   6.039   2.146   1.921
 7234SOL    HW222602   6.112   2.144   1.775
 7235SOL     OW22603   5.540   4.128   4.678
 7235SOL    HW122604   5.633   4.139   4.644
 7235SOL    HW222605   5.527   4.033   4.708
 7236SOL     OW22606   3.766   1.723   2.831
 7236SOL    HW122607   3.696   1.743   2.762
 7236SOL    HW222608   3.745   1.636   2.876
 7237SOL     OW22609   6.615   6.306   5.324
 7237SOL    HW122610   6.640   6.210   5.336
 7237SOL    HW222611   6.528   6.312   5.275
 7238SOL     OW22612   2.658   1.571   2.317
 7238SOL    HW122613   2.712   1.646   2.279
 7238SOL    HW222614   2.618   1.518   2.242
 7239SOL     OW22615   1.827   1.465   2.488
 7239SOL    HW122616   1.729   1.484   2.494
 7239SOL    HW222617   1.869   1.475   2.578
 7240SOL     OW22618   2.879   3.996   1.240
 7240SOL    HW122619   2.886   3.949   1.328
 7240SOL    HW222620   2.960   3.977   1.185
 7241SOL     OW22621   3.795   0.701   5.797
 7241SOL    HW122622   3.804   0.666   5.890
 7241SOL    HW222623   3.822   0.798   5.796
 7242SOL     OW22624   5.714   4.150   6.810
 7242SOL    HW122625   5.801   4.194   6.831
 7242SOL    HW222626   5.651   4.163   6.886
 7243SOL     OW22627   1.212   4.716   6.596
 7243SOL    HW122628   1.120   4.699   6.631
 7243SOL    HW222629   1.234   4.648   6.526
 7244SOL     OW22630   5.485   1.652   1.311
 7244SOL    HW122631   5.554   1.716   1.345
 7244SOL    HW222632   5.482   1.658   1.211
 7245SOL     OW22633   0.205   2.035   4.766
 7245SOL    HW122634   0.236   1.940   4.757
 7245SOL    HW222635   0.182   2.053   4.862
 7246SOL     OW22636   6.133   6.981   4.686
 7246SOL    HW122637   6.181   6.951   4.769
 7246SOL    HW222638   6.139   6.910   4.616
 7247SOL     OW22639   2.627   6.440   1.894
 7247SOL    HW122640   2.529   6.427   1.911
 7247SOL    HW222641   2.650   6.403   1.804
 7248SOL     OW22642   3.729   0.920   4.021
 7248SOL    HW122643   3.748   0.832   3.977
 7248SOL    HW222644   3.815   0.963   4.050
 7249SOL     OW22645   5.447   4.222   0.822
 7249SOL    HW122646   5.398   4.165   0.888
 7249SOL    HW222647   5.495   4.295   0.871
 7250SOL     OW22648   2.123   4.598   6.432
 7250SOL    HW122649   2.152   4.540   6.508
 7250SOL    HW222650   2.131   4.694   6.457
 7251SOL     OW22651   6.830   6.711   5.113
 7251SOL    HW122652   6.913   6.691   5.061
 7251SOL    HW222653   6.854   6.721   5.210
 7252SOL     OW22654   2.942   3.455   4.831
 7252SOL    HW122655   2.925   3.401   4.749
 7252SOL    HW222656   2.959   3.394   4.908
 7253SOL     OW22657   2.632   6.369   1.275
 7253SOL    HW122658   2.696   6.415   1.337
 7253SOL    HW222659   2.640   6.408   1.184
 7254SOL     OW22660   3.768   5.399   3.841
 7254SOL    HW122661   3.848   5.431   3.790
 7254SOL    HW222662   3.684   5.431   3.796
 7255SOL     OW22663   2.915   3.461   2.351
 7255SOL    HW122664   2.928   3.513   2.266
 7255SOL    HW222665   2.898   3.365   2.329
 7256SOL     OW22666   4.201   5.069   4.264
 7256SOL    HW122667   4.299   5.082   4.271
 7256SOL    HW222668   4.164   5.126   4.191
 7257SOL     OW22669   5.396   2.599   2.890
 7257SOL    HW122670   5.460   2.587   2.815
 7257SOL    HW222671   5.435   2.661   2.958
 7258SOL     OW22672   3.791   0.316   4.839
 7258SOL    HW122673   3.716   0.299   4.776
 7258SOL    HW222674   3.851   0.387   4.802
 7259SOL     OW22675   2.279   3.802   6.774
 7259SOL    HW122676   2.280   3.726   6.839
 7259SOL    HW222677   2.351   3.790   6.706
 7260SOL     OW22678   3.321   2.098   2.886
 7260SOL    HW122679   3.356   2.057   2.971
 7260SOL    HW222680   3.225   2.122   2.898
 7261SOL     OW22681   2.073   3.271   1.944
 7261SOL    HW122682   2.129   3.198   1.904
 7261SOL    HW222683   2.132   3.340   1.985
 7262SOL     OW22684   5.524   2.040   4.701
 7262SOL    HW122685   5.620   2.040   4.675
 7262SOL    HW222686   5.474   2.108   4.648
 7263SOL     OW22687   1.130   5.927   1.270
 7263SOL    HW122688   1.227   5.945   1.250
 7263SOL    HW222689   1.120   5.835   1.307
 7264SOL     OW22690   6.348   1.072   6.775
 7264SOL    HW122691   6.374   0.995   6.717
 7264SOL    HW222692   6.351   1.156   6.722
 7265SOL     OW22693   5.205   5.149   5.631
 7265SOL    HW122694   5.185   5.051   5.638
 7265SOL    HW222695   5.128   5.201   5.666
 7266SOL     OW22696   4.920   0.538   1.830
 7266SOL    HW122697   4.822   0.542   1.809
 7266SOL    HW222698   4.968   0.491   1.757
 7267SOL     OW22699   0.341   3.744   4.706
 7267SOL    HW122700   0.390   3.820   4.749
 7267SOL    HW222701   0.260   3.721   4.761
 7268SOL     OW22702   3.860   6.338   1.667
 7268SOL    HW122703   3.852   6.334   1.766
 7268SOL    HW222704   3.931   6.403   1.641
 7269SOL     OW22705   0.692   5.765   1.574
 7269SOL    HW122706   0.680   5.785   1.671
 7269SOL    HW222707   0.773   5.707   1.561
 7270SOL     OW22708   2.577   1.797   2.722
 7270SOL    HW122709   2.528   1.804   2.635
 7270SOL    HW222710   2.676   1.796   2.705
 7271SOL     OW22711   0.010   3.789   3.411
 7271SOL    HW122712   6.964   3.721   3.435
 7271SOL    HW222713   0.099   3.745   3.404
 7272SOL     OW22714   4.757   2.807   3.048
 7272SOL    HW122715   4.765   2.900   3.010
 7272SOL    HW222716   4.681   2.804   3.112
 7273SOL     OW22717   5.779   4.436   1.604
 7273SOL    HW122718   5.785   4.477   1.695
 7273SOL    HW222719   5.833   4.491   1.539
 7274SOL     OW22720   6.992   5.239   5.818
 7274SOL    HW122721   0.030   5.205   5.747
 7274SOL    HW222722   6.963   5.164   5.877
 7275SOL     OW22723   6.852   0.283   6.863
 7275SOL    HW122724   6.782   0.268   6.793
 7275SOL    HW222725   6.923   0.343   6.827
 7276SOL     OW22726   2.137   1.897   3.919
 7276SOL    HW122727   2.093   1.980   3.884
 7276SOL    HW222728   2.080   1.818   3.898
 7277SOL     OW22729   4.922   1.738   4.717
 7277SOL    HW122730   5.005   1.682   4.708
 7277SOL    HW222731   4.867   1.729   4.633
 7278SOL     OW22732   3.304   1.343   3.551
 7278SOL    HW122733   3.278   1.434   3.584
 7278SOL    HW222734   3.240   1.276   3.586
 7279SOL     OW22735   4.635   4.672   0.084
 7279SOL    HW122736   4.630   4.771   0.098
 7279SOL    HW222737   4.624   4.651   7.009
 7280SOL     OW22738   5.506   2.225   5.168
 7280SOL    HW122739   5.465   2.306   5.125
 7280SOL    HW222740   5.503   2.148   5.104
 7281SOL     OW22741   3.377   6.711   1.958
 7281SOL    HW122742   3.375   6.628   1.902
 7281SOL    HW222743   3.377   6.686   2.055
 7282SOL     OW22744   6.615   5.454   2.161
 7282SOL    HW122745   6.683   5.381   2.163
 7282SOL    HW222746   6.657   5.537   2.125
 7283SOL     OW22747   3.935   5.123   2.673
 7283SOL    HW122748   3.847   5.161   2.648
 7283SOL    HW222749   3.922   5.048   2.739
 7284SOL     OW22750   6.818   1.741   3.647
 7284SOL    HW122751   6.755   1.812   3.616
 7284SOL    HW222752   6.773   1.651   3.642
 7285SOL     OW22753   4.731   2.732   1.973
 7285SOL    HW122754   4.701   2.691   1.887
 7285SOL    HW222755   4.717   2.831   1.970
 7286SOL     OW22756   0.415   0.588   0.265
 7286SOL    HW122757   0.355   0.571   0.187
 7286SOL    HW222758   0.367   0.566   0.349
 7287SOL     OW22759   1.220   2.435   4.001
 7287SOL    HW122760   1.227   2.335   4.007
 7287SOL    HW222761   1.138   2.466   4.050
 7288SOL     OW22762   3.049   2.196   3.190
 7288SOL    HW122763   2.972   2.246   3.229
 7288SOL    HW222764   3.021   2.151   3.105
 7289SOL     OW22765   6.023   2.902   1.372
 7289SOL    HW122766   6.106   2.952   1.346
 7289SOL    HW222767   5.979   2.865   1.290
 7290SOL     OW22768   3.617   1.326   4.875
 7290SOL    HW122769   3.652   1.395   4.813
 7290SOL    HW222770   3.633   1.355   4.970
 7291SOL     OW22771   3.831   0.904   6.795
 7291SOL    HW122772   3.821   0.858   6.707
 7291SOL    HW222773   3.920   0.951   6.798
 7292SOL     OW22774   2.023   6.665   3.128
 7292SOL    HW122775   2.012   6.689   3.032
 7292SOL    HW222776   2.029   6.748   3.183
 7293SOL     OW22777   1.356   1.058   4.902
 7293SOL    HW122778   1.443   1.096   4.934
 7293SOL    HW222779   1.374   1.000   4.822
 7294SOL     OW22780   2.607   5.127   1.255
 7294SOL    HW122781   2.634   5.031   1.250
 7294SOL    HW222782   2.675   5.184   1.209
 7295SOL     OW22783   6.387   5.304   2.412
 7295SOL    HW122784   6.450   5.299   2.334
 7295SOL    HW222785   6.297   5.332   2.381
 7296SOL     OW22786   3.984   4.974   2.247
 7296SOL    HW122787   4.033   4.952   2.332
 7296SOL    HW222788   3.896   5.017   2.269
 7297SOL     OW22789   3.848   6.043   1.320
 7297SOL    HW122790   3.855   6.085   1.229
 7297SOL    HW222791   3.904   5.960   1.322
 7298SOL     OW22792   5.100   5.732   6.165
 7298SOL    HW122793   5.028   5.754   6.099
 7298SOL    HW222794   5.089   5.789   6.246
 7299SOL     OW22795   1.553   2.894   0.560
 7299SOL    HW122796   1.459   2.920   0.538
 7299SOL    HW222797   1.579   2.815   0.505
 7300SOL     OW22798   0.975   4.867   1.871
 7300SOL    HW122799   0.942   4.910   1.955
 7300SOL    HW222800   0.931   4.910   1.792
 7301SOL     OW22801   5.581   6.641   5.445
 7301SOL    HW122802   5.529   6.575   5.499
 7301SOL    HW222803   5.645   6.689   5.505
 7302SOL     OW22804   4.876   2.730   5.766
 7302SOL    HW122805   4.936   2.790   5.818
 7302SOL    HW222806   4.841   2.779   5.686
 7303SOL     OW22807   2.684   0.888   0.861
 7303SOL    HW122808   2.642   0.978   0.847
 7303SOL    HW222809   2.620   0.817   0.832
 7304SOL     OW22810   2.671   5.444   2.171
 7304SOL    HW122811   2.761   5.433   2.130
 7304SOL    HW222812   2.610   5.491   2.107
 7305SOL     OW22813   5.832   2.374   0.609
 7305SOL    HW122814   5.812   2.472   0.617
 7305SOL    HW222815   5.764   2.331   0.551
 7306SOL     OW22816   2.109   1.563   1.361
 7306SOL    HW122817   2.194   1.590   1.405
 7306SOL    HW222818   2.092   1.466   1.378
 7307SOL     OW22819   1.696   6.915   1.318
 7307SOL    HW122820   1.708   6.934   1.220
 7307SOL    HW222821   1.774   6.952   1.368
 7308SOL     OW22822   4.783   0.847   2.426
 7308SOL    HW122823   4.783   0.860   2.327
 7308SOL    HW222824   4.690   0.822   2.456
 7309SOL     OW22825   2.223   5.176   3.321
 7309SOL    HW122826   2.307   5.179   3.267
 7309SOL    HW222827   2.158   5.114   3.279
 7310SOL     OW22828   1.710   3.235   0.325
 7310SOL    HW122829   1.708   3.215   0.423
 7310SOL    HW222830   1.695   3.151   0.274
 7311SOL     OW22831   0.206   6.744   6.413
 7311SOL    HW122832   0.204   6.648   6.441
 7311SOL    HW222833   0.138   6.796   6.465
 7312SOL     OW22834   0.157   2.437   5.310
 7312SOL    HW122835   0.121   2.350   5.278
 7312SOL    HW222836   0.202   2.485   5.234
 7313SOL     OW22837   2.676   0.664   2.342
 7313SOL    HW122838   2.696   0.677   2.440
 7313SOL    HW222839   2.595   0.607   2.332
 7314SOL     OW22840   0.358   4.607   6.978
 7314SOL    HW122841   0.286   4.549   7.015
 7314SOL    HW222842   0.348   4.615   6.879
 7315SOL     OW22843   0.919   5.017   2.509
 7315SOL    HW122844   0.941   4.938   2.451
 7315SOL    HW222845   0.862   5.080   2.457
 7316SOL     OW22846   3.434   1.944   7.010
 7316SOL    HW122847   3.335   1.953   7.016
 7316SOL    HW222848   3.478   2.020   0.035
 7317SOL     OW22849   3.487   1.388   1.890
 7317SOL    HW122850   3.403   1.403   1.942
 7317SOL    HW222851   3.526   1.299   1.916
 7318SOL     OW22852   3.696   0.357   1.168
 7318SOL    HW122853   3.599   0.377   1.159
 7318SOL    HW222854   3.708   0.267   1.211
 7319SOL     OW22855   6.595   4.929   0.492
 7319SOL    HW122856   6.553   4.846   0.531
 7319SOL    HW222857   6.671   4.903   0.433
 7320SOL     OW22858   6.947   3.047   1.037
 7320SOL    HW122859   6.936   2.963   1.091
 7320SOL    HW222860   0.019   3.079   1.045
 7321SOL     OW22861   2.171   6.143   7.020
 7321SOL    HW122862   2.104   6.111   6.953
 7321SOL    HW222863   2.262   6.143   6.978
 7322SOL     OW22864   0.545   2.655   2.385
 7322SOL    HW122865   0.633   2.643   2.340
 7322SOL    HW222866   0.483   2.706   2.325
 7323SOL     OW22867   1.232   1.598   1.325
 7323SOL    HW122868   1.199   1.548   1.404
 7323SOL    HW222869   1.246   1.535   1.248
 7324SOL     OW22870   5.653   4.741   2.998
 7324SOL    HW122871   5.636   4.810   3.069
 7324SOL    HW222872   5.740   4.696   3.015
 7325SOL     OW22873   4.217   1.190   6.115
 7325SOL    HW122874   4.206   1.113   6.177
 7325SOL    HW222875   4.194   1.275   6.162
 7326SOL     OW22876   2.436   0.599   0.304
 7326SOL    HW122877   2.478   0.651   0.230
 7326SOL    HW222878   2.354   0.553   0.270
 7327SOL     OW22879   6.408   3.807   3.099
 7327SOL    HW122880   6.369   3.842   3.184
 7327SOL    HW222881   6.471   3.874   3.061
 7328SOL     OW22882   4.107   4.892   5.018
 7328SOL    HW122883   4.038   4.912   5.088
 7328SOL    HW222884   4.064   4.894   4.928
 7329SOL     OW22885   2.806   3.355   0.739
 7329SOL    HW122886   2.742   3.278   0.748
 7329SOL    HW222887   2.780   3.411   0.661
 7330SOL     OW22888   3.710   2.759   1.256
 7330SOL    HW122889   3.795   2.746   1.307
 7330SOL    HW222890   3.707   2.695   1.179
 7331SOL     OW22891   4.402   0.477   1.954
 7331SOL    HW122892   4.376   0.499   1.860
 7331SOL    HW222893   4.422   0.562   2.003
 7332SOL     OW22894   3.025   3.941   6.686
 7332SOL    HW122895   3.113   3.960   6.730
 7332SOL    HW222896   2.951   3.960   6.751
 7333SOL     OW22897   6.636   2.215   1.520
 7333SOL    HW122898   6.633   2.204   1.619
 7333SOL    HW222899   6.695   2.145   1.480
 7334SOL     OW22900   2.962   7.021   5.621
 7334SOL    HW122901   3.008   0.018   5.534
 7334SOL    HW222902   3.018   0.031   5.696
 7335SOL     OW22903   6.710   2.737   2.411
 7335SOL    HW122904   6.683   2.820   2.459
 7335SOL    HW222905   6.810   2.727   2.414
 7336SOL     OW22906   1.355   6.243   1.166
 7336SOL    HW122907   1.401   6.155   1.153
 7336SOL    HW222908   1.256   6.230   1.154
 7337SOL     OW22909   2.277   2.066   2.617
 7337SOL    HW122910   2.301   2.016   2.700
 7337SOL    HW222911   2.202   2.019   2.570
 7338SOL     OW22912   5.609   3.077   1.950
 7338SOL    HW122913   5.597   3.071   1.851
 7338SOL    HW222914   5.541   3.140   1.988
 7339SOL     OW22915   6.398   5.447   4.849
 7339SOL    HW122916   6.303   5.436   4.880
 7339SOL    HW222917   6.428   5.540   4.868
 7340SOL     OW22918   2.928   7.001   0.295
 7340SOL    HW122919   2.920   0.057   0.233
 7340SOL    HW222920   3.007   7.015   0.354
 7341SOL     OW22921   6.382   5.159   4.125
 7341SOL    HW122922   6.389   5.158   4.224
 7341SOL    HW222923   6.385   5.065   4.091
 7342SOL     OW22924   6.872   0.178   0.617
 7342SOL    HW122925   6.781   0.137   0.607
 7342SOL    HW222926   6.916   0.141   0.699
 7343SOL     OW22927   6.195   3.839   2.640
 7343SOL    HW122928   6.237   3.828   2.730
 7343SOL    HW222929   6.167   3.935   2.628
 7344SOL     OW22930   2.038   6.356   0.077
 7344SOL    HW122931   2.088   6.275   0.048
 7344SOL    HW222932   2.008   6.407   7.019
 7345SOL     OW22933   4.526   5.391   5.967
 7345SOL    HW122934   4.435   5.354   5.987
 7345SOL    HW222935   4.554   5.452   6.042
 7346SOL     OW22936   3.690   4.635   1.502
 7346SOL    HW122937   3.626   4.583   1.559
 7346SOL    HW222938   3.743   4.572   1.445
 7347SOL     OW22939   6.019   1.427   1.895
 7347SOL    HW122940   5.965   1.512   1.897
 7347SOL    HW222941   6.097   1.436   1.956
 7348SOL     OW22942   1.730   2.075   4.105
 7348SOL    HW122943   1.725   2.098   4.203
 7348SOL    HW222944   1.718   1.976   4.094
 7349SOL     OW22945   4.068   1.676   0.751
 7349SOL    HW122946   4.037   1.690   0.845
 7349SOL    HW222947   3.994   1.698   0.688
 7350SOL     OW22948   1.119   1.862   3.232
 7350SOL    HW122949   1.174   1.915   3.168
 7350SOL    HW222950   1.049   1.811   3.181
 7351SOL     OW22951   4.712   5.007   6.661
 7351SOL    HW122952   4.724   4.927   6.719
 7351SOL    HW222953   4.619   5.009   6.624
 7352SOL     OW22954   0.879   1.941   2.355
 7352SOL    HW122955   0.864   1.965   2.259
 7352SOL    HW222956   0.827   1.858   2.376
 7353SOL     OW22957   5.782   1.626   4.839
 7353SOL    HW122958   5.879   1.609   4.817
 7353SOL    HW222959   5.777   1.682   4.922
 7354SOL     OW22960   6.536   6.310   5.596
 7354SOL    HW122961   6.488   6.238   5.545
 7354SOL    HW222962   6.470   6.369   5.641
 7355SOL     OW22963   0.779   5.554   1.845
 7355SOL    HW122964   0.831   5.480   1.800
 7355SOL    HW222965   0.830   5.588   1.923
 7356SOL     OW22966   6.334   1.876   6.524
 7356SOL    HW122967   6.409   1.815   6.551
 7356SOL    HW222968   6.357   1.920   6.437
 7357SOL     OW22969   5.519   2.502   6.799
 7357SOL    HW122970   5.555   2.526   6.709
 7357SOL    HW222971   5.576   2.542   6.870
 7358SOL     OW22972   3.249   1.579   4.250
 7358SOL    HW122973   3.167   1.528   4.274
 7358SOL    HW222974   3.279   1.634   4.329
 7359SOL     OW22975   3.966   3.001   2.907
 7359SOL    HW122976   4.033   2.930   2.888
 7359SOL    HW222977   4.009   3.074   2.960
 7360SOL     OW22978   1.247   2.300   5.131
 7360SOL    HW122979   1.289   2.245   5.203
 7360SOL    HW222980   1.183   2.365   5.172
 7361SOL     OW22981   5.189   5.988   1.630
 7361SOL    HW122982   5.262   6.051   1.602
 7361SOL    HW222983   5.211   5.896   1.598
 7362SOL     OW22984   2.185   6.136   5.295
 7362SOL    HW122985   2.109   6.088   5.252
 7362SOL    HW222986   2.268   6.123   5.240
 7363SOL     OW22987   4.909   2.954   0.049
 7363SOL    HW122988   4.922   2.901   6.988
 7363SOL    HW222989   4.993   3.003   0.071
 7364SOL     OW22990   4.316   6.635   1.192
 7364SOL    HW122991   4.295   6.665   1.285
 7364SOL    HW222992   4.286   6.540   1.180
 7365SOL     OW22993   2.669   0.148   2.547
 7365SOL    HW122994   2.721   0.176   2.466
 7365SOL    HW222995   2.726   0.089   2.604
 7366SOL     OW22996   0.044   5.261   6.883
 7366SOL    HW122997   7.022   5.318   6.952
 7366SOL    HW222998   0.135   5.234   6.917
 7367SOL     OW22999   4.751   3.762   1.794
 7367SOL    HW123000   4.805   3.839   1.760
 7367SOL    HW223001   4.802   3.715   1.866
 7368SOL     OW23002   3.129   3.778   4.741
 7368SOL    HW123003   3.041   3.822   4.760
 7368SOL    HW223004   3.195   3.847   4.713
 7369SOL     OW23005   5.030   3.959   0.617
 7369SOL    HW123006   5.100   4.029   0.633
 7369SOL    HW223007   4.949   3.980   0.672
 7370SOL     OW23008   2.262   6.886   0.642
 7370SOL    HW123009   2.347   6.857   0.687
 7370SOL    HW223010   2.252   6.838   0.555
 7371SOL     OW23011   3.207   4.962   4.173
 7371SOL    HW123012   3.169   5.014   4.097
 7371SOL    HW223013   3.133   4.916   4.222
 7372SOL     OW23014   3.877   0.260   5.922
 7372SOL    HW123015   3.844   0.348   5.955
 7372SOL    HW223016   3.838   0.242   5.831
 7373SOL     OW23017   3.451   0.513   2.939
 7373SOL    HW123018   3.522   0.470   2.882
 7373SOL    HW223019   3.428   0.603   2.902
 7374SOL     OW23020   1.618   3.112   6.194
 7374SOL    HW123021   1.589   3.022   6.160
 7374SOL    HW223022   1.684   3.099   6.268
 7375SOL     OW23023   1.381   0.973   4.640
 7375SOL    HW123024   1.322   1.035   4.589
 7375SOL    HW223025   1.461   0.948   4.585
 7376SOL     OW23026   2.806   2.673   6.844
 7376SOL    HW123027   2.780   2.666   6.940
 7376SOL    HW223028   2.742   2.735   6.797
 7377SOL     OW23029   4.787   4.639   1.958
 7377SOL    HW123030   4.872   4.651   1.907
 7377SOL    HW223031   4.714   4.689   1.913
 7378SOL     OW23032   0.557   1.564   4.740
 7378SOL    HW123033   0.550   1.621   4.822
 7378SOL    HW223034   0.465   1.537   4.710
 7379SOL     OW23035   3.924   1.473   2.337
 7379SOL    HW123036   3.831   1.487   2.302
 7379SOL    HW223037   3.973   1.560   2.337
 7380SOL     OW23038   0.074   3.209   5.890
 7380SOL    HW123039   0.008   3.284   5.892
 7380SOL    HW223040   0.136   3.221   5.812
 7381SOL     OW23041   4.314   2.295   2.236
 7381SOL    HW123042   4.232   2.278   2.181
 7381SOL    HW223043   4.381   2.223   2.217
 7382SOL     OW23044   0.128   4.562   4.522
 7382SOL    HW123045   0.204   4.502   4.498
 7382SOL    HW223046   0.163   4.653   4.543
 7383SOL     OW23047   0.316   6.250   2.936
 7383SOL    HW123048   0.240   6.208   2.986
 7383SOL    HW223049   0.279   6.316   2.870
 7384SOL     OW23050   5.113   6.685   2.204
 7384SOL    HW123051   5.138   6.616   2.272
 7384SOL    HW223052   5.166   6.671   2.121
 7385SOL     OW23053   4.787   6.106   1.808
 7385SOL    HW123054   4.868   6.059   1.843
 7385SOL    HW223055   4.747   6.052   1.734
 7386SOL     OW23056   1.091   2.580   5.522
 7386SOL    HW123057   1.158   2.617   5.586
 7386SOL    HW223058   1.076   2.483   5.542
 7387SOL     OW23059   4.466   5.080   4.309
 7387SOL    HW123060   4.490   5.000   4.363
 7387SOL    HW223061   4.539   5.099   4.243
 7388SOL     OW23062   6.541   4.853   4.365
 7388SOL    HW123063   6.619   4.900   4.323
 7388SOL    HW223064   6.457   4.904   4.347
 7389SOL     OW23065   1.584   3.832   6.874
 7389SOL    HW123066   1.574   3.821   6.973
 7389SOL    HW223067   1.645   3.909   6.855
 7390SOL     OW23068   0.580   1.291   5.827
 7390SOL    HW123069   0.507   1.270   5.762
 7390SOL    HW223070   0.663   1.242   5.802
 7391SOL     OW23071   5.834   3.823   6.065
 7391SOL    HW123072   5.809   3.727   6.052
 7391SOL    HW223073   5.928   3.829   6.097
 7392SOL     OW23074   1.413   4.704   4.784
 7392SOL    HW123075   1.510   4.727   4.781
 7392SOL    HW223076   1.359   4.786   4.764
 7393SOL     OW23077   6.575   5.496   2.557
 7393SOL    HW123078   6.561   5.568   2.625
 7393SOL    HW223079   6.559   5.532   2.466
 7394SOL     OW23080   3.912   3.672   6.504
 7394SOL    HW123081   3.993   3.632   6.547
 7394SOL    HW223082   3.913   3.653   6.406
 7395SOL     OW23083   0.777   6.924   6.735
 7395SOL    HW123084   0.756   6.961   6.826
 7395SOL    HW223085   0.693   6.887   6.695
 7396SOL     OW23086   1.183   0.790   6.229
 7396SOL    HW123087   1.261   0.841   6.264
 7396SOL    HW223088   1.190   0.784   6.129
 7397SOL     OW23089   6.762   4.275   4.726
 7397SOL    HW123090   6.795   4.282   4.820
 7397SOL    HW223091   6.696   4.348   4.708
 7398SOL     OW23092   4.883   4.988   4.383
 7398SOL    HW123093   4.804   5.047   4.400
 7398SOL    HW223094   4.883   4.913   4.448
 7399SOL     OW23095   6.117   3.898   5.837
 7399SOL    HW123096   6.119   3.889   5.936
 7399SOL    HW223097   6.138   3.810   5.794
 7400SOL     OW23098   2.951   4.538   0.315
 7400SOL    HW123099   3.034   4.499   0.274
 7400SOL    HW223100   2.894   4.579   0.243
 7401SOL     OW23101   0.102   1.614   3.977
 7401SOL    HW123102   0.168   1.632   4.049
 7401SOL    HW223103   0.143   1.636   3.888
 7402SOL     OW23104   2.080   7.013   3.813
 7402SOL    HW123105   1.984   6.988   3.829
 7402SOL    HW223106   2.138   6.970   3.883
 7403SOL     OW23107   1.997   3.214   3.443
 7403SOL    HW123108   2.044   3.221   3.531
 7403SOL    HW223109   2.048   3.265   3.374
 7404SOL     OW23110   1.085   0.500   1.095
 7404SOL    HW123111   1.021   0.476   1.168
 7404SOL    HW223112   1.044   0.568   1.035
 7405SOL     OW23113   2.849   5.122   5.079
 7405SOL    HW123114   2.833   5.044   5.140
 7405SOL    HW223115   2.761   5.159   5.049
 7406SOL     OW23116   1.696   3.689   2.249
 7406SOL    HW123117   1.603   3.652   2.250
 7406SOL    HW223118   1.694   3.786   2.224
 7407SOL     OW23119   1.098   6.249   5.256
 7407SOL    HW123120   1.194   6.272   5.237
 7407SOL    HW223121   1.045   6.255   5.172
 7408SOL     OW23122   1.815   4.604   5.580
 7408SOL    HW123123   1.836   4.594   5.483
 7408SOL    HW223124   1.730   4.656   5.591
 7409SOL     OW23125   1.004   0.823   5.061
 7409SOL    HW123126   1.094   0.867   5.054
 7409SOL    HW223127   1.011   0.727   5.035
 7410SOL     OW23128   0.327   5.034   1.307
 7410SOL    HW123129   0.360   5.128   1.295
 7410SOL    HW223130   0.304   4.995   1.218
 7411SOL     OW23131   2.656   6.309   4.958
 7411SOL    HW123132   2.622   6.375   4.890
 7411SOL    HW223133   2.752   6.327   4.976
 7412SOL     OW23134   2.049   0.799   0.795
 7412SOL    HW123135   2.126   0.775   0.855
 7412SOL    HW223136   2.082   0.861   0.723
 7413SOL     OW23137   6.247   3.249   4.740
 7413SOL    HW123138   6.165   3.234   4.684
 7413SOL    HW223139   6.228   3.224   4.835
 7414SOL     OW23140   6.198   6.605   2.132
 7414SOL    HW123141   6.151   6.579   2.048
 7414SOL    HW223142   6.297   6.608   2.115
 7415SOL     OW23143   2.100   3.442   2.951
 7415SOL    HW123144   2.010   3.467   2.914
 7415SOL    HW223145   2.153   3.395   2.880
 7416SOL     OW23146   3.599   1.148   4.295
 7416SOL    HW123147   3.569   1.056   4.272
 7416SOL    HW223148   3.520   1.204   4.318
 7417SOL     OW23149   1.506   6.824   6.184
 7417SOL    HW123150   1.414   6.785   6.194
 7417SOL    HW223151   1.521   6.893   6.255
 7418SOL     OW23152   2.439   4.155   1.474
 7418SOL    HW123153   2.443   4.255   1.478
 7418SOL    HW223154   2.420   4.120   1.566
 7419SOL     OW23155   5.548   1.518   4.988
 7419SOL    HW123156   5.557   1.418   4.986
 7419SOL    HW223157   5.632   1.559   4.954
 7420SOL     OW23158   6.483   6.269   1.767
 7420SOL    HW123159   6.532   6.293   1.851
 7420SOL    HW223160   6.539   6.294   1.688
 7421SOL     OW23161   3.664   4.036   1.597
 7421SOL    HW123162   3.636   4.047   1.501
 7421SOL    HW223163   3.706   4.121   1.629
 7422SOL     OW23164   0.491   3.483   0.867
 7422SOL    HW123165   0.535   3.507   0.954
 7422SOL    HW223166   0.393   3.470   0.882
 7423SOL     OW23167   2.231   5.012   6.182
 7423SOL    HW123168   2.310   5.072   6.189
 7423SOL    HW223169   2.193   5.017   6.090
 7424SOL     OW23170   5.518   1.241   4.701
 7424SOL    HW123171   5.597   1.231   4.639
 7424SOL    HW223172   5.445   1.290   4.654
 7425SOL     OW23173   3.404   4.506   6.256
 7425SOL    HW123174   3.355   4.498   6.169
 7425SOL    HW223175   3.467   4.430   6.267
 7426SOL     OW23176   0.384   1.786   5.955
 7426SOL    HW123177   0.340   1.740   6.032
 7426SOL    HW223178   0.402   1.720   5.882
 7427SOL     OW23179   3.164   6.113   4.923
 7427SOL    HW123180   3.148   6.018   4.897
 7427SOL    HW223181   3.244   6.148   4.875
 7428SOL     OW23182   3.683   2.359   6.180
 7428SOL    HW123183   3.658   2.355   6.083
 7428SOL    HW223184   3.622   2.422   6.227
 7429SOL     OW23185   0.167   0.001   2.212
 7429SOL    HW123186   0.095   0.070   2.212
 7429SOL    HW223187   0.138   6.945   2.266
 7430SOL     OW23188   6.943   3.634   5.276
 7430SOL    HW123189   0.020   3.626   5.266
 7430SOL    HW223190   6.911   3.716   5.229
 7431SOL     OW23191   0.609   3.191   1.834
 7431SOL    HW123192   0.661   3.271   1.803
 7431SOL    HW223193   0.637   3.167   1.927
 7432SOL     OW23194   0.798   6.868   3.956
 7432SOL    HW123195   0.734   6.856   4.032
 7432SOL    HW223196   0.872   6.802   3.964
 7433SOL     OW23197   5.843   5.417   0.731
 7433SOL    HW123198   5.931   5.378   0.760
 7433SOL    HW223199   5.782   5.425   0.810
 7434SOL     OW23200   2.760   2.024   6.736
 7434SOL    HW123201   2.713   2.023   6.824
 7434SOL    HW223202   2.812   1.939   6.725
 7435SOL     OW23203   3.297   6.236   6.531
 7435SOL    HW123204   3.247   6.288   6.462
 7435SOL    HW223205   3.362   6.175   6.486
 7436SOL     OW23206   5.421   3.291   6.807
 7436SOL    HW123207   5.485   3.229   6.853
 7436SOL    HW223208   5.329   3.253   6.810
 7437SOL     OW23209   0.089   5.231   6.161
 7437SOL    HW123210   0.152   5.178   6.105
 7437SOL    HW223211   7.017   5.207   6.138
 7438SOL     OW23212   0.414   4.569   2.261
 7438SOL    HW123213   0.382   4.475   2.279
 7438SOL    HW223214   0.488   4.592   2.324
 7439SOL     OW23215   2.044   0.222   3.997
 7439SOL    HW123216   2.056   0.165   3.916
 7439SOL    HW223217   1.974   0.181   4.056
 7440SOL     OW23218   1.325   2.699   4.551
 7440SOL    HW123219   1.399   2.643   4.588
 7440SOL    HW223220   1.241   2.683   4.604
 7441SOL     OW23221   5.527   1.014   4.166
 7441SOL    HW123222   5.526   0.958   4.249
 7441SOL    HW223223   5.579   1.097   4.183
 7442SOL     OW23224   0.949   1.736   6.535
 7442SOL    HW123225   0.946   1.636   6.526
 7442SOL    HW223226   0.939   1.777   6.445
 7443SOL     OW23227   0.444   1.518   6.229
 7443SOL    HW123228   0.347   1.522   6.203
 7443SOL    HW223229   0.491   1.452   6.170
 7444SOL     OW23230   6.884   3.402   5.979
 7444SOL    HW123231   6.952   3.389   6.052
 7444SOL    HW223232   6.885   3.497   5.949
 7445SOL     OW23233   5.200   1.464   1.539
 7445SOL    HW123234   5.275   1.529   1.534
 7445SOL    HW223235   5.145   1.482   1.620
 7446SOL     OW23236   6.477   3.714   0.870
 7446SOL    HW123237   6.530   3.740   0.951
 7446SOL    HW223238   6.528   3.740   0.787
 7447SOL     OW23239   1.871   4.375   0.512
 7447SOL    HW123240   1.810   4.412   0.442
 7447SOL    HW223241   1.959   4.423   0.509
 7448SOL     OW23242   5.537   0.275   5.405
 7448SOL    HW123243   5.582   0.186   5.409
 7448SOL    HW223244   5.457   0.275   5.465
 7449SOL     OW23245   4.823   2.286   1.940
 7449SOL    HW123246   4.825   2.207   1.879
 7449SOL    HW223247   4.770   2.264   2.022
 7450SOL     OW23248   4.528   2.304   2.916
 7450SOL    HW123249   4.547   2.343   2.826
 7450SOL    HW223250   4.453   2.238   2.910
 7451SOL     OW23251   1.328   1.345   5.161
 7451SOL    HW123252   1.248   1.313   5.112
 7451SOL    HW223253   1.387   1.268   5.184
 7452SOL     OW23254   1.843   0.402   5.192
 7452SOL    HW123255   1.816   0.485   5.240
 7452SOL    HW223256   1.844   0.419   5.094
 7453SOL     OW23257   5.874   6.829   4.936
 7453SOL    HW123258   5.874   6.859   4.841
 7453SOL    HW223259   5.796   6.869   4.984
 7454SOL     OW23260   0.707   3.725   1.781
 7454SOL    HW123261   0.619   3.768   1.761
 7454SOL    HW223262   0.781   3.781   1.743
 7455SOL     OW23263   5.009   2.150   0.750
 7455SOL    HW123264   4.964   2.083   0.690
 7455SOL    HW223265   5.105   2.124   0.761
 7456SOL     OW23266   1.402   3.176   4.503
 7456SOL    HW123267   1.438   3.230   4.579
 7456SOL    HW223268   1.317   3.217   4.471
 7457SOL     OW23269   5.427   1.040   5.285
 7457SOL    HW123270   5.402   1.056   5.190
 7457SOL    HW223271   5.454   1.126   5.328
 7458SOL     OW23272   2.897   0.155   0.074
 7458SOL    HW123273   2.953   0.192   7.022
 7458SOL    HW223274   2.807   0.199   0.073
 7459SOL     OW23275   4.975   0.022   5.694
 7459SOL    HW123276   4.923   0.075   5.627
 7459SOL    HW223277   5.070   0.013   5.662
 7460SOL     OW23278   1.550   4.589   0.601
 7460SOL    HW123279   1.574   4.494   0.622
 7460SOL    HW223280   1.451   4.601   0.610
 7461SOL     OW23281   5.451   1.193   5.831
 7461SOL    HW123282   5.375   1.168   5.771
 7461SOL    HW223283   5.431   1.163   5.924
 7462SOL     OW23284   2.192   1.997   2.187
 7462SOL    HW123285   2.257   2.050   2.133
 7462SOL    HW223286   2.227   1.905   2.200
 7463SOL     OW23287   3.929   3.339   1.765
 7463SOL    HW123288   3.831   3.346   1.747
 7463SOL    HW223289   3.944   3.325   1.862
 7464SOL     OW23290   4.237   6.159   0.746
 7464SOL    HW123291   4.149   6.201   0.725
 7464SOL    HW223292   4.255   6.085   0.681
 7465SOL     OW23293   2.152   0.063   1.422
 7465SOL    HW123294   2.223   0.079   1.492
 7465SOL    HW223295   2.074   0.017   1.464
 7466SOL     OW23296   0.313   0.328   6.322
 7466SOL    HW123297   0.359   0.412   6.348
 7466SOL    HW223298   0.332   0.307   6.226
 7467SOL     OW23299   6.766   2.295   1.154
 7467SOL    HW123300   6.759   2.293   1.054
 7467SOL    HW223301   6.787   2.204   1.188
 7468SOL     OW23302   5.416   1.599   2.692
 7468SOL    HW123303   5.452   1.639   2.608
 7468SOL    HW223304   5.489   1.547   2.737
 7469SOL     OW23305   1.092   0.004   6.341
 7469SOL    HW123306   1.033   0.009   6.422
 7469SOL    HW223307   1.055   0.063   6.269
 7470SOL     OW23308   0.351   1.802   2.416
 7470SOL    HW123309   0.435   1.848   2.385
 7470SOL    HW223310   0.279   1.870   2.429
 7471SOL     OW23311   6.611   6.935   5.185
 7471SOL    HW123312   6.692   6.948   5.127
 7471SOL    HW223313   6.551   7.014   5.175
 7472SOL     OW23314   3.892   0.168   4.539
 7472SOL    HW123315   3.810   0.116   4.512
 7472SOL    HW223316   3.870   0.265   4.544
 7473SOL     OW23317   6.763   3.447   4.421
 7473SOL    HW123318   6.815   3.530   4.403
 7473SOL    HW223319   6.789   3.377   4.355
 7474SOL     OW23320   3.312   0.673   4.100
 7474SOL    HW123321   3.369   0.674   4.018
 7474SOL    HW223322   3.371   0.670   4.181
 7475SOL     OW23323   4.116   0.279   1.603
 7475SOL    HW123324   4.032   0.333   1.599
 7475SOL    HW223325   4.124   0.235   1.692
 7476SOL     OW23326   4.730   5.913   4.499
 7476SOL    HW123327   4.748   5.957   4.587
 7476SOL    HW223328   4.635   5.930   4.472
 7477SOL     OW23329   3.966   1.014   4.126
 7477SOL    HW123330   3.998   0.990   4.035
 7477SOL    HW223331   4.037   1.068   4.172
 7478SOL     OW23332   2.712   3.687   6.352
 7478SOL    HW123333   2.641   3.621   6.376
 7478SOL    HW223334   2.790   3.677   6.414
 7479SOL     OW23335   4.559   1.305   0.283
 7479SOL    HW123336   4.650   1.310   0.243
 7479SOL    HW223337   4.493   1.349   0.222
 7480SOL     OW23338   5.773   5.884   1.560
 7480SOL    HW123339   5.753   5.905   1.656
 7480SOL    HW223340   5.721   5.945   1.500
 7481SOL     OW23341   5.170   4.861   0.698
 7481SOL    HW123342   5.268   4.847   0.686
 7481SOL    HW223343   5.154   4.954   0.732
 7482SOL     OW23344   4.542   0.976   2.647
 7482SOL    HW123345   4.536   0.887   2.603
 7482SOL    HW223346   4.512   1.047   2.583
 7483SOL     OW23347   3.306   2.056   4.493
 7483SOL    HW123348   3.382   2.095   4.545
 7483SOL    HW223349   3.334   1.969   4.453
 7484SOL     OW23350   1.817   6.702   1.562
 7484SOL    HW123351   1.730   6.690   1.610
 7484SOL    HW223352   1.830   6.629   1.496
 7485SOL     OW23353   3.206   6.024   5.868
 7485SOL    HW123354   3.294   5.981   5.846
 7485SOL    HW223355   3.189   6.015   5.966
 7486SOL     OW23356   3.157   6.462   5.264
 7486SOL    HW123357   3.170   6.525   5.188
 7486SOL    HW223358   3.160   6.513   5.350
 7487SOL     OW23359   2.773   6.453   3.258
 7487SOL    HW123360   2.682   6.477   3.223
 7487SOL    HW223361   2.799   6.363   3.225
 7488SOL     OW23362   3.427   0.013   5.821
 7488SOL    HW123363   3.471   6.953   5.856
 7488SOL    HW223364   3.448   0.024   5.724
 7489SOL     OW23365   4.448   1.933   4.268
 7489SOL    HW123366   4.406   1.843   4.265
 7489SOL    HW223367   4.403   1.994   4.203
 7490SOL     OW23368   0.241   0.596   0.540
 7490SOL    HW123369   0.162   0.605   0.480
 7490SOL    HW223370   0.238   0.668   0.610
 7491SOL     OW23371   0.033   5.835   6.499
 7491SOL    HW123372   0.047   5.773   6.576
 7491SOL    HW223373   6.963   5.823   6.462
 7492SOL     OW23374   1.866   2.648   5.465
 7492SOL    HW123375   1.772   2.683   5.458
 7492SOL    HW223376   1.889   2.599   5.381
 7493SOL     OW23377   5.771   4.368   6.384
 7493SOL    HW123378   5.731   4.360   6.476
 7493SOL    HW223379   5.860   4.322   6.383
 7494SOL     OW23380   5.589   1.133   2.139
 7494SOL    HW123381   5.689   1.127   2.140
 7494SOL    HW223382   5.557   1.150   2.232
 7495SOL     OW23383   2.321   1.879   0.712
 7495SOL    HW123384   2.355   1.879   0.618
 7495SOL    HW223385   2.222   1.891   0.712
 7496SOL     OW23386   0.937   4.890   6.128
 7496SOL    HW123387   1.013   4.926   6.183
 7496SOL    HW223388   0.967   4.877   6.034
 7497SOL     OW23389   2.735   4.954   2.152
 7497SOL    HW123390   2.828   4.981   2.179
 7497SOL    HW223391   2.733   4.938   2.053
 7498SOL     OW23392   2.744   1.139   4.755
 7498SOL    HW123393   2.707   1.062   4.807
 7498SOL    HW223394   2.699   1.144   4.666
 7499SOL     OW23395   5.399   6.767   4.460
 7499SOL    HW123396   5.320   6.805   4.411
 7499SOL    HW223397   5.372   6.684   4.509
 7500SOL     OW23398   4.137   5.886   2.558
 7500SOL    HW123399   4.086   5.892   2.643
 7500SOL    HW223400   4.226   5.930   2.569
 7501SOL     OW23401   1.100   3.170   4.029
 7501SOL    HW123402   1.183   3.136   4.073
 7501SOL    HW223403   1.026   3.105   4.045
 7502SOL     OW23404   1.867   0.800   5.201
 7502SOL    HW123405   1.961   0.783   5.174
 7502SOL    HW223406   1.842   0.740   5.277
 7503SOL     OW23407   2.902   0.938   6.519
 7503SOL    HW123408   2.870   1.008   6.455
 7503SOL    HW223409   2.921   0.979   6.608
 7504SOL     OW23410   4.148   6.640   3.533
 7504SOL    HW123411   4.063   6.586   3.540
 7504SOL    HW223412   4.225   6.585   3.564
 7505SOL     OW23413   2.128   0.815   5.405
 7505SOL    HW123414   2.058   0.807   5.476
 7505SOL    HW223415   2.191   0.738   5.411
 7506SOL     OW23416   3.407   0.763   2.790
 7506SOL    HW123417   3.502   0.793   2.775
 7506SOL    HW223418   3.363   0.751   2.701
 7507SOL     OW23419   0.437   5.718   6.419
 7507SOL    HW123420   0.391   5.680   6.339
 7507SOL    HW223421   0.395   5.681   6.502
 7508SOL     OW23422   5.685   6.572   3.268
 7508SOL    HW123423   5.681   6.572   3.368
 7508SOL    HW223424   5.759   6.633   3.239
 7509SOL     OW23425   5.273   4.021   6.826
 7509SOL    HW123426   5.177   3.995   6.820
 7509SOL    HW223427   5.306   4.005   6.919
 7510SOL     OW23428   3.283   4.139   4.769
 7510SOL    HW123429   3.270   4.105   4.862
 7510SOL    HW223430   3.251   4.234   4.764
 7511SOL     OW23431   1.933   0.254   2.512
 7511SOL    HW123432   1.960   0.232   2.418
 7511SOL    HW223433   1.855   0.316   2.511
 7512SOL     OW23434   2.613   3.349   1.425
 7512SOL    HW123435   2.563   3.341   1.511
 7512SOL    HW223436   2.671   3.431   1.427
 7513SOL     OW23437   1.108   2.708   5.899
 7513SOL    HW123438   1.107   2.796   5.947
 7513SOL    HW223439   1.167   2.714   5.818
 7514SOL     OW23440   2.981   5.975   1.696
 7514SOL    HW123441   3.034   6.014   1.772
 7514SOL    HW223442   2.906   6.037   1.673
 7515SOL     OW23443   0.474   6.994   2.705
 7515SOL    HW123444   0.493   6.966   2.799
 7515SOL    HW223445   0.394   0.031   2.703
 7516SOL     OW23446   0.053   6.744   4.300
 7516SOL    HW123447   0.032   6.654   4.338
 7516SOL    HW223448   0.090   6.734   4.207
 7517SOL     OW23449   0.014   3.673   1.330
 7517SOL    HW123450   0.005   3.573   1.322
 7517SOL    HW223451   0.041   3.711   1.242
 7518SOL     OW23452   4.153   5.699   3.530
 7518SOL    HW123453   4.142   5.608   3.490
 7518SOL    HW223454   4.065   5.744   3.535
 7519SOL     OW23455   1.464   6.868   4.993
 7519SOL    HW123456   1.450   6.944   4.929
 7519SOL    HW223457   1.377   6.845   5.036
 7520SOL     OW23458   1.628   6.855   2.993
 7520SOL    HW123459   1.677   6.786   2.939
 7520SOL    HW223460   1.535   6.824   3.010
 7521SOL     OW23461   4.471   4.321   5.261
 7521SOL    HW123462   4.483   4.320   5.360
 7521SOL    HW223463   4.376   4.341   5.239
 7522SOL     OW23464   2.205   1.259   0.037
 7522SOL    HW123465   2.247   1.169   0.050
 7522SOL    HW223466   2.276   1.329   0.031
 7523SOL     OW23467   5.807   6.941   5.614
 7523SOL    HW123468   5.855   6.936   5.526
 7523SOL    HW223469   5.713   6.911   5.602
 7524SOL     OW23470   0.106   1.716   5.616
 7524SOL    HW123471   0.159   1.800   5.600
 7524SOL    HW223472   0.069   1.718   5.709
 7525SOL     OW23473   2.091   0.249   0.349
 7525SOL    HW123474   2.160   0.180   0.325
 7525SOL    HW223475   2.015   0.204   0.396
 7526SOL     OW23476   3.419   3.239   4.716
 7526SOL    HW123477   3.390   3.159   4.769
 7526SOL    HW223478   3.513   3.226   4.686
 7527SOL     OW23479   5.280   3.940   2.726
 7527SOL    HW123480   5.187   3.970   2.704
 7527SOL    HW223481   5.306   3.973   2.816
 7528SOL     OW23482   4.789   2.755   0.730
 7528SOL    HW123483   4.874   2.705   0.749
 7528SOL    HW223484   4.757   2.799   0.814
 7529SOL     OW23485   4.528   1.155   4.095
 7529SOL    HW123486   4.542   1.229   4.161
 7529SOL    HW223487   4.617   1.118   4.067
 7530SOL     OW23488   0.279   3.213   2.576
 7530SOL    HW123489   0.335   3.255   2.648
 7530SOL    HW223490   0.338   3.163   2.513
 7531SOL     OW23491   4.056   1.906   3.541
 7531SOL    HW123492   4.104   1.991   3.519
 7531SOL    HW223493   4.009   1.917   3.629
 7532SOL     OW23494   5.620   6.100   2.100
 7532SOL    HW123495   5.539   6.059   2.142
 7532SOL    HW223496   5.622   6.198   2.121
 7533SOL     OW23497   3.072   1.272   4.083
 7533SOL    HW123498   3.170   1.257   4.069
 7533SOL    HW223499   3.033   1.316   4.002
 7534SOL     OW23500   3.893   6.398   5.533
 7534SOL    HW123501   3.967   6.359   5.589
 7534SOL    HW223502   3.805   6.368   5.569
 7535SOL     OW23503   2.846   2.094   5.233
 7535SOL    HW123504   2.859   2.006   5.187
 7535SOL    HW223505   2.865   2.168   5.169
 7536SOL     OW23506   4.489   5.338   4.964
 7536SOL    HW123507   4.522   5.246   4.942
 7536SOL    HW223508   4.542   5.405   4.913
 7537SOL     OW23509   1.976   4.177   4.665
 7537SOL    HW123510   2.022   4.097   4.705
 7537SOL    HW223511   1.976   4.169   4.565
 7538SOL     OW23512   3.267   2.925   2.928
 7538SOL    HW123513   3.348   2.938   2.871
 7538SOL    HW223514   3.188   2.968   2.883
 7539SOL     OW23515   1.753   2.965   5.268
 7539SOL    HW123516   1.771   3.013   5.182
 7539SOL    HW223517   1.838   2.925   5.303
 7540SOL     OW23518   2.512   0.925   0.008
 7540SOL    HW123519   2.502   0.946   0.106
 7540SOL    HW223520   2.569   0.994   6.987
 7541SOL     OW23521   6.285   2.763   5.707
 7541SOL    HW123522   6.352   2.761   5.633
 7541SOL    HW223523   6.249   2.855   5.717
 7542SOL     OW23524   1.191   0.066   5.829
 7542SOL    HW123525   1.124   0.076   5.902
 7542SOL    HW223526   1.263   0.003   5.858
 7543SOL     OW23527   4.340   2.823   0.408
 7543SOL    HW123528   4.403   2.900   0.401
 7543SOL    HW223529   4.357   2.774   0.493
 7544SOL     OW23530   1.122   1.957   2.868
 7544SOL    HW123531   1.087   1.974   2.960
 7544SOL    HW223532   1.052   1.910   2.814
 7545SOL     OW23533   4.663   6.933   2.333
 7545SOL    HW123534   4.621   6.917   2.244
 7545SOL    HW223535   4.669   6.847   2.384
 7546SOL     OW23536   5.056   1.001   0.207
 7546SOL    HW123537   4.981   1.026   0.268
 7546SOL    HW223538   5.143   1.033   0.246
 7547SOL     OW23539   3.860   0.793   0.027
 7547SOL    HW123540   3.845   0.860   6.977
 7547SOL    HW223541   3.907   0.713   7.012
 7548SOL     OW23542   2.376   1.920   0.981
 7548SOL    HW123543   2.311   1.857   1.023
 7548SOL    HW223544   2.364   1.918   0.882
 7549SOL     OW23545   5.840   1.395   2.707
 7549SOL    HW123546   5.791   1.453   2.643
 7549SOL    HW223547   5.926   1.364   2.666
 7550SOL     OW23548   1.632   5.528   2.382
 7550SOL    HW123549   1.561   5.597   2.372
 7550SOL    HW223550   1.626   5.486   2.473
 7551SOL     OW23551   4.230   3.380   6.909
 7551SOL    HW123552   4.227   3.311   6.837
 7551SOL    HW223553   4.325   3.404   6.929
 7552SOL     OW23554   2.260   5.636   4.541
 7552SOL    HW123555   2.305   5.681   4.617
 7552SOL    HW223556   2.259   5.537   4.556
 7553SOL     OW23557   4.000   4.712   5.899
 7553SOL    HW123558   4.012   4.810   5.886
 7553SOL    HW223559   3.939   4.676   5.829
 7554SOL     OW23560   5.031   1.844   0.861
 7554SOL    HW123561   5.100   1.913   0.840
 7554SOL    HW223562   4.953   1.855   0.800
 7555SOL     OW23563   0.682   5.364   5.435
 7555SOL    HW123564   0.682   5.287   5.499
 7555SOL    HW223565   0.683   5.450   5.486
 7556SOL     OW23566   0.720   2.992   5.127
 7556SOL    HW123567   0.740   2.951   5.216
 7556SOL    HW223568   0.621   3.005   5.119
 7557SOL     OW23569   4.973   4.336   6.155
 7557SOL    HW123570   4.978   4.320   6.254
 7557SOL    HW223571   4.918   4.418   6.137
 7558SOL     OW23572   2.152   2.263   4.029
 7558SOL    HW123573   2.161   2.340   4.092
 7558SOL    HW223574   2.239   2.246   3.984
 7559SOL     OW23575   6.055   5.123   1.075
 7559SOL    HW123576   6.104   5.037   1.060
 7559SOL    HW223577   6.119   5.193   1.105
 7560SOL     OW23578   4.750   0.054   0.898
 7560SOL    HW123579   4.710   0.118   0.964
 7560SOL    HW223580   4.685   7.002   0.880
 7561SOL     OW23581   0.862   3.273   0.690
 7561SOL    HW123582   0.914   3.346   0.736
 7561SOL    HW223583   0.767   3.276   0.721
 7562SOL     OW23584   5.735   6.656   4.670
 7562SOL    HW123585   5.726   6.750   4.638
 7562SOL    HW223586   5.822   6.618   4.638
 7563SOL     OW23587   2.730   0.629   1.716
 7563SOL    HW123588   2.767   0.646   1.807
 7563SOL    HW223589   2.759   0.540   1.683
 7564SOL     OW23590   5.598   6.790   2.860
 7564SOL    HW123591   5.505   6.796   2.824
 7564SOL    HW223592   5.640   6.704   2.832
 7565SOL     OW23593   5.139   5.230   6.409
 7565SOL    HW123594   5.238   5.237   6.409
 7565SOL    HW223595   5.104   5.258   6.319
 7566SOL     OW23596   6.993   5.131   4.059
 7566SOL    HW123597   0.009   5.180   4.138
 7566SOL    HW223598   6.894   5.146   4.056
 7567SOL     OW23599   2.669   4.261   6.144
 7567SOL    HW123600   2.622   4.217   6.220
 7567SOL    HW223601   2.731   4.197   6.101
 7568SOL     OW23602   5.612   5.799   3.845
 7568SOL    HW123603   5.605   5.791   3.746
 7568SOL    HW223604   5.611   5.896   3.871
 7569SOL     OW23605   4.121   5.946   6.726
 7569SOL    HW123606   4.044   5.950   6.789
 7569SOL    HW223607   4.147   5.851   6.709
 7570SOL     OW23608   5.788   4.199   4.567
 7570SOL    HW123609   5.809   4.162   4.476
 7570SOL    HW223610   5.831   4.288   4.577
 7571SOL     OW23611   5.513   3.701   2.028
 7571SOL    HW123612   5.414   3.712   2.023
 7571SOL    HW223613   5.555   3.732   1.943
 7572SOL     OW23614   4.920   0.203   3.800
 7572SOL    HW123615   5.006   0.179   3.846
 7572SOL    HW223616   4.926   0.297   3.768
 7573SOL     OW23617   6.994   5.871   4.429
 7573SOL    HW123618   6.898   5.892   4.410
 7573SOL    HW223619   6.999   5.799   4.498
 7574SOL     OW23620   6.415   1.162   3.454
 7574SOL    HW123621   6.387   1.129   3.545
 7574SOL    HW223622   6.480   1.098   3.414
 7575SOL     OW23623   4.390   1.244   5.916
 7575SOL    HW123624   4.384   1.189   5.833
 7575SOL    HW223625   4.319   1.215   5.980
 7576SOL     OW23626   5.775   5.110   0.121
 7576SOL    HW123627   5.678   5.113   0.145
 7576SOL    HW223628   5.819   5.031   0.164
 7577SOL     OW23629   6.559   0.441   4.505
 7577SOL    HW123630   6.545   0.398   4.594
 7577SOL    HW223631   6.594   0.534   4.518
 7578SOL     OW23632   2.166   6.516   4.545
 7578SOL    HW123633   2.122   6.429   4.525
 7578SOL    HW223634   2.099   6.590   4.539
 7579SOL     OW23635   4.179   2.261   2.478
 7579SOL    HW123636   4.092   2.219   2.455
 7579SOL    HW223637   4.231   2.278   2.394
 7580SOL     OW23638   1.328   3.721   2.979
 7580SOL    HW123639   1.245   3.674   3.010
 7580SOL    HW223640   1.406   3.688   3.033
 7581SOL     OW23641   5.430   1.697   0.741
 7581SOL    HW123642   5.357   1.704   0.673
 7581SOL    HW223643   5.426   1.775   0.803
 7582SOL     OW23644   3.850   1.618   0.538
 7582SOL    HW123645   3.807   1.542   0.587
 7582SOL    HW223646   3.814   1.705   0.572
 7583SOL     OW23647   5.780   4.198   1.797
 7583SOL    HW123648   5.761   4.292   1.769
 7583SOL    HW223649   5.722   4.175   1.875
 7584SOL     OW23650   2.808   6.772   1.007
 7584SOL    HW123651   2.806   6.864   0.966
 7584SOL    HW223652   2.799   6.780   1.106
 7585SOL     OW23653   1.321   4.099   6.670
 7585SOL    HW123654   1.266   4.061   6.596
 7585SOL    HW223655   1.301   4.051   6.756
 7586SOL     OW23656   2.928   0.058   2.606
 7586SOL    HW123657   2.957   0.011   2.690
 7586SOL    HW223658   3.008   0.079   2.550
 7587SOL     OW23659   2.002   1.705   0.026
 7587SOL    HW123660   1.984   1.707   0.125
 7587SOL    HW223661   2.094   1.670   0.010
 7588SOL     OW23662   0.713   5.319   2.038
 7588SOL    HW123663   0.661   5.390   2.086
 7588SOL    HW223664   0.811   5.336   2.051
 7589SOL     OW23665   5.859   6.135   0.212
 7589SOL    HW123666   5.777   6.079   0.224
 7589SOL    HW223667   5.872   6.194   0.291
 7590SOL     OW23668   2.798   1.800   5.488
 7590SOL    HW123669   2.725   1.851   5.534
 7590SOL    HW223670   2.878   1.859   5.479
 7591SOL     OW23671   0.159   4.846   0.559
 7591SOL    HW123672   0.078   4.894   0.593
 7591SOL    HW223673   0.202   4.901   0.488
 7592SOL     OW23674   6.437   4.927   6.972
 7592SOL    HW123675   6.380   4.847   6.952
 7592SOL    HW223676   6.447   4.983   6.890
 7593SOL     OW23677   5.638   2.831   0.137
 7593SOL    HW123678   5.673   2.813   0.229
 7593SOL    HW223679   5.575   2.908   0.140
 7594SOL     OW23680   0.749   4.867   3.246
 7594SOL    HW123681   0.784   4.811   3.170
 7594SOL    HW223682   0.783   4.830   3.333
 7595SOL     OW23683   0.181   3.549   6.338
 7595SOL    HW123684   0.269   3.588   6.310
 7595SOL    HW223685   0.166   3.568   6.435
 7596SOL     OW23686   4.966   4.891   2.719
 7596SOL    HW123687   4.929   4.915   2.809
 7596SOL    HW223688   4.890   4.879   2.655
 7597SOL     OW23689   3.147   5.496   2.419
 7597SOL    HW123690   3.121   5.570   2.358
 7597SOL    HW223691   3.237   5.460   2.393
 7598SOL     OW23692   0.048   0.538   2.664
 7598SOL    HW123693   0.093   0.607   2.721
 7598SOL    HW223694   0.102   0.521   2.582
 7599SOL     OW23695   6.112   1.463   3.270
 7599SOL    HW123696   6.049   1.420   3.335
 7599SOL    HW223697   6.087   1.558   3.256
 7600SOL     OW23698   1.896   0.192   2.074
 7600SOL    HW123699   1.980   0.190   2.128
 7600SOL    HW223700   1.870   0.287   2.057
 7601SOL     OW23701   2.276   5.743   3.513
 7601SOL    HW123702   2.325   5.661   3.541
 7601SOL    HW223703   2.252   5.797   3.593
 7602SOL     OW23704   2.305   4.413   4.819
 7602SOL    HW123705   2.304   4.366   4.731
 7602SOL    HW223706   2.383   4.475   4.822
 7603SOL     OW23707   1.217   6.147   6.719
 7603SOL    HW123708   1.221   6.047   6.724
 7603SOL    HW223709   1.203   6.175   6.624
 7604SOL     OW23710   3.748   5.991   4.034
 7604SOL    HW123711   3.737   5.972   3.936
 7604SOL    HW223712   3.658   6.001   4.076
 7605SOL     OW23713   1.628   5.373   0.034
 7605SOL    HW123714   1.633   5.348   0.130
 7605SOL    HW223715   1.695   5.321   7.004
 7606SOL     OW23716   0.503   2.897   2.206
 7606SOL    HW123717   0.449   2.909   2.123
 7606SOL    HW223718   0.600   2.907   2.185
 7607SOL     OW23719   4.696   6.969   0.281
 7607SOL    HW123720   4.732   7.002   0.369
 7607SOL    HW223721   4.746   7.013   0.206
 7608SOL     OW23722   3.098   3.919   3.131
 7608SOL    HW123723   3.022   3.880   3.182
 7608SOL    HW223724   3.160   3.846   3.102
 7609SOL     OW23725   0.005   3.564   3.809
 7609SOL    HW123726   0.056   3.498   3.864
 7609SOL    HW223727   0.062   3.594   3.733
 7610SOL     OW23728   6.004   0.649   1.163
 7610SOL    HW123729   5.969   0.691   1.079
 7610SOL    HW223730   6.091   0.691   1.187
 7611SOL     OW23731   1.301   1.754   6.987
 7611SOL    HW123732   1.243   1.831   6.958
 7611SOL    HW223733   1.397   1.777   6.972
 7612SOL     OW23734   3.862   1.183   4.338
 7612SOL    HW123735   3.897   1.104   4.288
 7612SOL    HW223736   3.762   1.178   4.344
 7613SOL     OW23737   4.764   1.663   1.450
 7613SOL    HW123738   4.686   1.725   1.441
 7613SOL    HW223739   4.735   1.570   1.429
 7614SOL     OW23740   3.938   2.215   1.790
 7614SOL    HW123741   3.982   2.296   1.751
 7614SOL    HW223742   3.860   2.243   1.846
 7615SOL     OW23743   4.801   5.024   6.378
 7615SOL    HW123744   4.766   5.067   6.461
 7615SOL    HW223745   4.841   5.093   6.318
 7616SOL     OW23746   0.729   4.389   4.485
 7616SOL    HW123747   0.658   4.326   4.515
 7616SOL    HW223748   0.803   4.337   4.443
 7617SOL     OW23749   3.073   5.858   4.009
 7617SOL    HW123750   3.015   5.830   3.932
 7617SOL    HW223751   3.167   5.828   3.992
 7618SOL     OW23752   1.409   2.219   6.201
 7618SOL    HW123753   1.399   2.225   6.102
 7618SOL    HW223754   1.413   2.123   6.228
 7619SOL     OW23755   5.854   3.349   5.727
 7619SOL    HW123756   5.853   3.260   5.771
 7619SOL    HW223757   5.774   3.402   5.755
 7620SOL     OW23758   3.789   0.360   0.832
 7620SOL    HW123759   3.829   0.305   0.906
 7620SOL    HW223760   3.860   0.416   0.789
 7621SOL     OW23761   0.968   0.635   0.029
 7621SOL    HW123762   0.934   0.544   0.051
 7621SOL    HW223763   0.923   0.667   6.968
 7622SOL     OW23764   5.106   2.548   1.608
 7622SOL    HW123765   5.130   2.570   1.703
 7622SOL    HW223766   5.043   2.617   1.572
 7623SOL     OW23767   4.646   5.781   6.179
 7623SOL    HW123768   4.655   5.752   6.275
 7623SOL    HW223769   4.724   5.840   6.155
 7624SOL     OW23770   0.098   2.214   3.663
 7624SOL    HW123771   0.143   2.271   3.594
 7624SOL    HW223772   0.008   2.187   3.629
 7625SOL     OW23773   5.607   1.597   0.556
 7625SOL    HW123774   5.637   1.510   0.595
 7625SOL    HW223775   5.544   1.642   0.620
 7626SOL     OW23776   0.115   6.797   5.244
 7626SOL    HW123777   0.160   6.814   5.157
 7626SOL    HW223778   0.165   6.726   5.294
 7627SOL     OW23779   6.336   3.480   0.727
 7627SOL    HW123780   6.392   3.517   0.802
 7627SOL    HW223781   6.297   3.555   0.674
 7628SOL     OW23782   2.697   0.801   1.510
 7628SOL    HW123783   2.655   0.885   1.546
 7628SOL    HW223784   2.704   0.734   1.583
 7629SOL     OW23785   6.489   6.134   2.176
 7629SOL    HW123786   6.423   6.093   2.112
 7629SOL    HW223787   6.529   6.062   2.233
 7630SOL     OW23788   6.163   6.808   2.303
 7630SOL    HW123789   6.172   6.764   2.392
 7630SOL    HW223790   6.189   6.743   2.231
 7631SOL     OW23791   1.195   1.959   5.181
 7631SOL    HW123792   1.224   2.039   5.130
 7631SOL    HW223793   1.249   1.950   5.265
 7632SOL     OW23794   4.166   2.079   1.259
 7632SOL    HW123795   4.108   2.051   1.336
 7632SOL    HW223796   4.110   2.121   1.188
 7633SOL     OW23797   5.620   3.303   0.344
 7633SOL    HW123798   5.608   3.250   0.428
 7633SOL    HW223799   5.692   3.370   0.356
 7634SOL     OW23800   1.719   1.029   2.257
 7634SOL    HW123801   1.647   0.967   2.288
 7634SOL    HW223802   1.790   1.036   2.327
 7635SOL     OW23803   2.632   5.444   5.447
 7635SOL    HW123804   2.639   5.347   5.471
 7635SOL    HW223805   2.671   5.499   5.521
 7636SOL     OW23806   1.298   1.369   3.862
 7636SOL    HW123807   1.339   1.429   3.793
 7636SOL    HW223808   1.370   1.319   3.910
 7637SOL     OW23809   1.815   6.888   3.840
 7637SOL    HW123810   1.772   6.836   3.767
 7637SOL    HW223811   1.805   6.838   3.927
 7638SOL     OW23812   5.664   5.610   1.492
 7638SOL    HW123813   5.689   5.518   1.523
 7638SOL    HW223814   5.700   5.677   1.557
 7639SOL     OW23815   1.017   2.062   6.468
 7639SOL    HW123816   1.099   2.032   6.517
 7639SOL    HW223817   1.001   2.000   6.390
 7640SOL     OW23818   2.310   2.160   0.603
 7640SOL    HW123819   2.244   2.085   0.604
 7640SOL    HW223820   2.317   2.199   0.695
 7641SOL     OW23821   0.778   4.386   2.013
 7641SOL    HW123822   0.702   4.450   1.999
 7641SOL    HW223823   0.808   4.351   1.925
 7642SOL     OW23824   3.060   1.748   2.729
 7642SOL    HW123825   2.961   1.755   2.717
 7642SOL    HW223826   3.082   1.660   2.773
 7643SOL     OW23827   4.768   2.363   3.563
 7643SOL    HW123828   4.692   2.423   3.535
 7643SOL    HW223829   4.812   2.401   3.644
 7644SOL     OW23830   6.224   2.095   2.463
 7644SOL    HW123831   6.189   2.186   2.484
 7644SOL    HW223832   6.150   2.029   2.465
 7645SOL     OW23833   4.776   5.282   6.511
 7645SOL    HW123834   4.804   5.366   6.465
 7645SOL    HW223835   4.741   5.305   6.602
 7646SOL     OW23836   1.561   2.187   2.171
 7646SOL    HW123837   1.605   2.277   2.161
 7646SOL    HW223838   1.597   2.141   2.251
 7647SOL     OW23839   0.710   3.451   1.777
 7647SOL    HW123840   0.778   3.441   1.850
 7647SOL    HW223841   0.672   3.543   1.780
 7648SOL     OW23842   4.616   2.031   3.556
 7648SOL    HW123843   4.684   2.062   3.622
 7648SOL    HW223844   4.620   2.089   3.474
 7649SOL     OW23845   0.635   0.484   2.180
 7649SOL    HW123846   0.658   0.448   2.270
 7649SOL    HW223847   0.568   0.425   2.136
 7650SOL     OW23848   6.174   2.767   1.937
 7650SOL    HW123849   6.202   2.839   1.874
 7650SOL    HW223850   6.254   2.719   1.972
 7651SOL     OW23851   2.270   0.019   6.905
 7651SOL    HW123852   2.237   6.997   6.988
 7651SOL    HW223853   2.200   0.012   6.834
 7652SOL     OW23854   6.003   3.508   4.311
 7652SOL    HW123855   5.956   3.593   4.335
 7652SOL    HW223856   6.080   3.529   4.250
 7653SOL     OW23857   2.114   0.972   0.583
 7653SOL    HW123858   2.046   0.986   0.511
 7653SOL    HW223859   2.172   1.054   0.590
 7654SOL     OW23860   4.730   2.182   3.346
 7654SOL    HW123861   4.761   2.251   3.412
 7654SOL    HW223862   4.711   2.225   3.258
 7655SOL     OW23863   4.151   0.300   3.892
 7655SOL    HW123864   4.138   0.307   3.991
 7655SOL    HW223865   4.166   0.204   3.868
 7656SOL     OW23866   0.412   5.826   5.955
 7656SOL    HW123867   0.482   5.797   6.019
 7656SOL    HW223868   0.327   5.777   5.973
 7657SOL     OW23869   3.024   2.108   2.939
 7657SOL    HW123870   2.947   2.133   2.880
 7657SOL    HW223871   3.036   2.009   2.938
 7658SOL     OW23872   4.747   0.646   6.229
 7658SOL    HW123873   4.802   0.726   6.253
 7658SOL    HW223874   4.721   0.651   6.132
 7659SOL     OW23875   5.619   6.969   0.599
 7659SOL    HW123876   5.638   6.954   0.502
 7659SOL    HW223877   5.656   6.892   0.652
 7660SOL     OW23878   5.546   6.095   3.720
 7660SOL    HW123879   5.633   6.126   3.681
 7660SOL    HW223880   5.493   6.048   3.649
 7661SOL     OW23881   6.012   2.162   4.555
 7661SOL    HW123882   5.918   2.166   4.590
 7661SOL    HW223883   6.072   2.124   4.625
 7662SOL     OW23884   1.873   2.567   1.983
 7662SOL    HW123885   1.863   2.477   2.026
 7662SOL    HW223886   1.856   2.559   1.885
 7663SOL     OW23887   6.672   5.431   6.698
 7663SOL    HW123888   6.693   5.482   6.781
 7663SOL    HW223889   6.663   5.334   6.719
 7664SOL     OW23890   2.949   6.411   2.576
 7664SOL    HW123891   2.888   6.397   2.654
 7664SOL    HW223892   3.000   6.326   2.558
 7665SOL     OW23893   3.154   6.966   3.711
 7665SOL    HW123894   3.230   7.012   3.665
 7665SOL    HW223895   3.130   6.883   3.662
 7666SOL     OW23896   0.378   6.807   1.373
 7666SOL    HW123897   0.340   6.887   1.421
 7666SOL    HW223898   0.445   6.837   1.306
 7667SOL     OW23899   4.823   6.177   6.962
 7667SOL    HW123900   4.829   6.271   6.929
 7667SOL    HW223901   4.915   6.140   6.972
 7668SOL     OW23902   3.348   4.100   1.463
 7668SOL    HW123903   3.297   4.167   1.409
 7668SOL    HW223904   3.317   4.008   1.440
 7669SOL     OW23905   5.325   1.019   4.669
 7669SOL    HW123906   5.274   0.977   4.594
 7669SOL    HW223907   5.396   1.079   4.632
 7670SOL     OW23908   1.504   5.972   6.562
 7670SOL    HW123909   1.523   5.997   6.657
 7670SOL    HW223910   1.574   5.907   6.531
 7671SOL     OW23911   4.732   1.425   4.153
 7671SOL    HW123912   4.765   1.401   4.062
 7671SOL    HW223913   4.809   1.439   4.215
 7672SOL     OW23914   6.448   0.117   3.858
 7672SOL    HW123915   6.479   0.140   3.950
 7672SOL    HW223916   6.433   0.018   3.852
 7673SOL     OW23917   1.819   4.971   0.925
 7673SOL    HW123918   1.828   5.050   0.864
 7673SOL    HW223919   1.868   4.893   0.887
 7674SOL     OW23920   6.640   1.841   4.620
 7674SOL    HW123921   6.590   1.873   4.700
 7674SOL    HW223922   6.605   1.887   4.538
 7675SOL     OW23923   5.040   0.684   2.268
 7675SOL    HW123924   5.118   0.625   2.292
 7675SOL    HW223925   5.038   0.763   2.329
 7676SOL     OW23926   0.694   1.850   6.658
 7676SOL    HW123927   0.770   1.860   6.594
 7676SOL    HW223928   0.726   1.869   6.751
 7677SOL     OW23929   1.971   2.906   1.707
 7677SOL    HW123930   1.990   2.809   1.693
 7677SOL    HW223931   1.977   2.955   1.620
 7678SOL     OW23932   1.449   0.835   6.313
 7678SOL    HW123933   1.479   0.757   6.258
 7678SOL    HW223934   1.527   0.895   6.331
 7679SOL     OW23935   1.164   5.466   5.053
 7679SOL    HW123936   1.147   5.507   4.963
 7679SOL    HW223937   1.078   5.433   5.092
 7680SOL     OW23938   2.499   3.186   6.920
 7680SOL    HW123939   2.514   3.104   6.976
 7680SOL    HW223940   2.587   3.231   6.903
 7681SOL     OW23941   2.977   0.337   0.331
 7681SOL    HW123942   2.946   0.414   0.276
 7681SOL    HW223943   2.898   0.292   0.373
 7682SOL     OW23944   2.502   6.825   1.811
 7682SOL    HW123945   2.451   6.889   1.869
 7682SOL    HW223946   2.564   6.771   1.868
 7683SOL     OW23947   6.634   2.948   3.227
 7683SOL    HW123948   6.652   3.034   3.276
 7683SOL    HW223949   6.721   2.902   3.208
 7684SOL     OW23950   5.754   2.789   6.750
 7684SOL    HW123951   5.728   2.706   6.701
 7684SOL    HW223952   5.768   2.768   6.847
 7685SOL     OW23953   3.761   2.685   0.259
 7685SOL    HW123954   3.806   2.743   0.191
 7685SOL    HW223955   3.799   2.592   0.253
 7686SOL     OW23956   4.067   0.042   2.815
 7686SOL    HW123957   4.154   0.072   2.854
 7686SOL    HW223958   4.062   0.069   2.719
 7687SOL     OW23959   5.386   5.796   5.837
 7687SOL    HW123960   5.320   5.823   5.906
 7687SOL    HW223961   5.381   5.697   5.822
 7688SOL     OW23962   6.807   6.847   6.069
 7688SOL    HW123963   6.783   6.842   5.972
 7688SOL    HW223964   6.857   6.765   6.096
 7689SOL     OW23965   4.999   5.880   4.401
 7689SOL    HW123966   4.903   5.881   4.431
 7689SOL    HW223967   5.006   5.832   4.314
 7690SOL     OW23968   5.475   5.562   2.931
 7690SOL    HW123969   5.461   5.534   2.836
 7690SOL    HW223970   5.568   5.538   2.960
 7691SOL     OW23971   4.923   2.947   3.907
 7691SOL    HW123972   4.868   2.936   3.824
 7691SOL    HW223973   4.967   2.860   3.930
 7692SOL     OW23974   0.915   6.657   0.992
 7692SOL    HW123975   0.953   6.605   1.070
 7692SOL    HW223976   0.907   6.753   1.018
 7693SOL     OW23977   4.134   0.828   6.808
 7693SOL    HW123978   4.072   0.750   6.812
 7693SOL    HW223979   4.185   0.834   6.894
 7694SOL     OW23980   0.513   4.727   4.005
 7694SOL    HW123981   0.597   4.687   4.043
 7694SOL    HW223982   0.483   4.673   3.926
 7695SOL     OW23983   4.089   0.536   0.762
 7695SOL    HW123984   4.071   0.600   0.837
 7695SOL    HW223985   4.031   0.558   0.684
 7696SOL     OW23986   6.896   2.189   4.295
 7696SOL    HW123987   6.968   2.217   4.232
 7696SOL    HW223988   6.832   2.128   4.248
 7697SOL     OW23989   2.421   1.279   3.074
 7697SOL    HW123990   2.366   1.283   2.991
 7697SOL    HW223991   2.484   1.357   3.077
 7698SOL     OW23992   0.178   3.356   4.620
 7698SOL    HW123993   0.152   3.262   4.597
 7698SOL    HW223994   0.206   3.404   4.537
 7699SOL     OW23995   2.246   5.988   6.727
 7699SOL    HW123996   2.268   5.970   6.631
 7699SOL    HW223997   2.147   6.000   6.736
 7700SOL     OW23998   4.384   0.020   5.326
 7700SOL    HW123999   4.375   0.062   5.417
 7700SOL    HW224000   4.373   6.944   5.333
 7701SOL     OW24001   6.476   1.131   6.064
 7701SOL    HW124002   6.467   1.199   5.992
 7701SOL    HW224003   6.448   1.170   6.152
 7702SOL     OW24004   3.418   6.527   6.084
 7702SOL    HW124005   3.479   6.454   6.052
 7702SOL    HW224006   3.333   6.524   6.032
 7703SOL     OW24007   6.322   1.800   5.387
 7703SOL    HW124008   6.367   1.715   5.412
 7703SOL    HW224009   6.282   1.842   5.469
 7704SOL     OW24010   4.297   5.160   6.335
 7704SOL    HW124011   4.284   5.250   6.295
 7704SOL    HW224012   4.212   5.131   6.380
 7705SOL     OW24013   3.489   4.938   5.239
 7705SOL    HW124014   3.459   4.944   5.144
 7705SOL    HW224015   3.564   5.003   5.254
 7706SOL     OW24016   6.079   0.571   5.626
 7706SOL    HW124017   6.168   0.529   5.606
 7706SOL    HW224018   6.069   0.655   5.573
 7707SOL     OW24019   0.130   5.282   6.434
 7707SOL    HW124020   0.078   5.320   6.358
 7707SOL    HW224021   0.100   5.189   6.453
 7708SOL     OW24022   5.175   6.119   4.906
 7708SOL    HW124023   5.098   6.156   4.855
 7708SOL    HW224024   5.206   6.187   4.973
 7709SOL     OW24025   4.859   2.695   2.455
 7709SOL    HW124026   4.873   2.625   2.385
 7709SOL    HW224027   4.904   2.780   2.427
 7710SOL     OW24028   2.183   0.119   0.732
 7710SOL    HW124029   2.224   0.038   0.689
 7710SOL    HW224030   2.251   0.192   0.737
 7711SOL     OW24031   6.309   6.446   5.630
 7711SOL    HW124032   6.305   6.488   5.539
 7711SOL    HW224033   6.230   6.387   5.643
 7712SOL     OW24034   6.672   5.396   1.542
 7712SOL    HW124035   6.690   5.413   1.639
 7712SOL    HW224036   6.728   5.319   1.511
 7713SOL     OW24037   1.930   4.226   0.743
 7713SOL    HW124038   1.902   4.283   0.666
 7713SOL    HW224039   2.019   4.258   0.777
 7714SOL     OW24040   6.336   4.502   4.094
 7714SOL    HW124041   6.284   4.581   4.126
 7714SOL    HW224042   6.274   4.430   4.064
 7715SOL     OW24043   4.966   0.819   1.072
 7715SOL    HW124044   4.970   0.852   1.166
 7715SOL    HW224045   5.033   0.868   1.016
 7716SOL     OW24046   4.816   2.935   2.682
 7716SOL    HW124047   4.907   2.948   2.643
 7716SOL    HW224048   4.766   2.867   2.629
 7717SOL     OW24049   2.710   1.353   4.933
 7717SOL    HW124050   2.746   1.280   4.876
 7717SOL    HW224051   2.765   1.362   5.016
 7718SOL     OW24052   2.135   1.587   2.739
 7718SOL    HW124053   2.068   1.661   2.730
 7718SOL    HW224054   2.089   1.504   2.772
 7719SOL     OW24055   0.079   3.140   4.135
 7719SOL    HW124056   7.022   3.109   4.082
 7719SOL    HW224057   0.087   3.084   4.217
 7720SOL     OW24058   6.331   6.336   0.870
 7720SOL    HW124059   6.337   6.253   0.814
 7720SOL    HW224060   6.242   6.379   0.856
 7721SOL     OW24061   2.090   4.347   2.900
 7721SOL    HW124062   2.009   4.333   2.842
 7721SOL    HW224063   2.069   4.320   2.993
 7722SOL     OW24064   6.732   5.394   3.041
 7722SOL    HW124065   6.731   5.479   2.988
 7722SOL    HW224066   6.653   5.392   3.103
 7723SOL     OW24067   0.150   3.427   0.468
 7723SOL    HW124068   0.122   3.494   0.399
 7723SOL    HW224069   0.075   3.363   0.485
 7724SOL     OW24070   1.897   4.277   2.007
 7724SOL    HW124071   1.936   4.359   2.048
 7724SOL    HW224072   1.969   4.213   1.983
 7725SOL     OW24073   5.149   2.474   3.003
 7725SOL    HW124074   5.100   2.420   2.935
 7725SOL    HW224075   5.235   2.507   2.964
 7726SOL     OW24076   6.926   4.542   3.415
 7726SOL    HW124077   6.926   4.448   3.379
 7726SOL    HW224078   6.991   4.548   3.491
 7727SOL     OW24079   5.989   2.010   4.134
 7727SOL    HW124080   6.069   2.068   4.114
 7727SOL    HW224081   6.007   1.917   4.103
 7728SOL     OW24082   1.314   3.359   2.674
 7728SOL    HW124083   1.367   3.363   2.758
 7728SOL    HW224084   1.366   3.310   2.604
 7729SOL     OW24085   5.861   2.544   1.123
 7729SOL    HW124086   5.815   2.474   1.178
 7729SOL    HW224087   5.873   2.510   1.030
 7730SOL     OW24088   5.649   6.013   2.873
 7730SOL    HW124089   5.620   6.008   2.777
 7730SOL    HW224090   5.595   6.083   2.920
 7731SOL     OW24091   6.371   1.312   0.396
 7731SOL    HW124092   6.402   1.291   0.489
 7731SOL    HW224093   6.439   1.280   0.331
 7732SOL     OW24094   4.966   5.585   0.484
 7732SOL    HW124095   5.024   5.638   0.546
 7732SOL    HW224096   4.963   5.630   0.395
 7733SOL     OW24097   3.914   7.002   1.226
 7733SOL    HW124098   3.998   0.000   1.276
 7733SOL    HW224099   3.893   0.054   1.163
 7734SOL     OW24100   1.552   3.149   3.148
 7734SOL    HW124101   1.625   3.204   3.107
 7734SOL    HW224102   1.554   3.160   3.247
 7735SOL     OW24103   4.640   4.654   6.556
 7735SOL    HW124104   4.715   4.589   6.547
 7735SOL    HW224105   4.603   4.675   6.465
 7736SOL     OW24106   5.256   4.157   0.612
 7736SOL    HW124107   5.201   4.229   0.569
 7736SOL    HW224108   5.264   4.176   0.710
 7737SOL     OW24109   4.616   2.085   1.087
 7737SOL    HW124110   4.563   2.123   1.011
 7737SOL    HW224111   4.712   2.115   1.079
 7738SOL     OW24112   2.452   5.736   0.883
 7738SOL    HW124113   2.450   5.777   0.792
 7738SOL    HW224114   2.547   5.713   0.907
 7739SOL     OW24115   0.753   2.389   0.711
 7739SOL    HW124116   0.813   2.310   0.715
 7739SOL    HW224117   0.669   2.364   0.663
 7740SOL     OW24118   6.972   6.898   2.611
 7740SOL    HW124119   6.942   6.987   2.578
 7740SOL    HW224120   6.895   6.834   2.611
 7741SOL     OW24121   1.655   5.513   4.499
 7741SOL    HW124122   1.742   5.562   4.499
 7741SOL    HW224123   1.603   5.539   4.581
 7742SOL     OW24124   6.043   2.242   3.191
 7742SOL    HW124125   6.083   2.311   3.131
 7742SOL    HW224126   5.943   2.250   3.189
 7743SOL     OW24127   4.292   3.189   5.732
 7743SOL    HW124128   4.333   3.202   5.642
 7743SOL    HW224129   4.225   3.115   5.728
 7744SOL     OW24130   6.956   6.371   3.940
 7744SOL    HW124131   0.012   6.365   3.879
 7744SOL    HW224132   6.874   6.393   3.887
 7745SOL     OW24133   3.862   2.643   6.105
 7745SOL    HW124134   3.811   2.725   6.130
 7745SOL    HW224135   3.804   2.563   6.113
 7746SOL     OW24136   1.616   6.979   0.409
 7746SOL    HW124137   1.559   6.965   0.490
 7746SOL    HW224138   1.665   6.895   0.388
 7747SOL     OW24139   4.792   6.570   0.898
 7747SOL    HW124140   4.775   6.504   0.825
 7747SOL    HW224141   4.709   6.582   0.952
 7748SOL     OW24142   3.061   3.472   6.215
 7748SOL    HW124143   2.985   3.529   6.183
 7748SOL    HW224144   3.094   3.508   6.303
 7749SOL     OW24145   4.919   3.193   5.634
 7749SOL    HW124146   4.911   3.188   5.534
 7749SOL    HW224147   4.829   3.177   5.675
 7750SOL     OW24148   0.660   6.604   1.536
 7750SOL    HW124149   0.660   6.512   1.576
 7750SOL    HW224150   0.567   6.640   1.537
 7751SOL     OW24151   0.749   1.585   2.031
 7751SOL    HW124152   0.820   1.535   2.081
 7751SOL    HW224153   0.661   1.570   2.077
 7752SOL     OW24154   5.171   0.625   4.465
 7752SOL    HW124155   5.224   0.628   4.550
 7752SOL    HW224156   5.078   0.593   4.485
 7753SOL     OW24157   1.787   1.143   4.469
 7753SOL    HW124158   1.757   1.182   4.556
 7753SOL    HW224159   1.867   1.194   4.435
 7754SOL     OW24160   3.385   5.980   1.755
 7754SOL    HW124161   3.358   6.005   1.661
 7754SOL    HW224162   3.484   5.968   1.759
 7755SOL     OW24163   2.045   4.081   6.765
 7755SOL    HW124164   2.095   4.030   6.836
 7755SOL    HW224165   1.949   4.053   6.766
 7756SOL     OW24166   2.406   5.678   1.683
 7756SOL    HW124167   2.383   5.585   1.654
 7756SOL    HW224168   2.323   5.727   1.707
 7757SOL     OW24169   0.065   4.522   2.165
 7757SOL    HW124170   0.016   4.451   2.214
 7757SOL    HW224171   0.159   4.492   2.146
 7758SOL     OW24172   1.320   0.896   5.731
 7758SOL    HW124173   1.340   0.861   5.639
 7758SOL    HW224174   1.371   0.980   5.746
 7759SOL     OW24175   2.760   2.636   6.172
 7759SOL    HW124176   2.661   2.641   6.186
 7759SOL    HW224177   2.780   2.621   6.076
 7760SOL     OW24178   4.529   1.879   1.763
 7760SOL    HW124179   4.443   1.831   1.746
 7760SOL    HW224180   4.522   1.931   1.848
 7761SOL     OW24181   4.964   5.456   4.767
 7761SOL    HW124182   4.971   5.406   4.681
 7761SOL    HW224183   5.030   5.531   4.768
 7762SOL     OW24184   0.113   0.285   3.905
 7762SOL    HW124185   0.099   0.233   3.989
 7762SOL    HW224186   0.025   0.316   3.870
 7763SOL     OW24187   2.687   0.391   5.074
 7763SOL    HW124188   2.611   0.367   5.135
 7763SOL    HW224189   2.653   0.401   4.981
 7764SOL     OW24190   3.227   3.764   5.527
 7764SOL    HW124191   3.253   3.846   5.578
 7764SOL    HW224192   3.253   3.683   5.579
 7765SOL     OW24193   6.917   3.335   4.207
 7765SOL    HW124194   6.965   3.423   4.212
 7765SOL    HW224195   6.985   3.261   4.197
 7766SOL     OW24196   0.500   4.656   0.363
 7766SOL    HW124197   0.492   4.680   0.459
 7766SOL    HW224198   0.410   4.634   0.326
 7767SOL     OW24199   3.074   0.285   3.119
 7767SOL    HW124200   3.143   0.302   3.189
 7767SOL    HW224201   3.079   0.356   3.049
 7768SOL     OW24202   4.308   4.626   3.021
 7768SOL    HW124203   4.317   4.612   2.923
 7768SOL    HW224204   4.398   4.635   3.062
 7769SOL     OW24205   3.391   2.517   5.543
 7769SOL    HW124206   3.318   2.538   5.479
 7769SOL    HW224207   3.417   2.420   5.534
 7770SOL     OW24208   1.403   3.458   4.553
 7770SOL    HW124209   1.320   3.440   4.606
 7770SOL    HW224210   1.483   3.448   4.612
 7771SOL     OW24211   2.933   2.719   5.929
 7771SOL    HW124212   2.904   2.709   5.834
 7771SOL    HW224213   2.979   2.636   5.959
 7772SOL     OW24214   4.913   0.919   1.332
 7772SOL    HW124215   4.845   0.901   1.403
 7772SOL    HW224216   4.999   0.948   1.375
 7773SOL     OW24217   2.962   5.771   0.272
 7773SOL    HW124218   3.024   5.795   0.347
 7773SOL    HW224219   3.006   5.702   0.214
 7774SOL     OW24220   4.777   1.388   2.718
 7774SOL    HW124221   4.713   1.320   2.754
 7774SOL    HW224222   4.827   1.430   2.795
 7775SOL     OW24223   3.174   0.634   0.029
 7775SOL    HW124224   3.161   0.707   6.985
 7775SOL    HW224225   3.271   0.627   0.052
 7776SOL     OW24226   0.736   6.789   5.447
 7776SOL    HW124227   0.825   6.833   5.434
 7776SOL    HW224228   0.723   6.768   5.544
 7777SOL     OW24229   5.297   5.000   3.642
 7777SOL    HW124230   5.356   5.008   3.723
 7777SOL    HW224231   5.203   4.985   3.672
 7778SOL     OW24232   6.254   4.110   2.991
 7778SOL    HW124233   6.248   4.028   2.935
 7778SOL    HW224234   6.229   4.190   2.937
 7779SOL     OW24235   3.006   6.114   1.979
 7779SOL    HW124236   3.002   6.170   2.062
 7779SOL    HW224237   3.096   6.071   1.972
 7780SOL     OW24238   6.638   6.024   5.290
 7780SOL    HW124239   6.671   5.984   5.204
 7780SOL    HW224240   6.547   5.988   5.311
 7781SOL     OW24241   1.669   2.944   1.015
 7781SOL    HW124242   1.643   2.932   1.111
 7781SOL    HW224243   1.681   3.041   0.996
 7782SOL     OW24244   6.284   5.132   3.628
 7782SOL    HW124245   6.300   5.175   3.717
 7782SOL    HW224246   6.315   5.036   3.631
 7783SOL     OW24247   0.972   0.186   5.241
 7783SOL    HW124248   1.053   0.207   5.295
 7783SOL    HW224249   0.963   0.253   5.167
 7784SOL     OW24250   2.689   2.238   2.145
 7784SOL    HW124251   2.783   2.266   2.128
 7784SOL    HW224252   2.626   2.309   2.113
 7785SOL     OW24253   0.886   6.186   2.238
 7785SOL    HW124254   0.926   6.270   2.276
 7785SOL    HW224255   0.958   6.119   2.221
 7786SOL     OW24256   4.527   0.227   6.427
 7786SOL    HW124257   4.596   0.299   6.439
 7786SOL    HW224258   4.450   0.244   6.488
 7787SOL     OW24259   2.801   3.167   1.388
 7787SOL    HW124260   2.732   3.238   1.404
 7787SOL    HW224261   2.755   3.080   1.372
 7788SOL     OW24262   1.063   4.468   1.370
 7788SOL    HW124263   1.035   4.560   1.396
 7788SOL    HW224264   0.982   4.414   1.348
 7789SOL     OW24265   3.371   0.965   6.616
 7789SOL    HW124266   3.347   1.007   6.703
 7789SOL    HW224267   3.339   0.870   6.615
 7790SOL     OW24268   5.665   4.787   1.995
 7790SOL    HW124269   5.627   4.818   2.083
 7790SOL    HW224270   5.707   4.864   1.948
 7791SOL     OW24271   2.178   5.224   1.991
 7791SOL    HW124272   2.131   5.179   2.067
 7791SOL    HW224273   2.222   5.156   1.933
 7792SOL     OW24274   1.120   1.817   2.573
 7792SOL    HW124275   1.141   1.879   2.497
 7792SOL    HW224276   1.026   1.832   2.602
 7793SOL     OW24277   4.655   1.520   0.415
 7793SOL    HW124278   4.669   1.602   0.360
 7793SOL    HW224279   4.571   1.474   0.384
 7794SOL     OW24280   0.980   5.460   2.949
 7794SOL    HW124281   0.956   5.530   2.881
 7794SOL    HW224282   0.940   5.485   3.037
 7795SOL     OW24283   2.923   5.402   6.091
 7795SOL    HW124284   2.971   5.335   6.147
 7795SOL    HW224285   2.986   5.476   6.066
 7796SOL     OW24286   3.674   3.303   6.447
 7796SOL    HW124287   3.632   3.383   6.489
 7796SOL    HW224288   3.604   3.245   6.405
 7797SOL     OW24289   0.682   5.841   3.660
 7797SOL    HW124290   0.768   5.826   3.708
 7797SOL    HW224291   0.609   5.861   3.726
 7798SOL     OW24292   0.359   2.276   0.989
 7798SOL    HW124293   0.439   2.223   0.961
 7798SOL    HW224294   0.276   2.229   0.961
 7799SOL     OW24295   2.682   6.226   3.414
 7799SOL    HW124296   2.710   6.322   3.415
 7799SOL    HW224297   2.583   6.220   3.418
 7800SOL     OW24298   0.210   6.186   1.317
 7800SOL    HW124299   0.283   6.193   1.250
 7800SOL    HW224300   0.161   6.100   1.304
 7801SOL     OW24301   1.883   2.423   2.779
 7801SOL    HW124302   1.950   2.349   2.778
 7801SOL    HW224303   1.799   2.391   2.824
 7802SOL     OW24304   6.686   3.896   5.540
 7802SOL    HW124305   6.693   3.868   5.444
 7802SOL    HW224306   6.591   3.884   5.571
 7803SOL     OW24307   4.979   2.260   5.428
 7803SOL    HW124308   4.971   2.347   5.477
 7803SOL    HW224309   5.057   2.264   5.365
 7804SOL     OW24310   2.653   2.370   4.858
 7804SOL    HW124311   2.612   2.436   4.921
 7804SOL    HW224312   2.590   2.294   4.843
 7805SOL     OW24313   5.328   2.788   1.310
 7805SOL    HW124314   5.336   2.861   1.379
 7805SOL    HW224315   5.296   2.705   1.355
 7806SOL     OW24316   6.404   2.291   5.838
 7806SOL    HW124317   6.487   2.238   5.819
 7806SOL    HW224318   6.424   2.359   5.908
 7807SOL     OW24319   1.992   5.139   5.688
 7807SOL    HW124320   2.075   5.193   5.672
 7807SOL    HW224321   2.016   5.046   5.714
 7808SOL     OW24322   5.428   4.272   2.866
 7808SOL    HW124323   5.347   4.250   2.921
 7808SOL    HW224324   5.406   4.346   2.802
 7809SOL     OW24325   4.923   5.123   3.715
 7809SOL    HW124326   4.924   5.071   3.630
 7809SOL    HW224327   4.877   5.211   3.700
 7810SOL     OW24328   4.042   6.239   5.150
 7810SOL    HW124329   4.068   6.145   5.173
 7810SOL    HW224330   3.943   6.245   5.145
 7811SOL     OW24331   1.294   5.646   2.051
 7811SOL    HW124332   1.257   5.555   2.072
 7811SOL    HW224333   1.223   5.700   2.005
 7812SOL     OW24334   2.310   3.157   5.564
 7812SOL    HW124335   2.249   3.236   5.562
 7812SOL    HW224336   2.332   3.134   5.659
 7813SOL     OW24337   5.739   1.630   1.065
 7813SOL    HW124338   5.811   1.628   1.134
 7813SOL    HW224339   5.761   1.699   0.995
 7814SOL     OW24340   6.766   3.024   1.910
 7814SOL    HW124341   6.730   2.998   2.000
 7814SOL    HW224342   6.733   2.959   1.841
 7815SOL     OW24343   6.100   2.556   5.654
 7815SOL    HW124344   6.061   2.621   5.589
 7815SOL    HW224345   6.180   2.596   5.698
 7816SOL     OW24346   0.510   1.587   5.064
 7816SOL    HW124347   0.473   1.680   5.064
 7816SOL    HW224348   0.607   1.591   5.089
 7817SOL     OW24349   3.139   3.009   6.530
 7817SOL    HW124350   3.110   2.913   6.527
 7817SOL    HW224351   3.099   3.058   6.452
 7818SOL     OW24352   5.678   1.426   2.341
 7818SOL    HW124353   5.666   1.510   2.393
 7818SOL    HW224354   5.624   1.353   2.382
 7819SOL     OW24355   1.359   3.666   3.886
 7819SOL    HW124356   1.436   3.612   3.920
 7819SOL    HW224357   1.277   3.609   3.884
 7820SOL     OW24358   1.178   0.736   5.472
 7820SOL    HW124359   1.239   0.708   5.398
 7820SOL    HW224360   1.111   0.802   5.437
 7821SOL     OW24361   6.286   5.683   6.893
 7821SOL    HW124362   6.328   5.601   6.855
 7821SOL    HW224363   6.278   5.753   6.822
 7822SOL     OW24364   1.188   1.110   4.466
 7822SOL    HW124365   1.190   1.197   4.515
 7822SOL    HW224366   1.263   1.109   4.399
 7823SOL     OW24367   1.586   3.776   0.198
 7823SOL    HW124368   1.580   3.872   0.171
 7823SOL    HW224369   1.681   3.746   0.192
 7824SOL     OW24370   5.061   2.486   2.591
 7824SOL    HW124371   4.993   2.477   2.518
 7824SOL    HW224372   5.070   2.399   2.639
 7825SOL     OW24373   3.264   3.113   1.509
 7825SOL    HW124374   3.198   3.183   1.537
 7825SOL    HW224375   3.301   3.068   1.590
 7826SOL     OW24376   6.740   1.056   0.613
 7826SOL    HW124377   6.733   1.154   0.630
 7826SOL    HW224378   6.652   1.022   0.580
 7827SOL     OW24379   5.092   5.305   1.411
 7827SOL    HW124380   5.092   5.205   1.407
 7827SOL    HW224381   5.136   5.334   1.496
 7828SOL     OW24382   0.469   6.293   0.922
 7828SOL    HW124383   0.507   6.381   0.893
 7828SOL    HW224384   0.543   6.230   0.945
 7829SOL     OW24385   3.372   3.040   1.748
 7829SOL    HW124386   3.351   2.987   1.830
 7829SOL    HW224387   3.395   3.134   1.774
 7830SOL     OW24388   6.139   3.225   0.211
 7830SOL    HW124389   6.222   3.266   0.247
 7830SOL    HW224390   6.163   3.143   0.158
 7831SOL     OW24391   1.408   3.333   0.988
 7831SOL    HW124392   1.383   3.271   0.914
 7831SOL    HW224393   1.438   3.280   1.068
 7832SOL     OW24394   2.587   2.295   5.486
 7832SOL    HW124395   2.532   2.338   5.557
 7832SOL    HW224396   2.529   2.240   5.426
 7833SOL     OW24397   0.752   6.709   0.322
 7833SOL    HW124398   0.809   6.630   0.302
 7833SOL    HW224399   0.657   6.681   0.333
 7834SOL     OW24400   0.913   0.806   1.519
 7834SOL    HW124401   0.901   0.863   1.600
 7834SOL    HW224402   0.996   0.752   1.528
 7835SOL     OW24403   2.206   3.115   4.775
 7835SOL    HW124404   2.112   3.095   4.802
 7835SOL    HW224405   2.268   3.047   4.814
 7836SOL     OW24406   3.165   6.639   6.933
 7836SOL    HW124407   3.171   6.576   7.011
 7836SOL    HW224408   3.162   6.733   6.966
 7837SOL     OW24409   5.959   6.439   2.847
 7837SOL    HW124410   6.009   6.366   2.800
 7837SOL    HW224411   5.936   6.511   2.781
 7838SOL     OW24412   4.170   6.864   4.934
 7838SOL    HW124413   4.181   6.778   4.884
 7838SOL    HW224414   4.131   6.933   4.873
 7839SOL     OW24415   6.039   4.798   4.885
 7839SOL    HW124416   6.129   4.784   4.844
 7839SOL    HW224417   6.033   4.747   4.971
 7840SOL     OW24418   5.152   3.087   4.079
 7840SOL    HW124419   5.077   3.024   4.060
 7840SOL    HW224420   5.224   3.075   4.011
 7841SOL     OW24421   0.319   1.989   6.199
 7841SOL    HW124422   0.331   2.074   6.251
 7841SOL    HW224423   0.324   2.009   6.101
 7842SOL     OW24424   2.396   1.617   2.894
 7842SOL    HW124425   2.306   1.619   2.851
 7842SOL    HW224426   2.455   1.685   2.851
 7843SOL     OW24427   5.995   4.029   1.206
 7843SOL    HW124428   6.009   4.111   1.151
 7843SOL    HW224429   5.968   3.953   1.147
 7844SOL     OW24430   3.924   0.877   3.446
 7844SOL    HW124431   3.962   0.832   3.365
 7844SOL    HW224432   3.972   0.847   3.528
 7845SOL     OW24433   6.493   1.231   4.304
 7845SOL    HW124434   6.551   1.264   4.230
 7845SOL    HW224435   6.483   1.132   4.297
 7846SOL     OW24436   2.554   0.279   1.558
 7846SOL    HW124437   2.472   0.310   1.606
 7846SOL    HW224438   2.587   0.194   1.600
 7847SOL     OW24439   6.768   0.294   0.118
 7847SOL    HW124440   6.769   0.390   0.147
 7847SOL    HW224441   6.785   0.289   0.020
 7848SOL     OW24442   4.231   4.014   1.542
 7848SOL    HW124443   4.252   3.943   1.474
 7848SOL    HW224444   4.257   3.981   1.633
 7849SOL     OW24445   5.335   2.913   4.496
 7849SOL    HW124446   5.375   3.003   4.478
 7849SOL    HW224447   5.247   2.925   4.543
 7850SOL     OW24448   0.173   1.083   5.514
 7850SOL    HW124449   0.189   1.104   5.611
 7850SOL    HW224450   0.106   1.146   5.477
 7851SOL     OW24451   5.635   0.776   0.231
 7851SOL    HW124452   5.589   0.856   0.192
 7851SOL    HW224453   5.632   0.700   0.165
 7852SOL     OW24454   3.053   6.506   0.119
 7852SOL    HW124455   3.072   6.545   0.209
 7852SOL    HW224456   3.023   6.411   0.130
 7853SOL     OW24457   2.735   2.728   0.471
 7853SOL    HW124458   2.794   2.656   0.436
 7853SOL    HW224459   2.784   2.781   0.540
 7854SOL     OW24460   3.478   3.823   2.351
 7854SOL    HW124461   3.442   3.864   2.266
 7854SOL    HW224462   3.572   3.853   2.365
 7855SOL     OW24463   4.686   5.527   6.695
 7855SOL    HW124464   4.768   5.578   6.722
 7855SOL    HW224465   4.689   5.436   6.735
 7856SOL     OW24466   5.390   3.536   5.328
 7856SOL    HW124467   5.462   3.479   5.288
 7856SOL    HW224468   5.354   3.491   5.409
 7857SOL     OW24469   5.951   1.722   5.899
 7857SOL    HW124470   5.898   1.638   5.899
 7857SOL    HW224471   5.890   1.801   5.906
 7858SOL     OW24472   6.064   3.986   3.446
 7858SOL    HW124473   6.056   4.074   3.494
 7858SOL    HW224474   6.020   3.915   3.500
 7859SOL     OW24475   1.054   4.698   5.889
 7859SOL    HW124476   0.978   4.634   5.902
 7859SOL    HW224477   1.063   4.721   5.792
 7860SOL     OW24478   3.792   6.930   1.529
 7860SOL    HW124479   3.742   6.897   1.448
 7860SOL    HW224480   3.835   6.853   1.576
 7861SOL     OW24481   4.252   5.154   1.203
 7861SOL    HW124482   4.167   5.206   1.212
 7861SOL    HW224483   4.230   5.060   1.177
 7862SOL     OW24484   2.925   3.979   1.725
 7862SOL    HW124485   2.885   4.050   1.667
 7862SOL    HW224486   2.865   3.899   1.726
 7863SOL     OW24487   6.345   6.030   1.937
 7863SOL    HW124488   6.251   6.001   1.922
 7863SOL    HW224489   6.372   6.093   1.864
 7864SOL     OW24490   0.674   5.750   4.777
 7864SOL    HW124491   0.678   5.845   4.745
 7864SOL    HW224492   0.765   5.719   4.802
 7865SOL     OW24493   3.418   6.390   3.435
 7865SOL    HW124494   3.458   6.416   3.523
 7865SOL    HW224495   3.487   6.400   3.364
 7866SOL     OW24496   2.648   1.776   3.446
 7866SOL    HW124497   2.718   1.760   3.516
 7866SOL    HW224498   2.658   1.870   3.412
 7867SOL     OW24499   6.491   5.668   2.319
 7867SOL    HW124500   6.521   5.585   2.273
 7867SOL    HW224501   6.548   5.745   2.289
 7868SOL     OW24502   5.168   6.201   0.997
 7868SOL    HW124503   5.090   6.198   1.059
 7868SOL    HW224504   5.204   6.295   0.994
 7869SOL     OW24505   0.387   2.787   1.961
 7869SOL    HW124506   0.480   2.752   1.967
 7869SOL    HW224507   0.369   2.820   1.868
 7870SOL     OW24508   6.511   5.425   3.962
 7870SOL    HW124509   6.583   5.442   3.894
 7870SOL    HW224510   6.523   5.487   4.040
 7871SOL     OW24511   6.007   2.625   2.845
 7871SOL    HW124512   6.041   2.642   2.752
 7871SOL    HW224513   5.935   2.556   2.842
 7872SOL     OW24514   0.334   3.279   2.947
 7872SOL    HW124515   0.307   3.199   3.000
 7872SOL    HW224516   0.402   3.252   2.879
 7873SOL     OW24517   0.160   6.344   6.084
 7873SOL    HW124518   0.064   6.339   6.057
 7873SOL    HW224519   0.166   6.385   6.176
 7874SOL     OW24520   5.827   1.670   0.151
 7874SOL    HW124521   5.771   1.676   0.068
 7874SOL    HW224522   5.793   1.597   0.209
 7875SOL     OW24523   4.764   3.824   6.408
 7875SOL    HW124524   4.694   3.837   6.478
 7875SOL    HW224525   4.730   3.859   6.320
 7876SOL     OW24526   6.782   6.834   4.027
 7876SOL    HW124527   6.786   6.934   4.030
 7876SOL    HW224528   6.841   6.796   4.098
 7877SOL     OW24529   6.772   2.758   2.824
 7877SOL    HW124530   6.814   2.799   2.905
 7877SOL    HW224531   6.813   2.669   2.806
 7878SOL     OW24532   4.742   4.096   2.466
 7878SOL    HW124533   4.820   4.089   2.403
 7878SOL    HW224534   4.748   4.022   2.534
 7879SOL     OW24535   4.943   6.618   3.471
 7879SOL    HW124536   4.890   6.605   3.555
 7879SOL    HW224537   5.013   6.546   3.465
 7880SOL     OW24538   0.506   6.251   6.790
 7880SOL    HW124539   0.505   6.218   6.695
 7880SOL    HW224540   0.598   6.243   6.827
 7881SOL     OW24541   0.272   4.238   5.386
 7881SOL    HW124542   0.321   4.243   5.473
 7881SOL    HW224543   0.311   4.166   5.329
 7882SOL     OW24544   0.697   3.105   2.725
 7882SOL    HW124545   0.726   3.033   2.662
 7882SOL    HW224546   0.741   3.093   2.813
 7883SOL     OW24547   2.708   1.032   2.823
 7883SOL    HW124548   2.720   1.101   2.895
 7883SOL    HW224549   2.724   1.075   2.734
 7884SOL     OW24550   1.476   4.317   3.706
 7884SOL    HW124551   1.515   4.360   3.787
 7884SOL    HW224552   1.529   4.235   3.683
 7885SOL     OW24553   5.465   5.846   3.005
 7885SOL    HW124554   5.466   5.749   2.981
 7885SOL    HW224555   5.553   5.887   2.981
 7886SOL     OW24556   4.847   2.945   1.703
 7886SOL    HW124557   4.835   3.004   1.623
 7886SOL    HW224558   4.811   2.991   1.785
 7887SOL     OW24559   4.181   3.255   0.130
 7887SOL    HW124560   4.163   3.332   0.191
 7887SOL    HW224561   4.199   3.289   0.037
 7888SOL     OW24562   6.193   1.434   4.200
 7888SOL    HW124563   6.267   1.418   4.265
 7888SOL    HW224564   6.167   1.531   4.203
 7889SOL     OW24565   5.448   5.049   0.557
 7889SOL    HW124566   5.468   4.965   0.608
 7889SOL    HW224567   5.465   5.128   0.615
 7890SOL     OW24568   1.188   2.804   3.878
 7890SOL    HW124569   1.110   2.749   3.907
 7890SOL    HW224570   1.255   2.810   3.952
 7891SOL     OW24571   0.178   1.976   4.301
 7891SOL    HW124572   0.195   2.065   4.343
 7891SOL    HW224573   0.146   1.989   4.207
 7892SOL     OW24574   1.417   3.592   5.701
 7892SOL    HW124575   1.492   3.641   5.745
 7892SOL    HW224576   1.449   3.550   5.616
 7893SOL     OW24577   5.971   0.374   2.042
 7893SOL    HW124578   5.965   0.274   2.047
 7893SOL    HW224579   5.912   0.407   1.969
 7894SOL     OW24580   2.713   1.432   5.854
 7894SOL    HW124581   2.640   1.453   5.919
 7894SOL    HW224582   2.748   1.517   5.814
 7895SOL     OW24583   3.810   6.209   3.659
 7895SOL    HW124584   3.840   6.220   3.754
 7895SOL    HW224585   3.785   6.113   3.643
 7896SOL     OW24586   4.032   2.464   1.739
 7896SOL    HW124587   4.113   2.513   1.706
 7896SOL    HW224588   3.978   2.526   1.797
 7897SOL     OW24589   3.809   4.006   6.391
 7897SOL    HW124590   3.717   4.035   6.415
 7897SOL    HW224591   3.834   3.926   6.445
 7898SOL     OW24592   5.092   0.340   4.652
 7898SOL    HW124593   5.176   0.326   4.705
 7898SOL    HW224594   5.038   0.256   4.655
 7899SOL     OW24595   5.097   5.022   1.416
 7899SOL    HW124596   5.174   4.984   1.366
 7899SOL    HW224597   5.113   5.013   1.514
 7900SOL     OW24598   0.486   3.895   0.638
 7900SOL    HW124599   0.457   3.932   0.726
 7900SOL    HW224600   0.506   3.798   0.647
 7901SOL     OW24601   5.335   1.081   6.041
 7901SOL    HW124602   5.356   1.068   6.138
 7901SOL    HW224603   5.340   0.993   5.993
 7902SOL     OW24604   0.565   5.974   2.770
 7902SOL    HW124605   0.584   6.073   2.768
 7902SOL    HW224606   0.514   5.949   2.688
 7903SOL     OW24607   2.281   1.569   4.637
 7903SOL    HW124608   2.322   1.643   4.583
 7903SOL    HW224609   2.255   1.494   4.576
 7904SOL     OW24610   6.039   0.687   2.303
 7904SOL    HW124611   6.000   0.701   2.394
 7904SOL    HW224612   6.138   0.690   2.308
 7905SOL     OW24613   5.471   0.939   0.557
 7905SOL    HW124614   5.512   0.985   0.478
 7905SOL    HW224615   5.386   0.894   0.529
 7906SOL     OW24616   1.413   5.094   1.121
 7906SOL    HW124617   1.450   5.149   1.196
 7906SOL    HW224618   1.405   5.151   1.039
 7907SOL     OW24619   6.156   0.421   2.770
 7907SOL    HW124620   6.079   0.365   2.740
 7907SOL    HW224621   6.219   0.365   2.824
 7908SOL     OW24622   0.681   0.758   6.629
 7908SOL    HW124623   0.601   0.818   6.629
 7908SOL    HW224624   0.742   0.783   6.554
 7909SOL     OW24625   5.672   3.734   2.615
 7909SOL    HW124626   5.595   3.755   2.674
 7909SOL    HW224627   5.640   3.721   2.521
 7910SOL     OW24628   1.978   3.801   0.919
 7910SOL    HW124629   2.014   3.777   1.009
 7910SOL    HW224630   1.892   3.752   0.903
 7911SOL     OW24631   0.983   4.079   0.880
 7911SOL    HW124632   0.920   4.063   0.804
 7911SOL    HW224633   1.054   4.008   0.880
 7912SOL     OW24634   5.176   5.394   0.448
 7912SOL    HW124635   5.243   5.405   0.522
 7912SOL    HW224636   5.116   5.474   0.447
 7913SOL     OW24637   0.209   3.401   0.905
 7913SOL    HW124638   0.139   3.447   0.852
 7913SOL    HW224639   0.198   3.302   0.898
 7914SOL     OW24640   6.356   5.390   5.214
 7914SOL    HW124641   6.409   5.350   5.139
 7914SOL    HW224642   6.368   5.335   5.297
 7915SOL     OW24643   3.728   6.936   2.825
 7915SOL    HW124644   3.640   6.975   2.849
 7915SOL    HW224645   3.745   6.948   2.727
 7916SOL     OW24646   0.874   0.225   4.738
 7916SOL    HW124647   0.970   0.239   4.714
 7916SOL    HW224648   0.820   0.303   4.708
 7917SOL     OW24649   4.138   2.699   0.001
 7917SOL    HW124650   4.080   2.637   6.970
 7917SOL    HW224651   4.208   2.738   6.964
 7918SOL     OW24652   2.002   0.813   4.905
 7918SOL    HW124653   2.029   0.769   4.991
 7918SOL    HW224654   2.061   0.780   4.831
 7919SOL     OW24655   1.168   5.215   3.246
 7919SOL    HW124656   1.238   5.193   3.315
 7919SOL    HW224657   1.118   5.296   3.275
 7920SOL     OW24658   4.704   0.735   1.112
 7920SOL    HW124659   4.788   0.788   1.097
 7920SOL    HW224660   4.693   0.716   1.209
 7921SOL     OW24661   5.168   1.732   1.862
 7921SOL    HW124662   5.248   1.678   1.886
 7921SOL    HW224663   5.113   1.682   1.796
 7922SOL     OW24664   0.738   6.100   0.180
 7922SOL    HW124665   0.718   6.168   0.251
 7922SOL    HW224666   0.834   6.106   0.154
 7923SOL     OW24667   3.811   1.449   6.818
 7923SOL    HW124668   3.820   1.506   6.737
 7923SOL    HW224669   3.727   1.395   6.811
 7924SOL     OW24670   5.760   6.581   1.519
 7924SOL    HW124671   5.803   6.553   1.605
 7924SOL    HW224672   5.753   6.503   1.458
 7925SOL     OW24673   2.482   6.407   0.642
 7925SOL    HW124674   2.521   6.470   0.709
 7925SOL    HW224675   2.552   6.342   0.613
 7926SOL     OW24676   5.595   0.514   6.373
 7926SOL    HW124677   5.647   0.593   6.404
 7926SOL    HW224678   5.594   0.445   6.445
 7927SOL     OW24679   4.750   0.054   2.565
 7927SOL    HW124680   4.719   0.028   2.474
 7927SOL    HW224681   4.689   0.016   2.634
 7928SOL     OW24682   6.749   0.822   2.898
 7928SOL    HW124683   6.680   0.869   2.842
 7928SOL    HW224684   6.822   0.885   2.922
 7929SOL     OW24685   4.669   3.923   6.151
 7929SOL    HW124686   4.717   3.971   6.078
 7929SOL    HW224687   4.597   3.981   6.188
 7930SOL     OW24688   3.843   6.000   5.666
 7930SOL    HW124689   3.924   5.990   5.609
 7930SOL    HW224690   3.866   6.049   5.750
 7931SOL     OW24691   2.969   2.580   0.381
 7931SOL    HW124692   3.050   2.562   0.326
 7931SOL    HW224693   2.898   2.513   0.358
 7932SOL     OW24694   6.916   5.201   1.514
 7932SOL    HW124695   6.886   5.186   1.420
 7932SOL    HW224696   6.997   5.260   1.515
 7933SOL     OW24697   6.656   1.435   5.655
 7933SOL    HW124698   6.679   1.520   5.703
 7933SOL    HW224699   6.660   1.449   5.556
 7934SOL     OW24700   1.478   4.300   0.877
 7934SOL    HW124701   1.525   4.347   0.952
 7934SOL    HW224702   1.543   4.285   0.802
 7935SOL     OW24703   5.737   3.945   2.942
 7935SOL    HW124704   5.683   3.876   2.895
 7935SOL    HW224705   5.830   3.910   2.956
 7936SOL     OW24706   3.785   6.567   3.929
 7936SOL    HW124707   3.866   6.517   3.896
 7936SOL    HW224708   3.813   6.656   3.964
 7937SOL     OW24709   2.444   6.007   5.478
 7937SOL    HW124710   2.467   6.020   5.382
 7937SOL    HW224711   2.438   6.096   5.523
 7938SOL     OW24712   4.487   6.728   4.980
 7938SOL    HW124713   4.532   6.810   5.016
 7938SOL    HW224714   4.519   6.711   4.887
 7939SOL     OW24715   0.816   1.858   4.965
 7939SOL    HW124716   0.855   1.781   4.914
 7939SOL    HW224717   0.719   1.867   4.941
 7940SOL     OW24718   4.800   1.719   2.546
 7940SOL    HW124719   4.896   1.694   2.560
 7940SOL    HW224720   4.774   1.697   2.452
 7941SOL     OW24721   4.253   6.390   2.087
 7941SOL    HW124722   4.285   6.322   2.152
 7941SOL    HW224723   4.240   6.347   1.997
 7942SOL     OW24724   0.827   2.782   1.745
 7942SOL    HW124725   0.798   2.691   1.715
 7942SOL    HW224726   0.762   2.850   1.710
 7943SOL     OW24727   2.208   5.391   6.044
 7943SOL    HW124728   2.109   5.394   6.054
 7943SOL    HW224729   2.231   5.384   5.947
 7944SOL     OW24730   0.665   2.823   1.149
 7944SOL    HW124731   0.640   2.726   1.151
 7944SOL    HW224732   0.701   2.846   1.059
 7945SOL     OW24733   5.796   5.081   2.780
 7945SOL    HW124734   5.800   5.078   2.680
 7945SOL    HW224735   5.715   5.133   2.808
 7946SOL     OW24736   4.158   0.704   5.534
 7946SOL    HW124737   4.189   0.680   5.626
 7946SOL    HW224738   4.229   0.680   5.468
 7947SOL     OW24739   1.322   2.837   5.420
 7947SOL    HW124740   1.271   2.886   5.350
 7947SOL    HW224741   1.392   2.779   5.377
 7948SOL     OW24742   1.542   4.788   2.632
 7948SOL    HW124743   1.518   4.821   2.723
 7948SOL    HW224744   1.480   4.715   2.605
 7949SOL     OW24745   4.403   4.898   6.234
 7949SOL    HW124746   4.488   4.932   6.274
 7949SOL    HW224747   4.330   4.964   6.248
 7950SOL     OW24748   6.254   5.669   5.434
 7950SOL    HW124749   6.208   5.594   5.387
 7950SOL    HW224750   6.346   5.639   5.461
 7951SOL     OW24751   2.818   5.422   2.602
 7951SOL    HW124752   2.858   5.422   2.510
 7951SOL    HW224753   2.725   5.460   2.597
 7952SOL     OW24754   5.825   3.476   0.355
 7952SOL    HW124755   5.771   3.512   0.278
 7952SOL    HW224756   5.866   3.552   0.405
 7953SOL     OW24757   4.007   2.094   0.574
 7953SOL    HW124758   4.086   2.043   0.609
 7953SOL    HW224759   4.030   2.191   0.568
 7954SOL     OW24760   3.792   3.357   6.744
 7954SOL    HW124761   3.887   3.331   6.724
 7954SOL    HW224762   3.791   3.415   6.826
 7955SOL     OW24763   1.455   1.523   6.626
 7955SOL    HW124764   1.483   1.427   6.622
 7955SOL    HW224765   1.537   1.581   6.634
 7956SOL     OW24766   6.362   0.944   1.698
 7956SOL    HW124767   6.306   1.027   1.694
 7956SOL    HW224768   6.365   0.901   1.608
 7957SOL     OW24769   4.750   0.531   5.462
 7957SOL    HW124770   4.837   0.576   5.483
 7957SOL    HW224771   4.706   0.503   5.547
 7958SOL     OW24772   5.701   3.635   6.812
 7958SOL    HW124773   5.632   3.598   6.750
 7958SOL    HW224774   5.698   3.735   6.810
 7959SOL     OW24775   5.035   0.988   6.076
 7959SOL    HW124776   5.095   0.920   6.119
 7959SOL    HW224777   5.031   1.069   6.133
 7960SOL     OW24778   6.609   0.889   6.687
 7960SOL    HW124779   6.533   0.859   6.630
 7960SOL    HW224780   6.671   0.946   6.632
 7961SOL     OW24781   6.276   6.797   6.814
 7961SOL    HW124782   6.225   6.840   6.739
 7961SOL    HW224783   6.211   6.755   6.878
 7962SOL     OW24784   6.534   0.038   5.720
 7962SOL    HW124785   6.534   0.125   5.771
 7962SOL    HW224786   6.607   7.002   5.756
 7963SOL     OW24787   6.256   4.296   4.348
 7963SOL    HW124788   6.278   4.304   4.250
 7963SOL    HW224789   6.199   4.373   4.375
 7964SOL     OW24790   6.570   3.417   1.665
 7964SOL    HW124791   6.590   3.431   1.569
 7964SOL    HW224792   6.517   3.494   1.700
 7965SOL     OW24793   4.434   1.909   6.792
 7965SOL    HW124794   4.438   1.866   6.702
 7965SOL    HW224795   4.388   1.847   6.856
 7966SOL     OW24796   4.061   4.318   5.334
 7966SOL    HW124797   3.973   4.364   5.327
 7966SOL    HW224798   4.129   4.366   5.278
 7967SOL     OW24799   1.645   5.317   2.215
 7967SOL    HW124800   1.741   5.303   2.187
 7967SOL    HW224801   1.640   5.395   2.276
 7968SOL     OW24802   6.540   1.996   4.442
 7968SOL    HW124803   6.515   1.910   4.398
 7968SOL    HW224804   6.533   2.071   4.376
 7969SOL     OW24805   4.620   6.016   7.011
 7969SOL    HW124806   4.574   5.991   6.926
 7969SOL    HW224807   4.701   6.070   6.990
 7970SOL     OW24808   6.640   2.947   2.546
 7970SOL    HW124809   6.552   2.967   2.588
 7970SOL    HW224810   6.711   2.942   2.616
 7971SOL     OW24811   3.240   1.387   1.074
 7971SOL    HW124812   3.329   1.433   1.082
 7971SOL    HW224813   3.239   1.306   1.133
 7972SOL     OW24814   3.778   3.140   2.743
 7972SOL    HW124815   3.862   3.117   2.791
 7972SOL    HW224816   3.745   3.060   2.693
 7973SOL     OW24817   6.345   3.921   3.359
 7973SOL    HW124818   6.248   3.934   3.337
 7973SOL    HW224819   6.369   3.977   3.437
 7974SOL     OW24820   6.035   1.579   5.407
 7974SOL    HW124821   6.057   1.634   5.487
 7974SOL    HW224822   6.095   1.604   5.331
 7975SOL     OW24823   4.816   1.864   0.675
 7975SOL    HW124824   4.745   1.933   0.665
 7975SOL    HW224825   4.775   1.776   0.699
 7976SOL     OW24826   1.605   6.685   6.815
 7976SOL    HW124827   1.554   6.768   6.840
 7976SOL    HW224828   1.593   6.616   6.887
 7977SOL     OW24829   5.570   6.296   3.161
 7977SOL    HW124830   5.509   6.291   3.240
 7977SOL    HW224831   5.638   6.368   3.175
 7978SOL     OW24832   0.343   4.219   1.243
 7978SOL    HW124833   0.362   4.253   1.335
 7978SOL    HW224834   0.429   4.211   1.192
 7979SOL     OW24835   2.044   3.501   4.734
 7979SOL    HW124836   2.013   3.594   4.756
 7979SOL    HW224837   2.030   3.441   4.813
 7980SOL     OW24838   3.359   4.665   5.841
 7980SOL    HW124839   3.350   4.631   5.748
 7980SOL    HW224840   3.453   4.695   5.857
 7981SOL     OW24841   1.781   5.051   3.535
 7981SOL    HW124842   1.740   4.992   3.465
 7981SOL    HW224843   1.752   5.146   3.519
 7982SOL     OW24844   1.659   1.548   6.081
 7982SOL    HW124845   1.758   1.533   6.074
 7982SOL    HW224846   1.623   1.495   6.158
 7983SOL     OW24847   5.188   1.125   1.143
 7983SOL    HW124848   5.266   1.063   1.141
 7983SOL    HW224849   5.182   1.169   1.232
 7984SOL     OW24850   0.735   1.577   1.478
 7984SOL    HW124851   0.728   1.670   1.514
 7984SOL    HW224852   0.769   1.580   1.384
 7985SOL     OW24853   2.430   2.409   5.698
 7985SOL    HW124854   2.395   2.499   5.671
 7985SOL    HW224855   2.354   2.350   5.726
 7986SOL     OW24856   3.632   1.277   4.064
 7986SOL    HW124857   3.608   1.218   4.141
 7986SOL    HW224858   3.702   1.231   4.008
 7987SOL     OW24859   1.361   3.818   1.094
 7987SOL    HW124860   1.420   3.737   1.093
 7987SOL    HW224861   1.416   3.899   1.110
 7988SOL     OW24862   6.904   1.272   1.718
 7988SOL    HW124863   6.929   1.191   1.665
 7988SOL    HW224864   6.980   1.296   1.779
 7989SOL     OW24865   1.367   4.201   0.351
 7989SOL    HW124866   1.429   4.133   0.389
 7989SOL    HW224867   1.287   4.209   0.410
 7990SOL     OW24868   2.388   6.591   5.117
 7990SOL    HW124869   2.347   6.553   5.034
 7990SOL    HW224870   2.430   6.517   5.170
 7991SOL     OW24871   5.322   1.653   4.900
 7991SOL    HW124872   5.403   1.612   4.942
 7991SOL    HW224873   5.251   1.583   4.889
 7992SOL     OW24874   1.890   0.321   0.661
 7992SOL    HW124875   1.820   0.325   0.590
 7992SOL    HW224876   1.861   0.258   0.733
 7993SOL     OW24877   0.053   6.758   1.457
 7993SOL    HW124878   6.999   6.715   1.506
 7993SOL    HW224879   0.126   6.691   1.445
 7994SOL     OW24880   5.152   0.641   3.577
 7994SOL    HW124881   5.113   0.717   3.525
 7994SOL    HW224882   5.078   0.581   3.608
 7995SOL     OW24883   6.611   4.415   2.257
 7995SOL    HW124884   6.570   4.325   2.239
 7995SOL    HW224885   6.555   4.464   2.323
 7996SOL     OW24886   4.219   0.010   3.157
 7996SOL    HW124887   4.126   0.046   3.149
 7996SOL    HW224888   4.281   0.066   3.101
 7997SOL     OW24889   1.062   1.955   6.881
 7997SOL    HW124890   0.998   2.026   6.850
 7997SOL    HW224891   1.013   1.890   6.939
 7998SOL     OW24892   2.621   0.305   0.056
 7998SOL    HW124893   2.657   0.344   0.140
 7998SOL    HW224894   2.586   0.378   7.020
 7999SOL     OW24895   1.191   2.004   5.562
 7999SOL    HW124896   1.244   1.922   5.540
 7999SOL    HW224897   1.095   1.987   5.542
 8000SOL     OW24898   5.801   6.385   6.429
 8000SOL    HW124899   5.717   6.341   6.461
 8000SOL    HW224900   5.879   6.348   6.479
 8001SOL     OW24901   5.185   0.486   0.732
 8001SOL    HW124902   5.284   0.496   0.730
 8001SOL    HW224903   5.152   0.489   0.826
 8002SOL     OW24904   0.437   0.536   6.079
 8002SOL    HW124905   0.390   0.623   6.073
 8002SOL    HW224906   0.371   0.461   6.073
 8003SOL     OW24907   2.019   6.671   2.850
 8003SOL    HW124908   1.990   6.682   2.755
 8003SOL    HW224909   2.119   6.671   2.855
 8004SOL     OW24910   1.590   2.680   3.666
 8004SOL    HW124911   1.491   2.663   3.665
 8004SOL    HW224912   1.615   2.733   3.586
 8005SOL     OW24913   2.337   0.065   3.644
 8005SOL    HW124914   2.428   0.082   3.605
 8005SOL    HW224915   2.333   0.102   3.737
 8006SOL     OW24916   3.723   5.438   4.819
 8006SOL    HW124917   3.752   5.434   4.724
 8006SOL    HW224918   3.670   5.521   4.835
 8007SOL     OW24919   6.199   1.728   6.215
 8007SOL    HW124920   6.254   1.648   6.193
 8007SOL    HW224921   6.212   1.798   6.145
 8008SOL     OW24922   4.230   6.470   0.095
 8008SOL    HW124923   4.286   6.519   0.028
 8008SOL    HW224924   4.280   6.390   0.128
 8009SOL     OW24925   5.131   1.340   0.945
 8009SOL    HW124926   5.135   1.426   0.996
 8009SOL    HW224927   5.053   1.286   0.978
 8010SOL     OW24928   2.528   2.665   5.361
 8010SOL    HW124929   2.575   2.753   5.355
 8010SOL    HW224930   2.594   2.591   5.354
 8011SOL     OW24931   3.609   1.972   1.962
 8011SOL    HW124932   3.639   2.063   1.990
 8011SOL    HW224933   3.554   1.978   1.879
 8012SOL     OW24934   1.098   3.261   5.665
 8012SOL    HW124935   1.172   3.205   5.628
 8012SOL    HW224936   1.135   3.322   5.736
 8013SOL     OW24937   1.372   2.001   3.608
 8013SOL    HW124938   1.391   2.001   3.706
 8013SOL    HW224939   1.453   2.029   3.558
 8014SOL     OW24940   1.899   0.736   3.415
 8014SOL    HW124941   1.938   0.820   3.376
 8014SOL    HW224942   1.800   0.748   3.425
 8015SOL     OW24943   1.698   0.347   5.761
 8015SOL    HW124944   1.738   0.392   5.840
 8015SOL    HW224945   1.703   0.247   5.772
 8016SOL     OW24946   4.054   1.570   5.622
 8016SOL    HW124947   4.143   1.538   5.654
 8016SOL    HW224948   4.053   1.575   5.523
 8017SOL     OW24949   6.847   0.105   0.294
 8017SOL    HW124950   6.780   0.069   0.359
 8017SOL    HW224951   6.801   0.165   0.228
 8018SOL     OW24952   4.014   2.209   0.185
 8018SOL    HW124953   3.965   2.145   0.244
 8018SOL    HW224954   4.104   2.230   0.225
 8019SOL     OW24955   3.445   3.490   1.155
 8019SOL    HW124956   3.434   3.418   1.086
 8019SOL    HW224957   3.443   3.450   1.246
 8020SOL     OW24958   6.430   0.040   4.937
 8020SOL    HW124959   6.521   0.035   4.898
 8020SOL    HW224960   6.378   6.981   4.912
 8021SOL     OW24961   1.871   2.345   2.150
 8021SOL    HW124962   1.925   2.262   2.163
 8021SOL    HW224963   1.923   2.424   2.184
 8022SOL     OW24964   5.573   1.262   1.883
 8022SOL    HW124965   5.662   1.304   1.867
 8022SOL    HW224966   5.567   1.232   1.978
 8023SOL     OW24967   5.381   6.305   3.395
 8023SOL    HW124968   5.338   6.368   3.460
 8023SOL    HW224969   5.311   6.268   3.333
 8024SOL     OW24970   1.760   6.476   6.456
 8024SOL    HW124971   1.854   6.478   6.420
 8024SOL    HW224972   1.704   6.417   6.399
 8025SOL     OW24973   1.650   4.765   1.865
 8025SOL    HW124974   1.600   4.785   1.781
 8025SOL    HW224975   1.598   4.699   1.920
 8026SOL     OW24976   0.263   4.606   0.235
 8026SOL    HW124977   0.260   4.692   0.183
 8026SOL    HW224978   0.232   4.622   0.328
 8027SOL     OW24979   4.119   6.549   6.022
 8027SOL    HW124980   4.043   6.512   6.076
 8027SOL    HW224981   4.095   6.548   5.925
 8028SOL     OW24982   3.551   5.683   4.179
 8028SOL    HW124983   3.510   5.593   4.165
 8028SOL    HW224984   3.485   5.742   4.227
 8029SOL     OW24985   6.089   1.296   1.369
 8029SOL    HW124986   6.097   1.265   1.274
 8029SOL    HW224987   5.998   1.331   1.386
 8030SOL     OW24988   5.756   4.840   1.065
 8030SOL    HW124989   5.676   4.783   1.081
 8030SOL    HW224990   5.823   4.788   1.010
 8031SOL     OW24991   5.733   0.402   2.639
 8031SOL    HW124992   5.761   0.380   2.732
 8031SOL    HW224993   5.811   0.389   2.577
 8032SOL     OW24994   5.321   2.974   1.489
 8032SOL    HW124995   5.281   3.062   1.466
 8032SOL    HW224996   5.398   2.987   1.552
 8033SOL     OW24997   3.696   4.075   0.554
 8033SOL    HW124998   3.776   4.022   0.582
 8033SOL    HW224999   3.669   4.137   0.628
 8034SOL     OW25000   5.683   0.227   5.070
 8034SOL    HW125001   5.708   0.280   4.990
 8034SOL    HW225002   5.736   0.258   5.149
 8035SOL     OW25003   4.425   1.148   2.825
 8035SOL    HW125004   4.463   1.065   2.784
 8035SOL    HW225005   4.488   1.184   2.894
 8036SOL     OW25006   0.046   2.702   4.029
 8036SOL    HW125007   0.035   2.677   4.125
 8036SOL    HW225008   6.986   2.676   3.977
 8037SOL     OW25009   1.085   2.869   6.675
 8037SOL    HW125010   1.144   2.790   6.659
 8037SOL    HW225011   0.999   2.839   6.716
 8038SOL     OW25012   6.035   6.426   2.434
 8038SOL    HW125013   5.985   6.481   2.501
 8038SOL    HW225014   5.998   6.442   2.343
 8039SOL     OW25015   0.777   2.385   5.364
 8039SOL    HW125016   0.732   2.377   5.454
 8039SOL    HW225017   0.875   2.370   5.374
 8040SOL     OW25018   1.684   6.111   5.491
 8040SOL    HW125019   1.762   6.124   5.553
 8040SOL    HW225020   1.688   6.020   5.450
 8041SOL     OW25021   3.355   1.247   2.987
 8041SOL    HW125022   3.286   1.200   2.931
 8041SOL    HW225023   3.316   1.268   3.077
 8042SOL     OW25024   4.335   4.144   5.867
 8042SOL    HW125025   4.316   4.073   5.934
 8042SOL    HW225026   4.426   4.128   5.827
 8043SOL     OW25027   4.738   4.810   1.388
 8043SOL    HW125028   4.811   4.751   1.423
 8043SOL    HW225029   4.685   4.846   1.464
 8044SOL     OW25030   3.982   3.614   1.318
 8044SOL    HW125031   3.933   3.587   1.235
 8044SOL    HW225032   4.053   3.681   1.294
 8045SOL     OW25033   0.357   0.975   2.789
 8045SOL    HW125034   0.312   0.987   2.700
 8045SOL    HW225035   0.454   0.957   2.776
 8046SOL     OW25036   0.286   5.538   2.067
 8046SOL    HW125037   0.285   5.513   2.164
 8046SOL    HW225038   0.249   5.462   2.013
 8047SOL     OW25039   3.959   6.898   6.247
 8047SOL    HW125040   3.866   6.862   6.256
 8047SOL    HW225041   3.973   6.930   6.153
 8048SOL     OW25042   3.410   3.774   0.318
 8048SOL    HW125043   3.479   3.836   0.282
 8048SOL    HW225044   3.363   3.818   0.395
 8049SOL     OW25045   1.331   0.013   0.814
 8049SOL    HW125046   1.422   0.036   0.848
 8049SOL    HW225047   1.275   7.001   0.890
 8050SOL     OW25048   1.523   4.020   4.336
 8050SOL    HW125049   1.435   4.048   4.297
 8050SOL    HW225050   1.510   3.935   4.388
 8051SOL     OW25051   4.666   6.189   4.267
 8051SOL    HW125052   4.638   6.187   4.363
 8051SOL    HW225053   4.629   6.271   4.224
 8052SOL     OW25054   2.277   1.577   2.060
 8052SOL    HW125055   2.305   1.646   2.126
 8052SOL    HW225056   2.203   1.521   2.098
 8053SOL     OW25057   3.284   3.342   6.449
 8053SOL    HW125058   3.317   3.433   6.424
 8053SOL    HW225059   3.218   3.349   6.523
 8054SOL     OW25060   5.391   4.057   5.059
 8054SOL    HW125061   5.446   3.974   5.072
 8054SOL    HW225062   5.391   4.110   5.143
 8055SOL     OW25063   0.088   1.026   5.116
 8055SOL    HW125064   0.083   0.933   5.080
 8055SOL    HW225065   0.174   1.038   5.165
 8056SOL     OW25066   2.583   0.176   3.612
 8056SOL    HW125067   2.665   0.128   3.582
 8056SOL    HW225068   2.610   0.262   3.655
 8057SOL     OW25069   2.496   2.215   1.600
 8057SOL    HW125070   2.577   2.259   1.561
 8057SOL    HW225071   2.452   2.279   1.664
 8058SOL     OW25072   3.060   6.408   3.676
 8058SOL    HW125073   3.038   6.311   3.660
 8058SOL    HW225074   3.146   6.414   3.727
 8059SOL     OW25075   2.755   2.136   5.834
 8059SOL    HW125076   2.787   2.166   5.924
 8059SOL    HW225077   2.757   2.214   5.770
 8060SOL     OW25078   6.621   0.623   6.447
 8060SOL    HW125079   6.721   0.618   6.454
 8060SOL    HW225080   6.583   0.638   6.538
 8061SOL     OW25081   0.390   0.898   2.101
 8061SOL    HW125082   0.379   0.876   2.004
 8061SOL    HW225083   0.437   0.822   2.146
 8062SOL     OW25084   4.037   5.418   5.139
 8062SOL    HW125085   4.120   5.372   5.106
 8062SOL    HW225086   3.992   5.360   5.208
 8063SOL     OW25087   3.265   0.420   3.339
 8063SOL    HW125088   3.353   0.419   3.387
 8063SOL    HW225089   3.239   0.514   3.318
 8064SOL     OW25090   6.545   3.320   0.196
 8064SOL    HW125091   6.613   3.330   0.269
 8064SOL    HW225092   6.456   3.352   0.228
 8065SOL     OW25093   3.660   0.048   4.460
 8065SOL    HW125094   3.630   0.080   4.549
 8065SOL    HW225095   3.581   0.014   4.409
 8066SOL     OW25096   6.685   1.214   4.556
 8066SOL    HW125097   6.608   1.219   4.493
 8066SOL    HW225098   6.757   1.277   4.527
 8067SOL     OW25099   5.307   3.260   3.775
 8067SOL    HW125100   5.396   3.305   3.772
 8067SOL    HW225101   5.317   3.170   3.817
 8068SOL     OW25102   0.496   4.509   1.739
 8068SOL    HW125103   0.441   4.426   1.753
 8068SOL    HW225104   0.553   4.525   1.820
 8069SOL     OW25105   2.956   5.068   2.267
 8069SOL    HW125106   3.032   5.015   2.303
 8069SOL    HW225107   2.972   5.166   2.282
 8070SOL     OW25108   4.223   4.558   0.594
 8070SOL    HW125109   4.300   4.505   0.628
 8070SOL    HW225110   4.155   4.497   0.552
 8071SOL     OW25111   4.247   6.739   5.571
 8071SOL    HW125112   4.164   6.764   5.521
 8071SOL    HW225113   4.224   6.677   5.646
 8072SOL     OW25114   2.505   2.658   0.626
 8072SOL    HW125115   2.525   2.640   0.722
 8072SOL    HW225116   2.591   2.669   0.575
 8073SOL     OW25117   2.706   0.219   6.432
 8073SOL    HW125118   2.794   0.191   6.471
 8073SOL    HW225119   2.710   0.211   6.333
 8074SOL     OW25120   1.815   1.503   0.307
 8074SOL    HW125121   1.905   1.495   0.265
 8074SOL    HW225122   1.806   1.438   0.383
 8075SOL     OW25123   0.284   6.349   6.681
 8075SOL    HW125124   0.357   6.323   6.744
 8075SOL    HW225125   0.218   6.274   6.672
 8076SOL     OW25126   6.917   6.787   6.809
 8076SOL    HW125127   6.920   6.872   6.861
 8076SOL    HW225128   6.953   6.803   6.717
 8077SOL     OW25129   3.868   5.764   1.860
 8077SOL    HW125130   3.899   5.859   1.856
 8077SOL    HW225131   3.820   5.740   1.776
 8078SOL     OW25132   0.678   1.808   0.345
 8078SOL    HW125133   0.650   1.745   0.272
 8078SOL    HW225134   0.670   1.902   0.312
 8079SOL     OW25135   0.608   1.276   4.312
 8079SOL    HW125136   0.672   1.331   4.258
 8079SOL    HW225137   0.539   1.335   4.352
 8080SOL     OW25138   0.909   3.052   2.890
 8080SOL    HW125139   0.965   3.062   2.972
 8080SOL    HW225140   0.954   3.096   2.813
 8081SOL     OW25141   5.745   4.433   5.246
 8081SOL    HW125142   5.770   4.396   5.156
 8081SOL    HW225143   5.679   4.508   5.234
 8082SOL     OW25144   2.630   1.079   2.462
 8082SOL    HW125145   2.659   1.175   2.451
 8082SOL    HW225146   2.674   1.023   2.392
 8083SOL     OW25147   5.486   2.570   4.184
 8083SOL    HW125148   5.532   2.610   4.105
 8083SOL    HW225149   5.445   2.483   4.158
 8084SOL     OW25150   2.009   0.524   6.040
 8084SOL    HW125151   1.961   0.584   5.976
 8084SOL    HW225152   2.106   0.519   6.015
 8085SOL     OW25153   0.219   6.104   3.178
 8085SOL    HW125154   0.228   6.201   3.203
 8085SOL    HW225155   0.307   6.058   3.189
 8086SOL     OW25156   0.082   1.118   1.388
 8086SOL    HW125157   0.141   1.142   1.311
 8086SOL    HW225158   0.131   1.056   1.450
 8087SOL     OW25159   1.002   0.719   6.489
 8087SOL    HW125160   1.036   0.642   6.543
 8087SOL    HW225161   0.983   0.796   6.549
 8088SOL     OW25162   5.569   6.608   6.536
 8088SOL    HW125163   5.666   6.618   6.558
 8088SOL    HW225164   5.559   6.585   6.439
 8089SOL     OW25165   5.861   2.983   6.571
 8089SOL    HW125166   5.832   2.923   6.645
 8089SOL    HW225167   5.783   3.036   6.538
 8090SOL     OW25168   4.088   1.429   6.518
 8090SOL    HW125169   4.018   1.431   6.589
 8090SOL    HW225170   4.139   1.515   6.520
 8091SOL     OW25171   1.458   4.362   4.029
 8091SOL    HW125172   1.488   4.361   4.124
 8091SOL    HW225173   1.506   4.435   3.980
 8092SOL     OW25174   4.734   2.118   5.217
 8092SOL    HW125175   4.650   2.077   5.181
 8092SOL    HW225176   4.770   2.061   5.290
 8093SOL     OW25177   2.922   5.936   3.134
 8093SOL    HW125178   2.951   5.859   3.077
 8093SOL    HW225179   2.866   5.902   3.210
 8094SOL     OW25180   0.750   3.964   4.957
 8094SOL    HW125181   0.801   4.038   5.001
 8094SOL    HW225182   0.814   3.895   4.924
 8095SOL     OW25183   1.171   4.655   5.271
 8095SOL    HW125184   1.210   4.579   5.218
 8095SOL    HW225185   1.085   4.625   5.313
 8096SOL     OW25186   1.276   0.277   1.984
 8096SOL    HW125187   1.211   0.301   2.056
 8096SOL    HW225188   1.362   0.326   2.000
 8097SOL     OW25189   3.677   0.042   5.143
 8097SOL    HW125190   3.759   0.045   5.200
 8097SOL    HW225191   3.703   0.027   5.048
 8098SOL     OW25192   0.868   6.088   4.204
 8098SOL    HW125193   0.920   6.168   4.175
 8098SOL    HW225194   0.879   6.074   4.303
 8099SOL     OW25195   4.473   5.864   4.396
 8099SOL    HW125196   4.413   5.900   4.324
 8099SOL    HW225197   4.430   5.784   4.438
 8100SOL     OW25198   5.825   1.293   6.362
 8100SOL    HW125199   5.778   1.284   6.275
 8100SOL    HW225200   5.813   1.386   6.397
 8101SOL     OW25201   2.268   5.558   0.618
 8101SOL    HW125202   2.182   5.525   0.580
 8101SOL    HW225203   2.293   5.503   0.698
 8102SOL     OW25204   0.932   3.141   4.335
 8102SOL    HW125205   0.879   3.150   4.251
 8102SOL    HW225206   0.874   3.161   4.414
 8103SOL     OW25207   3.789   1.033   2.363
 8103SOL    HW125208   3.873   1.075   2.398
 8103SOL    HW225209   3.780   1.053   2.265
 8104SOL     OW25210   1.999   6.977   5.723
 8104SOL    HW125211   2.036   6.994   5.814
 8104SOL    HW225212   1.951   6.889   5.723
 8105SOL     OW25213   0.066   2.056   2.950
 8105SOL    HW125214   0.073   2.068   2.851
 8105SOL    HW225215   0.013   1.973   2.970
 8106SOL     OW25216   2.905   6.683   4.054
 8106SOL    HW125217   2.930   6.682   3.958
 8106SOL    HW225218   2.860   6.597   4.078
 8107SOL     OW25219   1.607   5.711   4.800
 8107SOL    HW125220   1.601   5.787   4.865
 8107SOL    HW225221   1.587   5.625   4.847
 8108SOL     OW25222   6.583   1.490   6.691
 8108SOL    HW125223   6.604   1.415   6.628
 8108SOL    HW225224   6.607   1.462   6.784
 8109SOL     OW25225   6.878   4.030   6.513
 8109SOL    HW125226   6.840   3.977   6.438
 8109SOL    HW225227   6.943   3.974   6.565
 8110SOL     OW25228   4.082   4.926   1.158
 8110SOL    HW125229   4.067   4.854   1.226
 8110SOL    HW225230   4.103   4.885   1.069
 8111SOL     OW25231   5.676   1.072   3.737
 8111SOL    HW125232   5.649   1.165   3.760
 8111SOL    HW225233   5.663   1.013   3.816
 8112SOL     OW25234   0.347   3.205   4.805
 8112SOL    HW125235   0.310   3.117   4.835
 8112SOL    HW225236   0.293   3.240   4.729
 8113SOL     OW25237   6.490   3.094   1.463
 8113SOL    HW125238   6.573   3.128   1.506
 8113SOL    HW225239   6.410   3.128   1.513
 8114SOL     OW25240   0.989   4.237   2.250
 8114SOL    HW125241   1.039   4.250   2.335
 8114SOL    HW225242   1.038   4.281   2.175
 8115SOL     OW25243   3.023   6.776   6.127
 8115SOL    HW125244   2.982   6.707   6.066
 8115SOL    HW225245   3.026   6.740   6.220
 8116SOL     OW25246   4.188   5.346   0.341
 8116SOL    HW125247   4.274   5.380   0.379
 8116SOL    HW225248   4.131   5.309   0.415
 8117SOL     OW25249   2.287   6.551   3.184
 8117SOL    HW125250   2.191   6.553   3.155
 8117SOL    HW225251   2.295   6.495   3.267
 8118SOL     OW25252   6.435   4.413   6.304
 8118SOL    HW125253   6.443   4.323   6.347
 8118SOL    HW225254   6.345   4.452   6.325
 8119SOL     OW25255   5.124   6.494   6.031
 8119SOL    HW125256   5.040   6.500   5.978
 8119SOL    HW225257   5.203   6.505   5.969
 8120SOL     OW25258   2.563   5.215   0.732
 8120SOL    HW125259   2.661   5.208   0.753
 8120SOL    HW225260   2.529   5.304   0.762
 8121SOL     OW25261   0.881   4.245   3.027
 8121SOL    HW125262   0.930   4.301   2.959
 8121SOL    HW225263   0.808   4.300   3.069
 8122SOL     OW25264   0.830   4.604   3.021
 8122SOL    HW125265   0.745   4.558   3.046
 8122SOL    HW225266   0.896   4.537   2.988
 8123SOL     OW25267   0.540   1.268   6.947
 8123SOL    HW125268   0.629   1.311   6.934
 8123SOL    HW225269   0.471   1.339   6.960
 8124SOL     OW25270   5.604   6.237   3.974
 8124SOL    HW125271   5.564   6.326   3.951
 8124SOL    HW225272   5.601   6.178   3.893
 8125SOL     OW25273   1.234   0.727   2.774
 8125SOL    HW125274   1.151   0.769   2.812
 8125SOL    HW225275   1.212   0.635   2.740
 8126SOL     OW25276   4.545   5.068   3.695
 8126SOL    HW125277   4.536   4.983   3.748
 8126SOL    HW225278   4.619   5.123   3.733
 8127SOL     OW25279   3.059   2.646   6.793
 8127SOL    HW125280   2.961   2.647   6.814
 8127SOL    HW225281   3.111   2.635   6.878
 8128SOL     OW25282   3.179   2.232   1.751
 8128SOL    HW125283   3.142   2.318   1.717
 8128SOL    HW225284   3.269   2.216   1.710
 8129SOL     OW25285   1.808   1.923   6.934
 8129SOL    HW125286   1.788   1.969   6.847
 8129SOL    HW225287   1.901   1.886   6.931
 8130SOL     OW25288   1.449   6.250   0.115
 8130SOL    HW125289   1.452   6.206   0.026
 8130SOL    HW225290   1.535   6.233   0.164
 8131SOL     OW25291   3.012   2.795   1.066
 8131SOL    HW125292   2.980   2.722   1.007
 8131SOL    HW225293   2.982   2.778   1.160
 8132SOL     OW25294   6.534   6.635   4.665
 8132SOL    HW125295   6.438   6.618   4.689
 8132SOL    HW225296   6.545   6.626   4.566
 8133SOL     OW25297   3.968   5.326   2.249
 8133SOL    HW125298   3.969   5.413   2.299
 8133SOL    HW225299   4.054   5.277   2.266
 8134SOL     OW25300   6.193   1.244   5.852
 8134SOL    HW125301   6.120   1.268   5.916
 8134SOL    HW225302   6.186   1.147   5.827
 8135SOL     OW25303   1.993   0.456   1.498
 8135SOL    HW125304   1.928   0.530   1.485
 8135SOL    HW225305   1.996   0.430   1.595
 8136SOL     OW25306   5.241   5.516   2.390
 8136SOL    HW125307   5.189   5.589   2.434
 8136SOL    HW225308   5.207   5.427   2.422
 8137SOL     OW25309   2.986   0.993   5.161
 8137SOL    HW125310   2.958   0.920   5.099
 8137SOL    HW225311   3.049   1.055   5.114
 8138SOL     OW25312   5.817   1.379   1.353
 8138SOL    HW125313   5.838   1.476   1.364
 8138SOL    HW225314   5.718   1.365   1.362
 8139SOL     OW25315   0.388   1.434   2.376
 8139SOL    HW125316   0.360   1.340   2.397
 8139SOL    HW225317   0.410   1.482   2.461
 8140SOL     OW25318   4.306   1.392   4.344
 8140SOL    HW125319   4.305   1.489   4.319
 8140SOL    HW225320   4.273   1.382   4.438
 8141SOL     OW25321   3.499   5.371   5.581
 8141SOL    HW125322   3.478   5.297   5.646
 8141SOL    HW225323   3.523   5.454   5.631
 8142SOL     OW25324   6.132   5.190   0.308
 8142SOL    HW125325   6.155   5.279   0.347
 8142SOL    HW225326   6.198   5.122   0.338
 8143SOL     OW25327   6.282   4.788   6.487
 8143SOL    HW125328   6.243   4.870   6.446
 8143SOL    HW225329   6.213   4.740   6.541
 8144SOL     OW25330   5.579   0.283   0.007
 8144SOL    HW125331   5.522   0.325   0.077
 8144SOL    HW225332   5.659   0.240   0.049
 8145SOL     OW25333   6.250   5.942   2.840
 8145SOL    HW125334   6.263   5.893   2.754
 8145SOL    HW225335   6.189   6.020   2.825
 8146SOL     OW25336   3.493   1.172   5.868
 8146SOL    HW125337   3.442   1.240   5.922
 8146SOL    HW225338   3.585   1.205   5.852
 8147SOL     OW25339   5.323   1.771   3.247
 8147SOL    HW125340   5.291   1.843   3.185
 8147SOL    HW225341   5.273   1.778   3.333
 8148SOL     OW25342   5.630   3.203   2.565
 8148SOL    HW125343   5.583   3.219   2.479
 8148SOL    HW225344   5.591   3.123   2.611
 8149SOL     OW25345   3.075   5.683   2.609
 8149SOL    HW125346   3.094   5.615   2.538
 8149SOL    HW225347   3.137   5.761   2.598
 8150SOL     OW25348   0.045   4.764   1.170
 8150SOL    HW125349   0.109   4.832   1.134
 8150SOL    HW225350   6.988   4.810   1.208
 8151SOL     OW25351   0.870   2.052   3.410
 8151SOL    HW125352   0.826   2.049   3.500
 8151SOL    HW225353   0.953   2.107   3.415
 8152SOL     OW25354   1.507   1.142   2.568
 8152SOL    HW125355   1.511   1.104   2.476
 8152SOL    HW225356   1.427   1.106   2.616
 8153SOL     OW25357   2.931   6.852   2.392
 8153SOL    HW125358   2.970   6.853   2.484
 8153SOL    HW225359   2.995   6.895   2.328
 8154SOL     OW25360   2.442   5.933   4.348
 8154SOL    HW125361   2.408   5.840   4.340
 8154SOL    HW225362   2.532   5.940   4.305
 8155SOL     OW25363   3.120   3.131   2.391
 8155SOL    HW125364   3.182   3.207   2.373
 8155SOL    HW225365   3.169   3.060   2.443
 8156SOL     OW25366   5.778   0.533   5.084
 8156SOL    HW125367   5.792   0.610   5.147
 8156SOL    HW225368   5.799   0.562   4.991
 8157SOL     OW25369   5.540   5.109   6.776
 8157SOL    HW125370   5.527   5.011   6.791
 8157SOL    HW225371   5.464   5.146   6.722
 8158SOL     OW25372   1.048   5.664   1.122
 8158SOL    HW125373   0.948   5.664   1.125
 8158SOL    HW225374   1.078   5.693   1.031
 8159SOL     OW25375   1.929   5.273   2.248
 8159SOL    HW125376   1.949   5.200   2.184
 8159SOL    HW225377   1.938   5.239   2.342
 8160SOL     OW25378   4.878   1.914   1.551
 8160SOL    HW125379   4.968   1.878   1.526
 8160SOL    HW225380   4.817   1.909   1.472
 8161SOL     OW25381   5.203   1.142   0.595
 8161SOL    HW125382   5.255   1.180   0.672
 8161SOL    HW225383   5.109   1.175   0.599
 8162SOL     OW25384   6.061   6.797   0.855
 8162SOL    HW125385   6.033   6.891   0.842
 8162SOL    HW225386   6.160   6.790   0.842
 8163SOL     OW25387   2.635   4.184   5.335
 8163SOL    HW125388   2.630   4.097   5.285
 8163SOL    HW225389   2.549   4.233   5.325
 8164SOL     OW25390   5.548   3.029   1.655
 8164SOL    HW125391   5.546   3.126   1.630
 8164SOL    HW225392   5.600   2.978   1.587
 8165SOL     OW25393   2.042   4.210   1.199
 8165SOL    HW125394   2.093   4.137   1.153
 8165SOL    HW225395   1.947   4.183   1.209
 8166SOL     OW25396   2.435   0.548   2.304
 8166SOL    HW125397   2.353   0.522   2.354
 8166SOL    HW225398   2.410   0.577   2.211
 8167SOL     OW25399   6.173   2.727   3.549
 8167SOL    HW125400   6.100   2.788   3.517
 8167SOL    HW225401   6.133   2.654   3.604
 8168SOL     OW25402   3.549   1.473   2.686
 8168SOL    HW125403   3.459   1.438   2.711
 8168SOL    HW225404   3.607   1.479   2.767
 8169SOL     OW25405   4.610   3.838   0.830
 8169SOL    HW125406   4.650   3.837   0.922
 8169SOL    HW225407   4.570   3.928   0.813
 8170SOL     OW25408   1.533   6.000   3.863
 8170SOL    HW125409   1.581   6.004   3.776
 8170SOL    HW225410   1.439   6.035   3.852
 8171SOL     OW25411   0.492   2.007   6.531
 8171SOL    HW125412   0.558   1.955   6.586
 8171SOL    HW225413   0.435   2.062   6.592
 8172SOL     OW25414   0.246   6.963   0.518
 8172SOL    HW125415   0.263   6.921   0.429
 8172SOL    HW225416   0.205   0.031   0.505
 8173SOL     OW25417   3.879   2.823   0.061
 8173SOL    HW125418   3.834   2.799   6.997
 8173SOL    HW225419   3.975   2.795   0.058
 8174SOL     OW25420   5.759   1.768   0.810
 8174SOL    HW125421   5.722   1.805   0.725
 8174SOL    HW225422   5.792   1.675   0.794
 8175SOL     OW25423   6.930   2.409   6.352
 8175SOL    HW125424   6.922   2.311   6.372
 8175SOL    HW225425   6.937   2.422   6.253
 8176SOL     OW25426   2.455   5.748   2.171
 8176SOL    HW125427   2.380   5.709   2.224
 8176SOL    HW225428   2.480   5.686   2.096
 8177SOL     OW25429   1.204   5.926   4.117
 8177SOL    HW125430   1.233   5.983   4.040
 8177SOL    HW225431   1.111   5.892   4.100
 8178SOL     OW25432   2.214   6.791   6.173
 8178SOL    HW125433   2.184   6.874   6.222
 8178SOL    HW225434   2.197   6.711   6.231
 8179SOL     OW25435   3.283   3.014   0.119
 8179SOL    HW125436   3.375   2.975   0.121
 8179SOL    HW225437   3.278   3.086   0.050
 8180SOL     OW25438   0.428   0.060   4.591
 8180SOL    HW125439   0.525   0.035   4.593
 8180SOL    HW225440   0.417   0.155   4.617
 8181SOL     OW25441   2.766   2.369   2.814
 8181SOL    HW125442   2.714   2.414   2.742
 8181SOL    HW225443   2.855   2.341   2.779
 8182SOL     OW25444   3.058   2.492   6.037
 8182SOL    HW125445   3.065   2.437   5.954
 8182SOL    HW225446   3.053   2.432   6.116
 8183SOL     OW25447   0.468   3.650   5.281
 8183SOL    HW125448   0.518   3.584   5.338
 8183SOL    HW225449   0.529   3.683   5.208
 8184SOL     OW25450   7.011   0.656   5.641
 8184SOL    HW125451   0.013   0.733   5.699
 8184SOL    HW225452   6.966   0.689   5.558
 8185SOL     OW25453   2.625   1.294   1.565
 8185SOL    HW125454   2.628   1.367   1.633
 8185SOL    HW225455   2.696   1.309   1.497
 8186SOL     OW25456   3.471   6.297   5.953
 8186SOL    HW125457   3.491   6.199   5.955
 8186SOL    HW225458   3.435   6.322   5.863
 8187SOL     OW25459   1.656   1.726   5.508
 8187SOL    HW125460   1.575   1.738   5.565
 8187SOL    HW225461   1.699   1.639   5.529
 8188SOL     OW25462   5.457   2.067   2.649
 8188SOL    HW125463   5.367   2.024   2.652
 8188SOL    HW225464   5.528   1.998   2.659
 8189SOL     OW25465   5.600   4.026   2.030
 8189SOL    HW125466   5.527   3.978   2.079
 8189SOL    HW225467   5.683   3.971   2.032
 8190SOL     OW25468   5.102   3.660   4.245
 8190SOL    HW125469   5.121   3.757   4.231
 8190SOL    HW225470   5.186   3.608   4.233
 8191SOL     OW25471   0.971   5.786   3.815
 8191SOL    HW125472   0.963   5.776   3.914
 8191SOL    HW225473   1.043   5.726   3.781
 8192SOL     OW25474   2.502   5.557   1.967
 8192SOL    HW125475   2.553   5.591   1.888
 8192SOL    HW225476   2.409   5.532   1.939
 8193SOL     OW25477   5.020   6.775   5.054
 8193SOL    HW125478   5.007   6.852   5.117
 8193SOL    HW225479   4.938   6.718   5.053
 8194SOL     OW25480   6.408   1.247   6.998
 8194SOL    HW125481   6.323   1.275   0.020
 8194SOL    HW225482   6.388   1.183   6.924
 8195SOL     OW25483   6.591   6.958   0.044
 8195SOL    HW125484   6.540   6.970   0.129
 8195SOL    HW225485   6.580   6.864   0.012
 8196SOL     OW25486   3.803   6.397   6.573
 8196SOL    HW125487   3.817   6.485   6.619
 8196SOL    HW225488   3.741   6.341   6.628
 8197SOL     OW25489   6.554   0.766   6.226
 8197SOL    HW125490   6.581   0.712   6.306
 8197SOL    HW225491   6.455   0.765   6.217
 8198SOL     OW25492   2.535   6.472   3.121
 8198SOL    HW125493   2.546   6.386   3.071
 8198SOL    HW225494   2.439   6.484   3.145
 8199SOL     OW25495   0.494   3.977   6.816
 8199SOL    HW125496   0.432   3.912   6.861
 8199SOL    HW225497   0.480   4.068   6.854
 8200SOL     OW25498   4.524   4.299   1.643
 8200SOL    HW125499   4.520   4.282   1.742
 8200SOL    HW225500   4.438   4.271   1.601
 8201SOL     OW25501   5.885   0.115   3.652
 8201SOL    HW125502   5.867   0.033   3.598
 8201SOL    HW225503   5.945   0.177   3.601
 8202SOL     OW25504   1.485   4.802   3.474
 8202SOL    HW125505   1.539   4.720   3.455
 8202SOL    HW225506   1.493   4.825   3.571
 8203SOL     OW25507   5.034   3.627   1.380
 8203SOL    HW125508   5.017   3.542   1.430
 8203SOL    HW225509   5.107   3.611   1.313
 8204SOL     OW25510   3.358   6.688   2.448
 8204SOL    HW125511   3.292   6.622   2.412
 8204SOL    HW225512   3.354   6.688   2.548
 8205SOL     OW25513   5.484   5.266   1.871
 8205SOL    HW125514   5.425   5.247   1.793
 8205SOL    HW225515   5.572   5.302   1.839
 8206SOL     OW25516   4.201   2.116   5.385
 8206SOL    HW125517   4.289   2.096   5.428
 8206SOL    HW225518   4.127   2.084   5.444
 8207SOL     OW25519   3.136   4.873   6.024
 8207SOL    HW125520   3.044   4.902   5.997
 8207SOL    HW225521   3.133   4.778   6.056
 8208SOL     OW25522   1.879   5.002   1.866
 8208SOL    HW125523   1.866   4.914   1.820
 8208SOL    HW225524   1.892   5.074   1.798
 8209SOL     OW25525   1.311   0.925   5.136
 8209SOL    HW125526   1.361   0.966   5.060
 8209SOL    HW225527   1.362   0.940   5.221
 8210SOL     OW25528   2.063   1.311   0.489
 8210SOL    HW125529   2.129   1.273   0.553
 8210SOL    HW225530   1.975   1.265   0.500
 8211SOL     OW25531   2.900   3.397   4.332
 8211SOL    HW125532   2.817   3.443   4.363
 8211SOL    HW225533   2.965   3.465   4.298
 8212SOL     OW25534   2.322   6.961   1.210
 8212SOL    HW125535   2.254   6.987   1.279
 8212SOL    HW225536   2.331   6.861   1.208
 8213SOL     OW25537   4.320   4.529   1.907
 8213SOL    HW125538   4.388   4.580   1.960
 8213SOL    HW225539   4.347   4.433   1.903
 8214SOL     OW25540   3.045   5.618   4.199
 8214SOL    HW125541   3.077   5.598   4.292
 8214SOL    HW225542   3.109   5.680   4.155
 8215SOL     OW25543   3.988   6.338   0.300
 8215SOL    HW125544   3.921   6.292   0.242
 8215SOL    HW225545   4.003   6.431   0.267
 8216SOL     OW25546   4.534   6.029   2.377
 8216SOL    HW125547   4.613   6.086   2.401
 8216SOL    HW225548   4.556   5.933   2.393
 8217SOL     OW25549   2.625   5.303   3.947
 8217SOL    HW125550   2.686   5.227   3.970
 8217SOL    HW225551   2.679   5.386   3.936
 8218SOL     OW25552   1.635   0.289   4.792
 8218SOL    HW125553   1.538   0.269   4.807
 8218SOL    HW225554   1.668   0.235   4.714
 8219SOL     OW25555   3.963   4.025   0.615
 8219SOL    HW125556   4.007   3.975   0.540
 8219SOL    HW225557   4.027   4.091   0.653
 8220SOL     OW25558   3.896   4.035   4.573
 8220SOL    HW125559   3.819   3.973   4.589
 8220SOL    HW225560   3.981   3.983   4.564
 8221SOL     OW25561   6.239   3.353   3.673
 8221SOL    HW125562   6.247   3.269   3.619
 8221SOL    HW225563   6.324   3.368   3.725
 8222SOL     OW25564   5.974   2.445   1.406
 8222SOL    HW125565   6.037   2.490   1.342
 8222SOL    HW225566   5.918   2.514   1.451
 8223SOL     OW25567   0.136   5.868   5.757
 8223SOL    HW125568   0.044   5.888   5.723
 8223SOL    HW225569   0.163   5.938   5.822
 8224SOL     OW25570   5.335   2.297   0.205
 8224SOL    HW125571   5.316   2.252   0.117
 8224SOL    HW225572   5.260   2.278   0.269
 8225SOL     OW25573   4.622   1.800   0.342
 8225SOL    HW125574   4.644   1.885   0.388
 8225SOL    HW225575   4.530   1.770   0.368
 8226SOL     OW25576   3.393   0.822   0.296
 8226SOL    HW125577   3.456   0.766   0.241
 8226SOL    HW225578   3.323   0.762   0.336
 8227SOL     OW25579   5.330   2.290   2.765
 8227SOL    HW125580   5.237   2.255   2.776
 8227SOL    HW225581   5.385   2.222   2.715
 8228SOL     OW25582   0.796   1.152   5.727
 8228SOL    HW125583   0.718   1.103   5.689
 8228SOL    HW225584   0.821   1.111   5.815
 8229SOL     OW25585   4.155   4.720   0.950
 8229SOL    HW125586   4.249   4.720   0.984
 8229SOL    HW225587   4.126   4.626   0.930
 8230SOL     OW25588   4.388   1.137   5.681
 8230SOL    HW125589   4.440   1.135   5.596
 8230SOL    HW225590   4.299   1.094   5.667
 8231SOL     OW25591   3.067   1.487   2.387
 8231SOL    HW125592   3.130   1.562   2.367
 8231SOL    HW225593   3.039   1.491   2.483
 8232SOL     OW25594   4.365   6.737   2.540
 8232SOL    HW125595   4.357   6.750   2.639
 8232SOL    HW225596   4.331   6.818   2.492
 8233SOL     OW25597   0.337   0.751   5.107
 8233SOL    HW125598   0.268   0.768   5.037
 8233SOL    HW225599   0.421   0.801   5.085
 8234SOL     OW25600   2.322   2.610   0.441
 8234SOL    HW125601   2.401   2.642   0.493
 8234SOL    HW225602   2.317   2.660   0.354
 8235SOL     OW25603   6.928   5.568   0.463
 8235SOL    HW125604   6.942   5.660   0.500
 8235SOL    HW225605   6.832   5.542   0.473
 8236SOL     OW25606   1.088   6.708   5.968
 8236SOL    HW125607   0.989   6.698   5.971
 8236SOL    HW225608   1.112   6.782   5.904
 8237SOL     OW25609   4.497   5.455   6.286
 8237SOL    HW125610   4.517   5.466   6.383
 8237SOL    HW225611   4.531   5.367   6.254
 8238SOL     OW25612   1.993   4.614   0.931
 8238SOL    HW125613   1.961   4.570   1.015
 8238SOL    HW225614   2.070   4.563   0.893
 8239SOL     OW25615   0.571   1.836   5.256
 8239SOL    HW125616   0.512   1.768   5.299
 8239SOL    HW225617   0.528   1.868   5.171
 8240SOL     OW25618   3.752   3.891   4.949
 8240SOL    HW125619   3.733   3.988   4.933
 8240SOL    HW225620   3.845   3.870   4.919
 8241SOL     OW25621   1.788   3.865   6.424
 8241SOL    HW125622   1.779   3.924   6.344
 8241SOL    HW225623   1.700   3.862   6.473
 8242SOL     OW25624   0.685   3.623   4.408
 8242SOL    HW125625   0.588   3.640   4.393
 8242SOL    HW225626   0.697   3.562   4.487
 8243SOL     OW25627   0.574   4.863   4.753
 8243SOL    HW125628   0.492   4.915   4.730
 8243SOL    HW225629   0.558   4.766   4.736
 8244SOL     OW25630   1.746   0.450   3.675
 8244SOL    HW125631   1.841   0.473   3.656
 8244SOL    HW225632   1.728   0.460   3.773
 8245SOL     OW25633   5.394   1.601   4.010
 8245SOL    HW125634   5.323   1.667   4.033
 8245SOL    HW225635   5.429   1.557   4.093
 8246SOL     OW25636   1.526   4.522   6.681
 8246SOL    HW125637   1.534   4.534   6.780
 8246SOL    HW225638   1.528   4.612   6.637
 8247SOL     OW25639   3.420   5.569   3.202
 8247SOL    HW125640   3.394   5.596   3.109
 8247SOL    HW225641   3.415   5.469   3.210
 8248SOL     OW25642   0.800   5.170   2.932
 8248SOL    HW125643   0.841   5.089   2.974
 8248SOL    HW225644   0.858   5.250   2.950
 8249SOL     OW25645   2.415   2.179   6.035
 8249SOL    HW125646   2.341   2.246   6.037
 8249SOL    HW225647   2.499   2.221   6.072
 8250SOL     OW25648   1.728   1.620   6.443
 8250SOL    HW125649   1.816   1.642   6.400
 8250SOL    HW225650   1.736   1.632   6.542
 8251SOL     OW25651   0.089   2.418   4.812
 8251SOL    HW125652   0.142   2.484   4.760
 8251SOL    HW225653   0.062   2.342   4.752
 8252SOL     OW25654   1.822   2.315   6.725
 8252SOL    HW125655   1.841   2.290   6.820
 8252SOL    HW225656   1.745   2.379   6.722
 8253SOL     OW25657   3.956   5.968   0.383
 8253SOL    HW125658   3.872   6.009   0.349
 8253SOL    HW225659   4.013   5.941   0.305
 8254SOL     OW25660   5.191   5.109   0.514
 8254SOL    HW125661   5.185   5.208   0.497
 8254SOL    HW225662   5.286   5.080   0.508
 8255SOL     OW25663   0.360   6.186   6.265
 8255SOL    HW125664   0.421   6.107   6.258
 8255SOL    HW225665   0.393   6.259   6.205
 8256SOL     OW25666   1.719   5.764   2.681
 8256SOL    HW125667   1.629   5.727   2.706
 8256SOL    HW225668   1.790   5.710   2.725
 8257SOL     OW25669   4.847   3.974   3.999
 8257SOL    HW125670   4.927   4.018   3.958
 8257SOL    HW225671   4.842   3.880   3.967
 8258SOL     OW25672   6.693   3.175   1.687
 8258SOL    HW125673   6.696   3.118   1.769
 8258SOL    HW225674   6.659   3.266   1.711
 8259SOL     OW25675   4.287   1.566   3.734
 8259SOL    HW125676   4.339   1.561   3.649
 8259SOL    HW225677   4.336   1.516   3.806
 8260SOL     OW25678   3.328   0.799   1.013
 8260SOL    HW125679   3.247   0.742   0.998
 8260SOL    HW225680   3.381   0.803   0.928
 8261SOL     OW25681   5.276   0.491   3.212
 8261SOL    HW125682   5.189   0.441   3.214
 8261SOL    HW225683   5.337   0.454   3.282
 8262SOL     OW25684   6.890   3.882   1.926
 8262SOL    HW125685   6.871   3.960   1.866
 8262SOL    HW225686   6.833   3.805   1.897
 8263SOL     OW25687   6.992   2.408   6.085
 8263SOL    HW125688   0.025   2.326   6.078
 8263SOL    HW225689   0.023   2.487   6.055
 8264SOL     OW25690   2.056   6.400   2.954
 8264SOL    HW125691   2.045   6.482   3.010
 8264SOL    HW225692   2.041   6.423   2.858
 8265SOL     OW25693   5.563   0.972   0.817
 8265SOL    HW125694   5.524   0.962   0.725
 8265SOL    HW225695   5.549   1.065   0.849
 8266SOL     OW25696   2.152   0.363   3.544
 8266SOL    HW125697   2.098   0.432   3.591
 8266SOL    HW225698   2.227   0.407   3.494
 8267SOL     OW25699   1.796   4.020   3.250
 8267SOL    HW125700   1.816   4.040   3.154
 8267SOL    HW225701   1.799   3.921   3.265
 8268SOL     OW25702   3.219   4.704   6.768
 8268SOL    HW125703   3.256   4.745   6.851
 8268SOL    HW225704   3.172   4.619   6.790
 8269SOL     OW25705   4.868   1.956   3.349
 8269SOL    HW125706   4.818   1.882   3.393
 8269SOL    HW225707   4.810   2.037   3.343
 8270SOL     OW25708   3.885   6.998   5.985
 8270SOL    HW125709   3.975   6.970   5.952
 8270SOL    HW225710   3.870   0.072   5.962
 8271SOL     OW25711   4.057   6.548   5.332
 8271SOL    HW125712   4.008   6.503   5.407
 8271SOL    HW225713   4.029   6.644   5.326
 8272SOL     OW25714   0.807   6.882   1.549
 8272SOL    HW125715   0.835   6.815   1.481
 8272SOL    HW225716   0.783   6.968   1.503
 8273SOL     OW25717   2.711   6.719   6.800
 8273SOL    HW125718   2.772   6.784   6.757
 8273SOL    HW225719   2.760   6.669   6.872
 8274SOL     OW25720   5.221   6.405   6.295
 8274SOL    HW125721   5.258   6.399   6.202
 8274SOL    HW225722   5.151   6.476   6.299
 8275SOL     OW25723   5.495   0.932   4.421
 8275SOL    HW125724   5.526   0.900   4.511
 8275SOL    HW225725   5.396   0.925   4.415
 8276SOL     OW25726   6.659   3.181   6.402
 8276SOL    HW125727   6.590   3.178   6.474
 8276SOL    HW225728   6.645   3.104   6.340
 8277SOL     OW25729   1.293   5.760   6.272
 8277SOL    HW125730   1.341   5.714   6.198
 8277SOL    HW225731   1.245   5.693   6.329
 8278SOL     OW25732   3.699   1.210   0.001
 8278SOL    HW125733   3.661   1.133   0.051
 8278SOL    HW225734   3.798   1.212   0.014
 8279SOL     OW25735   4.800   5.746   5.755
 8279SOL    HW125736   4.895   5.770   5.736
 8279SOL    HW225737   4.763   5.694   5.678
 8280SOL     OW25738   5.553   3.123   6.990
 8280SOL    HW125739   5.496   3.106   0.048
 8280SOL    HW225740   5.646   3.146   7.020
 8281SOL     OW25741   2.097   4.767   6.905
 8281SOL    HW125742   2.152   4.695   6.862
 8281SOL    HW225743   2.064   4.735   6.994
 8282SOL     OW25744   3.045   2.559   0.654
 8282SOL    HW125745   3.003   2.577   0.565
 8282SOL    HW225746   3.114   2.629   0.673
 8283SOL     OW25747   0.253   5.057   3.118
 8283SOL    HW125748   0.312   5.013   3.050
 8283SOL    HW225749   0.274   5.154   3.123
 8284SOL     OW25750   2.422   2.350   2.281
 8284SOL    HW125751   2.493   2.321   2.345
 8284SOL    HW225752   2.458   2.422   2.221
 8285SOL     OW25753   3.236   4.227   6.116
 8285SOL    HW125754   3.236   4.318   6.074
 8285SOL    HW225755   3.329   4.204   6.145
 8286SOL     OW25756   5.233   0.786   5.051
 8286SOL    HW125757   5.280   0.866   5.088
 8286SOL    HW225758   5.237   0.788   4.952
 8287SOL     OW25759   1.986   0.580   3.606
 8287SOL    HW125760   1.958   0.615   3.695
 8287SOL    HW225761   1.943   0.634   3.534
 8288SOL     OW25762   1.228   1.368   2.525
 8288SOL    HW125763   1.205   1.273   2.503
 8288SOL    HW225764   1.273   1.371   2.614
 8289SOL     OW25765   6.456   1.567   5.434
 8289SOL    HW125766   6.442   1.609   5.524
 8289SOL    HW225767   6.398   1.486   5.426
 8290SOL     OW25768   3.862   2.495   1.508
 8290SOL    HW125769   3.920   2.488   1.589
 8290SOL    HW225770   3.861   2.408   1.459
 8291SOL     OW25771   6.043   5.906   5.945
 8291SOL    HW125772   6.130   5.884   5.989
 8291SOL    HW225773   5.977   5.834   5.963
 8292SOL     OW25774   1.150   3.695   4.427
 8292SOL    HW125775   1.072   3.707   4.366
 8292SOL    HW225776   1.205   3.618   4.396
 8293SOL     OW25777   3.212   5.344   3.457
 8293SOL    HW125778   3.214   5.285   3.376
 8293SOL    HW225779   3.144   5.417   3.444
 8294SOL     OW25780   6.027   4.177   6.084
 8294SOL    HW125781   5.954   4.162   6.018
 8294SOL    HW225782   6.110   4.205   6.035
 8295SOL     OW25783   4.761   4.330   2.248
 8295SOL    HW125784   4.805   4.248   2.285
 8295SOL    HW225785   4.693   4.304   2.179
 8296SOL     OW25786   3.629   6.814   1.345
 8296SOL    HW125787   3.561   6.842   1.278
 8296SOL    HW225788   3.627   6.715   1.356
 8297SOL     OW25789   5.865   4.782   2.772
 8297SOL    HW125790   5.832   4.757   2.863
 8297SOL    HW225791   5.869   4.881   2.765
 8298SOL     OW25792   6.431   0.225   6.141
 8298SOL    HW125793   6.513   0.183   6.102
 8298SOL    HW225794   6.351   0.170   6.117
 8299SOL     OW25795   0.899   3.815   1.194
 8299SOL    HW125796   0.887   3.781   1.287
 8299SOL    HW225797   0.949   3.748   1.140
 8300SOL     OW25798   5.876   5.201   3.264
 8300SOL    HW125799   5.841   5.179   3.355
 8300SOL    HW225800   5.962   5.251   3.273
 8301SOL     OW25801   4.355   6.484   0.478
 8301SOL    HW125802   4.278   6.546   0.457
 8301SOL    HW225803   4.435   6.539   0.502
 8302SOL     OW25804   3.849   6.744   5.304
 8302SOL    HW125805   3.865   6.715   5.209
 8302SOL    HW225806   3.755   6.723   5.330
 8303SOL     OW25807   6.702   6.365   2.836
 8303SOL    HW125808   6.633   6.302   2.871
 8303SOL    HW225809   6.751   6.406   2.914
 8304SOL     OW25810   5.655   3.828   3.525
 8304SOL    HW125811   5.707   3.787   3.450
 8304SOL    HW225812   5.559   3.803   3.517
 8305SOL     OW25813   5.312   5.707   4.541
 8305SOL    HW125814   5.391   5.735   4.596
 8305SOL    HW225815   5.276   5.787   4.492
 8306SOL     OW25816   6.563   0.925   2.048
 8306SOL    HW125817   6.643   0.948   1.993
 8306SOL    HW225818   6.493   0.996   2.037
 8307SOL     OW25819   2.428   4.772   2.858
 8307SOL    HW125820   2.334   4.771   2.891
 8307SOL    HW225821   2.428   4.768   2.758
 8308SOL     OW25822   1.204   4.997   6.843
 8308SOL    HW125823   1.294   5.010   6.802
 8308SOL    HW225824   1.177   5.080   6.892
 8309SOL     OW25825   6.176   4.301   4.027
 8309SOL    HW125826   6.185   4.327   3.931
 8309SOL    HW225827   6.083   4.269   4.045
 8310SOL     OW25828   0.988   6.476   0.051
 8310SOL    HW125829   1.051   6.409   0.013
 8310SOL    HW225830   0.913   6.493   7.010
 8311SOL     OW25831   5.343   0.507   3.932
 8311SOL    HW125832   5.323   0.605   3.936
 8311SOL    HW225833   5.382   0.484   3.843
 8312SOL     OW25834   5.426   1.699   6.524
 8312SOL    HW125835   5.414   1.782   6.579
 8312SOL    HW225836   5.489   1.637   6.571
 8313SOL     OW25837   4.095   1.631   5.004
 8313SOL    HW125838   4.099   1.694   5.081
 8313SOL    HW225839   4.099   1.682   4.918
 8314SOL     OW25840   4.973   6.139   5.729
 8314SOL    HW125841   5.039   6.072   5.697
 8314SOL    HW225842   4.984   6.224   5.677
 8315SOL     OW25843   3.736   3.557   4.887
 8315SOL    HW125844   3.693   3.479   4.931
 8315SOL    HW225845   3.705   3.641   4.931
 8316SOL     OW25846   1.601   2.269   6.929
 8316SOL    HW125847   1.535   2.339   6.956
 8316SOL    HW225848   1.561   2.212   6.856
 8317SOL     OW25849   1.936   1.330   3.544
 8317SOL    HW125850   1.880   1.307   3.464
 8317SOL    HW225851   1.895   1.289   3.626
 8318SOL     OW25852   4.141   0.091   6.815
 8318SOL    HW125853   4.205   0.136   6.753
 8318SOL    HW225854   4.049   0.128   6.800
 8319SOL     OW25855   1.810   6.742   6.497
 8319SOL    HW125856   1.790   6.649   6.468
 8319SOL    HW225857   1.735   6.802   6.471
 8320SOL     OW25858   2.984   3.895   4.511
 8320SOL    HW125859   3.039   3.812   4.507
 8320SOL    HW225860   2.887   3.870   4.521
 8321SOL     OW25861   6.259   6.540   0.555
 8321SOL    HW125862   6.311   6.537   0.641
 8321SOL    HW225863   6.171   6.583   0.572
 8322SOL     OW25864   6.882   0.793   6.863
 8322SOL    HW125865   6.945   0.870   6.876
 8322SOL    HW225866   6.851   0.791   6.768
 8323SOL     OW25867   4.447   4.804   0.985
 8323SOL    HW125868   4.511   4.811   0.909
 8323SOL    HW225869   4.448   4.889   1.038
 8324SOL     OW25870   5.878   6.930   6.689
 8324SOL    HW125871   5.973   6.920   6.660
 8324SOL    HW225872   5.843   7.019   6.660
 8325SOL     OW25873   1.203   5.641   5.575
 8325SOL    HW125874   1.270   5.664   5.506
 8325SOL    HW225875   1.246   5.643   5.666
 8326SOL     OW25876   1.682   4.010   1.780
 8326SOL    HW125877   1.588   3.986   1.756
 8326SOL    HW225878   1.713   3.952   1.855
 8327SOL     OW25879   1.098   6.751   4.465
 8327SOL    HW125880   1.082   6.659   4.501
 8327SOL    HW225881   1.165   6.798   4.521
 8328SOL     OW25882   1.694   0.371   6.788
 8328SOL    HW125883   1.752   0.421   6.723
 8328SOL    HW225884   1.598   0.387   6.766
 8329SOL     OW25885   1.452   2.450   5.005
 8329SOL    HW125886   1.544   2.416   5.025
 8329SOL    HW225887   1.384   2.387   5.042
 8330SOL     OW25888   3.109   1.521   6.542
 8330SOL    HW125889   3.156   1.542   6.457
 8330SOL    HW225890   3.068   1.605   6.579
 8331SOL     OW25891   1.861   2.241   6.986
 8331SOL    HW125892   1.763   2.255   6.996
 8331SOL    HW225893   1.884   2.147   7.012
 8332SOL     OW25894   6.149   5.192   2.105
 8332SOL    HW125895   6.151   5.276   2.158
 8332SOL    HW225896   6.093   5.124   2.153
 8333SOL     OW25897   2.628   4.814   1.265
 8333SOL    HW125898   2.722   4.792   1.293
 8333SOL    HW225899   2.564   4.784   1.335
 8334SOL     OW25900   3.879   1.719   6.234
 8334SOL    HW125901   3.876   1.789   6.163
 8334SOL    HW225902   3.956   1.737   6.296
 8335SOL     OW25903   5.082   3.742   5.837
 8335SOL    HW125904   5.159   3.730   5.899
 8335SOL    HW225905   5.030   3.656   5.831
 8336SOL     OW25906   1.179   3.889   3.513
 8336SOL    HW125907   1.252   3.830   3.547
 8336SOL    HW225908   1.111   3.833   3.466
 8337SOL     OW25909   0.422   1.409   4.002
 8337SOL    HW125910   0.448   1.381   3.909
 8337SOL    HW225911   0.505   1.426   4.056
 8338SOL     OW25912   4.417   5.288   2.784
 8338SOL    HW125913   4.413   5.388   2.784
 8338SOL    HW225914   4.325   5.251   2.794
 8339SOL     OW25915   6.271   0.102   0.498
 8339SOL    HW125916   6.266   0.006   0.525
 8339SOL    HW225917   6.227   0.114   0.409
 8340SOL     OW25918   5.962   2.883   0.319
 8340SOL    HW125919   5.868   2.858   0.344
 8340SOL    HW225920   5.968   2.981   0.303
 8341SOL     OW25921   2.961   1.188   0.574
 8341SOL    HW125922   2.943   1.152   0.665
 8341SOL    HW225923   2.927   1.125   0.505
 8342SOL     OW25924   4.483   0.636   0.094
 8342SOL    HW125925   4.481   0.621   7.018
 8342SOL    HW225926   4.401   0.598   0.136
 8343SOL     OW25927   5.951   3.826   3.646
 8343SOL    HW125928   5.998   3.738   3.635
 8343SOL    HW225929   5.861   3.811   3.686
 8344SOL     OW25930   1.324   5.197   5.449
 8344SOL    HW125931   1.250   5.223   5.511
 8344SOL    HW225932   1.345   5.274   5.389
 8345SOL     OW25933   4.547   0.736   2.517
 8345SOL    HW125934   4.539   0.671   2.441
 8345SOL    HW225935   4.546   0.686   2.604
 8346SOL     OW25936   4.842   3.174   5.377
 8346SOL    HW125937   4.828   3.207   5.283
 8346SOL    HW225938   4.754   3.159   5.420
 8347SOL     OW25939   2.334   0.104   6.007
 8347SOL    HW125940   2.309   0.177   5.942
 8347SOL    HW225941   2.316   0.136   6.100
 8348SOL     OW25942   3.562   6.885   2.169
 8348SOL    HW125943   3.562   6.977   2.208
 8348SOL    HW225944   3.545   6.891   2.070
 8349SOL     OW25945   1.034   6.445   2.270
 8349SOL    HW125946   0.978   6.521   2.237
 8349SOL    HW225947   1.089   6.409   2.194
 8350SOL     OW25948   2.417   6.791   6.871
 8350SOL    HW125949   2.504   6.807   6.918
 8350SOL    HW225950   2.386   6.875   6.827
 8351SOL     OW25951   6.806   4.029   3.729
 8351SOL    HW125952   6.899   4.053   3.756
 8351SOL    HW225953   6.764   4.107   3.681
 8352SOL     OW25954   2.829   5.359   1.525
 8352SOL    HW125955   2.806   5.413   1.605
 8352SOL    HW225956   2.767   5.382   1.450
 8353SOL     OW25957   1.778   4.025   2.574
 8353SOL    HW125958   1.782   3.926   2.561
 8353SOL    HW225959   1.843   4.069   2.512
 8354SOL     OW25960   3.333   0.097   3.901
 8354SOL    HW125961   3.305   0.191   3.918
 8354SOL    HW225962   3.255   0.045   3.863
 8355SOL     OW25963   1.892   6.197   5.634
 8355SOL    HW125964   1.893   6.264   5.560
 8355SOL    HW225965   1.953   6.228   5.707
 8356SOL     OW25966   1.552   5.463   1.042
 8356SOL    HW125967   1.490   5.398   0.999
 8356SOL    HW225968   1.605   5.417   1.114
 8357SOL     OW25969   4.620   6.359   5.979
 8357SOL    HW125970   4.526   6.391   5.963
 8357SOL    HW225971   4.636   6.351   6.077
 8358SOL     OW25972   1.210   2.349   4.616
 8358SOL    HW125973   1.168   2.434   4.582
 8358SOL    HW225974   1.160   2.317   4.696
 8359SOL     OW25975   3.051   1.924   5.439
 8359SOL    HW125976   3.128   1.958   5.493
 8359SOL    HW225977   3.058   1.958   5.345
 8360SOL     OW25978   5.025   0.562   0.959
 8360SOL    HW125979   5.000   0.655   0.985
 8360SOL    HW225980   5.065   0.516   1.039
 8361SOL     OW25981   3.435   0.215   0.227
 8361SOL    HW125982   3.450   0.116   0.230
 8361SOL    HW225983   3.465   0.256   0.313
 8362SOL     OW25984   6.709   3.703   1.750
 8362SOL    HW125985   6.783   3.685   1.686
 8362SOL    HW225986   6.688   3.620   1.801
 8363SOL     OW25987   2.744   2.421   6.970
 8363SOL    HW125988   2.670   2.454   0.006
 8363SOL    HW225989   2.743   2.470   6.883
 8364SOL     OW25990   0.039   2.305   4.101
 8364SOL    HW125991   0.097   2.290   4.181
 8364SOL    HW225992   0.096   2.323   4.021
 8365SOL     OW25993   2.047   2.677   3.073
 8365SOL    HW125994   2.058   2.772   3.042
 8365SOL    HW225995   2.107   2.617   3.019
 8366SOL     OW25996   5.103   5.914   1.296
 8366SOL    HW125997   5.150   5.871   1.373
 8366SOL    HW225998   5.005   5.895   1.300
 8367SOL     OW25999   4.223   5.199   4.677
 8367SOL    HW126000   4.157   5.139   4.630
 8367SOL    HW226001   4.207   5.294   4.651
 8368SOL     OW26002   0.524   6.008   0.561
 8368SOL    HW126003   0.511   5.989   0.463
 8368SOL    HW226004   0.473   6.091   0.586
 8369SOL     OW26005   1.655   1.363   0.010
 8369SOL    HW126006   1.718   1.440   7.017
 8369SOL    HW226007   1.692   1.281   6.989
 8370SOL     OW26008   3.170   2.555   0.181
 8370SOL    HW126009   3.213   2.605   0.106
 8370SOL    HW226010   3.241   2.514   0.239
 8371SOL     OW26011   2.165   4.508   5.900
 8371SOL    HW126012   2.122   4.496   5.989
 8371SOL    HW226013   2.101   4.481   5.828
 8372SOL     OW26014   1.764   5.844   2.434
 8372SOL    HW126015   1.705   5.776   2.390
 8372SOL    HW226016   1.780   5.818   2.529
 8373SOL     OW26017   0.036   0.855   4.289
 8373SOL    HW126018   0.070   0.769   4.327
 8373SOL    HW226019   0.083   0.931   4.334
 8374SOL     OW26020   1.422   0.494   4.949
 8374SOL    HW126021   1.327   0.525   4.949
 8374SOL    HW226022   1.427   0.401   4.985
 8375SOL     OW26023   4.030   1.349   4.993
 8375SOL    HW126024   3.975   1.313   5.068
 8375SOL    HW226025   4.068   1.438   5.019
 8376SOL     OW26026   1.879   0.504   2.943
 8376SOL    HW126027   1.788   0.477   2.973
 8376SOL    HW226028   1.894   0.601   2.965
 8377SOL     OW26029   5.155   5.564   6.482
 8377SOL    HW126030   5.127   5.531   6.572
 8377SOL    HW226031   5.167   5.663   6.485
 8378SOL     OW26032   6.458   6.007   3.663
 8378SOL    HW126033   6.392   5.962   3.723
 8378SOL    HW226034   6.410   6.065   3.597
 8379SOL     OW26035   5.859   1.036   2.177
 8379SOL    HW126036   5.868   1.132   2.150
 8379SOL    HW226037   5.939   0.985   2.144
 8380SOL     OW26038   6.631   5.512   0.474
 8380SOL    HW126039   6.622   5.415   0.498
 8380SOL    HW226040   6.586   5.529   0.387
 8381SOL     OW26041   0.139   1.438   2.631
 8381SOL    HW126042   0.069   1.508   2.618
 8381SOL    HW226043   0.229   1.478   2.613
 8382SOL     OW26044   2.451   0.307   0.349
 8382SOL    HW126045   2.447   0.212   0.320
 8382SOL    HW226046   2.366   0.354   0.325
 8383SOL     OW26047   2.928   6.307   5.272
 8383SOL    HW126048   3.027   6.325   5.267
 8383SOL    HW226049   2.881   6.389   5.305
 8384SOL     OW26050   0.693   2.784   0.604
 8384SOL    HW126051   0.606   2.817   0.568
 8384SOL    HW226052   0.767   2.813   0.544
 8385SOL     OW26053   4.189   3.524   0.763
 8385SOL    HW126054   4.228   3.447   0.711
 8385SOL    HW226055   4.175   3.602   0.701
 8386SOL     OW26056   1.381   5.464   1.722
 8386SOL    HW126057   1.392   5.365   1.720
 8386SOL    HW226058   1.462   5.506   1.764
 8387SOL     OW26059   1.784   1.083   1.659
 8387SOL    HW126060   1.853   1.118   1.722
 8387SOL    HW226061   1.790   1.133   1.573
 8388SOL     OW26062   3.181   6.633   0.670
 8388SOL    HW126063   3.237   6.702   0.718
 8388SOL    HW226064   3.107   6.603   0.729
 8389SOL     OW26065   1.412   2.393   4.419
 8389SOL    HW126066   1.325   2.396   4.469
 8389SOL    HW226067   1.487   2.401   4.484
 8390SOL     OW26068   2.041   0.601   5.608
 8390SOL    HW126069   2.013   0.511   5.573
 8390SOL    HW226070   2.114   0.589   5.675
 8391SOL     OW26071   4.818   5.369   1.582
 8391SOL    HW126072   4.913   5.375   1.550
 8391SOL    HW226073   4.814   5.310   1.662
 8392SOL     OW26074   5.765   6.511   5.185
 8392SOL    HW126075   5.764   6.611   5.189
 8392SOL    HW226076   5.777   6.482   5.090
 8393SOL     OW26077   0.761   6.258   3.057
 8393SOL    HW126078   0.832   6.215   3.113
 8393SOL    HW226079   0.728   6.341   3.101
 8394SOL     OW26080   0.942   1.579   3.372
 8394SOL    HW126081   0.855   1.530   3.363
 8394SOL    HW226082   0.958   1.633   3.289
 8395SOL     OW26083   0.196   6.405   4.788
 8395SOL    HW126084   0.171   6.327   4.846
 8395SOL    HW226085   0.289   6.435   4.812
 8396SOL     OW26086   4.802   3.892   2.673
 8396SOL    HW126087   4.740   3.897   2.752
 8396SOL    HW226088   4.838   3.799   2.665
 8397SOL     OW26089   1.720   6.053   2.772
 8397SOL    HW126090   1.728   5.954   2.769
 8397SOL    HW226091   1.648   6.079   2.837
 8398SOL     OW26092   4.350   1.514   0.331
 8398SOL    HW126093   4.276   1.474   0.276
 8398SOL    HW226094   4.338   1.613   0.337
 8399SOL     OW26095   5.114   6.135   0.269
 8399SOL    HW126096   5.211   6.155   0.265
 8399SOL    HW226097   5.064   6.198   0.210
 8400SOL     OW26098   0.138   0.065   2.532
 8400SOL    HW126099   0.149   0.057   2.433
 8400SOL    HW226100   0.123   6.997   2.572
 8401SOL     OW26101   3.656   4.072   5.995
 8401SOL    HW126102   3.745   4.106   5.966
 8401SOL    HW226103   3.642   3.981   5.957
 8402SOL     OW26104   4.057   1.786   6.452
 8402SOL    HW126105   4.103   1.868   6.420
 8402SOL    HW226106   4.011   1.805   6.538
 8403SOL     OW26107   1.472   1.420   4.358
 8403SOL    HW126108   1.533   1.493   4.327
 8403SOL    HW226109   1.383   1.431   4.314
 8404SOL     OW26110   4.702   6.017   5.698
 8404SOL    HW126111   4.779   6.081   5.694
 8404SOL    HW226112   4.735   5.928   5.728
 8405SOL     OW26113   0.369   2.252   6.270
 8405SOL    HW126114   0.457   2.225   6.231
 8405SOL    HW226115   0.364   2.352   6.273
 8406SOL     OW26116   4.858   2.317   1.455
 8406SOL    HW126117   4.889   2.355   1.542
 8406SOL    HW226118   4.911   2.236   1.433
 8407SOL     OW26119   5.499   4.265   4.044
 8407SOL    HW126120   5.553   4.329   3.987
 8407SOL    HW226121   5.560   4.220   4.109
 8408SOL     OW26122   4.912   1.734   3.968
 8408SOL    HW126123   4.877   1.737   4.062
 8408SOL    HW226124   4.843   1.770   3.905
 8409SOL     OW26125   1.581   1.542   4.068
 8409SOL    HW126126   1.639   1.591   4.002
 8409SOL    HW226127   1.620   1.451   4.083
 8410SOL     OW26128   3.955   6.740   1.275
 8410SOL    HW126129   3.947   6.840   1.269
 8410SOL    HW226130   4.031   6.717   1.335
 8411SOL     OW26131   1.942   4.202   4.379
 8411SOL    HW126132   2.035   4.186   4.345
 8411SOL    HW226133   1.876   4.176   4.308
 8412SOL     OW26134   4.402   2.245   1.932
 8412SOL    HW126135   4.440   2.336   1.952
 8412SOL    HW226136   4.302   2.251   1.929
 8413SOL     OW26137   3.507   4.995   0.521
 8413SOL    HW126138   3.586   5.043   0.482
 8413SOL    HW226139   3.465   4.937   0.451
 8414SOL     OW26140   4.022   6.140   3.307
 8414SOL    HW126141   4.085   6.074   3.266
 8414SOL    HW226142   4.054   6.162   3.399
 8415SOL     OW26143   6.882   4.008   3.404
 8415SOL    HW126144   6.916   4.028   3.495
 8415SOL    HW226145   6.929   3.928   3.368
 8416SOL     OW26146   5.312   3.775   2.468
 8416SOL    HW126147   5.239   3.801   2.405
 8416SOL    HW226148   5.316   3.842   2.543
 8417SOL     OW26149   2.104   6.171   6.424
 8417SOL    HW126150   2.155   6.085   6.428
 8417SOL    HW226151   2.026   6.166   6.486
 8418SOL     OW26152   6.530   5.680   2.731
 8418SOL    HW126153   6.600   5.743   2.765
 8418SOL    HW226154   6.462   5.665   2.802
 8419SOL     OW26155   4.240   0.447   2.253
 8419SOL    HW126156   4.260   0.531   2.304
 8419SOL    HW226157   4.324   0.394   2.243
 8420SOL     OW26158   4.023   0.621   6.114
 8420SOL    HW126159   4.019   0.564   6.031
 8420SOL    HW226160   3.930   0.645   6.142
 8421SOL     OW26161   1.799   6.407   2.110
 8421SOL    HW126162   1.812   6.352   2.193
 8421SOL    HW226163   1.875   6.389   2.046
 8422SOL     OW26164   4.645   6.699   0.279
 8422SOL    HW126165   4.641   6.662   0.372
 8422SOL    HW226166   4.655   6.799   0.284
 8423SOL     OW26167   3.487   4.615   0.461
 8423SOL    HW126168   3.490   4.563   0.376
 8423SOL    HW226169   3.551   4.691   0.457
 8424SOL     OW26170   3.418   1.832   2.879
 8424SOL    HW126171   3.486   1.801   2.812
 8424SOL    HW226172   3.391   1.926   2.856
 8425SOL     OW26173   5.939   5.129   1.578
 8425SOL    HW126174   6.008   5.170   1.637
 8425SOL    HW226175   5.901   5.048   1.623
 8426SOL     OW26176   3.790   3.545   3.438
 8426SOL    HW126177   3.750   3.526   3.349
 8426SOL    HW226178   3.747   3.486   3.507
 8427SOL     OW26179   2.013   3.767   6.729
 8427SOL    HW126180   1.999   3.704   6.805
 8427SOL    HW226181   2.110   3.792   6.723
 8428SOL     OW26182   0.391   4.296   2.325
 8428SOL    HW126183   0.364   4.201   2.339
 8428SOL    HW226184   0.416   4.337   2.412
 8429SOL     OW26185   2.115   5.522   3.706
 8429SOL    HW126186   2.174   5.469   3.646
 8429SOL    HW226187   2.169   5.593   3.752
 8430SOL     OW26188   4.583   4.658   3.037
 8430SOL    HW126189   4.671   4.613   3.054
 8430SOL    HW226190   4.597   4.736   2.977
 8431SOL     OW26191   3.496   4.598   1.047
 8431SOL    HW126192   3.479   4.549   1.133
 8431SOL    HW226193   3.414   4.592   0.989
 8432SOL     OW26194   4.075   5.737   6.460
 8432SOL    HW126195   3.981   5.749   6.492
 8432SOL    HW226196   4.111   5.824   6.429
 8433SOL     OW26197   1.093   2.877   6.306
 8433SOL    HW126198   1.092   2.919   6.397
 8433SOL    HW226199   1.110   2.779   6.315
 8434SOL     OW26200   4.865   6.537   5.843
 8434SOL    HW126201   4.836   6.622   5.799
 8434SOL    HW226202   4.788   6.473   5.843
 8435SOL     OW26203   4.669   1.965   1.335
 8435SOL    HW126204   4.601   1.895   1.357
 8435SOL    HW226205   4.635   2.022   1.260
 8436SOL     OW26206   4.294   4.653   2.487
 8436SOL    HW126207   4.334   4.686   2.401
 8436SOL    HW226208   4.201   4.620   2.470
 8437SOL     OW26209   0.666   1.093   0.966
 8437SOL    HW126210   0.606   1.133   1.035
 8437SOL    HW226211   0.655   1.141   0.879
 8438SOL     OW26212   2.795   4.685   2.563
 8438SOL    HW126213   2.883   4.730   2.571
 8438SOL    HW226214   2.776   4.664   2.466
 8439SOL     OW26215   0.275   5.483   2.336
 8439SOL    HW126216   0.254   5.581   2.338
 8439SOL    HW226217   0.251   5.442   2.424
 8440SOL     OW26218   0.182   0.839   1.453
 8440SOL    HW126219   0.237   0.880   1.526
 8440SOL    HW226220   0.112   0.780   1.493
 8441SOL     OW26221   5.691   5.799   6.521
 8441SOL    HW126222   5.734   5.885   6.493
 8441SOL    HW226223   5.611   5.782   6.463
 8442SOL     OW26224   2.540   4.497   0.125
 8442SOL    HW126225   2.529   4.490   0.026
 8442SOL    HW226226   2.628   4.540   0.147
 8443SOL     OW26227   1.048   0.566   3.065
 8443SOL    HW126228   1.125   0.620   3.100
 8443SOL    HW226229   0.986   0.544   3.140
 8444SOL     OW26230   4.006   6.435   3.810
 8444SOL    HW126231   3.997   6.428   3.711
 8444SOL    HW226232   3.979   6.349   3.852
 8445SOL     OW26233   3.422   5.344   2.902
 8445SOL    HW126234   3.438   5.293   2.817
 8445SOL    HW226235   3.388   5.282   2.972
 8446SOL     OW26236   5.324   5.227   2.734
 8446SOL    HW126237   5.358   5.312   2.694
 8446SOL    HW226238   5.302   5.162   2.661
 8447SOL     OW26239   5.157   2.283   2.007
 8447SOL    HW126240   5.076   2.334   1.978
 8447SOL    HW226241   5.208   2.337   2.074
 8448SOL     OW26242   0.181   3.871   6.479
 8448SOL    HW126243   0.259   3.929   6.503
 8448SOL    HW226244   0.166   3.875   6.380
 8449SOL     OW26245   0.680   3.481   4.924
 8449SOL    HW126246   0.585   3.501   4.902
 8449SOL    HW226247   0.701   3.387   4.898
 8450SOL     OW26248   1.475   6.174   2.865
 8450SOL    HW126249   1.488   6.270   2.844
 8450SOL    HW226250   1.437   6.165   2.957
 8451SOL     OW26251   3.894   3.300   1.341
 8451SOL    HW126252   3.817   3.358   1.367
 8451SOL    HW226253   3.961   3.300   1.415
 8452SOL     OW26254   6.626   0.420   1.112
 8452SOL    HW126255   6.681   0.488   1.161
 8452SOL    HW226256   6.678   0.335   1.105
 8453SOL     OW26257   6.294   4.688   6.879
 8453SOL    HW126258   6.273   4.609   6.936
 8453SOL    HW226259   6.378   4.669   6.827
 8454SOL     OW26260   1.343   6.836   3.086
 8454SOL    HW126261   1.388   6.874   3.166
 8454SOL    HW226262   1.280   6.904   3.048
 8455SOL     OW26263   4.708   1.648   1.109
 8455SOL    HW126264   4.663   1.569   1.068
 8455SOL    HW226265   4.752   1.620   1.194
 8456SOL     OW26266   5.394   5.377   3.990
 8456SOL    HW126267   5.334   5.334   3.923
 8456SOL    HW226268   5.489   5.370   3.958
 8457SOL     OW26269   6.995   0.360   5.609
 8457SOL    HW126270   6.986   0.330   5.704
 8457SOL    HW226271   6.987   0.459   5.603
 8458SOL     OW26272   1.688   2.054   0.136
 8458SOL    HW126273   1.643   2.003   0.210
 8458SOL    HW226274   1.711   1.992   0.062
 8459SOL     OW26275   3.483   5.748   2.255
 8459SOL    HW126276   3.399   5.786   2.292
 8459SOL    HW226277   3.486   5.764   2.156
 8460SOL     OW26278   4.732   2.254   6.962
 8460SOL    HW126279   4.788   2.238   6.882
 8460SOL    HW226280   4.682   2.170   6.985
 8461SOL     OW26281   0.689   4.045   1.616
 8461SOL    HW126282   0.679   4.013   1.522
 8461SOL    HW226283   0.776   4.014   1.653
 8462SOL     OW26284   3.575   4.231   6.939
 8462SOL    HW126285   3.633   4.155   6.909
 8462SOL    HW226286   3.516   4.201   7.014
 8463SOL     OW26287   7.012   2.116   0.276
 8463SOL    HW126288   0.022   2.086   0.186
 8463SOL    HW226289   6.913   2.104   0.281
 8464SOL     OW26290   0.445   3.532   6.769
 8464SOL    HW126291   0.457   3.591   6.689
 8464SOL    HW226292   0.395   3.450   6.742
 8465SOL     OW26293   3.647   2.141   1.149
 8465SOL    HW126294   3.650   2.091   1.236
 8465SOL    HW226295   3.620   2.236   1.166
 8466SOL     OW26296   5.532   0.649   5.498
 8466SOL    HW126297   5.541   0.653   5.399
 8466SOL    HW226298   5.591   0.577   5.535
 8467SOL     OW26299   3.253   1.032   0.412
 8467SOL    HW126300   3.309   0.960   0.372
 8467SOL    HW226301   3.229   1.008   0.506
 8468SOL     OW26302   6.153   3.883   6.669
 8468SOL    HW126303   6.201   3.944   6.605
 8468SOL    HW226304   6.219   3.819   6.709
 8469SOL     OW26305   4.328   2.643   5.583
 8469SOL    HW126306   4.314   2.741   5.571
 8469SOL    HW226307   4.325   2.620   5.680
 8470SOL     OW26308   0.837   4.639   1.184
 8470SOL    HW126309   0.747   4.595   1.179
 8470SOL    HW226310   0.859   4.656   1.280
 8471SOL     OW26311   2.855   0.623   5.072
 8471SOL    HW126312   2.916   0.628   5.151
 8471SOL    HW226313   2.800   0.539   5.078
 8472SOL     OW26314   5.339   1.645   6.265
 8472SOL    HW126315   5.375   1.626   6.357
 8472SOL    HW226316   5.247   1.684   6.273
 8473SOL     OW26317   4.859   4.897   7.010
 8473SOL    HW126318   4.893   4.963   6.943
 8473SOL    HW226319   4.858   4.805   6.968
 8474SOL     OW26320   3.098   3.041   2.750
 8474SOL    HW126321   3.006   3.051   2.788
 8474SOL    HW226322   3.132   3.131   2.722
 8475SOL     OW26323   0.056   3.401   1.235
 8475SOL    HW126324   0.105   3.414   1.149
 8475SOL    HW226325   6.999   3.343   1.221
 8476SOL     OW26326   6.315   0.303   1.550
 8476SOL    HW126327   6.402   0.278   1.593
 8476SOL    HW226328   6.297   0.243   1.472
 8477SOL     OW26329   4.655   6.876   1.461
 8477SOL    HW126330   4.666   6.864   1.560
 8477SOL    HW226331   4.725   6.938   1.427
 8478SOL     OW26332   0.766   0.429   5.631
 8478SOL    HW126333   0.716   0.450   5.715
 8478SOL    HW226334   0.864   0.435   5.648
 8479SOL     OW26335   1.772   2.258   1.025
 8479SOL    HW126336   1.819   2.245   0.938
 8479SOL    HW226337   1.813   2.200   1.095
 8480SOL     OW26338   4.526   3.000   0.324
 8480SOL    HW126339   4.598   3.040   0.267
 8480SOL    HW226340   4.567   2.952   0.401
 8481SOL     OW26341   3.629   2.084   4.416
 8481SOL    HW126342   3.590   2.101   4.506
 8481SOL    HW226343   3.713   2.137   4.405
 8482SOL     OW26344   4.679   1.129   6.938
 8482SOL    HW126345   4.635   1.077   7.011
 8482SOL    HW226346   4.771   1.094   6.921
 8483SOL     OW26347   3.471   6.010   3.631
 8483SOL    HW126348   3.529   5.995   3.551
 8483SOL    HW226349   3.389   6.061   3.605
 8484SOL     OW26350   6.402   5.979   5.007
 8484SOL    HW126351   6.312   6.021   5.001
 8484SOL    HW226352   6.472   6.049   4.998
 8485SOL     OW26353   3.601   2.158   0.097
 8485SOL    HW126354   3.695   2.128   0.082
 8485SOL    HW226355   3.586   2.175   0.195
 8486SOL     OW26356   1.499   1.311   2.098
 8486SOL    HW126357   1.594   1.285   2.114
 8486SOL    HW226358   1.456   1.246   2.035
 8487SOL     OW26359   5.470   1.909   5.939
 8487SOL    HW126360   5.508   1.891   6.029
 8487SOL    HW226361   5.507   1.995   5.903
 8488SOL     OW26362   5.886   5.933   2.694
 8488SOL    HW126363   5.810   5.964   2.751
 8488SOL    HW226364   5.855   5.860   2.633
 8489SOL     OW26365   5.570   1.065   1.336
 8489SOL    HW126366   5.667   1.049   1.354
 8489SOL    HW226367   5.552   1.164   1.335
 8490SOL     OW26368   2.477   6.654   6.334
 8490SOL    HW126369   2.554   6.594   6.357
 8490SOL    HW226370   2.392   6.602   6.339
 8491SOL     OW26371   2.032   5.753   2.540
 8491SOL    HW126372   2.009   5.700   2.621
 8491SOL    HW226373   1.988   5.711   2.460
 8492SOL     OW26374   6.177   3.631   4.512
 8492SOL    HW126375   6.107   3.567   4.482
 8492SOL    HW226376   6.205   3.689   4.435
 8493SOL     OW26377   3.128   1.427   0.454
 8493SOL    HW126378   3.077   1.353   0.499
 8493SOL    HW226379   3.222   1.427   0.488
 8494SOL     OW26380   5.957   4.954   2.144
 8494SOL    HW126381   5.997   4.919   2.060
 8494SOL    HW226382   5.949   4.880   2.211
 8495SOL     OW26383   6.035   5.225   0.822
 8495SOL    HW126384   6.050   5.197   0.917
 8495SOL    HW226385   6.040   5.145   0.763
 8496SOL     OW26386   5.358   1.432   2.143
 8496SOL    HW126387   5.404   1.346   2.166
 8496SOL    HW226388   5.399   1.470   2.061
 8497SOL     OW26389   0.259   0.140   3.689
 8497SOL    HW126390   0.312   0.080   3.749
 8497SOL    HW226391   0.222   0.216   3.742
 8498SOL     OW26392   5.207   0.106   3.992
 8498SOL    HW126393   5.115   0.092   4.029
 8498SOL    HW226394   5.256   0.019   3.991
 8499SOL     OW26395   0.128   5.769   0.432
 8499SOL    HW126396   0.068   5.835   0.387
 8499SOL    HW226397   0.116   5.776   0.531
 8500SOL     OW26398   1.504   1.088   5.828
 8500SOL    HW126399   1.474   1.127   5.915
 8500SOL    HW226400   1.528   1.162   5.765
 8501SOL     OW26401   0.564   2.012   6.874
 8501SOL    HW126402   0.620   2.094   6.884
 8501SOL    HW226403   0.475   2.038   6.836
 8502SOL     OW26404   0.459   2.975   6.666
 8502SOL    HW126405   0.498   2.944   6.753
 8502SOL    HW226406   0.430   3.070   6.675
 8503SOL     OW26407   6.563   6.315   4.634
 8503SOL    HW126408   6.493   6.296   4.703
 8503SOL    HW226409   6.539   6.397   4.583
 8504SOL     OW26410   2.141   5.434   2.513
 8504SOL    HW126411   2.191   5.423   2.427
 8504SOL    HW226412   2.053   5.478   2.495
 8505SOL     OW26413   5.458   3.558   2.902
 8505SOL    HW126414   5.520   3.497   2.852
 8505SOL    HW226415   5.367   3.518   2.905
 8506SOL     OW26416   1.695   1.069   7.022
 8506SOL    HW126417   1.603   1.032   0.015
 8506SOL    HW226418   1.757   0.995   6.997
 8507SOL     OW26419   4.509   0.149   5.116
 8507SOL    HW126420   4.487   0.093   5.196
 8507SOL    HW226421   4.468   0.239   5.126
 8508SOL     OW26422   4.363   2.162   6.682
 8508SOL    HW126423   4.273   2.146   6.640
 8508SOL    HW226424   4.391   2.080   6.731
 8509SOL     OW26425   5.702   0.217   3.244
 8509SOL    HW126426   5.740   0.265   3.322
 8509SOL    HW226427   5.722   0.268   3.160
 8510SOL     OW26428   5.369   2.824   4.237
 8510SOL    HW126429   5.317   2.837   4.321
 8510SOL    HW226430   5.359   2.729   4.206
 8511SOL     OW26431   5.689   2.945   2.217
 8511SOL    HW126432   5.657   2.891   2.295
 8511SOL    HW226433   5.616   3.007   2.188
 8512SOL     OW26434   2.163   0.082   3.372
 8512SOL    HW126435   2.075   0.074   3.326
 8512SOL    HW226436   2.226   0.013   3.336
 8513SOL     OW26437   5.928   6.196   6.959
 8513SOL    HW126438   5.914   6.281   7.010
 8513SOL    HW226439   5.899   6.118   7.015
 8514SOL     OW26440   3.264   6.519   3.257
 8514SOL    HW126441   3.300   6.438   3.305
 8514SOL    HW226442   3.248   6.592   3.323
 8515SOL     OW26443   5.797   2.256   0.960
 8515SOL    HW126444   5.723   2.207   0.912
 8515SOL    HW226445   5.846   2.313   0.894
 8516SOL     OW26446   6.596   2.199   2.136
 8516SOL    HW126447   6.527   2.213   2.066
 8516SOL    HW226448   6.554   2.212   2.226
 8517SOL     OW26449   1.161   2.613   6.343
 8517SOL    HW126450   1.198   2.562   6.264
 8517SOL    HW226451   1.090   2.558   6.387
 8518SOL     OW26452   3.238   5.614   0.164
 8518SOL    HW126453   3.236   5.660   0.252
 8518SOL    HW226454   3.153   5.561   0.152
 8519SOL     OW26455   1.474   5.716   2.245
 8519SOL    HW126456   1.487   5.815   2.238
 8519SOL    HW226457   1.394   5.689   2.192
 8520SOL     OW26458   3.996   1.172   0.141
 8520SOL    HW126459   4.019   1.143   0.048
 8520SOL    HW226460   4.071   1.147   0.203
 8521SOL     OW26461   0.510   6.398   5.943
 8521SOL    HW126462   0.469   6.319   5.896
 8521SOL    HW226463   0.582   6.366   6.004
 8522SOL     OW26464   1.028   6.294   4.107
 8522SOL    HW126465   1.126   6.283   4.123
 8522SOL    HW226466   1.006   6.390   4.095
 8523SOL     OW26467   2.509   6.710   6.069
 8523SOL    HW126468   2.510   6.713   6.169
 8523SOL    HW226469   2.497   6.802   6.033
 8524SOL     OW26470   1.275   3.839   5.575
 8524SOL    HW126471   1.311   3.781   5.648
 8524SOL    HW226472   1.176   3.843   5.582
 8525SOL     OW26473   5.912   3.554   3.043
 8525SOL    HW126474   5.819   3.561   3.078
 8525SOL    HW226475   5.916   3.487   2.969
 8526SOL     OW26476   2.604   2.989   1.589
 8526SOL    HW126477   2.519   2.978   1.640
 8526SOL    HW226478   2.643   3.079   1.610
 8527SOL     OW26479   4.685   0.485   4.370
 8527SOL    HW126480   4.708   0.566   4.426
 8527SOL    HW226481   4.727   0.404   4.411
 8528SOL     OW26482   4.770   3.299   5.960
 8528SOL    HW126483   4.746   3.257   6.047
 8528SOL    HW226484   4.823   3.382   5.977
 8529SOL     OW26485   1.608   4.916   6.911
 8529SOL    HW126486   1.572   4.931   6.819
 8529SOL    HW226487   1.588   4.822   6.940
 8530SOL     OW26488   1.309   4.278   5.554
 8530SOL    HW126489   1.358   4.212   5.497
 8530SOL    HW226490   1.370   4.352   5.579
 8531SOL     OW26491   5.295   5.021   2.558
 8531SOL    HW126492   5.214   4.969   2.584
 8531SOL    HW226493   5.376   4.979   2.600
 8532SOL     OW26494   3.364   4.993   5.539
 8532SOL    HW126495   3.302   5.070   5.524
 8532SOL    HW226496   3.377   4.942   5.454
 8533SOL     OW26497   2.976   1.082   4.481
 8533SOL    HW126498   2.988   1.078   4.580
 8533SOL    HW226499   2.899   1.143   4.460
 8534SOL     OW26500   1.440   3.385   2.901
 8534SOL    HW126501   1.419   3.446   2.977
 8534SOL    HW226502   1.443   3.291   2.934
 8535SOL     OW26503   0.615   2.027   4.404
 8535SOL    HW126504   0.669   1.944   4.390
 8535SOL    HW226505   0.571   2.053   4.319
 8536SOL     OW26506   6.597   1.897   5.697
 8536SOL    HW126507   6.562   1.956   5.624
 8536SOL    HW226508   6.688   1.863   5.671
 8537SOL     OW26509   5.699   0.447   1.223
 8537SOL    HW126510   5.772   0.382   1.205
 8537SOL    HW226511   5.723   0.502   1.303
 8538SOL     OW26512   0.044   0.399   4.700
 8538SOL    HW126513   0.026   0.491   4.664
 8538SOL    HW226514   6.981   0.348   4.704
 8539SOL     OW26515   0.654   2.647   1.945
 8539SOL    HW126516   0.597   2.621   1.866
 8539SOL    HW226517   0.713   2.723   1.920
 8540SOL     OW26518   3.203   0.755   0.536
 8540SOL    HW126519   3.220   0.820   0.609
 8540SOL    HW226520   3.105   0.753   0.515
 8541SOL     OW26521   3.083   1.386   4.559
 8541SOL    HW126522   3.074   1.377   4.460
 8541SOL    HW226523   3.082   1.296   4.601
 8542SOL     OW26524   1.990   4.326   6.617
 8542SOL    HW126525   1.990   4.249   6.681
 8542SOL    HW226526   1.979   4.411   6.668
 8543SOL     OW26527   2.116   2.333   5.488
 8543SOL    HW126528   2.195   2.368   5.438
 8543SOL    HW226529   2.136   2.332   5.586
 8544SOL     OW26530   5.124   4.061   5.274
 8544SOL    HW126531   5.210   4.099   5.239
 8544SOL    HW226532   5.127   4.060   5.374
 8545SOL     OW26533   3.491   6.780   5.981
 8545SOL    HW126534   3.426   6.834   6.035
 8545SOL    HW226535   3.488   6.685   6.011
 8546SOL     OW26536   5.369   0.874   1.761
 8546SOL    HW126537   5.287   0.818   1.768
 8546SOL    HW226538   5.397   0.903   1.853
 8547SOL     OW26539   6.373   6.679   5.765
 8547SOL    HW126540   6.334   6.675   5.857
 8547SOL    HW226541   6.373   6.588   5.724
 8548SOL     OW26542   1.045   3.229   6.024
 8548SOL    HW126543   1.124   3.256   6.078
 8548SOL    HW226544   1.031   3.130   6.032
 8549SOL     OW26545   2.001   0.702   3.120
 8549SOL    HW126546   1.999   0.784   3.176
 8549SOL    HW226547   1.936   0.635   3.156
 8550SOL     OW26548   0.851   4.498   0.100
 8550SOL    HW126549   0.801   4.412   0.111
 8550SOL    HW226550   0.925   4.485   0.034
 8551SOL     OW26551   1.969   1.957   6.052
 8551SOL    HW126552   2.021   1.874   6.072
 8551SOL    HW226553   1.897   1.969   6.121
 8552SOL     OW26554   2.698   1.347   2.750
 8552SOL    HW126555   2.730   1.352   2.656
 8552SOL    HW226556   2.726   1.429   2.800
 8553SOL     OW26557   4.896   2.959   0.927
 8553SOL    HW126558   4.992   2.970   0.900
 8553SOL    HW226559   4.883   2.868   0.966
 8554SOL     OW26560   0.795   6.468   0.582
 8554SOL    HW126561   0.849   6.486   0.665
 8554SOL    HW226562   0.842   6.508   0.503
 8555SOL     OW26563   4.491   1.309   3.548
 8555SOL    HW126564   4.522   1.331   3.640
 8555SOL    HW226565   4.434   1.383   3.512
 8556SOL     OW26566   1.787   6.329   0.188
 8556SOL    HW126567   1.774   6.281   0.275
 8556SOL    HW226568   1.869   6.293   0.143
 8557SOL     OW26569   6.992   0.936   0.147
 8557SOL    HW126570   6.982   1.009   0.215
 8557SOL    HW226571   6.966   0.971   0.057
 8558SOL     OW26572   3.108   4.894   3.321
 8558SOL    HW126573   3.184   4.876   3.384
 8558SOL    HW226574   3.031   4.835   3.343
 8559SOL     OW26575   0.992   5.265   2.664
 8559SOL    HW126576   0.973   5.169   2.647
 8559SOL    HW226577   0.957   5.291   2.754
 8560SOL     OW26578   2.267   4.698   1.600
 8560SOL    HW126579   2.353   4.697   1.548
 8560SOL    HW226580   2.190   4.683   1.538
 8561SOL     OW26581   3.993   0.092   2.250
 8561SOL    HW126582   4.009   7.016   2.257
 8561SOL    HW226583   4.062   0.133   2.189
 8562SOL     OW26584   4.024   1.283   6.766
 8562SOL    HW126585   3.956   1.344   6.807
 8562SOL    HW226586   3.994   1.258   6.674
 8563SOL     OW26587   1.568   5.614   3.341
 8563SOL    HW126588   1.484   5.647   3.297
 8563SOL    HW226589   1.634   5.588   3.271
 8564SOL     OW26590   4.162   0.390   6.754
 8564SOL    HW126591   4.126   0.481   6.736
 8564SOL    HW226592   4.176   0.342   6.667
 8565SOL     OW26593   2.792   5.479   1.169
 8565SOL    HW126594   2.794   5.381   1.154
 8565SOL    HW226595   2.884   5.516   1.158
 8566SOL     OW26596   3.251   1.285   3.252
 8566SOL    HW126597   3.192   1.351   3.299
 8566SOL    HW226598   3.197   1.207   3.220
 8567SOL     OW26599   1.653   2.030   1.615
 8567SOL    HW126600   1.646   2.079   1.703
 8567SOL    HW226601   1.739   1.979   1.612
 8568SOL     OW26602   6.990   1.550   6.734
 8568SOL    HW126603   0.003   1.631   6.687
 8568SOL    HW226604   6.922   1.579   6.802
 8569SOL     OW26605   5.346   2.575   6.152
 8569SOL    HW126606   5.401   2.609   6.228
 8569SOL    HW226607   5.251   2.603   6.166
 8570SOL     OW26608   1.469   2.554   4.160
 8570SOL    HW126609   1.459   2.486   4.233
 8570SOL    HW226610   1.398   2.539   4.092
 8571SOL     OW26611   1.910   0.669   3.837
 8571SOL    HW126612   1.827   0.712   3.872
 8571SOL    HW226613   1.981   0.671   3.908
 8572SOL     OW26614   3.104   4.220   5.759
 8572SOL    HW126615   3.165   4.234   5.837
 8572SOL    HW226616   3.011   4.205   5.792
 8573SOL     OW26617   3.511   6.053   0.798
 8573SOL    HW126618   3.479   6.125   0.736
 8573SOL    HW226619   3.605   6.029   0.775
 8574SOL     OW26620   6.828   6.613   5.761
 8574SOL    HW126621   6.816   6.539   5.696
 8574SOL    HW226622   6.870   6.578   5.845
 8575SOL     OW26623   3.222   6.165   2.613
 8575SOL    HW126624   3.169   6.119   2.684
 8575SOL    HW226625   3.266   6.246   2.651
 8576SOL     OW26626   0.713   3.700   3.757
 8576SOL    HW126627   0.682   3.792   3.732
 8576SOL    HW226628   0.807   3.704   3.789
 8577SOL     OW26629   2.048   1.267   6.674
 8577SOL    HW126630   2.053   1.263   6.774
 8577SOL    HW226631   2.092   1.350   6.641
 8578SOL     OW26632   6.347   0.229   5.103
 8578SOL    HW126633   6.419   0.247   5.171
 8578SOL    HW226634   6.378   0.157   5.041
 8579SOL     OW26635   2.927   6.206   2.850
 8579SOL    HW126636   2.985   6.124   2.849
 8579SOL    HW226637   2.843   6.188   2.798
 8580SOL     OW26638   1.530   6.614   1.432
 8580SOL    HW126639   1.546   6.583   1.339
 8580SOL    HW226640   1.530   6.714   1.434
 8581SOL     OW26641   3.563   5.043   1.285
 8581SOL    HW126642   3.496   5.110   1.253
 8581SOL    HW226643   3.604   4.998   1.206
 8582SOL     OW26644   3.822   4.617   5.619
 8582SOL    HW126645   3.756   4.548   5.590
 8582SOL    HW226646   3.908   4.604   5.568
 8583SOL     OW26647   4.223   0.709   2.661
 8583SOL    HW126648   4.281   0.765   2.720
 8583SOL    HW226649   4.147   0.764   2.626
 8584SOL     OW26650   6.762   0.935   4.575
 8584SOL    HW126651   6.739   1.032   4.566
 8584SOL    HW226652   6.857   0.925   4.602
 8585SOL     OW26653   5.602   1.906   1.474
 8585SOL    HW126654   5.657   1.984   1.443
 8585SOL    HW226655   5.505   1.932   1.474
 8586SOL     OW26656   5.385   6.207   1.251
 8586SOL    HW126657   5.439   6.157   1.184
 8586SOL    HW226658   5.289   6.182   1.243
 8587SOL     OW26659   1.287   1.288   5.791
 8587SOL    HW126660   1.212   1.253   5.735
 8587SOL    HW226661   1.251   1.315   5.881
 8588SOL     OW26662   3.013   1.792   0.248
 8588SOL    HW126663   3.088   1.794   0.315
 8588SOL    HW226664   2.987   1.886   0.225
 8589SOL     OW26665   0.694   3.000   5.768
 8589SOL    HW126666   0.762   2.932   5.799
 8589SOL    HW226667   0.695   3.078   5.829
 8590SOL     OW26668   0.448   1.816   2.777
 8590SOL    HW126669   0.401   1.861   2.853
 8590SOL    HW226670   0.491   1.885   2.719
 8591SOL     OW26671   6.758   5.102   0.163
 8591SOL    HW126672   6.817   5.027   0.134
 8591SOL    HW226673   6.801   5.151   0.239
 8592SOL     OW26674   0.988   2.525   6.534
 8592SOL    HW126675   0.970   2.523   6.632
 8592SOL    HW226676   0.954   2.611   6.496
 8593SOL     OW26677   2.769   0.304   6.712
 8593SOL    HW126678   2.710   0.303   6.632
 8593SOL    HW226679   2.746   0.226   6.771
 8594SOL     OW26680   6.268   2.645   6.104
 8594SOL    HW126681   6.235   2.739   6.097
 8594SOL    HW226682   6.219   2.588   6.038
 8595SOL     OW26683   4.839   6.726   2.024
 8595SOL    HW126684   4.915   6.679   2.069
 8595SOL    HW226685   4.873   6.807   1.975
 8596SOL     OW26686   1.079   3.114   3.543
 8596SOL    HW126687   0.986   3.136   3.512
 8596SOL    HW226688   1.096   3.016   3.530
 8597SOL     OW26689   5.792   3.474   1.091
 8597SOL    HW126690   5.843   3.424   1.161
 8597SOL    HW226691   5.703   3.501   1.127
 8598SOL     OW26692   5.724   0.321   4.806
 8598SOL    HW126693   5.771   0.274   4.731
 8598SOL    HW226694   5.679   0.403   4.771
 8599SOL     OW26695   1.654   2.425   3.634
 8599SOL    HW126696   1.560   2.391   3.633
 8599SOL    HW226697   1.654   2.523   3.655
 8600SOL     OW26698   4.574   3.004   1.367
 8600SOL    HW126699   4.535   2.999   1.459
 8600SOL    HW226700   4.502   3.028   1.302
 8601SOL     OW26701   0.989   0.457   3.540
 8601SOL    HW126702   0.944   0.479   3.627
 8601SOL    HW226703   1.084   0.488   3.543
 8602SOL     OW26704   2.602   6.991   4.413
 8602SOL    HW126705   2.595   6.909   4.355
 8602SOL    HW226706   2.678   6.980   4.477
 8603SOL     OW26707   6.786   0.563   0.250
 8603SOL    HW126708   6.746   0.581   0.340
 8603SOL    HW226709   6.858   0.631   0.231
 8604SOL     OW26710   1.467   4.126   6.010
 8604SOL    HW126711   1.444   4.034   5.979
 8604SOL    HW226712   1.393   4.161   6.068
 8605SOL     OW26713   6.804   4.860   4.598
 8605SOL    HW126714   6.755   4.823   4.519
 8605SOL    HW226715   6.862   4.936   4.568
 8606SOL     OW26716   1.981   2.375   6.486
 8606SOL    HW126717   1.959   2.348   6.580
 8606SOL    HW226718   1.911   2.338   6.424
 8607SOL     OW26719   1.913   4.908   1.498
 8607SOL    HW126720   1.887   4.812   1.490
 8607SOL    HW226721   2.008   4.919   1.469
 8608SOL     OW26722   2.842   4.776   3.371
 8608SOL    HW126723   2.808   4.758   3.278
 8608SOL    HW226724   2.771   4.821   3.424
 8609SOL     OW26725   5.286   1.406   3.451
 8609SOL    HW126726   5.311   1.426   3.356
 8609SOL    HW226727   5.234   1.320   3.455
 8610SOL     OW26728   0.259   6.440   3.281
 8610SOL    HW126729   0.330   6.485   3.335
 8610SOL    HW226730   0.205   6.380   3.341
 8611SOL     OW26731   3.002   1.424   3.849
 8611SOL    HW126732   3.066   1.481   3.900
 8611SOL    HW226733   2.999   1.453   3.754
 8612SOL     OW26734   3.760   3.317   3.276
 8612SOL    HW126735   3.765   3.219   3.298
 8612SOL    HW226736   3.852   3.351   3.258
 8613SOL     OW26737   3.165   2.429   1.462
 8613SOL    HW126738   3.264   2.430   1.449
 8613SOL    HW226739   3.121   2.483   1.389
 8614SOL     OW26740   1.114   2.001   1.310
 8614SOL    HW126741   1.139   2.086   1.356
 8614SOL    HW226742   1.196   1.956   1.275
 8615SOL     OW26743   4.458   1.826   3.517
 8615SOL    HW126744   4.385   1.842   3.583
 8615SOL    HW226745   4.535   1.888   3.536
 8616SOL     OW26746   4.473   4.980   2.298
 8616SOL    HW126747   4.456   4.882   2.294
 8616SOL    HW226748   4.436   5.016   2.384
 8617SOL     OW26749   4.729   0.204   4.043
 8617SOL    HW126750   4.781   0.194   3.959
 8617SOL    HW226751   4.649   0.262   4.026
 8618SOL     OW26752   5.386   3.924   1.529
 8618SOL    HW126753   5.293   3.912   1.565
 8618SOL    HW226754   5.436   3.988   1.587
 8619SOL     OW26755   5.151   4.691   2.081
 8619SOL    HW126756   5.228   4.633   2.054
 8619SOL    HW226757   5.083   4.634   2.129
 8620SOL     OW26758   2.157   0.904   4.572
 8620SOL    HW126759   2.174   0.809   4.597
 8620SOL    HW226760   2.179   0.964   4.650
 8621SOL     OW26761   4.902   2.536   2.083
 8621SOL    HW126762   4.858   2.460   2.035
 8621SOL    HW226763   4.864   2.623   2.052
 8622SOL     OW26764   6.523   5.238   2.880
 8622SOL    HW126765   6.478   5.158   2.919
 8622SOL    HW226766   6.594   5.270   2.942
 8623SOL     OW26767   6.800   2.851   5.407
 8623SOL    HW126768   6.835   2.757   5.407
 8623SOL    HW226769   6.875   2.914   5.427
 8624SOL     OW26770   3.586   3.726   6.232
 8624SOL    HW126771   3.562   3.823   6.243
 8624SOL    HW226772   3.532   3.671   6.295
 8625SOL     OW26773   3.615   1.574   5.430
 8625SOL    HW126774   3.683   1.637   5.394
 8625SOL    HW226775   3.530   1.582   5.377
 8626SOL     OW26776   4.500   3.469   0.213
 8626SOL    HW126777   4.461   3.383   0.246
 8626SOL    HW226778   4.589   3.484   0.256
 8627SOL     OW26779   1.778   1.311   2.206
 8627SOL    HW126780   1.811   1.343   2.295
 8627SOL    HW226781   1.724   1.227   2.219
 8628SOL     OW26782   0.431   6.360   0.283
 8628SOL    HW126783   0.466   6.366   0.189
 8628SOL    HW226784   0.505   6.331   0.344
 8629SOL     OW26785   0.355   0.015   4.298
 8629SOL    HW126786   0.379   0.023   4.394
 8629SOL    HW226787   0.376   6.945   4.266
 8630SOL     OW26788   4.874   3.378   3.336
 8630SOL    HW126789   4.913   3.308   3.276
 8630SOL    HW226790   4.866   3.464   3.286
 8631SOL     OW26791   2.538   6.507   6.714
 8631SOL    HW126792   2.540   6.408   6.723
 8631SOL    HW226793   2.605   6.548   6.777
 8632SOL     OW26794   4.424   4.684   5.209
 8632SOL    HW126795   4.414   4.599   5.157
 8632SOL    HW226796   4.371   4.756   5.165
 8633SOL     OW26797   5.494   4.206   5.740
 8633SOL    HW126798   5.408   4.256   5.750
 8633SOL    HW226799   5.550   4.219   5.822
 8634SOL     OW26800   5.443   5.059   0.961
 8634SOL    HW126801   5.481   5.028   1.049
 8634SOL    HW226802   5.356   5.106   0.978
 8635SOL     OW26803   6.371   3.300   6.734
 8635SOL    HW126804   6.387   3.208   6.699
 8635SOL    HW226805   6.399   3.305   6.830
 8636SOL     OW26806   4.144   6.025   0.982
 8636SOL    HW126807   4.181   6.071   0.901
 8636SOL    HW226808   4.168   6.078   1.063
 8637SOL     OW26809   2.253   1.830   6.432
 8637SOL    HW126810   2.168   1.812   6.481
 8637SOL    HW226811   2.235   1.893   6.356
 8638SOL     OW26812   4.303   2.961   5.397
 8638SOL    HW126813   4.376   2.954   5.329
 8638SOL    HW226814   4.307   3.051   5.440
 8639SOL     OW26815   4.290   3.210   6.718
 8639SOL    HW126816   4.328   3.121   6.693
 8639SOL    HW226817   4.324   3.280   6.656
 8640SOL     OW26818   3.098   3.324   1.091
 8640SOL    HW126819   3.194   3.323   1.065
 8640SOL    HW226820   3.074   3.237   1.135
 8641SOL     OW26821   4.369   5.555   2.799
 8641SOL    HW126822   4.387   5.617   2.876
 8641SOL    HW226823   4.375   5.606   2.713
 8642SOL     OW26824   1.211   6.419   4.545
 8642SOL    HW126825   1.239   6.336   4.594
 8642SOL    HW226826   1.123   6.450   4.579
 8643SOL     OW26827   3.317   6.812   0.825
 8643SOL    HW126828   3.289   6.908   0.823
 8643SOL    HW226829   3.390   6.800   0.892
 8644SOL     OW26830   6.096   2.022   6.702
 8644SOL    HW126831   6.181   1.987   6.663
 8644SOL    HW226832   6.068   2.104   6.652
 8645SOL     OW26833   6.060   4.115   1.992
 8645SOL    HW126834   6.060   4.019   2.020
 8645SOL    HW226835   5.976   4.135   1.942
 8646SOL     OW26836   0.424   2.089   5.461
 8646SOL    HW126837   0.511   2.045   5.483
 8646SOL    HW226838   0.436   2.188   5.458
 8647SOL     OW26839   2.112   4.646   1.388
 8647SOL    HW126840   2.044   4.699   1.338
 8647SOL    HW226841   2.195   4.637   1.333
 8648SOL     OW26842   5.627   6.031   1.391
 8648SOL    HW126843   5.553   6.098   1.384
 8648SOL    HW226844   5.675   6.025   1.304
 8649SOL     OW26845   4.274   6.813   0.634
 8649SOL    HW126846   4.374   6.807   0.625
 8649SOL    HW226847   4.248   6.905   0.663
 8650SOL     OW26848   2.330   7.015   4.307
 8650SOL    HW126849   2.267   0.036   4.371
 8650SOL    HW226850   2.401   6.967   4.358
 8651SOL     OW26851   2.365   1.475   0.720
 8651SOL    HW126852   2.298   1.457   0.792
 8651SOL    HW226853   2.439   1.533   0.757
 8652SOL     OW26854   1.196   4.393   3.960
 8652SOL    HW126855   1.286   4.377   4.000
 8652SOL    HW226856   1.194   4.484   3.918
 8653SOL     OW26857   0.062   1.629   5.878
 8653SOL    HW126858   0.078   1.542   5.923
 8653SOL    HW226859   0.030   1.697   5.944
 8654SOL     OW26860   0.925   4.742   2.439
 8654SOL    HW126861   0.899   4.685   2.361
 8654SOL    HW226862   1.018   4.720   2.467
 8655SOL     OW26863   6.732   1.527   5.356
 8655SOL    HW126864   6.632   1.536   5.363
 8655SOL    HW226865   6.761   1.554   5.265
 8656SOL     OW26866   4.700   6.819   1.740
 8656SOL    HW126867   4.723   6.731   1.697
 8656SOL    HW226868   4.777   6.849   1.796
 8657SOL     OW26869   5.303   0.489   2.303
 8657SOL    HW126870   5.343   0.568   2.256
 8657SOL    HW226871   5.374   0.443   2.357
 8658SOL     OW26872   6.193   4.885   1.581
 8658SOL    HW126873   6.233   4.932   1.660
 8658SOL    HW226874   6.096   4.870   1.597
 8659SOL     OW26875   4.979   1.439   2.541
 8659SOL    HW126876   5.022   1.495   2.612
 8659SOL    HW226877   4.890   1.408   2.574
 8660SOL     OW26878   0.871   2.546   1.331
 8660SOL    HW126879   0.844   2.541   1.235
 8660SOL    HW226880   0.938   2.475   1.351
 8661SOL     OW26881   5.998   2.868   2.980
 8661SOL    HW126882   5.999   2.872   3.080
 8661SOL    HW226883   5.993   2.773   2.951
 8662SOL     OW26884   3.302   5.477   2.660
 8662SOL    HW126885   3.233   5.448   2.594
 8662SOL    HW226886   3.334   5.398   2.712
 8663SOL     OW26887   3.503   5.287   3.248
 8663SOL    HW126888   3.569   5.296   3.173
 8663SOL    HW226889   3.552   5.268   3.333
 8664SOL     OW26890   2.430   5.851   3.326
 8664SOL    HW126891   2.392   5.825   3.238
 8664SOL    HW226892   2.364   5.829   3.398
 8665SOL     OW26893   6.203   4.473   6.004
 8665SOL    HW126894   6.139   4.496   5.930
 8665SOL    HW226895   6.294   4.458   5.965
 8666SOL     OW26896   5.520   0.446   3.325
 8666SOL    HW126897   5.553   0.361   3.366
 8666SOL    HW226898   5.568   0.523   3.366
 8667SOL     OW26899   4.847   1.825   4.251
 8667SOL    HW126900   4.781   1.893   4.283
 8667SOL    HW226901   4.916   1.869   4.194
 8668SOL     OW26902   5.462   2.869   5.279
 8668SOL    HW126903   5.411   2.887   5.195
 8668SOL    HW226904   5.403   2.823   5.345
 8669SOL     OW26905   6.027   6.361   6.031
 8669SOL    HW126906   5.981   6.412   6.104
 8669SOL    HW226907   6.032   6.417   5.948
 8670SOL     OW26908   6.190   4.935   5.564
 8670SOL    HW126909   6.193   5.000   5.640
 8670SOL    HW226910   6.253   4.860   5.581
 8671SOL     OW26911   0.556   2.387   2.542
 8671SOL    HW126912   0.568   2.483   2.516
 8671SOL    HW226913   0.465   2.373   2.580
 8672SOL     OW26914   0.238   0.357   3.489
 8672SOL    HW126915   0.274   0.274   3.532
 8672SOL    HW226916   0.175   0.331   3.415
 8673SOL     OW26917   0.822   1.589   0.045
 8673SOL    HW126918   0.794   1.531   6.990
 8673SOL    HW226919   0.880   1.536   0.107
 8674SOL     OW26920   0.416   4.461   3.193
 8674SOL    HW126921   0.396   4.523   3.268
 8674SOL    HW226922   0.405   4.366   3.224
 8675SOL     OW26923   3.309   1.810   6.146
 8675SOL    HW126924   3.407   1.797   6.160
 8675SOL    HW226925   3.287   1.795   6.049
 8676SOL     OW26926   5.562   1.228   0.972
 8676SOL    HW126927   5.605   1.311   0.935
 8676SOL    HW226928   5.520   1.249   1.061
 8677SOL     OW26929   1.450   6.673   5.308
 8677SOL    HW126930   1.356   6.686   5.339
 8677SOL    HW226931   1.496   6.607   5.367
 8678SOL     OW26932   1.340   0.416   0.799
 8678SOL    HW126933   1.321   0.383   0.707
 8678SOL    HW226934   1.302   0.507   0.810
 8679SOL     OW26935   2.437   1.048   4.022
 8679SOL    HW126936   2.347   1.006   4.034
 8679SOL    HW226937   2.487   1.046   4.108
 8680SOL     OW26938   6.391   2.588   6.347
 8680SOL    HW126939   6.334   2.614   6.269
 8680SOL    HW226940   6.377   2.653   6.422
 8681SOL     OW26941   5.206   5.928   1.052
 8681SOL    HW126942   5.156   5.922   1.138
 8681SOL    HW226943   5.197   6.020   1.015
 8682SOL     OW26944   0.205   0.122   1.198
 8682SOL    HW126945   0.187   0.163   1.109
 8682SOL    HW226946   0.183   0.024   1.194
 8683SOL     OW26947   1.861   3.825   5.044
 8683SOL    HW126948   1.829   3.770   5.121
 8683SOL    HW226949   1.935   3.885   5.074
 8684SOL     OW26950   0.766   4.041   4.651
 8684SOL    HW126951   0.804   4.115   4.705
 8684SOL    HW226952   0.839   3.977   4.625
 8685SOL     OW26953   4.881   2.210   6.066
 8685SOL    HW126954   4.930   2.132   6.104
 8685SOL    HW226955   4.933   2.247   5.989
 8686SOL     OW26956   6.413   6.383   2.322
 8686SOL    HW126957   6.456   6.320   2.257
 8686SOL    HW226958   6.432   6.477   2.294
 8687SOL     OW26959   6.252   3.078   3.308
 8687SOL    HW126960   6.196   3.003   3.272
 8687SOL    HW226961   6.234   3.089   3.406
 8688SOL     OW26962   1.389   4.269   6.326
 8688SOL    HW126963   1.473   4.308   6.288
 8688SOL    HW226964   1.380   4.296   6.422
 8689SOL     OW26965   4.439   3.065   0.628
 8689SOL    HW126966   4.393   3.148   0.595
 8689SOL    HW226967   4.487   3.085   0.714
 8690SOL     OW26968   1.548   1.820   3.350
 8690SOL    HW126969   1.617   1.785   3.287
 8690SOL    HW226970   1.576   1.801   3.444
 8691SOL     OW26971   2.752   2.046   4.849
 8691SOL    HW126972   2.666   2.066   4.895
 8691SOL    HW226973   2.743   2.062   4.751
 8692SOL     OW26974   4.547   2.273   5.751
 8692SOL    HW126975   4.453   2.298   5.777
 8692SOL    HW226976   4.611   2.319   5.812
 8693SOL     OW26977   6.343   0.878   6.578
 8693SOL    HW126978   6.310   0.784   6.586
 8693SOL    HW226979   6.295   0.923   6.503
 8694SOL     OW26980   5.826   3.176   3.796
 8694SOL    HW126981   5.839   3.137   3.705
 8694SOL    HW226982   5.729   3.199   3.810
 8695SOL     OW26983   4.174   3.759   6.817
 8695SOL    HW126984   4.166   3.704   6.734
 8695SOL    HW226985   4.265   3.747   6.857
 8696SOL     OW26986   2.841   5.823   5.923
 8696SOL    HW126987   2.856   5.910   5.970
 8696SOL    HW226988   2.752   5.824   5.877
 8697SOL     OW26989   1.766   4.102   5.591
 8697SOL    HW126990   1.735   4.128   5.500
 8697SOL    HW226991   1.861   4.132   5.604
 8698SOL     OW26992   5.230   6.121   5.213
 8698SOL    HW126993   5.318   6.087   5.248
 8698SOL    HW226994   5.156   6.063   5.248
 8699SOL     OW26995   2.474   2.798   6.846
 8699SOL    HW126996   2.418   2.728   6.890
 8699SOL    HW226997   2.527   2.757   6.771
 8700SOL     OW26998   0.325   0.277   5.231
 8700SOL    HW126999   0.260   0.292   5.306
 8700SOL    HW227000   0.417   0.268   5.267
 8701SOL     OW27001   0.793   1.887   6.322
 8701SOL    HW127002   0.770   1.982   6.345
 8701SOL    HW227003   0.711   1.830   6.330
 8702SOL     OW27004   5.016   4.654   1.802
 8702SOL    HW127005   5.059   4.676   1.889
 8702SOL    HW227006   5.086   4.643   1.731
 8703SOL     OW27007   2.469   4.468   1.228
 8703SOL    HW127008   2.524   4.416   1.293
 8703SOL    HW227009   2.373   4.443   1.238
 8704SOL     OW27010   0.791   2.404   3.983
 8704SOL    HW127011   0.780   2.309   4.014
 8704SOL    HW227012   0.806   2.404   3.884
 8705SOL     OW27013   4.574   2.696   6.918
 8705SOL    HW127014   4.572   2.598   6.940
 8705SOL    HW227015   4.603   2.747   6.999
 8706SOL     OW27016   5.070   3.637   6.524
 8706SOL    HW127017   5.064   3.674   6.617
 8706SOL    HW227018   5.164   3.648   6.490
 8707SOL     OW27019   1.352   1.653   4.622
 8707SOL    HW127020   1.296   1.572   4.642
 8707SOL    HW227021   1.310   1.705   4.547
 8708SOL     OW27022   5.916   2.015   2.845
 8708SOL    HW127023   5.888   1.976   2.758
 8708SOL    HW227024   5.840   2.067   2.885
 8709SOL     OW27025   6.321   0.377   5.639
 8709SOL    HW127026   6.404   0.356   5.588
 8709SOL    HW227027   6.273   0.292   5.662
 8710SOL     OW27028   2.093   1.085   2.992
 8710SOL    HW127029   2.140   1.158   2.944
 8710SOL    HW227030   2.156   1.040   3.056
 8711SOL     OW27031   1.186   0.690   1.501
 8711SOL    HW127032   1.220   0.706   1.409
 8711SOL    HW227033   1.261   0.658   1.559
 8712SOL     OW27034   2.242   2.719   5.519
 8712SOL    HW127035   2.257   2.632   5.472
 8712SOL    HW227036   2.252   2.794   5.453
 8713SOL     OW27037   0.919   4.553   2.259
 8713SOL    HW127038   0.987   4.584   2.193
 8713SOL    HW227039   0.904   4.454   2.247
 8714SOL     OW27040   6.843   6.057   6.800
 8714SOL    HW127041   6.826   6.132   6.736
 8714SOL    HW227042   6.875   6.095   6.887
 8715SOL     OW27043   2.747   2.098   0.375
 8715SOL    HW127044   2.834   2.119   0.421
 8715SOL    HW227045   2.675   2.086   0.444
 8716SOL     OW27046   6.917   6.725   1.122
 8716SOL    HW127047   6.965   6.638   1.125
 8716SOL    HW227048   6.863   6.731   1.039
 8717SOL     OW27049   2.290   4.468   0.212
 8717SOL    HW127050   2.247   4.384   0.177
 8717SOL    HW227051   2.387   4.469   0.187
 8718SOL     OW27052   2.082   3.990   6.450
 8718SOL    HW127053   2.127   4.044   6.520
 8718SOL    HW227054   1.989   3.967   6.480
 8719SOL     OW27055   3.644   0.848   6.048
 8719SOL    HW127056   3.622   0.831   5.952
 8719SOL    HW227057   3.560   0.869   6.099
 8720SOL     OW27058   6.323   4.037   4.970
 8720SOL    HW127059   6.308   4.049   5.068
 8720SOL    HW227060   6.417   4.060   4.947
 8721SOL     OW27061   0.182   6.592   6.700
 8721SOL    HW127062   0.083   6.577   6.693
 8721SOL    HW227063   0.228   6.505   6.714
 8722SOL     OW27064   4.000   0.738   0.927
 8722SOL    HW127065   3.959   0.709   1.013
 8722SOL    HW227066   3.928   0.762   0.861
 8723SOL     OW27067   5.121   6.986   2.244
 8723SOL    HW127068   5.063   6.907   2.223
 8723SOL    HW227069   5.174   6.968   2.327
 8724SOL     OW27070   4.331   0.255   4.420
 8724SOL    HW127071   4.384   0.322   4.369
 8724SOL    HW227072   4.246   0.296   4.451
 8725SOL     OW27073   0.639   6.698   4.653
 8725SOL    HW127074   0.658   6.623   4.716
 8725SOL    HW227075   0.571   6.667   4.585
 8726SOL     OW27076   0.758   0.777   0.394
 8726SOL    HW127077   0.749   0.708   0.466
 8726SOL    HW227078   0.667   0.805   0.363
 8727SOL     OW27079   5.830   6.000   6.371
 8727SOL    HW127080   5.927   6.024   6.375
 8727SOL    HW227081   5.812   5.949   6.287
 8728SOL     OW27082   5.520   0.570   3.077
 8728SOL    HW127083   5.446   0.637   3.069
 8728SOL    HW227084   5.508   0.517   3.161
 8729SOL     OW27085   3.853   5.345   6.274
 8729SOL    HW127086   3.802   5.429   6.259
 8729SOL    HW227087   3.804   5.269   6.231
 8730SOL     OW27088   5.599   4.792   2.464
 8730SOL    HW127089   5.665   4.726   2.499
 8730SOL    HW227090   5.578   4.859   2.535
 8731SOL     OW27091   0.306   2.023   3.513
 8731SOL    HW127092   0.387   1.965   3.524
 8731SOL    HW227093   0.282   2.065   3.600
 8732SOL     OW27094   5.120   5.595   1.220
 8732SOL    HW127095   5.124   5.677   1.163
 8732SOL    HW227096   5.032   5.593   1.269
 8733SOL     OW27097   0.580   4.575   1.980
 8733SOL    HW127098   0.492   4.568   2.027
 8733SOL    HW227099   0.630   4.655   2.014
 8734SOL     OW27100   0.004   3.522   1.920
 8734SOL    HW127101   6.997   3.495   1.828
 8734SOL    HW227102   6.952   3.508   1.985
 8735SOL     OW27103   2.077   4.061   5.421
 8735SOL    HW127104   2.171   4.051   5.389
 8735SOL    HW227105   2.076   4.109   5.508
 8736SOL     OW27106   0.618   5.462   2.829
 8736SOL    HW127107   0.575   5.548   2.856
 8736SOL    HW227108   0.550   5.403   2.787
 8737SOL     OW27109   1.478   5.351   6.336
 8737SOL    HW127110   1.406   5.420   6.349
 8737SOL    HW227111   1.468   5.310   6.246
 8738SOL     OW27112   1.102   3.999   3.764
 8738SOL    HW127113   1.136   3.983   3.671
 8738SOL    HW227114   1.067   4.092   3.770
 8739SOL     OW27115   5.392   4.404   5.032
 8739SOL    HW127116   5.360   4.340   5.102
 8739SOL    HW227117   5.381   4.364   4.942
 8740SOL     OW27118   3.551   1.620   3.601
 8740SOL    HW127119   3.455   1.639   3.580
 8740SOL    HW227120   3.570   1.646   3.695
 8741SOL     OW27121   1.662   0.113   2.442
 8741SOL    HW127122   1.641   0.210   2.445
 8741SOL    HW227123   1.726   0.090   2.516
 8742SOL     OW27124   3.476   1.359   2.402
 8742SOL    HW127125   3.379   1.337   2.402
 8742SOL    HW227126   3.515   1.339   2.493
 8743SOL     OW27127   1.840   0.695   1.828
 8743SOL    HW127128   1.848   0.596   1.830
 8743SOL    HW227129   1.751   0.723   1.864
 8744SOL     OW27130   3.924   3.772   6.930
 8744SOL    HW127131   3.887   3.804   6.842
 8744SOL    HW227132   4.023   3.766   6.924
 8745SOL     OW27133   6.534   1.776   6.267
 8745SOL    HW127134   6.531   1.752   6.364
 8745SOL    HW227135   6.487   1.863   6.253
 8746SOL     OW27136   5.147   5.523   4.415
 8746SOL    HW127137   5.217   5.476   4.361
 8746SOL    HW227138   5.191   5.584   4.481
 8747SOL     OW27139   6.889   0.770   2.022
 8747SOL    HW127140   6.888   0.854   1.968
 8747SOL    HW227141   6.806   0.766   2.078
 8748SOL     OW27142   0.468   2.240   3.670
 8748SOL    HW127143   0.454   2.338   3.688
 8748SOL    HW227144   0.471   2.224   3.571
 8749SOL     OW27145   2.871   1.562   5.591
 8749SOL    HW127146   2.838   1.481   5.543
 8749SOL    HW227147   2.826   1.644   5.556
 8750SOL     OW27148   4.490   2.760   5.963
 8750SOL    HW127149   4.581   2.719   5.969
 8750SOL    HW227150   4.481   2.834   6.029
 8751SOL     OW27151   0.365   6.424   1.610
 8751SOL    HW127152   0.441   6.372   1.648
 8751SOL    HW227153   0.288   6.363   1.593
 8752SOL     OW27154   4.831   3.227   0.374
 8752SOL    HW127155   4.902   3.167   0.411
 8752SOL    HW227156   4.805   3.197   0.282
 8753SOL     OW27157   1.649   2.966   0.211
 8753SOL    HW127158   1.713   2.971   0.134
 8753SOL    HW227159   1.631   2.870   0.233
 8754SOL     OW27160   2.749   4.828   6.832
 8754SOL    HW127161   2.674   4.855   6.892
 8754SOL    HW227162   2.748   4.729   6.819
 8755SOL     OW27163   0.539   1.578   2.183
 8755SOL    HW127164   0.482   1.531   2.252
 8755SOL    HW227165   0.481   1.636   2.127
 8756SOL     OW27166   2.352   2.556   3.881
 8756SOL    HW127167   2.253   2.547   3.868
 8756SOL    HW227168   2.370   2.595   3.971
 8757SOL     OW27169   4.900   6.758   5.655
 8757SOL    HW127170   4.968   6.728   5.588
 8757SOL    HW227171   4.928   6.845   5.695
 8758SOL     OW27172   3.572   6.451   3.691
 8758SOL    HW127173   3.595   6.539   3.731
 8758SOL    HW227174   3.648   6.387   3.706
 8759SOL     OW27175   5.920   1.109   6.929
 8759SOL    HW127176   5.988   1.038   6.947
 8759SOL    HW227177   5.941   1.155   6.844
 8760SOL     OW27178   2.078   1.750   4.331
 8760SOL    HW127179   2.142   1.799   4.272
 8760SOL    HW227180   2.000   1.809   4.352
 8761SOL     OW27181   4.749   1.130   2.037
 8761SOL    HW127182   4.655   1.125   2.003
 8761SOL    HW227183   4.753   1.197   2.112
 8762SOL     OW27184   1.276   5.038   3.736
 8762SOL    HW127185   1.185   5.066   3.704
 8762SOL    HW227186   1.345   5.098   3.696
 8763SOL     OW27187   0.345   0.771   5.987
 8763SOL    HW127188   0.268   0.780   5.924
 8763SOL    HW227189   0.430   0.792   5.940
 8764SOL     OW27190   3.910   5.198   5.622
 8764SOL    HW127191   3.867   5.114   5.655
 8764SOL    HW227192   4.010   5.189   5.630
 8765SOL     OW27193   5.215   0.295   5.323
 8765SOL    HW127194   5.175   0.354   5.253
 8765SOL    HW227195   5.256   0.352   5.395
 8766SOL     OW27196   5.171   4.555   5.838
 8766SOL    HW127197   5.131   4.627   5.894
 8766SOL    HW227198   5.229   4.596   5.767
 8767SOL     OW27199   3.034   0.468   3.666
 8767SOL    HW127200   2.998   0.558   3.688
 8767SOL    HW227201   3.131   0.475   3.645
 8768SOL     OW27202   6.735   2.716   0.263
 8768SOL    HW127203   6.660   2.769   0.224
 8768SOL    HW227204   6.748   2.742   0.358
 8769SOL     OW27205   6.454   1.109   1.389
 8769SOL    HW127206   6.553   1.112   1.404
 8769SOL    HW227207   6.421   1.016   1.404
 8770SOL     OW27208   5.008   3.371   2.485
 8770SOL    HW127209   5.093   3.422   2.471
 8770SOL    HW227210   4.979   3.380   2.580
 8771SOL     OW27211   0.406   3.642   6.184
 8771SOL    HW127212   0.468   3.720   6.189
 8771SOL    HW227213   0.459   3.557   6.183
 8772SOL     OW27214   5.778   0.289   4.463
 8772SOL    HW127215   5.768   0.191   4.483
 8772SOL    HW227216   5.694   0.337   4.487
 8773SOL     OW27217   6.783   1.941   4.151
 8773SOL    HW127218   6.793   1.936   4.052
 8773SOL    HW227219   6.788   1.849   4.190
 8774SOL     OW27220   1.263   6.980   0.119
 8774SOL    HW127221   1.232   0.050   0.143
 8774SOL    HW227222   1.206   6.944   0.045
 8775SOL     OW27223   5.392   1.981   4.076
 8775SOL    HW127224   5.432   1.907   4.130
 8775SOL    HW227225   5.300   1.954   4.046
 8776SOL     OW27226   5.138   3.104   0.119
 8776SOL    HW127227   5.132   3.020   0.173
 8776SOL    HW227228   5.144   3.182   0.181
 8777SOL     OW27229   1.394   2.745   2.915
 8777SOL    HW127230   1.432   2.805   2.985
 8777SOL    HW227231   1.460   2.673   2.893
 8778SOL     OW27232   4.387   4.517   5.668
 8778SOL    HW127233   4.387   4.577   5.747
 8778SOL    HW227234   4.405   4.570   5.585
 8779SOL     OW27235   3.213   4.921   2.822
 8779SOL    HW127236   3.189   5.018   2.816
 8779SOL    HW227237   3.231   4.897   2.917
 8780SOL     OW27238   0.037   5.548   2.691
 8780SOL    HW127239   6.987   5.525   2.626
 8780SOL    HW227240   0.123   5.506   2.662
 8781SOL     OW27241   3.638   6.458   2.012
 8781SOL    HW127242   3.575   6.447   1.936
 8781SOL    HW227243   3.600   6.522   2.079
 8782SOL     OW27244   5.005   1.106   1.780
 8782SOL    HW127245   5.025   1.159   1.863
 8782SOL    HW227246   4.906   1.092   1.773
 8783SOL     OW27247   4.923   3.420   4.716
 8783SOL    HW127248   4.868   3.456   4.791
 8783SOL    HW227249   5.003   3.479   4.702
 8784SOL     OW27250   5.543   6.221   0.824
 8784SOL    HW127251   5.555   6.198   0.920
 8784SOL    HW227252   5.464   6.281   0.814
 8785SOL     OW27253   0.586   5.429   6.146
 8785SOL    HW127254   0.518   5.425   6.219
 8785SOL    HW227255   0.661   5.489   6.174
 8786SOL     OW27256   4.119   2.269   2.055
 8786SOL    HW127257   4.045   2.203   2.071
 8786SOL    HW227258   4.081   2.361   2.052
 8787SOL     OW27259   3.677   0.633   1.999
 8787SOL    HW127260   3.631   0.663   1.916
 8787SOL    HW227261   3.769   0.603   1.977
 8788SOL     OW27262   0.433   0.377   4.998
 8788SOL    HW127263   0.533   0.382   4.994
 8788SOL    HW227264   0.404   0.344   5.088
 8789SOL     OW27265   0.512   3.956   4.804
 8789SOL    HW127266   0.525   3.925   4.710
 8789SOL    HW227267   0.601   3.974   4.846
 8790SOL     OW27268   5.937   2.986   0.014
 8790SOL    HW127269   5.902   2.918   6.973
 8790SOL    HW227270   6.034   2.970   0.032
 8791SOL     OW27271   4.661   5.637   5.265
 8791SOL    HW127272   4.670   5.648   5.364
 8791SOL    HW227273   4.615   5.550   5.246
 8792SOL     OW27274   4.833   5.223   1.825
 8792SOL    HW127275   4.810   5.141   1.773
 8792SOL    HW227276   4.831   5.202   1.923
 8793SOL     OW27277   0.478   4.955   4.376
 8793SOL    HW127278   0.470   4.859   4.403
 8793SOL    HW227279   0.405   4.977   4.311
 8794SOL     OW27280   0.037   0.210   1.927
 8794SOL    HW127281   7.006   0.177   1.849
 8794SOL    HW227282   7.011   0.190   2.012
 8795SOL     OW27283   1.841   5.115   5.414
 8795SOL    HW127284   1.749   5.133   5.450
 8795SOL    HW227285   1.895   5.199   5.419
 8796SOL     OW27286   6.527   3.410   3.723
 8796SOL    HW127287   6.563   3.474   3.655
 8796SOL    HW227288   6.581   3.326   3.723
 8797SOL     OW27289   6.292   0.221   3.658
 8797SOL    HW127290   6.362   0.166   3.704
 8797SOL    HW227291   6.257   0.290   3.721
 8798SOL     OW27292   4.565   6.619   5.707
 8798SOL    HW127293   4.586   6.685   5.636
 8798SOL    HW227294   4.599   6.653   5.795
 8799SOL     OW27295   2.220   4.853   2.069
 8799SOL    HW127296   2.153   4.782   2.091
 8799SOL    HW227297   2.288   4.816   2.005
 8800SOL     OW27298   6.903   5.781   5.314
 8800SOL    HW127299   6.838   5.813   5.245
 8800SOL    HW227300   6.976   5.848   5.324
 8801SOL     OW27301   6.171   2.131   4.777
 8801SOL    HW127302   6.236   2.204   4.797
 8801SOL    HW227303   6.208   2.043   4.807
 8802SOL     OW27304   1.006   6.232   5.753
 8802SOL    HW127305   0.972   6.231   5.658
 8802SOL    HW227306   1.100   6.267   5.754
 8803SOL     OW27307   6.218   0.951   6.363
 8803SOL    HW127308   6.199   0.877   6.298
 8803SOL    HW227309   6.134   1.002   6.381
 8804SOL     OW27310   1.748   5.957   1.630
 8804SOL    HW127311   1.811   5.881   1.615
 8804SOL    HW227312   1.677   5.955   1.560
 8805SOL     OW27313   4.140   5.771   2.320
 8805SOL    HW127314   4.084   5.690   2.337
 8805SOL    HW227315   4.130   5.836   2.395
 8806SOL     OW27316   2.257   6.332   0.239
 8806SOL    HW127317   2.169   6.349   0.195
 8806SOL    HW227318   2.329   6.381   0.189
 8807SOL     OW27319   4.918   1.853   1.131
 8807SOL    HW127320   4.838   1.795   1.149
 8807SOL    HW227321   4.940   1.849   1.034
 8808SOL     OW27322   2.254   2.313   0.386
 8808SOL    HW127323   2.280   2.261   0.467
 8808SOL    HW227324   2.264   2.411   0.405
 8809SOL     OW27325   1.606   3.883   3.824
 8809SOL    HW127326   1.557   3.963   3.859
 8809SOL    HW227327   1.542   3.820   3.780
 8810SOL     OW27328   6.791   1.853   5.459
 8810SOL    HW127329   6.864   1.816   5.401
 8810SOL    HW227330   6.712   1.877   5.403
 8811SOL     OW27331   4.185   6.115   2.155
 8811SOL    HW127332   4.265   6.056   2.163
 8811SOL    HW227333   4.114   6.069   2.102
 8812SOL     OW27334   3.412   1.681   6.753
 8812SOL    HW127335   3.486   1.736   6.793
 8812SOL    HW227336   3.357   1.738   6.693
 8813SOL     OW27337   2.595   4.666   3.559
 8813SOL    HW127338   2.615   4.744   3.501
 8813SOL    HW227339   2.582   4.585   3.502
 8814SOL     OW27340   5.807   0.181   0.127
 8814SOL    HW127341   5.889   0.165   0.072
 8814SOL    HW227342   5.833   0.197   0.223
 8815SOL     OW27343   5.196   1.467   0.618
 8815SOL    HW127344   5.150   1.447   0.705
 8815SOL    HW227345   5.218   1.565   0.614
 8816SOL     OW27346   0.626   6.279   5.613
 8816SOL    HW127347   0.648   6.214   5.541
 8816SOL    HW227348   0.538   6.255   5.655
 8817SOL     OW27349   1.171   3.295   4.409
 8817SOL    HW127350   1.190   3.365   4.340
 8817SOL    HW227351   1.106   3.229   4.373
 8818SOL     OW27352   2.441   6.953   3.918
 8818SOL    HW127353   2.541   6.957   3.929
 8818SOL    HW227354   2.407   0.022   3.896
 8819SOL     OW27355   5.000   4.403   5.631
 8819SOL    HW127356   4.987   4.502   5.644
 8819SOL    HW227357   4.933   4.353   5.685
 8820SOL     OW27358   3.125   0.799   4.639
 8820SOL    HW127359   3.034   0.774   4.606
 8820SOL    HW227360   3.131   0.898   4.651
 8821SOL     OW27361   1.312   4.877   0.282
 8821SOL    HW127362   1.366   4.947   0.235
 8821SOL    HW227363   1.250   4.920   0.347
 8822SOL     OW27364   6.616   6.607   3.938
 8822SOL    HW127365   6.654   6.517   3.916
 8822SOL    HW227366   6.689   6.666   3.974
 8823SOL     OW27367   3.551   1.032   3.155
 8823SOL    HW127368   3.578   1.061   3.246
 8823SOL    HW227369   3.549   1.111   3.094
 8824SOL     OW27370   1.828   0.896   0.932
 8824SOL    HW127371   1.905   0.852   0.886
 8824SOL    HW227372   1.744   0.876   0.883
 8825SOL     OW27373   0.215   6.913   0.036
 8825SOL    HW127374   0.117   6.925   0.018
 8825SOL    HW227375   0.259   6.876   6.976
 8826SOL     OW27376   1.148   3.415   1.072
 8826SOL    HW127377   1.243   3.402   1.042
 8826SOL    HW227378   1.143   3.492   1.135
 8827SOL     OW27379   4.049   0.113   2.531
 8827SOL    HW127380   4.005   0.124   2.441
 8827SOL    HW227381   4.146   0.137   2.524
 8828SOL     OW27382   4.339   3.646   6.403
 8828SOL    HW127383   4.283   3.719   6.442
 8828SOL    HW227384   4.281   3.584   6.351
 8829SOL     OW27385   6.968   1.871   2.028
 8829SOL    HW127386   6.944   1.829   1.941
 8829SOL    HW227387   0.042   1.853   2.048
 8830SOL     OW27388   2.541   2.108   3.038
 8830SOL    HW127389   2.590   2.193   3.058
 8830SOL    HW227390   2.534   2.054   3.121
 8831SOL     OW27391   0.838   1.809   1.931
 8831SOL    HW127392   0.814   1.726   1.981
 8831SOL    HW227393   0.844   1.886   1.995
 8832SOL     OW27394   0.097   6.681   4.033
 8832SOL    HW127395   0.168   6.611   4.030
 8832SOL    HW227396   0.134   6.767   3.997
 8833SOL     OW27397   3.694   2.595   1.033
 8833SOL    HW127398   3.600   2.629   1.043
 8833SOL    HW227399   3.741   2.647   0.963
 8834SOL     OW27400   5.870   3.681   5.386
 8834SOL    HW127401   5.885   3.773   5.422
 8834SOL    HW227402   5.945   3.622   5.414
 8835SOL     OW27403   6.474   0.948   5.449
 8835SOL    HW127404   6.379   0.964   5.421
 8835SOL    HW227405   6.487   0.980   5.543
 8836SOL     OW27406   4.940   2.459   6.229
 8836SOL    HW127407   4.925   2.360   6.224
 8836SOL    HW227408   4.853   2.505   6.243
 8837SOL     OW27409   5.944   6.854   1.926
 8837SOL    HW127410   5.889   6.780   1.887
 8837SOL    HW227411   6.041   6.837   1.905
 8838SOL     OW27412   6.821   4.174   3.018
 8838SOL    HW127413   6.871   4.206   2.937
 8838SOL    HW227414   6.782   4.084   3.000
 8839SOL     OW27415   5.502   6.271   2.900
 8839SOL    HW127416   5.533   6.299   2.991
 8839SOL    HW227417   5.432   6.334   2.868
 8840SOL     OW27418   0.291   1.120   1.160
 8840SOL    HW127419   0.211   1.109   1.102
 8840SOL    HW227420   0.349   1.039   1.154
 8841SOL     OW27421   3.574   0.883   2.431
 8841SOL    HW127422   3.533   0.835   2.353
 8841SOL    HW227423   3.643   0.947   2.398
 8842SOL     OW27424   3.214   2.980   4.022
 8842SOL    HW127425   3.210   3.027   3.934
 8842SOL    HW227426   3.130   2.996   4.073
 8843SOL     OW27427   2.001   3.570   5.267
 8843SOL    HW127428   2.006   3.470   5.274
 8843SOL    HW227429   2.089   3.605   5.236
 8844SOL     OW27430   5.196   1.880   4.999
 8844SOL    HW127431   5.252   1.804   4.967
 8844SOL    HW227432   5.135   1.848   5.072
 8845SOL     OW27433   1.272   4.928   1.381
 8845SOL    HW127434   1.267   5.022   1.412
 8845SOL    HW227435   1.186   4.902   1.337
 8846SOL     OW27436   5.298   4.674   3.846
 8846SOL    HW127437   5.360   4.699   3.771
 8846SOL    HW227438   5.211   4.642   3.808
 8847SOL     OW27439   2.491   2.578   2.839
 8847SOL    HW127440   2.541   2.539   2.761
 8847SOL    HW227441   2.437   2.507   2.883
 8848SOL     OW27442   3.082   1.636   1.153
 8848SOL    HW127443   3.091   1.715   1.091
 8848SOL    HW227444   3.128   1.557   1.112
 8849SOL     OW27445   3.397   5.941   4.621
 8849SOL    HW127446   3.304   5.917   4.649
 8849SOL    HW227447   3.461   5.870   4.653
 8850SOL     OW27448   2.993   2.127   0.485
 8850SOL    HW127449   3.003   2.187   0.565
 8850SOL    HW227450   3.071   2.141   0.424
 8851SOL     OW27451   1.183   4.712   3.571
 8851SOL    HW127452   1.267   4.740   3.525
 8851SOL    HW227453   1.106   4.767   3.537
 8852SOL     OW27454   5.399   3.056   5.726
 8852SOL    HW127455   5.372   3.124   5.794
 8852SOL    HW227456   5.405   3.100   5.636
 8853SOL     OW27457   4.132   1.761   5.260
 8853SOL    HW127458   4.174   1.675   5.287
 8853SOL    HW227459   4.203   1.832   5.255
 8854SOL     OW27460   1.522   1.302   5.641
 8854SOL    HW127461   1.576   1.383   5.665
 8854SOL    HW227462   1.430   1.310   5.679
 8855SOL     OW27463   6.342   5.934   6.777
 8855SOL    HW127464   6.431   5.932   6.822
 8855SOL    HW227465   6.271   5.955   6.844
 8856SOL     OW27466   5.816   1.020   5.105
 8856SOL    HW127467   5.807   1.040   5.008
 8856SOL    HW227468   5.821   1.105   5.157
 8857SOL     OW27469   6.256   2.361   3.652
 8857SOL    HW127470   6.330   2.296   3.635
 8857SOL    HW227471   6.243   2.373   3.750
 8858SOL     OW27472   0.728   3.935   5.673
 8858SOL    HW127473   0.815   3.972   5.706
 8858SOL    HW227474   0.714   3.843   5.710
 8859SOL     OW27475   1.359   6.387   4.901
 8859SOL    HW127476   1.312   6.470   4.873
 8859SOL    HW227477   1.376   6.390   5.000
 8860SOL     OW27478   1.352   2.076   2.483
 8860SOL    HW127479   1.290   2.015   2.433
 8860SOL    HW227480   1.445   2.066   2.448
 8861SOL     OW27481   3.875   3.332   0.117
 8861SOL    HW127482   3.830   3.411   0.074
 8861SOL    HW227483   3.973   3.349   0.124
 8862SOL     OW27484   6.024   1.453   5.031
 8862SOL    HW127485   6.099   1.484   5.088
 8862SOL    HW227486   6.035   1.490   4.939
 8863SOL     OW27487   2.119   5.931   4.831
 8863SOL    HW127488   2.192   5.942   4.764
 8863SOL    HW227489   2.153   5.954   4.922
 8864SOL     OW27490   2.313   3.473   6.543
 8864SOL    HW127491   2.388   3.431   6.492
 8864SOL    HW227492   2.311   3.571   6.525
 8865SOL     OW27493   2.588   2.032   5.235
 8865SOL    HW127494   2.687   2.048   5.239
 8865SOL    HW227495   2.570   1.937   5.210
 8866SOL     OW27496   3.656   6.654   3.321
 8866SOL    HW127497   3.635   6.711   3.241
 8866SOL    HW227498   3.662   6.558   3.293
 8867SOL     OW27499   5.882   1.717   2.757
 8867SOL    HW127500   5.819   1.710   2.834
 8867SOL    HW227501   5.968   1.671   2.780
 8868SOL     OW27502   4.750   3.883   0.413
 8868SOL    HW127503   4.662   3.928   0.421
 8868SOL    HW227504   4.759   3.813   0.484
 8869SOL     OW27505   4.890   3.775   3.436
 8869SOL    HW127506   4.851   3.726   3.513
 8869SOL    HW227507   4.950   3.848   3.470
 8870SOL     OW27508   4.124   1.132   0.700
 8870SOL    HW127509   4.196   1.194   0.670
 8870SOL    HW227510   4.096   1.156   0.794
 8871SOL     OW27511   1.725   1.431   3.788
 8871SOL    HW127512   1.710   1.432   3.887
 8871SOL    HW227513   1.714   1.338   3.753
 8872SOL     OW27514   1.851   4.282   4.106
 8872SOL    HW127515   1.896   4.363   4.145
 8872SOL    HW227516   1.857   4.286   4.006
 8873SOL     OW27517   0.664   5.589   3.934
 8873SOL    HW127518   0.617   5.648   4.000
 8873SOL    HW227519   0.706   5.512   3.982
 8874SOL     OW27520   2.294   0.841   0.980
 8874SOL    HW127521   2.346   0.797   0.907
 8874SOL    HW227522   2.281   0.777   1.056
 8875SOL     OW27523   1.634   2.995   4.005
 8875SOL    HW127524   1.686   2.923   3.959
 8875SOL    HW227525   1.697   3.064   4.042
 8876SOL     OW27526   0.386   1.070   5.141
 8876SOL    HW127527   0.362   1.034   5.050
 8876SOL    HW227528   0.379   1.170   5.140
 8877SOL     OW27529   2.890   0.917   4.214
 8877SOL    HW127530   2.959   0.990   4.214
 8877SOL    HW227531   2.917   0.846   4.279
 8878SOL     OW27532   6.767   4.614   0.326
 8878SOL    HW127533   6.824   4.690   0.356
 8878SOL    HW227534   6.704   4.646   0.255
 8879SOL     OW27535   5.176   5.965   0.492
 8879SOL    HW127536   5.127   6.003   0.413
 8879SOL    HW227537   5.270   5.943   0.465
 8880SOL     OW27538   6.324   5.201   4.449
 8880SOL    HW127539   6.257   5.267   4.413
 8880SOL    HW227540   6.411   5.247   4.464
 8881SOL     OW27541   0.075   1.302   1.973
 8881SOL    HW127542   0.020   1.379   2.005
 8881SOL    HW227543   0.075   1.230   2.043
 8882SOL     OW27544   5.436   2.193   6.647
 8882SOL    HW127545   5.371   2.235   6.583
 8882SOL    HW227546   5.483   2.264   6.699
 8883SOL     OW27547   6.136   0.977   5.862
 8883SOL    HW127548   6.226   0.934   5.856
 8883SOL    HW227549   6.108   0.982   5.958
 8884SOL     OW27550   5.628   0.058   6.295
 8884SOL    HW127551   5.595   0.066   6.389
 8884SOL    HW227552   5.727   0.044   6.295
 8885SOL     OW27553   5.977   3.779   1.778
 8885SOL    HW127554   6.003   3.708   1.712
 8885SOL    HW227555   6.039   3.857   1.769
 8886SOL     OW27556   2.918   6.562   5.932
 8886SOL    HW127557   2.865   6.644   5.914
 8886SOL    HW227558   2.875   6.484   5.887
 8887SOL     OW27559   2.461   1.442   1.324
 8887SOL    HW127560   2.405   1.457   1.406
 8887SOL    HW227561   2.531   1.513   1.319
 8888SOL     OW27562   1.723   1.351   0.989
 8888SOL    HW127563   1.735   1.265   1.039
 8888SOL    HW227564   1.683   1.420   1.050
 8889SOL     OW27565   4.697   0.250   4.735
 8889SOL    HW127566   4.749   0.284   4.813
 8889SOL    HW227567   4.750   0.261   4.651
 8890SOL     OW27568   7.010   5.653   4.596
 8890SOL    HW127569   6.934   5.588   4.597
 8890SOL    HW227570   0.069   5.610   4.633
 8891SOL     OW27571   5.729   3.323   6.520
 8891SOL    HW127572   5.670   3.245   6.534
 8891SOL    HW227573   5.794   3.303   6.446
 8892SOL     OW27574   1.671   0.306   3.346
 8892SOL    HW127575   1.618   0.298   3.430
 8892SOL    HW227576   1.620   0.264   3.271
 8893SOL     OW27577   0.047   1.141   1.066
 8893SOL    HW127578   0.074   1.229   1.027
 8893SOL    HW227579   6.970   1.131   1.060
 8894SOL     OW27580   4.291   2.604   5.878
 8894SOL    HW127581   4.369   2.654   5.917
 8894SOL    HW227582   4.211   2.618   5.936
 8895SOL     OW27583   0.537   6.845   1.162
 8895SOL    HW127584   0.568   6.757   1.125
 8895SOL    HW227585   0.531   6.912   1.088
 8896SOL     OW27586   1.462   4.041   5.093
 8896SOL    HW127587   1.485   3.944   5.108
 8896SOL    HW227588   1.546   4.095   5.092
 8897SOL     OW27589   1.389   1.249   1.624
 8897SOL    HW127590   1.439   1.164   1.605
 8897SOL    HW227591   1.351   1.245   1.716
 8898SOL     OW27592   5.832   3.361   4.099
 8898SOL    HW127593   5.901   3.295   4.069
 8898SOL    HW227594   5.877   3.445   4.129
 8899SOL     OW27595   1.987   4.414   0.132
 8899SOL    HW127596   1.931   4.334   0.112
 8899SOL    HW227597   2.076   4.405   0.088
 8900SOL     OW27598   4.725   2.341   3.119
 8900SOL    HW127599   4.664   2.316   3.044
 8900SOL    HW227600   4.683   2.414   3.174
 8901SOL     OW27601   1.258   0.460   2.698
 8901SOL    HW127602   1.319   0.396   2.744
 8901SOL    HW227603   1.250   0.435   2.602
 8902SOL     OW27604   1.724   5.387   6.431
 8902SOL    HW127605   1.645   5.368   6.372
 8902SOL    HW227606   1.693   5.432   6.514
 8903SOL     OW27607   2.226   1.560   3.948
 8903SOL    HW127608   2.269   1.531   3.862
 8903SOL    HW227609   2.153   1.626   3.928
 8904SOL     OW27610   0.098   5.853   4.146
 8904SOL    HW127611   0.072   5.839   4.050
 8904SOL    HW227612   0.025   5.822   4.206
 8905SOL     OW27613   2.211   3.382   5.503
 8905SOL    HW127614   2.290   3.442   5.486
 8905SOL    HW227615   2.136   3.409   5.443
 8906SOL     OW27616   6.730   6.363   6.195
 8906SOL    HW127617   6.677   6.380   6.111
 8906SOL    HW227618   6.820   6.327   6.170
 8907SOL     OW27619   3.237   2.638   5.334
 8907SOL    HW127620   3.235   2.562   5.268
 8907SOL    HW227621   3.204   2.721   5.290
 8908SOL     OW27622   1.513   2.169   1.257
 8908SOL    HW127623   1.556   2.089   1.298
 8908SOL    HW227624   1.505   2.156   1.158
 8909SOL     OW27625   2.892   0.779   6.071
 8909SOL    HW127626   2.853   0.755   5.982
 8909SOL    HW227627   2.837   0.736   6.144
 8910SOL     OW27628   3.058   3.366   6.599
 8910SOL    HW127629   3.002   3.310   6.538
 8910SOL    HW227630   3.000   3.432   6.646
 8911SOL     OW27631   3.063   2.090   4.617
 8911SOL    HW127632   3.065   2.088   4.717
 8911SOL    HW227633   3.157   2.082   4.582
 8912SOL     OW27634   4.684   1.822   6.011
 8912SOL    HW127635   4.623   1.795   6.086
 8912SOL    HW227636   4.651   1.906   5.970
 8913SOL     OW27637   5.053   4.321   1.858
 8913SOL    HW127638   4.989   4.261   1.907
 8913SOL    HW227639   5.003   4.392   1.809
 8914SOL     OW27640   3.783   1.679   5.004
 8914SOL    HW127641   3.818   1.600   5.054
 8914SOL    HW227642   3.859   1.728   4.963
 8915SOL     OW27643   2.209   3.171   3.653
 8915SOL    HW127644   2.201   3.127   3.563
 8915SOL    HW227645   2.204   3.102   3.725
 8916SOL     OW27646   6.933   4.529   2.625
 8916SOL    HW127647   6.979   4.497   2.707
 8916SOL    HW227648   6.916   4.452   2.564
 8917SOL     OW27649   6.124   6.036   6.400
 8917SOL    HW127650   6.205   6.049   6.457
 8917SOL    HW227651   6.131   5.947   6.354
 8918SOL     OW27652   5.649   6.347   7.022
 8918SOL    HW127653   5.730   6.403   0.018
 8918SOL    HW227654   5.595   6.391   6.950
 8919SOL     OW27655   3.375   4.281   0.880
 8919SOL    HW127656   3.289   4.229   0.879
 8919SOL    HW227657   3.385   4.331   0.794
 8920SOL     OW27658   5.977   5.452   6.086
 8920SOL    HW127659   5.909   5.439   6.159
 8920SOL    HW227660   5.930   5.455   5.998
 8921SOL     OW27661   1.526   1.024   3.757
 8921SOL    HW127662   1.458   1.017   3.684
 8921SOL    HW227663   1.598   1.088   3.729
 8922SOL     OW27664   1.965   4.817   0.745
 8922SOL    HW127665   1.981   4.740   0.808
 8922SOL    HW227666   1.894   4.791   0.679
 8923SOL     OW27667   1.874   3.645   6.564
 8923SOL    HW127668   1.864   3.712   6.491
 8923SOL    HW227669   1.914   3.690   6.644
 8924SOL     OW27670   2.958   5.083   5.396
 8924SOL    HW127671   2.904   5.130   5.466
 8924SOL    HW227672   2.927   4.988   5.388
 8925SOL     OW27673   6.611   6.855   2.284
 8925SOL    HW127674   6.615   6.774   2.342
 8925SOL    HW227675   6.521   6.899   2.292
 8926SOL     OW27676   5.567   2.186   1.898
 8926SOL    HW127677   5.625   2.198   1.817
 8926SOL    HW227678   5.506   2.265   1.907
 8927SOL     OW27679   2.336   2.729   5.152
 8927SOL    HW127680   2.403   2.732   5.227
 8927SOL    HW227681   2.350   2.808   5.092
 8928SOL     OW27682   0.507   0.735   5.594
 8928SOL    HW127683   0.412   0.765   5.592
 8928SOL    HW227684   0.520   0.671   5.670
 8929SOL     OW27685   6.798   3.903   4.207
 8929SOL    HW127686   6.779   3.953   4.123
 8929SOL    HW227687   6.896   3.884   4.213
 8930SOL     OW27688   1.201   5.609   4.818
 8930SOL    HW127689   1.295   5.644   4.816
 8930SOL    HW227690   1.192   5.535   4.751
 8931SOL     OW27691   5.076   1.682   1.437
 8931SOL    HW127692   4.976   1.687   1.441
 8931SOL    HW227693   5.107   1.596   1.478
 8932SOL     OW27694   6.125   0.606   6.552
 8932SOL    HW127695   6.039   0.628   6.597
 8932SOL    HW227696   6.196   0.590   6.621
 8933SOL     OW27697   1.156   1.256   4.938
 8933SOL    HW127698   1.065   1.254   4.897
 8933SOL    HW227699   1.205   1.172   4.914
 8934SOL     OW27700   3.871   5.493   3.221
 8934SOL    HW127701   3.875   5.588   3.251
 8934SOL    HW227702   3.782   5.454   3.248
 8935SOL     OW27703   4.638   2.599   2.613
 8935SOL    HW127704   4.712   2.632   2.555
 8935SOL    HW227705   4.571   2.551   2.558
 8936SOL     OW27706   0.517   4.716   1.156
 8936SOL    HW127707   0.551   4.765   1.235
 8936SOL    HW227708   0.522   4.617   1.173
 8937SOL     OW27709   0.429   6.783   4.224
 8937SOL    HW127710   0.458   6.719   4.296
 8937SOL    HW227711   0.394   6.731   4.146
 8938SOL     OW27712   6.168   1.009   0.484
 8938SOL    HW127713   6.251   0.960   0.509
 8938SOL    HW227714   6.124   1.046   0.567
 8939SOL     OW27715   0.086   2.924   4.299
 8939SOL    HW127716   0.184   2.914   4.280
 8939SOL    HW227717   0.052   2.841   4.343
 8940SOL     OW27718   0.192   3.141   0.809
 8940SOL    HW127719   0.143   3.092   0.737
 8940SOL    HW227720   0.229   3.076   0.875
 8941SOL     OW27721   5.323   2.383   2.191
 8941SOL    HW127722   5.423   2.390   2.201
 8941SOL    HW227723   5.279   2.447   2.253
 8942SOL     OW27724   6.337   4.900   4.088
 8942SOL    HW127725   6.268   4.885   4.017
 8942SOL    HW227726   6.297   4.887   4.178
 8943SOL     OW27727   4.393   3.642   0.399
 8943SOL    HW127728   4.405   3.581   0.320
 8943SOL    HW227729   4.471   3.633   0.460
 8944SOL     OW27730   4.293   5.638   4.450
 8944SOL    HW127731   4.216   5.686   4.408
 8944SOL    HW227732   4.328   5.569   4.387
 8945SOL     OW27733   6.280   3.601   4.764
 8945SOL    HW127734   6.261   3.625   4.668
 8945SOL    HW227735   6.226   3.521   4.790
 8946SOL     OW27736   5.320   1.215   4.356
 8946SOL    HW127737   5.238   1.221   4.299
 8946SOL    HW227738   5.401   1.213   4.298
 8947SOL     OW27739   1.207   4.498   6.023
 8947SOL    HW127740   1.158   4.530   5.941
 8947SOL    HW227741   1.176   4.550   6.102
 8948SOL     OW27742   6.799   0.107   3.719
 8948SOL    HW127743   6.768   0.193   3.678
 8948SOL    HW227744   6.888   0.083   3.680
 8949SOL     OW27745   3.353   6.216   0.256
 8949SOL    HW127746   3.266   6.235   0.301
 8949SOL    HW227747   3.416   6.293   0.271
 8950SOL     OW27748   4.308   4.714   1.430
 8950SOL    HW127749   4.343   4.775   1.501
 8950SOL    HW227750   4.380   4.696   1.363
 8951SOL     OW27751   2.367   1.148   4.371
 8951SOL    HW127752   2.408   1.197   4.295
 8951SOL    HW227753   2.275   1.117   4.345
 8952SOL     OW27754   2.072   4.619   3.394
 8952SOL    HW127755   2.021   4.593   3.476
 8952SOL    HW227756   2.031   4.701   3.354
 8953SOL     OW27757   2.524   4.868   2.361
 8953SOL    HW127758   2.589   4.857   2.286
 8953SOL    HW227759   2.442   4.914   2.327
 8954SOL     OW27760   0.948   5.356   5.158
 8954SOL    HW127761   0.926   5.262   5.182
 8954SOL    HW227762   0.864   5.411   5.157
 8955SOL     OW27763   5.074   2.743   3.658
 8955SOL    HW127764   5.125   2.657   3.651
 8955SOL    HW227765   5.113   2.810   3.597
 8956SOL     OW27766   0.874   5.860   5.976
 8956SOL    HW127767   0.949   5.800   5.947
 8956SOL    HW227768   0.836   5.907   5.897
 8957SOL     OW27769   0.980   5.362   2.131
 8957SOL    HW127770   0.992   5.442   2.189
 8957SOL    HW227771   1.051   5.362   2.060
 8958SOL     OW27772   1.604   3.568   5.473
 8958SOL    HW127773   1.633   3.503   5.403
 8958SOL    HW227774   1.650   3.656   5.457
 8959SOL     OW27775   0.703   3.229   2.348
 8959SOL    HW127776   0.784   3.170   2.353
 8959SOL    HW227777   0.625   3.180   2.387
 8960SOL     OW27778   5.671   4.021   4.158
 8960SOL    HW127779   5.686   4.001   4.061
 8960SOL    HW227780   5.658   3.936   4.208
 8961SOL     OW27781   3.413   6.810   4.873
 8961SOL    HW127782   3.392   6.713   4.885
 8961SOL    HW227783   3.355   6.847   4.800
 8962SOL     OW27784   0.894   5.594   1.483
 8962SOL    HW127785   0.989   5.563   1.486
 8962SOL    HW227786   0.844   5.542   1.414
 8963SOL     OW27787   3.551   6.075   4.412
 8963SOL    HW127788   3.640   6.042   4.380
 8963SOL    HW227789   3.508   6.006   4.469
 8964SOL     OW27790   0.022   3.568   4.234
 8964SOL    HW127791   0.025   3.621   4.319
 8964SOL    HW227792   0.055   3.625   4.159
 8965SOL     OW27793   4.326   4.893   0.165
 8965SOL    HW127794   4.281   4.822   0.219
 8965SOL    HW227795   4.279   4.980   0.179
 8966SOL     OW27796   5.214   5.491   6.237
 8966SOL    HW127797   5.189   5.580   6.198
 8966SOL    HW227798   5.166   5.478   6.323
 8967SOL     OW27799   3.541   0.573   3.225
 8967SOL    HW127800   3.634   0.602   3.205
 8967SOL    HW227801   3.496   0.543   3.141
 8968SOL     OW27802   3.490   5.037   1.916
 8968SOL    HW127803   3.412   5.024   1.977
 8968SOL    HW227804   3.546   5.113   1.949
 8969SOL     OW27805   0.021   0.999   2.887
 8969SOL    HW127806   6.959   1.052   2.894
 8969SOL    HW227807   0.083   1.043   2.823
 8970SOL     OW27808   1.562   1.116   6.391
 8970SOL    HW127809   1.580   1.213   6.382
 8970SOL    HW227810   1.595   1.083   6.480
 8971SOL     OW27811   4.214   5.797   0.420
 8971SOL    HW127812   4.212   5.749   0.508
 8971SOL    HW227813   4.220   5.730   0.346
 8972SOL     OW27814   5.723   4.672   0.726
 8972SOL    HW127815   5.758   4.579   0.738
 8972SOL    HW227816   5.743   4.704   0.634
 8973SOL     OW27817   0.655   2.215   2.211
 8973SOL    HW127818   0.675   2.281   2.284
 8973SOL    HW227819   0.644   2.264   2.125
 8974SOL     OW27820   2.284   4.302   4.578
 8974SOL    HW127821   2.207   4.348   4.533
 8974SOL    HW227822   2.279   4.204   4.560
 8975SOL     OW27823   0.499   0.508   6.406
 8975SOL    HW127824   0.593   0.481   6.427
 8975SOL    HW227825   0.498   0.603   6.376
 8976SOL     OW27826   6.776   6.813   1.371
 8976SOL    HW127827   6.809   6.776   1.284
 8976SOL    HW227828   6.850   6.860   1.418
 8977SOL     OW27829   6.839   5.146   6.135
 8977SOL    HW127830   6.759   5.099   6.175
 8977SOL    HW227831   6.819   5.243   6.127
 8978SOL     OW27832   5.980   5.639   5.726
 8978SOL    HW127833   6.056   5.602   5.780
 8978SOL    HW227834   5.962   5.578   5.648
 8979SOL     OW27835   1.222   5.613   5.867
 8979SOL    HW127836   1.172   5.528   5.851
 8979SOL    HW227837   1.283   5.603   5.945
 8980SOL     OW27838   3.853   1.071   4.933
 8980SOL    HW127839   3.882   1.056   4.839
 8980SOL    HW227840   3.765   1.119   4.934
 8981SOL     OW27841   4.485   2.852   6.437
 8981SOL    HW127842   4.459   2.793   6.361
 8981SOL    HW227843   4.546   2.924   6.404
 8982SOL     OW27844   6.891   1.355   1.377
 8982SOL    HW127845   6.817   1.389   1.436
 8982SOL    HW227846   6.935   1.276   1.420
 8983SOL     OW27847   1.046   6.146   3.014
 8983SOL    HW127848   1.144   6.147   3.034
 8983SOL    HW227849   1.013   6.240   3.004
 8984SOL     OW27850   5.986   0.639   4.147
 8984SOL    HW127851   5.901   0.591   4.172
 8984SOL    HW227852   6.028   0.676   4.230
 8985SOL     OW27853   4.869   2.380   0.768
 8985SOL    HW127854   4.923   2.296   0.760
 8985SOL    HW227855   4.823   2.398   0.681
 8986SOL     OW27856   6.574   4.503   1.534
 8986SOL    HW127857   6.482   4.489   1.572
 8986SOL    HW227858   6.633   4.544   1.603
 8987SOL     OW27859   2.339   6.681   1.186
 8987SOL    HW127860   2.351   6.674   1.087
 8987SOL    HW227861   2.325   6.590   1.224
 8988SOL     OW27862   1.529   4.849   1.341
 8988SOL    HW127863   1.432   4.869   1.355
 8988SOL    HW227864   1.561   4.896   1.259
 8989SOL     OW27865   5.713   1.856   1.729
 8989SOL    HW127866   5.669   1.876   1.641
 8989SOL    HW227867   5.812   1.868   1.719
 8990SOL     OW27868   3.177   6.971   1.621
 8990SOL    HW127869   3.257   6.940   1.569
 8990SOL    HW227870   3.139   0.031   1.580
 8991SOL     OW27871   1.990   2.266   0.784
 8991SOL    HW127872   2.063   2.334   0.770
 8991SOL    HW227873   1.904   2.303   0.751
 8992SOL     OW27874   0.486   3.722   6.553
 8992SOL    HW127875   0.558   3.726   6.484
 8992SOL    HW227876   0.416   3.791   6.533
 8993SOL     OW27877   5.575   2.507   3.312
 8993SOL    HW127878   5.500   2.442   3.314
 8993SOL    HW227879   5.632   2.495   3.393
 8994SOL     OW27880   0.875   4.949   3.898
 8994SOL    HW127881   0.798   4.949   3.834
 8994SOL    HW227882   0.958   4.975   3.850
 8995SOL     OW27883   1.723   3.591   5.153
 8995SOL    HW127884   1.688   3.500   5.175
 8995SOL    HW227885   1.813   3.603   5.195
 8996SOL     OW27886   0.456   3.864   2.581
 8996SOL    HW127887   0.550   3.862   2.548
 8996SOL    HW227888   0.455   3.850   2.680
 8997SOL     OW27889   4.332   1.176   5.045
 8997SOL    HW127890   4.242   1.167   5.087
 8997SOL    HW227891   4.359   1.088   5.005
 8998SOL     OW27892   1.491   2.598   5.895
 8998SOL    HW127893   1.569   2.567   5.840
 8998SOL    HW227894   1.513   2.687   5.937
 8999SOL     OW27895   5.668   1.427   5.346
 8999SOL    HW127896   5.590   1.486   5.325
 8999SOL    HW227897   5.708   1.454   5.433
 9000SOL     OW27898   3.162   4.125   0.469
 9000SOL    HW127899   3.118   4.195   0.526
 9000SOL    HW227900   3.240   4.087   0.519
 9001SOL     OW27901   2.171   4.788   4.029
 9001SOL    HW127902   2.236   4.843   3.975
 9001SOL    HW227903   2.220   4.712   4.071
 9002SOL     OW27904   5.995   4.702   6.244
 9002SOL    HW127905   6.037   4.613   6.263
 9002SOL    HW227906   5.912   4.689   6.190
 9003SOL     OW27907   6.508   2.987   6.960
 9003SOL    HW127908   6.592   2.975   6.906
 9003SOL    HW227909   6.429   2.985   6.898
 9004SOL     OW27910   4.694   6.320   1.569
 9004SOL    HW127911   4.760   6.306   1.643
 9004SOL    HW227912   4.704   6.412   1.531
 9005SOL     OW27913   5.132   2.051   3.414
 9005SOL    HW127914   5.172   2.125   3.360
 9005SOL    HW227915   5.047   2.021   3.372
 9006SOL     OW27916   1.428   5.296   1.314
 9006SOL    HW127917   1.372   5.251   1.383
 9006SOL    HW227918   1.369   5.338   1.245
 9007SOL     OW27919   3.325   5.715   3.985
 9007SOL    HW127920   3.352   5.687   3.893
 9007SOL    HW227921   3.370   5.656   4.052
 9008SOL     OW27922   6.927   4.100   2.120
 9008SOL    HW127923   6.894   4.069   2.031
 9008SOL    HW227924   6.896   4.194   2.136
 9009SOL     OW27925   2.658   6.222   0.547
 9009SOL    HW127926   2.640   6.167   0.466
 9009SOL    HW227927   2.709   6.168   0.614
 9010SOL     OW27928   0.315   6.491   5.161
 9010SOL    HW127929   0.224   6.494   5.119
 9010SOL    HW227930   0.374   6.558   5.116
 9011SOL     OW27931   4.253   1.802   1.155
 9011SOL    HW127932   4.350   1.810   1.133
 9011SOL    HW227933   4.213   1.894   1.164
 9012SOL     OW27934   0.692   5.162   1.798
 9012SOL    HW127935   0.707   5.245   1.851
 9012SOL    HW227936   0.632   5.182   1.720
 9013SOL     OW27937   6.462   6.056   3.201
 9013SOL    HW127938   6.544   6.067   3.258
 9013SOL    HW227939   6.486   6.073   3.105
 9014SOL     OW27940   1.468   0.525   1.072
 9014SOL    HW127941   1.557   0.541   1.028
 9014SOL    HW227942   1.408   0.477   1.008
 9015SOL     OW27943   0.285   1.139   6.050
 9015SOL    HW127944   0.195   1.150   6.092
 9015SOL    HW227945   0.355   1.184   6.106
 9016SOL     OW27946   6.503   6.060   6.104
 9016SOL    HW127947   6.406   6.045   6.084
 9016SOL    HW227948   6.513   6.100   6.195
 9017SOL     OW27949   6.255   2.386   3.931
 9017SOL    HW127950   6.294   2.472   3.964
 9017SOL    HW227951   6.258   2.318   4.004
 9018SOL     OW27952   3.630   2.208   5.300
 9018SOL    HW127953   3.641   2.132   5.236
 9018SOL    HW227954   3.717   2.225   5.346
 9019SOL     OW27955   2.647   6.361   0.138
 9019SOL    HW127956   2.659   6.277   0.085
 9019SOL    HW227957   2.559   6.403   0.116
 9020SOL     OW27958   1.810   4.256   2.786
 9020SOL    HW127959   1.804   4.191   2.710
 9020SOL    HW227960   1.718   4.284   2.813
 9021SOL     OW27961   6.660   5.520   4.601
 9021SOL    HW127962   6.660   5.486   4.695
 9021SOL    HW227963   6.595   5.467   4.546
 9022SOL     OW27964   2.649   0.691   0.468
 9022SOL    HW127965   2.571   0.658   0.414
 9022SOL    HW227966   2.628   0.782   0.504
 9023SOL     OW27967   3.204   3.120   3.800
 9023SOL    HW127968   3.281   3.148   3.742
 9023SOL    HW227969   3.152   3.201   3.826
 9024SOL     OW27970   1.672   6.517   5.753
 9024SOL    HW127971   1.756   6.464   5.739
 9024SOL    HW227972   1.600   6.457   5.790
 9025SOL     OW27973   6.136   4.699   1.952
 9025SOL    HW127974   6.163   4.790   1.922
 9025SOL    HW227975   6.168   4.684   2.046
 9026SOL     OW27976   3.540   2.859   4.952
 9026SOL    HW127977   3.501   2.767   4.950
 9026SOL    HW227978   3.547   2.890   5.047
 9027SOL     OW27979   2.799   2.279   3.309
 9027SOL    HW127980   2.770   2.309   3.399
 9027SOL    HW227981   2.742   2.322   3.239
 9028SOL     OW27982   2.770   4.871   5.184
 9028SOL    HW127983   2.741   4.841   5.094
 9028SOL    HW227984   2.840   4.810   5.219
 9029SOL     OW27985   4.732   6.068   3.332
 9029SOL    HW127986   4.667   6.138   3.303
 9029SOL    HW227987   4.711   5.982   3.286
 9030SOL     OW27988   2.141   0.713   2.600
 9030SOL    HW127989   2.078   0.760   2.537
 9030SOL    HW227990   2.119   0.738   2.694
 9031SOL     OW27991   2.370   6.236   5.628
 9031SOL    HW127992   2.308   6.278   5.561
 9031SOL    HW227993   2.339   6.256   5.720
 9032SOL     OW27994   2.900   2.170   1.479
 9032SOL    HW127995   2.982   2.133   1.521
 9032SOL    HW227996   2.835   2.096   1.462
 9033SOL     OW27997   1.802   3.403   3.437
 9033SOL    HW127998   1.868   3.472   3.468
 9033SOL    HW227999   1.841   3.312   3.449
 9034SOL     OW28000   2.859   6.337   5.792
 9034SOL    HW128001   2.906   6.271   5.734
 9034SOL    HW228002   2.764   6.308   5.806
 9035SOL     OW28003   6.970   0.936   4.053
 9035SOL    HW128004   7.008   0.899   4.138
 9035SOL    HW228005   0.020   0.941   3.984
 9036SOL     OW28006   1.062   2.948   5.682
 9036SOL    HW128007   1.158   2.972   5.678
 9036SOL    HW228008   1.037   2.922   5.775
 9037SOL     OW28009   2.689   4.288   6.643
 9037SOL    HW128010   2.761   4.266   6.576
 9037SOL    HW228011   2.602   4.299   6.595
 9038SOL     OW28012   4.633   6.431   4.987
 9038SOL    HW128013   4.639   6.331   4.982
 9038SOL    HW228014   4.576   6.464   4.912
 9039SOL     OW28015   1.934   4.887   4.658
 9039SOL    HW128016   1.882   4.958   4.610
 9039SOL    HW228017   2.017   4.926   4.696
 9040SOL     OW28018   2.108   1.987   2.441
 9040SOL    HW128019   2.009   1.973   2.431
 9040SOL    HW228020   2.150   1.988   2.351
 9041SOL     OW28021   1.097   2.699   1.132
 9041SOL    HW128022   1.010   2.723   1.176
 9041SOL    HW228023   1.089   2.609   1.090
 9042SOL     OW28024   2.810   5.017   3.091
 9042SOL    HW128025   2.712   5.009   3.074
 9042SOL    HW228026   2.860   4.958   3.028
 9043SOL     OW28027   0.859   2.806   5.889
 9043SOL    HW128028   0.941   2.751   5.904
 9043SOL    HW228029   0.838   2.857   5.972
 9044SOL     OW28030   6.102   0.389   0.668
 9044SOL    HW128031   6.050   0.455   0.722
 9044SOL    HW228032   6.189   0.429   0.641
 9045SOL     OW28033   2.898   0.010   3.335
 9045SOL    HW128034   2.933   0.092   3.380
 9045SOL    HW228035   2.975   6.976   3.304
 9046SOL     OW28036   3.187   4.324   5.501
 9046SOL    HW128037   3.140   4.299   5.585
 9046SOL    HW228038   3.121   4.340   5.428
 9047SOL     OW28039   1.246   4.024   4.227
 9047SOL    HW128040   1.179   4.047   4.298
 9047SOL    HW228041   1.200   3.978   4.151
 9048SOL     OW28042   1.346   3.684   4.894
 9048SOL    HW128043   1.271   3.741   4.861
 9048SOL    HW228044   1.324   3.648   4.985
 9049SOL     OW28045   5.895   6.140   5.977
 9049SOL    HW128046   5.961   6.067   5.964
 9049SOL    HW228047   5.942   6.228   5.975
 9050SOL     OW28048   0.153   4.893   6.943
 9050SOL    HW128049   0.196   4.870   0.008
 9050SOL    HW228050   0.223   4.916   6.876
 9051SOL     OW28051   5.491   5.792   0.075
 9051SOL    HW128052   5.553   5.842   0.136
 9051SOL    HW228053   5.532   5.787   7.007
 9052SOL     OW28054   2.665   4.883   4.674
 9052SOL    HW128055   2.582   4.936   4.659
 9052SOL    HW228056   2.680   4.821   4.597
 9053SOL     OW28057   2.424   2.674   4.121
 9053SOL    HW128058   2.513   2.628   4.110
 9053SOL    HW228059   2.384   2.649   4.209
 9054SOL     OW28060   1.833   0.449   2.064
 9054SOL    HW128061   1.777   0.519   2.108
 9054SOL    HW228062   1.930   0.470   2.077
 9055SOL     OW28063   0.683   2.698   4.012
 9055SOL    HW128064   0.686   2.600   4.031
 9055SOL    HW228065   0.702   2.749   4.097
 9056SOL     OW28066   4.880   0.292   2.683
 9056SOL    HW128067   4.957   0.333   2.634
 9056SOL    HW228068   4.829   0.232   2.621
 9057SOL     OW28069   6.385   5.836   0.071
 9057SOL    HW128070   6.336   5.836   0.158
 9057SOL    HW228071   6.341   5.771   0.009
 9058SOL     OW28072   2.003   2.879   4.966
 9058SOL    HW128073   1.986   2.934   4.884
 9058SOL    HW228074   2.081   2.818   4.949
 9059SOL     OW28075   6.475   1.718   3.043
 9059SOL    HW128076   6.535   1.773   3.101
 9059SOL    HW228077   6.410   1.778   2.996
 9060SOL     OW28078   0.095   3.247   1.895
 9060SOL    HW128079   0.070   3.159   1.854
 9060SOL    HW228080   0.022   3.313   1.880
 9061SOL     OW28081   4.608   5.779   2.439
 9061SOL    HW128082   4.571   5.791   2.531
 9061SOL    HW228083   4.643   5.686   2.430
 9062SOL     OW28084   0.969   4.636   3.767
 9062SOL    HW128085   0.967   4.664   3.863
 9062SOL    HW228086   1.064   4.634   3.734
 9063SOL     OW28087   2.911   0.918   2.618
 9063SOL    HW128088   2.941   0.852   2.687
 9063SOL    HW228089   2.822   0.956   2.644
 9064SOL     OW28090   0.481   4.297   3.484
 9064SOL    HW128091   0.481   4.257   3.392
 9064SOL    HW228092   0.570   4.283   3.526
 9065SOL     OW28093   2.930   6.145   5.044
 9065SOL    HW128094   3.028   6.140   5.026
 9065SOL    HW228095   2.913   6.203   5.123
 9066SOL     OW28096   5.838   5.731   6.193
 9066SOL    HW128097   5.777   5.664   6.237
 9066SOL    HW228098   5.827   5.726   6.094
 9067SOL     OW28099   6.418   0.214   4.467
 9067SOL    HW128100   6.493   0.281   4.465
 9067SOL    HW228101   6.346   0.247   4.529
 9068SOL     OW28102   5.088   0.272   4.978
 9068SOL    HW128103   5.175   0.315   5.005
 9068SOL    HW228104   5.107   0.183   4.937
 9069SOL     OW28105   4.729   2.153   2.157
 9069SOL    HW128106   4.670   2.197   2.225
 9069SOL    HW228107   4.824   2.178   2.175
 9070SOL     OW28108   1.217   2.190   5.757
 9070SOL    HW128109   1.218   2.125   5.682
 9070SOL    HW228110   1.150   2.262   5.738
 9071SOL     OW28111   4.304   1.466   5.703
 9071SOL    HW128112   4.296   1.402   5.780
 9071SOL    HW228113   4.394   1.456   5.660
 9072SOL     OW28114   5.057   0.356   1.665
 9072SOL    HW128115   5.056   0.277   1.603
 9072SOL    HW228116   5.139   0.411   1.647
 9073SOL     OW28117   3.942   0.618   6.794
 9073SOL    HW128118   3.914   0.546   6.858
 9073SOL    HW228119   3.878   0.622   6.718
 9074SOL     OW28120   1.340   6.809   1.107
 9074SOL    HW128121   1.412   6.829   1.041
 9074SOL    HW228122   1.264   6.874   1.095
 9075SOL     OW28123   6.884   0.736   1.505
 9075SOL    HW128124   6.825   0.781   1.571
 9075SOL    HW228125   6.912   0.802   1.435
 9076SOL     OW28126   5.134   0.124   2.546
 9076SOL    HW128127   5.053   0.182   2.539
 9076SOL    HW228128   5.213   0.179   2.574
 9077SOL     OW28129   5.213   1.210   5.677
 9077SOL    HW128130   5.209   1.222   5.578
 9077SOL    HW228131   5.238   1.297   5.720
 9078SOL     OW28132   5.037   5.587   0.049
 9078SOL    HW128133   5.095   5.513   0.084
 9078SOL    HW228134   4.998   5.560   6.984
 9079SOL     OW28135   1.220   0.495   5.569
 9079SOL    HW128136   1.320   0.488   5.561
 9079SOL    HW228137   1.191   0.587   5.545
 9080SOL     OW28138   6.746   3.683   0.663
 9080SOL    HW128139   6.723   3.680   0.566
 9080SOL    HW228140   6.720   3.597   0.706
 9081SOL     OW28141   3.520   1.667   1.588
 9081SOL    HW128142   3.567   1.604   1.651
 9081SOL    HW228143   3.492   1.749   1.638
 9082SOL     OW28144   3.389   5.849   6.143
 9082SOL    HW128145   3.352   5.784   6.210
 9082SOL    HW228146   3.321   5.920   6.125
 9083SOL     OW28147   4.651   4.894   6.047
 9083SOL    HW128148   4.662   4.903   5.948
 9083SOL    HW228149   4.555   4.876   6.069
 9084SOL     OW28150   0.949   2.819   5.462
 9084SOL    HW128151   1.009   2.741   5.444
 9084SOL    HW228152   0.985   2.872   5.538
 9085SOL     OW28153   2.900   5.020   0.001
 9085SOL    HW128154   2.859   5.030   6.933
 9085SOL    HW228155   2.975   4.954   7.019
 9086SOL     OW28156   6.735   4.354   0.782
 9086SOL    HW128157   6.725   4.270   0.729
 9086SOL    HW228158   6.737   4.332   0.879
 9087SOL     OW28159   5.894   2.573   2.195
 9087SOL    HW128160   5.896   2.633   2.116
 9087SOL    HW228161   5.843   2.489   2.172
 9088SOL     OW28162   6.186   0.540   1.745
 9088SOL    HW128163   6.193   0.450   1.703
 9088SOL    HW228164   6.197   0.532   1.844
 9089SOL     OW28165   4.525   5.454   3.914
 9089SOL    HW128166   4.552   5.521   3.983
 9089SOL    HW228167   4.531   5.496   3.823
 9090SOL     OW28168   5.558   6.258   4.470
 9090SOL    HW128169   5.567   6.235   4.373
 9090SOL    HW228170   5.644   6.239   4.517
 9091SOL     OW28171   3.631   2.175   0.396
 9091SOL    HW128172   3.684   2.122   0.462
 9091SOL    HW228173   3.570   2.237   0.446
 9092SOL     OW28174   1.045   6.825   5.702
 9092SOL    HW128175   1.053   6.740   5.650
 9092SOL    HW228176   1.134   6.870   5.708
 9093SOL     OW28177   1.426   5.798   0.283
 9093SOL    HW128178   1.453   5.704   0.260
 9093SOL    HW228179   1.394   5.845   0.201
 9094SOL     OW28180   0.193   5.877   1.836
 9094SOL    HW128181   0.262   5.821   1.791
 9094SOL    HW228182   0.126   5.908   1.769
 9095SOL     OW28183   5.210   3.383   6.592
 9095SOL    HW128184   5.125   3.433   6.579
 9095SOL    HW228185   5.195   3.308   6.656
 9096SOL     OW28186   5.497   3.094   2.938
 9096SOL    HW128187   5.424   3.149   2.979
 9096SOL    HW228188   5.586   3.129   2.970
 9097SOL     OW28189   1.172   3.714   7.017
 9097SOL    HW128190   1.113   3.646   6.973
 9097SOL    HW228191   1.198   3.783   6.949
 9098SOL     OW28192   3.712   3.913   1.910
 9098SOL    HW128193   3.696   3.987   1.845
 9098SOL    HW228194   3.730   3.951   2.001
 9099SOL     OW28195   3.367   3.279   0.998
 9099SOL    HW128196   3.354   3.209   1.068
 9099SOL    HW228197   3.321   3.251   0.914
 9100SOL     OW28198   0.599   2.939   1.702
 9100SOL    HW128199   0.509   2.900   1.683
 9100SOL    HW228200   0.590   3.020   1.759
 9101SOL     OW28201   2.175   3.026   2.901
 9101SOL    HW128202   2.234   2.955   2.941
 9101SOL    HW228203   2.080   2.996   2.903
 9102SOL     OW28204   3.650   5.510   2.569
 9102SOL    HW128205   3.686   5.596   2.532
 9102SOL    HW228206   3.554   5.522   2.593
 9103SOL     OW28207   0.190   3.736   0.805
 9103SOL    HW128208   0.123   3.667   0.830
 9103SOL    HW228209   0.256   3.697   0.741
 9104SOL     OW28210   3.650   5.969   1.757
 9104SOL    HW128211   3.720   5.991   1.825
 9104SOL    HW228212   3.668   6.020   1.673
 9105SOL     OW28213   1.738   0.874   6.632
 9105SOL    HW128214   1.776   0.935   6.701
 9105SOL    HW228215   1.649   0.841   6.663
 9106SOL     OW28216   5.959   4.302   0.463
 9106SOL    HW128217   5.961   4.221   0.522
 9106SOL    HW228218   5.866   4.339   0.459
 9107SOL     OW28219   4.327   6.849   6.744
 9107SOL    HW128220   4.313   6.925   6.807
 9107SOL    HW228221   4.365   6.883   6.658
 9108SOL     OW28222   4.781   4.413   5.240
 9108SOL    HW128223   4.771   4.412   5.339
 9108SOL    HW228224   4.865   4.363   5.214
 9109SOL     OW28225   2.142   1.667   3.125
 9109SOL    HW128226   2.159   1.693   3.030
 9109SOL    HW228227   2.205   1.595   3.152
 9110SOL     OW28228   2.467   4.592   3.774
 9110SOL    HW128229   2.517   4.620   3.692
 9110SOL    HW228230   2.378   4.637   3.775
 9111SOL     OW28231   3.566   3.827   1.335
 9111SOL    HW128232   3.625   3.835   1.254
 9111SOL    HW228233   3.621   3.798   1.413
 9112SOL     OW28234   0.470   3.719   3.380
 9112SOL    HW128235   0.540   3.765   3.326
 9112SOL    HW228236   0.497   3.624   3.395
 9113SOL     OW28237   4.423   0.872   6.914
 9113SOL    HW128238   4.478   0.905   6.991
 9113SOL    HW228239   4.328   0.861   6.943
 9114SOL     OW28240   1.996   4.831   2.605
 9114SOL    HW128241   2.077   4.868   2.561
 9114SOL    HW228242   1.990   4.864   2.699
 9115SOL     OW28243   1.211   4.965   4.774
 9115SOL    HW128244   1.142   4.897   4.800
 9115SOL    HW228245   1.205   5.043   4.837
 9116SOL     OW28246   6.816   1.734   6.909
 9116SOL    HW128247   6.840   1.829   6.890
 9116SOL    HW228248   6.716   1.724   6.904
 9117SOL     OW28249   6.161   3.409   6.590
 9117SOL    HW128250   6.106   3.457   6.658
 9117SOL    HW228251   6.238   3.364   6.636
 9118SOL     OW28252   5.752   6.801   0.770
 9118SOL    HW128253   5.852   6.813   0.775
 9118SOL    HW228254   5.730   6.704   0.771
 9119SOL     OW28255   6.020   1.264   2.533
 9119SOL    HW128256   6.099   1.208   2.557
 9119SOL    HW228257   5.958   1.211   2.476
 9120SOL     OW28258   5.784   2.726   5.949
 9120SOL    HW128259   5.730   2.648   5.979
 9120SOL    HW228260   5.732   2.781   5.884
 9121SOL     OW28261   0.922   3.172   5.321
 9121SOL    HW128262   1.011   3.125   5.322
 9121SOL    HW228263   0.888   3.181   5.414
 9122SOL     OW28264   2.266   2.743   1.622
 9122SOL    HW128265   2.199   2.737   1.548
 9122SOL    HW228266   2.229   2.700   1.704
 9123SOL     OW28267   3.431   6.681   5.172
 9123SOL    HW128268   3.451   6.669   5.075
 9123SOL    HW228269   3.473   6.607   5.224
 9124SOL     OW28270   5.869   5.891   5.375
 9124SOL    HW128271   5.930   5.877   5.453
 9124SOL    HW228272   5.892   5.825   5.303
 9125SOL     OW28273   4.474   4.526   3.985
 9125SOL    HW128274   4.398   4.497   3.927
 9125SOL    HW228275   4.547   4.563   3.929
 9126SOL     OW28276   6.067   1.461   2.330
 9126SOL    HW128277   6.009   1.472   2.411
 9126SOL    HW228278   6.127   1.382   2.344
 9127SOL     OW28279   6.014   0.413   5.258
 9127SOL    HW128280   5.939   0.478   5.249
 9127SOL    HW228281   6.010   0.369   5.348
 9128SOL     OW28282   3.889   1.827   5.414
 9128SOL    HW128283   3.905   1.885   5.494
 9128SOL    HW228284   3.977   1.789   5.383
 9129SOL     OW28285   1.702   3.196   0.966
 9129SOL    HW128286   1.646   3.255   1.024
 9129SOL    HW228287   1.728   3.246   0.883
 9130SOL     OW28288   0.199   4.321   6.819
 9130SOL    HW128289   0.175   4.365   6.905
 9130SOL    HW228290   0.150   4.234   6.812
 9131SOL     OW28291   0.442   4.273   4.868
 9131SOL    HW128292   0.426   4.340   4.940
 9131SOL    HW228293   0.418   4.182   4.902
 9132SOL     OW28294   0.042   4.373   3.796
 9132SOL    HW128295   0.042   4.444   3.726
 9132SOL    HW228296   0.017   4.413   3.884
 9133SOL     OW28297   3.334   5.355   0.926
 9133SOL    HW128298   3.397   5.357   0.849
 9133SOL    HW228299   3.374   5.401   1.004
 9134SOL     OW28300   3.438   0.028   0.602
 9134SOL    HW128301   3.506   0.084   0.553
 9134SOL    HW228302   3.395   6.988   0.537
 9135SOL     OW28303   0.043   6.492   2.154
 9135SOL    HW128304   0.033   6.590   2.141
 9135SOL    HW228305   0.124   6.459   2.104
 9136SOL     OW28306   4.845   5.404   5.441
 9136SOL    HW128307   4.945   5.403   5.442
 9136SOL    HW228308   4.812   5.317   5.405
 9137SOL     OW28309   5.162   1.615   0.912
 9137SOL    HW128310   5.249   1.647   0.948
 9137SOL    HW228311   5.097   1.691   0.911
 9138SOL     OW28312   6.590   4.982   6.187
 9138SOL    HW128313   6.506   5.014   6.232
 9138SOL    HW228314   6.569   4.956   6.093
 9139SOL     OW28315   2.335   1.256   4.621
 9139SOL    HW128316   2.330   1.195   4.701
 9139SOL    HW228317   2.326   1.202   4.538
 9140SOL     OW28318   6.541   2.870   2.801
 9140SOL    HW128319   6.618   2.807   2.797
 9140SOL    HW228320   6.571   2.956   2.843
 9141SOL     OW28321   5.571   0.297   6.527
 9141SOL    HW128322   5.516   0.214   6.522
 9141SOL    HW228323   5.602   0.311   6.621
 9142SOL     OW28324   0.438   2.440   5.986
 9142SOL    HW128325   0.359   2.493   5.955
 9142SOL    HW228326   0.516   2.501   5.998
 9143SOL     OW28327   4.993   4.153   0.028
 9143SOL    HW128328   5.088   4.152   0.060
 9143SOL    HW228329   4.982   4.087   6.976
 9144SOL     OW28330   2.384   5.579   6.106
 9144SOL    HW128331   2.313   5.509   6.111
 9144SOL    HW228332   2.471   5.535   6.082
 9145SOL     OW28333   6.820   5.192   1.278
 9145SOL    HW128334   6.847   5.131   1.204
 9145SOL    HW228335   6.721   5.210   1.271
 9146SOL     OW28336   5.172   1.992   2.036
 9146SOL    HW128337   5.129   2.067   1.987
 9146SOL    HW228338   5.165   1.908   1.982
 9147SOL     OW28339   5.978   0.026   4.305
 9147SOL    HW128340   5.935   0.042   4.217
 9147SOL    HW228341   6.077   0.039   4.296
 9148SOL     OW28342   5.437   0.285   0.885
 9148SOL    HW128343   5.408   0.201   0.838
 9148SOL    HW228344   5.420   0.364   0.826
 9149SOL     OW28345   4.904   2.509   3.798
 9149SOL    HW128346   4.983   2.550   3.752
 9149SOL    HW228347   4.934   2.456   3.877
 9150SOL     OW28348   3.644   5.212   3.498
 9150SOL    HW128349   3.619   5.115   3.506
 9150SOL    HW228350   3.742   5.222   3.512
 9151SOL     OW28351   1.304   4.206   3.110
 9151SOL    HW128352   1.373   4.136   3.125
 9151SOL    HW228353   1.224   4.187   3.167
 9152SOL     OW28354   2.905   5.342   4.525
 9152SOL    HW128355   2.930   5.281   4.450
 9152SOL    HW228356   2.943   5.307   4.611
 9153SOL     OW28357   1.515   3.465   1.346
 9153SOL    HW128358   1.589   3.486   1.410
 9153SOL    HW228359   1.534   3.378   1.300
 9154SOL     OW28360   3.037   5.216   0.154
 9154SOL    HW128361   3.009   5.179   0.066
 9154SOL    HW228362   2.974   5.185   0.225
 9155SOL     OW28363   2.008   3.549   0.420
 9155SOL    HW128364   1.921   3.572   0.464
 9155SOL    HW228365   2.079   3.611   0.452
 9156SOL     OW28366   3.253   2.825   0.936
 9156SOL    HW128367   3.176   2.837   1.000
 9156SOL    HW228368   3.218   2.820   0.843
 9157SOL     OW28369   5.921   5.149   6.254
 9157SOL    HW128370   5.826   5.171   6.278
 9157SOL    HW228371   5.970   5.119   6.336
 9158SOL     OW28372   6.147   3.227   4.993
 9158SOL    HW128373   6.068   3.179   5.029
 9158SOL    HW228374   6.128   3.325   4.991
 9159SOL     OW28375   1.476   6.909   3.712
 9159SOL    HW128376   1.406   6.838   3.713
 9159SOL    HW228377   1.566   6.867   3.727
 9160SOL     OW28378   6.541   0.540   5.144
 9160SOL    HW128379   6.579   0.579   5.228
 9160SOL    HW228380   6.615   0.501   5.089
 9161SOL     OW28381   4.751   4.339   4.406
 9161SOL    HW128382   4.712   4.397   4.478
 9161SOL    HW228383   4.707   4.361   4.319
 9162SOL     OW28384   4.782   1.662   3.579
 9162SOL    HW128385   4.727   1.604   3.639
 9162SOL    HW228386   4.876   1.628   3.578
 9163SOL     OW28387   2.075   3.169   4.068
 9163SOL    HW128388   2.124   3.228   4.132
 9163SOL    HW228389   1.982   3.203   4.056
 9164SOL     OW28390   2.598   0.695   0.084
 9164SOL    HW128391   2.570   0.790   0.068
 9164SOL    HW228392   2.639   0.658   0.001
 9165SOL     OW28393   5.762   1.603   5.529
 9165SOL    HW128394   5.849   1.592   5.482
 9165SOL    HW228395   5.772   1.579   5.625
 9166SOL     OW28396   4.627   6.088   0.866
 9166SOL    HW128397   4.598   6.158   0.800
 9166SOL    HW228398   4.581   6.104   0.953
 9167SOL     OW28399   1.470   2.758   6.853
 9167SOL    HW128400   1.569   2.761   6.866
 9167SOL    HW228401   1.441   2.662   6.846
 9168SOL     OW28402   0.678   0.284   5.982
 9168SOL    HW128403   0.674   0.368   6.036
 9168SOL    HW228404   0.771   0.248   5.982
 9169SOL     OW28405   6.401   1.578   4.929
 9169SOL    HW128406   6.375   1.636   5.006
 9169SOL    HW228407   6.333   1.506   4.916
 9170SOL     OW28408   0.374   4.989   0.730
 9170SOL    HW128409   0.304   4.918   0.716
 9170SOL    HW228410   0.464   4.953   0.706
 9171SOL     OW28411   3.310   5.054   1.002
 9171SOL    HW128412   3.374   5.049   0.926
 9171SOL    HW228413   3.335   5.132   1.061
 9172SOL     OW28414   3.272   0.544   4.983
 9172SOL    HW128415   3.177   0.575   4.985
 9172SOL    HW228416   3.274   0.445   4.967
 9173SOL     OW28417   6.054   3.854   4.701
 9173SOL    HW128418   6.130   3.918   4.698
 9173SOL    HW228419   6.084   3.765   4.666
 9174SOL     OW28420   5.840   4.665   1.371
 9174SOL    HW128421   5.879   4.613   1.295
 9174SOL    HW228422   5.849   4.763   1.353
 9175SOL     OW28423   1.345   6.786   4.642
 9175SOL    HW128424   1.433   6.740   4.631
 9175SOL    HW228425   1.299   6.752   4.724
 9176SOL     OW28426   3.032   0.790   4.952
 9176SOL    HW128427   3.065   0.786   4.858
 9176SOL    HW228428   2.964   0.718   4.967
 9177SOL     OW28429   1.457   4.462   4.927
 9177SOL    HW128430   1.439   4.546   4.876
 9177SOL    HW228431   1.537   4.417   4.889
 9178SOL     OW28432   2.446   5.942   0.157
 9178SOL    HW128433   2.365   5.918   0.210
 9178SOL    HW228434   2.447   5.889   0.072
 9179SOL     OW28435   3.321   5.318   3.865
 9179SOL    HW128436   3.370   5.349   3.946
 9179SOL    HW228437   3.377   5.335   3.784
 9180SOL     OW28438   5.535   1.892   3.027
 9180SOL    HW128439   5.456   1.868   2.970
 9180SOL    HW228440   5.521   1.856   3.120
 9181SOL     OW28441   3.921   1.958   3.791
 9181SOL    HW128442   3.879   1.941   3.880
 9181SOL    HW228443   3.853   1.945   3.719
 9182SOL     OW28444   2.255   6.318   2.170
 9182SOL    HW128445   2.297   6.396   2.217
 9182SOL    HW228446   2.194   6.271   2.233
 9183SOL     OW28447   5.152   6.448   0.415
 9183SOL    HW128448   5.146   6.538   0.372
 9183SOL    HW228449   5.237   6.441   0.467
 9184SOL     OW28450   5.111   2.172   0.352
 9184SOL    HW128451   5.097   2.082   0.312
 9184SOL    HW228452   5.035   2.232   0.326
 9185SOL     OW28453   4.144   7.019   5.164
 9185SOL    HW128454   4.232   0.015   5.208
 9185SOL    HW228455   4.160   6.976   5.075
 9186SOL     OW28456   5.889   0.322   3.858
 9186SOL    HW128457   5.899   0.244   3.797
 9186SOL    HW228458   5.791   0.336   3.877
 9187SOL     OW28459   2.533   1.238   1.141
 9187SOL    HW128460   2.481   1.311   1.186
 9187SOL    HW228461   2.630   1.250   1.158
 9188SOL     OW28462   2.070   6.353   1.975
 9188SOL    HW128463   2.064   6.268   1.923
 9188SOL    HW228464   2.149   6.350   2.035
 9189SOL     OW28465   4.750   5.688   1.052
 9189SOL    HW128466   4.799   5.762   1.007
 9189SOL    HW228467   4.704   5.631   0.983
 9190SOL     OW28468   1.822   4.190   0.080
 9190SOL    HW128469   1.852   4.096   0.065
 9190SOL    HW228470   1.790   4.201   0.174
 9191SOL     OW28471   5.795   1.078   6.048
 9191SOL    HW128472   5.716   1.111   6.098
 9191SOL    HW228473   5.764   1.023   5.970
 9192SOL     OW28474   0.620   3.834   6.160
 9192SOL    HW128475   0.545   3.843   6.094
 9192SOL    HW228476   0.690   3.901   6.140
 9193SOL     OW28477   4.482   4.356   0.452
 9193SOL    HW128478   4.462   4.424   0.381
 9193SOL    HW228479   4.578   4.366   0.480
 9194SOL     OW28480   2.826   0.318   3.301
 9194SOL    HW128481   2.879   0.309   3.217
 9194SOL    HW228482   2.797   0.412   3.313
 9195SOL     OW28483   2.031   2.214   4.552
 9195SOL    HW128484   2.023   2.116   4.569
 9195SOL    HW228485   1.941   2.252   4.533
 9196SOL     OW28486   4.314   0.495   3.904
 9196SOL    HW128487   4.346   0.564   3.839
 9196SOL    HW228488   4.261   0.426   3.856
 9197SOL     OW28489   2.025   4.415   2.230
 9197SOL    HW128490   2.009   4.344   2.299
 9197SOL    HW228491   2.124   4.424   2.214
 9198SOL     OW28492   6.730   4.807   6.540
 9198SOL    HW128493   6.791   4.803   6.460
 9198SOL    HW228494   6.644   4.761   6.518
 9199SOL     OW28495   1.772   3.894   5.755
 9199SOL    HW128496   1.862   3.905   5.797
 9199SOL    HW228497   1.762   3.958   5.679
 9200SOL     OW28498   2.927   0.223   0.694
 9200SOL    HW128499   2.991   0.160   0.651
 9200SOL    HW228500   2.870   0.266   0.624
 9201SOL     OW28501   0.267   2.608   0.471
 9201SOL    HW128502   0.195   2.631   0.537
 9201SOL    HW228503   0.231   2.614   0.378
 9202SOL     OW28504   1.511   6.463   2.816
 9202SOL    HW128505   1.592   6.521   2.816
 9202SOL    HW228506   1.444   6.498   2.881
 9203SOL     OW28507   0.514   5.065   0.007
 9203SOL    HW128508   0.527   4.970   6.999
 9203SOL    HW228509   0.569   5.081   0.089
 9204SOL     OW28510   4.146   2.920   6.204
 9204SOL    HW128511   4.154   2.831   6.248
 9204SOL    HW228512   4.191   2.918   6.115
 9205SOL     OW28513   6.341   4.695   2.745
 9205SOL    HW128514   6.391   4.716   2.661
 9205SOL    HW228515   6.405   4.687   2.821
 9206SOL     OW28516   4.189   5.433   1.939
 9206SOL    HW128517   4.216   5.350   1.891
 9206SOL    HW228518   4.259   5.458   2.006
 9207SOL     OW28519   4.471   5.576   6.555
 9207SOL    HW128520   4.554   5.563   6.610
 9207SOL    HW228521   4.410   5.497   6.568
 9208SOL     OW28522   5.854   3.747   4.164
 9208SOL    HW128523   5.842   3.708   4.073
 9208SOL    HW228524   5.924   3.818   4.161
 9209SOL     OW28525   2.761   0.632   6.876
 9209SOL    HW128526   2.763   0.597   6.782
 9209SOL    HW228527   2.802   0.723   6.878
 9210SOL     OW28528   0.359   0.754   3.234
 9210SOL    HW128529   0.260   0.762   3.246
 9210SOL    HW228530   0.403   0.841   3.260
 9211SOL     OW28531   6.921   2.926   4.659
 9211SOL    HW128532   6.901   2.940   4.756
 9211SOL    HW228533   6.939   2.829   4.642
 9212SOL     OW28534   4.165   5.439   4.599
 9212SOL    HW128535   4.218   5.509   4.552
 9212SOL    HW228536   4.145   5.470   4.692
 9213SOL     OW28537   5.511   3.788   5.646
 9213SOL    HW128538   5.441   3.855   5.669
 9213SOL    HW228539   5.519   3.781   5.547
 9214SOL     OW28540   0.193   4.965   5.873
 9214SOL    HW128541   0.094   4.966   5.887
 9214SOL    HW228542   0.218   5.031   5.802
 9215SOL     OW28543   1.175   2.101   0.172
 9215SOL    HW128544   1.252   2.101   0.235
 9215SOL    HW228545   1.135   2.010   0.167
 9216SOL     OW28546   2.504   0.339   2.652
 9216SOL    HW128547   2.468   0.409   2.590
 9216SOL    HW228548   2.559   0.274   2.601
 9217SOL     OW28549   0.436   1.081   6.381
 9217SOL    HW128550   0.523   1.130   6.372
 9217SOL    HW228551   0.447   1.008   6.449
 9218SOL     OW28552   3.012   6.533   0.864
 9218SOL    HW128553   3.064   6.478   0.929
 9218SOL    HW228554   2.936   6.578   0.912
 9219SOL     OW28555   0.140   2.524   1.401
 9219SOL    HW128556   0.074   2.457   1.366
 9219SOL    HW228557   0.223   2.520   1.346
 9220SOL     OW28558   1.776   6.445   0.658
 9220SOL    HW128559   1.872   6.434   0.630
 9220SOL    HW228560   1.738   6.356   0.681
 9221SOL     OW28561   2.616   1.090   4.510
 9221SOL    HW128562   2.538   1.151   4.525
 9221SOL    HW228563   2.612   1.052   4.418
 9222SOL     OW28564   2.242   0.075   6.406
 9222SOL    HW128565   2.172   0.126   6.455
 9222SOL    HW228566   2.295   0.021   6.472
 9223SOL     OW28567   1.740   1.334   4.053
 9223SOL    HW128568   1.732   1.269   4.129
 9223SOL    HW228569   1.837   1.350   4.034
 9224SOL     OW28570   2.332   5.122   4.956
 9224SOL    HW128571   2.337   5.036   5.006
 9224SOL    HW228572   2.288   5.192   5.013
 9225SOL     OW28573   3.696   6.448   6.324
 9225SOL    HW128574   3.660   6.541   6.312
 9225SOL    HW228575   3.750   6.444   6.408
 9226SOL     OW28576   5.339   6.812   1.906
 9226SOL    HW128577   5.438   6.803   1.904
 9226SOL    HW228578   5.313   6.881   1.973
 9227SOL     OW28579   0.868   5.079   1.169
 9227SOL    HW128580   0.897   5.008   1.233
 9227SOL    HW228581   0.845   5.162   1.220
 9228SOL     OW28582   1.724   0.835   6.071
 9228SOL    HW128583   1.718   0.927   6.111
 9228SOL    HW228584   1.769   0.840   5.982
 9229SOL     OW28585   1.516   5.306   4.698
 9229SOL    HW128586   1.456   5.340   4.626
 9229SOL    HW228587   1.588   5.250   4.658
 9230SOL     OW28588   5.910   0.824   3.696
 9230SOL    HW128589   5.841   0.855   3.761
 9230SOL    HW228590   5.976   0.765   3.741
 9231SOL     OW28591   1.180   4.717   5.007
 9231SOL    HW128592   1.277   4.714   4.982
 9231SOL    HW228593   1.169   4.691   5.103
 9232SOL     OW28594   3.701   5.238   0.223
 9232SOL    HW128595   3.736   5.295   0.297
 9232SOL    HW228596   3.761   5.160   0.209
 9233SOL     OW28597   5.378   4.928   1.704
 9233SOL    HW128598   5.392   4.884   1.793
 9233SOL    HW228599   5.281   4.947   1.691
 9234SOL     OW28600   3.719   5.660   5.077
 9234SOL    HW128601   3.715   5.596   5.154
 9234SOL    HW228602   3.814   5.679   5.054
 9235SOL     OW28603   1.135   2.540   3.549
 9235SOL    HW128604   1.128   2.444   3.578
 9235SOL    HW228605   1.122   2.546   3.451
 9236SOL     OW28606   2.851   4.130   5.512
 9236SOL    HW128607   2.768   4.158   5.462
 9236SOL    HW228608   2.907   4.073   5.452
 9237SOL     OW28609   2.011   5.162   5.015
 9237SOL    HW128610   2.077   5.150   4.941
 9237SOL    HW228611   2.049   5.223   5.084
 9238SOL     OW28612   3.686   1.577   6.361
 9238SOL    HW128613   3.751   1.637   6.316
 9238SOL    HW228614   3.684   1.488   6.314
 9239SOL     OW28615   0.347   3.876   0.415
 9239SOL    HW128616   0.401   3.878   0.499
 9239SOL    HW228617   0.378   3.949   0.354
 9240SOL     OW28618   5.250   1.777   0.533
 9240SOL    HW128619   5.152   1.762   0.524
 9240SOL    HW228620   5.273   1.869   0.501
 9241SOL     OW28621   0.780   5.231   6.151
 9241SOL    HW128622   0.830   5.228   6.237
 9241SOL    HW228623   0.705   5.298   6.159
 9242SOL     OW28624   6.981   5.310   0.829
 9242SOL    HW128625   7.003   5.301   0.731
 9242SOL    HW228626   6.882   5.310   0.841
 9243SOL     OW28627   5.786   6.988   2.453
 9243SOL    HW128628   5.764   6.892   2.433
 9243SOL    HW228629   5.704   0.011   2.488
 9244SOL     OW28630   4.596   5.205   6.241
 9244SOL    HW128631   4.633   5.171   6.328
 9244SOL    HW228632   4.648   5.165   6.165
 9245SOL     OW28633   1.229   5.450   3.481
 9245SOL    HW128634   1.252   5.526   3.420
 9245SOL    HW228635   1.138   5.416   3.459
 9246SOL     OW28636   0.120   4.428   3.132
 9246SOL    HW128637   0.205   4.431   3.185
 9246SOL    HW228638   0.057   4.363   3.174
 9247SOL     OW28639   1.429   0.080   3.344
 9247SOL    HW128640   1.449   0.116   3.254
 9247SOL    HW228641   1.338   0.037   3.344
 9248SOL     OW28642   1.816   2.889   6.328
 9248SOL    HW128643   1.805   2.982   6.364
 9248SOL    HW228644   1.880   2.839   6.387
 9249SOL     OW28645   5.174   3.518   6.228
 9249SOL    HW128646   5.271   3.536   6.211
 9249SOL    HW228647   5.165   3.434   6.282
 9250SOL     OW28648   5.235   3.426   4.790
 9250SOL    HW128649   5.236   3.327   4.804
 9250SOL    HW228650   5.323   3.456   4.753
 9251SOL     OW28651   3.937   2.136   2.910
 9251SOL    HW128652   4.000   2.104   2.981
 9251SOL    HW228653   3.843   2.121   2.939
 9252SOL     OW28654   6.212   0.321   4.134
 9252SOL    HW128655   6.285   0.258   4.160
 9252SOL    HW228656   6.235   0.414   4.163
 9253SOL     OW28657   5.512   6.251   6.328
 9253SOL    HW128658   5.531   6.198   6.411
 9253SOL    HW228659   5.422   6.294   6.335
 9254SOL     OW28660   6.216   4.401   2.173
 9254SOL    HW128661   6.132   4.369   2.131
 9254SOL    HW228662   6.294   4.351   2.136
 9255SOL     OW28663   5.123   3.681   0.433
 9255SOL    HW128664   5.096   3.628   0.354
 9255SOL    HW228665   5.215   3.655   0.462
 9256SOL     OW28666   4.153   5.185   2.841
 9256SOL    HW128667   4.082   5.169   2.773
 9256SOL    HW228668   4.110   5.206   2.929
 9257SOL     OW28669   0.717   3.517   2.358
 9257SOL    HW128670   0.701   3.418   2.364
 9257SOL    HW228671   0.660   3.555   2.286
 9258SOL     OW28672   3.658   3.299   3.595
 9258SOL    HW128673   3.561   3.274   3.603
 9258SOL    HW228674   3.697   3.254   3.514
 9259SOL     OW28675   1.731   1.894   0.949
 9259SOL    HW128676   1.658   1.833   0.980
 9259SOL    HW228677   1.789   1.918   1.027
 9260SOL     OW28678   4.912   1.380   5.054
 9260SOL    HW128679   4.821   1.370   5.015
 9260SOL    HW228680   4.906   1.431   5.140
 9261SOL     OW28681   4.886   0.810   6.415
 9261SOL    HW128682   4.956   0.880   6.403
 9261SOL    HW228683   4.800   0.854   6.441
 9262SOL     OW28684   6.666   3.226   5.506
 9262SOL    HW128685   6.739   3.254   5.568
 9262SOL    HW228686   6.636   3.305   5.452
 9263SOL     OW28687   6.203   4.509   1.341
 9263SOL    HW128688   6.144   4.587   1.319
 9263SOL    HW228689   6.180   4.473   1.431
 9264SOL     OW28690   5.671   4.049   0.480
 9264SOL    HW128691   5.718   4.107   0.414
 9264SOL    HW228692   5.580   4.026   0.446
 9265SOL     OW28693   2.721   1.823   0.299
 9265SOL    HW128694   2.804   1.767   0.304
 9265SOL    HW228695   2.742   1.916   0.329
 9266SOL     OW28696   2.098   6.145   2.346
 9266SOL    HW128697   2.080   6.107   2.437
 9266SOL    HW228698   2.028   6.115   2.282
 9267SOL     OW28699   6.774   4.802   5.852
 9267SOL    HW128700   6.785   4.853   5.767
 9267SOL    HW228701   6.684   4.760   5.855
 9268SOL     OW28702   1.555   5.741   1.069
 9268SOL    HW128703   1.519   5.770   0.980
 9268SOL    HW228704   1.561   5.641   1.071
 9269SOL     OW28705   3.306   2.661   6.104
 9269SOL    HW128706   3.264   2.592   6.045
 9269SOL    HW228707   3.236   2.727   6.133
 9270SOL     OW28708   5.365   0.224   5.618
 9270SOL    HW128709   5.277   0.175   5.612
 9270SOL    HW228710   5.434   0.164   5.656
 9271SOL     OW28711   1.508   5.106   6.450
 9271SOL    HW128712   1.482   5.191   6.405
 9271SOL    HW228713   1.578   5.060   6.395
 9272SOL     OW28714   2.687   5.592   5.686
 9272SOL    HW128715   2.752   5.530   5.728
 9272SOL    HW228716   2.679   5.675   5.742
 9273SOL     OW28717   5.591   6.140   4.234
 9273SOL    HW128718   5.620   6.181   4.148
 9273SOL    HW228719   5.615   6.043   4.234
 9274SOL     OW28720   6.596   2.974   0.186
 9274SOL    HW128721   6.532   3.023   0.245
 9274SOL    HW228722   6.574   2.994   0.090
 9275SOL     OW28723   0.391   2.190   6.710
 9275SOL    HW128724   0.326   2.233   6.648
 9275SOL    HW228725   0.398   2.243   6.794
 9276SOL     OW28726   2.759   4.776   4.141
 9276SOL    HW128727   2.703   4.698   4.113
 9276SOL    HW228728   2.700   4.856   4.155
 9277SOL     OW28729   4.344   3.366   0.562
 9277SOL    HW128730   4.432   3.410   0.578
 9277SOL    HW228731   4.351   3.306   0.483
 9278SOL     OW28732   1.616   0.926   4.488
 9278SOL    HW128733   1.692   0.990   4.483
 9278SOL    HW228734   1.651   0.833   4.499
 9279SOL     OW28735   4.409   0.473   1.671
 9279SOL    HW128736   4.415   0.375   1.690
 9279SOL    HW228737   4.360   0.488   1.586
 9280SOL     OW28738   1.318   0.543   3.049
 9280SOL    HW128739   1.343   0.499   3.136
 9280SOL    HW228740   1.224   0.516   3.025
 9281SOL     OW28741   3.317   4.222   1.710
 9281SOL    HW128742   3.319   4.162   1.630
 9281SOL    HW228743   3.231   4.273   1.712
 9282SOL     OW28744   4.478   1.793   4.548
 9282SOL    HW128745   4.512   1.852   4.621
 9282SOL    HW228746   4.379   1.783   4.558
 9283SOL     OW28747   5.644   0.731   3.380
 9283SOL    HW128748   5.547   0.747   3.361
 9283SOL    HW228749   5.698   0.748   3.297
 9284SOL     OW28750   3.408   5.438   6.430
 9284SOL    HW128751   3.440   5.398   6.516
 9284SOL    HW228752   3.483   5.486   6.385
 9285SOL     OW28753   5.174   3.240   0.362
 9285SOL    HW128754   5.176   3.254   0.461
 9285SOL    HW228755   5.201   3.324   0.316
 9286SOL     OW28756   5.488   0.056   6.064
 9286SOL    HW128757   5.413   0.012   6.114
 9286SOL    HW228758   5.568   0.064   6.123
 9287SOL     OW28759   3.017   5.364   0.541
 9287SOL    HW128760   2.977   5.347   0.451
 9287SOL    HW228761   2.954   5.418   0.596
 9288SOL     OW28762   3.078   1.392   5.147
 9288SOL    HW128763   2.980   1.387   5.169
 9288SOL    HW228764   3.131   1.390   5.232
 9289SOL     OW28765   3.786   1.792   2.307
 9289SOL    HW128766   3.826   1.779   2.397
 9289SOL    HW228767   3.753   1.886   2.298
 9290SOL     OW28768   5.165   1.791   4.091
 9290SOL    HW128769   5.093   1.816   4.027
 9290SOL    HW228770   5.128   1.732   4.162
 9291SOL     OW28771   2.695   0.145   5.371
 9291SOL    HW128772   2.636   0.082   5.421
 9291SOL    HW228773   2.747   0.095   5.302
 9292SOL     OW28774   0.086   3.333   6.188
 9292SOL    HW128775   0.111   3.416   6.238
 9292SOL    HW228776   0.168   3.278   6.172
 9293SOL     OW28777   6.304   3.830   1.029
 9293SOL    HW128778   6.297   3.762   1.102
 9293SOL    HW228779   6.370   3.799   0.960
 9294SOL     OW28780   3.332   6.645   5.704
 9294SOL    HW128781   3.254   6.606   5.656
 9294SOL    HW228782   3.304   6.675   5.795
 9295SOL     OW28783   5.870   2.374   3.862
 9295SOL    HW128784   5.869   2.302   3.793
 9295SOL    HW228785   5.825   2.342   3.945
 9296SOL     OW28786   0.515   6.091   6.566
 9296SOL    HW128787   0.468   6.100   6.478
 9296SOL    HW228788   0.611   6.069   6.550
 9297SOL     OW28789   6.848   0.734   1.001
 9297SOL    HW128790   6.789   0.798   0.952
 9297SOL    HW228791   6.943   0.765   0.996
 9298SOL     OW28792   1.213   0.308   5.331
 9298SOL    HW128793   1.211   0.400   5.370
 9298SOL    HW228794   1.234   0.241   5.403
 9299SOL     OW28795   1.297   2.791   4.158
 9299SOL    HW128796   1.231   2.785   4.232
 9299SOL    HW228797   1.372   2.727   4.175
 9300SOL     OW28798   0.332   4.716   5.193
 9300SOL    HW128799   0.272   4.671   5.258
 9300SOL    HW228800   0.288   4.798   5.156
 9301SOL     OW28801   4.622   4.340   3.312
 9301SOL    HW128802   4.624   4.257   3.369
 9301SOL    HW228803   4.666   4.320   3.224
 9302SOL     OW28804   2.209   2.992   4.282
 9302SOL    HW128805   2.147   2.917   4.306
 9302SOL    HW228806   2.175   3.038   4.200
 9303SOL     OW28807   3.738   6.447   0.619
 9303SOL    HW128808   3.787   6.534   0.626
 9303SOL    HW228809   3.696   6.426   0.707
 9304SOL     OW28810   4.442   4.081   0.783
 9304SOL    HW128811   4.466   4.177   0.796
 9304SOL    HW228812   4.342   4.072   0.779
 9305SOL     OW28813   3.705   1.572   1.815
 9305SOL    HW128814   3.653   1.494   1.851
 9305SOL    HW228815   3.792   1.580   1.865
 9306SOL     OW28816   0.640   4.496   4.948
 9306SOL    HW128817   0.659   4.484   5.046
 9306SOL    HW228818   0.700   4.437   4.895
 9307SOL     OW28819   0.874   3.447   1.991
 9307SOL    HW128820   0.965   3.486   1.977
 9307SOL    HW228821   0.812   3.518   2.024
 9308SOL     OW28822   1.158   3.868   0.911
 9308SOL    HW128823   1.213   3.940   0.868
 9308SOL    HW228824   1.201   3.839   0.996
 9309SOL     OW28825   3.220   5.130   5.343
 9309SOL    HW128826   3.123   5.119   5.365
 9309SOL    HW228827   3.252   5.049   5.294
 9310SOL     OW28828   4.666   5.725   6.428
 9310SOL    HW128829   4.580   5.684   6.458
 9310SOL    HW228830   4.742   5.666   6.453
 9311SOL     OW28831   5.475   4.662   1.855
 9311SOL    HW128832   5.410   4.631   1.925
 9311SOL    HW228833   5.551   4.710   1.899
 9312SOL     OW28834   0.915   3.961   1.743
 9312SOL    HW128835   0.903   3.973   1.842
 9312SOL    HW228836   1.008   3.929   1.725
 9313SOL     OW28837   0.154   0.728   0.777
 9313SOL    HW128838   0.151   0.777   0.864
 9313SOL    HW228839   0.070   0.675   0.766
 9314SOL     OW28840   4.157   5.777   6.114
 9314SOL    HW128841   4.244   5.729   6.120
 9314SOL    HW228842   4.113   5.755   6.027
 9315SOL     OW28843   6.511   0.875   5.182
 9315SOL    HW128844   6.501   0.889   5.280
 9315SOL    HW228845   6.564   0.950   5.143
 9316SOL     OW28846   3.625   5.676   5.453
 9316SOL    HW128847   3.570   5.655   5.535
 9316SOL    HW228848   3.672   5.593   5.423
 9317SOL     OW28849   6.447   5.633   3.595
 9317SOL    HW128850   6.429   5.618   3.498
 9317SOL    HW228851   6.540   5.605   3.617
 9318SOL     OW28852   6.128   1.138   5.008
 9318SOL    HW128853   6.051   1.200   5.026
 9318SOL    HW228854   6.124   1.061   5.071
 9319SOL     OW28855   0.768   2.609   5.670
 9319SOL    HW128856   0.843   2.631   5.608
 9319SOL    HW228857   0.773   2.669   5.750
 9320SOL     OW28858   4.481   1.790   6.189
 9320SOL    HW128859   4.443   1.730   6.260
 9320SOL    HW228860   4.415   1.798   6.113
 9321SOL     OW28861   6.233   0.152   2.424
 9321SOL    HW128862   6.142   0.121   2.449
 9321SOL    HW228863   6.226   0.234   2.367
 9322SOL     OW28864   0.083   5.427   6.664
 9322SOL    HW128865   0.132   5.384   6.589
 9322SOL    HW228866   0.085   5.367   6.744
 9323SOL     OW28867   1.574   0.187   5.270
 9323SOL    HW128868   1.645   0.120   5.293
 9323SOL    HW228869   1.524   0.213   5.353
 9324SOL     OW28870   2.067   5.250   0.520
 9324SOL    HW128871   2.160   5.218   0.539
 9324SOL    HW228872   2.070   5.324   0.453
 9325SOL     OW28873   4.811   1.572   0.044
 9325SOL    HW128874   4.735   1.519   0.006
 9325SOL    HW228875   4.796   1.669   0.029
 9326SOL     OW28876   2.308   0.142   1.011
 9326SOL    HW128877   2.213   0.124   0.985
 9326SOL    HW228878   2.338   0.074   1.079
 9327SOL     OW28879   4.937   6.419   2.457
 9327SOL    HW128880   5.027   6.454   2.433
 9327SOL    HW228881   4.867   6.470   2.407
 9328SOL     OW28882   3.424   0.936   6.214
 9328SOL    HW128883   3.417   1.015   6.276
 9328SOL    HW228884   3.332   0.907   6.186
 9329SOL     OW28885   0.074   3.922   2.220
 9329SOL    HW128886   0.090   3.878   2.132
 9329SOL    HW228887   0.012   3.999   2.208
 9330SOL     OW28888   0.519   6.379   0.014
 9330SOL    HW128889   0.487   6.469   7.006
 9330SOL    HW228890   0.482   6.308   6.978
 9331SOL     OW28891   1.455   1.641   5.921
 9331SOL    HW128892   1.522   1.602   5.984
 9331SOL    HW228893   1.366   1.597   5.935
 9332SOL     OW28894   3.516   4.082   2.604
 9332SOL    HW128895   3.452   4.006   2.603
 9332SOL    HW228896   3.522   4.120   2.696
 9333SOL     OW28897   4.458   3.927   1.252
 9333SOL    HW128898   4.375   3.885   1.216
 9333SOL    HW228899   4.447   4.027   1.253
 9334SOL     OW28900   4.374   6.647   3.728
 9334SOL    HW128901   4.332   6.604   3.807
 9334SOL    HW228902   4.354   6.745   3.728
 9335SOL     OW28903   0.928   1.470   5.838
 9335SOL    HW128904   0.845   1.515   5.805
 9335SOL    HW228905   0.904   1.403   5.908
 9336SOL     OW28906   3.445   5.352   6.013
 9336SOL    HW128907   3.439   5.286   5.938
 9336SOL    HW228908   3.354   5.366   6.052
 9337SOL     OW28909   5.017   0.829   3.946
 9337SOL    HW128910   5.040   0.840   4.042
 9337SOL    HW228911   4.960   0.747   3.935
 9338SOL     OW28912   4.009   0.738   1.852
 9338SOL    HW128913   4.051   0.720   1.942
 9338SOL    HW228914   3.978   0.652   1.813
 9339SOL     OW28915   4.942   6.890   0.851
 9339SOL    HW128916   4.882   6.969   0.858
 9339SOL    HW228917   4.949   6.845   0.940
 9340SOL     OW28918   5.307   3.739   4.910
 9340SOL    HW128919   5.288   3.644   4.934
 9340SOL    HW228920   5.248   3.800   4.964
 9341SOL     OW28921   0.326   5.894   6.671
 9341SOL    HW128922   0.392   5.948   6.619
 9341SOL    HW228923   0.234   5.927   6.653
 9342SOL     OW28924   2.258   1.063   3.637
 9342SOL    HW128925   2.337   1.122   3.656
 9342SOL    HW228926   2.290   0.975   3.601
 9343SOL     OW28927   6.050   4.340   2.918
 9343SOL    HW128928   6.122   4.387   2.868
 9343SOL    HW228929   5.961   4.367   2.881
 9344SOL     OW28930   4.569   6.090   1.371
 9344SOL    HW128931   4.661   6.126   1.352
 9344SOL    HW228932   4.550   6.100   1.469
 9345SOL     OW28933   6.614   3.744   2.108
 9345SOL    HW128934   6.525   3.699   2.102
 9345SOL    HW228935   6.654   3.727   2.198
 9346SOL     OW28936   6.412   0.891   0.888
 9346SOL    HW128937   6.352   0.840   0.950
 9346SOL    HW228938   6.388   0.988   0.890
 9347SOL     OW28939   0.680   5.453   0.914
 9347SOL    HW128940   0.630   5.394   0.977
 9347SOL    HW228941   0.657   5.428   0.820
 9348SOL     OW28942   3.747   5.462   1.743
 9348SOL    HW128943   3.705   5.542   1.701
 9348SOL    HW228944   3.823   5.431   1.686
 9349SOL     OW28945   0.808   6.604   2.220
 9349SOL    HW128946   0.750   6.523   2.215
 9349SOL    HW228947   0.796   6.658   2.137
 9350SOL     OW28948   0.589   3.459   5.443
 9350SOL    HW128949   0.628   3.419   5.360
 9350SOL    HW228950   0.658   3.461   5.515
 9351SOL     OW28951   3.429   1.432   6.074
 9351SOL    HW128952   3.333   1.411   6.093
 9351SOL    HW228953   3.438   1.529   6.052
 9352SOL     OW28954   2.735   2.794   0.178
 9352SOL    HW128955   2.801   2.869   0.175
 9352SOL    HW228956   2.738   2.751   0.269
 9353SOL     OW28957   0.724   5.241   1.413
 9353SOL    HW128958   0.735   5.326   1.361
 9353SOL    HW228959   0.631   5.237   1.450
 9354SOL     OW28960   6.608   2.113   6.714
 9354SOL    HW128961   6.576   2.206   6.697
 9354SOL    HW228962   6.531   2.056   6.744
 9355SOL     OW28963   0.721   2.490   4.827
 9355SOL    HW128964   0.702   2.400   4.866
 9355SOL    HW228965   0.763   2.548   4.897
 9356SOL     OW28966   3.577   6.975   1.012
 9356SOL    HW128967   3.489   7.021   1.001
 9356SOL    HW228968   3.566   6.877   0.992
 9357SOL     OW28969   1.426   3.380   6.275
 9357SOL    HW128970   1.438   3.426   6.187
 9357SOL    HW228971   1.480   3.296   6.277
 9358SOL     OW28972   0.300   4.038   2.364
 9358SOL    HW128973   0.209   4.016   2.330
 9358SOL    HW228974   0.367   3.973   2.329
 9359SOL     OW28975   1.823   4.522   6.411
 9359SOL    HW128976   1.845   4.517   6.508
 9359SOL    HW228977   1.867   4.602   6.371
 9360SOL     OW28978   1.585   6.303   6.330
 9360SOL    HW128979   1.523   6.346   6.265
 9360SOL    HW228980   1.648   6.242   6.282
 9361SOL     OW28981   2.154   5.663   3.291
 9361SOL    HW128982   2.186   5.691   3.381
 9361SOL    HW228983   2.225   5.611   3.244
 9362SOL     OW28984   1.422   1.743   2.186
 9362SOL    HW128985   1.355   1.735   2.260
 9362SOL    HW228986   1.416   1.835   2.146
 9363SOL     OW28987   3.328   5.539   1.513
 9363SOL    HW128988   3.325   5.555   1.612
 9363SOL    HW228989   3.271   5.607   1.467
 9364SOL     OW28990   2.347   1.694   1.442
 9364SOL    HW128991   2.390   1.785   1.444
 9364SOL    HW228992   2.390   1.636   1.511
 9365SOL     OW28993   2.919   2.075   3.949
 9365SOL    HW128994   2.827   2.038   3.940
 9365SOL    HW228995   2.985   2.010   3.914
 9366SOL     OW28996   3.243   5.801   6.992
 9366SOL    HW128997   3.249   5.733   0.043
 9366SOL    HW228998   3.147   5.822   6.973
 9367SOL     OW28999   6.060   0.180   1.330
 9367SOL    HW129000   5.998   0.214   1.259
 9367SOL    HW229001   6.065   0.247   1.404
 9368SOL     OW29002   3.639   6.787   2.420
 9368SOL    HW129003   3.579   6.846   2.474
 9368SOL    HW229004   3.626   6.807   2.323
 9369SOL     OW29005   0.671   6.279   4.932
 9369SOL    HW129006   0.597   6.344   4.950
 9369SOL    HW229007   0.657   6.197   4.988
 9370SOL     OW29008   5.102   0.974   3.705
 9370SOL    HW129009   5.197   1.000   3.718
 9370SOL    HW229010   5.071   0.920   3.784
 9371SOL     OW29011   3.156   5.712   1.129
 9371SOL    HW129012   3.242   5.735   1.084
 9371SOL    HW229013   3.148   5.613   1.135
 9372SOL     OW29014   4.108   6.904   1.690
 9372SOL    HW129015   4.109   6.929   1.593
 9372SOL    HW229016   4.016   6.915   1.727
 9373SOL     OW29017   6.320   2.575   0.515
 9373SOL    HW129018   6.374   2.564   0.431
 9373SOL    HW229019   6.254   2.500   0.522
 9374SOL     OW29020   0.406   3.921   5.990
 9374SOL    HW129021   0.393   4.013   6.028
 9374SOL    HW229022   0.386   3.923   5.892
 9375SOL     OW29023   0.120   1.892   0.548
 9375SOL    HW129024   0.099   1.839   0.630
 9375SOL    HW229025   0.058   1.969   0.541
 9376SOL     OW29026   2.007   3.445   2.260
 9376SOL    HW129027   2.076   3.382   2.224
 9376SOL    HW229028   2.050   3.534   2.279
 9377SOL     OW29029   2.886   5.372   3.225
 9377SOL    HW129030   2.880   5.381   3.125
 9377SOL    HW229031   2.903   5.276   3.248
 9378SOL     OW29032   3.507   1.310   3.769
 9378SOL    HW129033   3.464   1.309   3.679
 9378SOL    HW229034   3.604   1.331   3.760
 9379SOL     OW29035   4.588   7.010   4.710
 9379SOL    HW129036   4.626   0.077   4.735
 9379SOL    HW229037   4.529   6.977   4.783
 9380SOL     OW29038   3.371   5.775   5.684
 9380SOL    HW129039   3.403   5.718   5.760
 9380SOL    HW229040   3.444   5.838   5.657
 9381SOL     OW29041   5.135   2.169   4.226
 9381SOL    HW129042   5.119   2.225   4.307
 9381SOL    HW229043   5.047   2.141   4.187
 9382SOL     OW29044   3.782   0.613   3.936
 9382SOL    HW129045   3.724   0.561   3.873
 9382SOL    HW229046   3.742   0.610   4.028
 9383SOL     OW29047   4.695   4.224   3.958
 9383SOL    HW129048   4.717   4.129   3.980
 9383SOL    HW229049   4.666   4.230   3.863
 9384SOL     OW29050   2.110   6.949   1.811
 9384SOL    HW129051   2.174   6.899   1.869
 9384SOL    HW229052   2.017   6.916   1.827
 9385SOL     OW29053   3.723   1.712   4.165
 9385SOL    HW129054   3.799   1.647   4.164
 9385SOL    HW229055   3.637   1.663   4.151
 9386SOL     OW29056   3.357   6.221   5.465
 9386SOL    HW129057   3.348   6.122   5.472
 9386SOL    HW229058   3.273   6.258   5.423
 9387SOL     OW29059   3.839   1.956   0.067
 9387SOL    HW129060   3.819   1.863   0.037
 9387SOL    HW229061   3.876   1.954   0.160
 9388SOL     OW29062   1.540   6.395   4.143
 9388SOL    HW129063   1.595   6.319   4.109
 9388SOL    HW229064   1.568   6.418   4.236
 9389SOL     OW29065   2.945   5.151   2.593
 9389SOL    HW129066   2.904   5.239   2.569
 9389SOL    HW229067   2.874   5.080   2.590
 9390SOL     OW29068   5.390   4.725   5.675
 9390SOL    HW129069   5.443   4.641   5.676
 9390SOL    HW229070   5.406   4.776   5.759
 9391SOL     OW29071   0.358   0.034   5.088
 9391SOL    HW129072   0.322   0.121   5.121
 9391SOL    HW229073   0.389   7.002   5.166
 9392SOL     OW29074   4.827   4.564   3.572
 9392SOL    HW129075   4.804   4.523   3.484
 9392SOL    HW229076   4.754   4.626   3.600
 9393SOL     OW29077   3.333   6.229   6.242
 9393SOL    HW129078   3.332   6.273   6.153
 9393SOL    HW229079   3.426   6.200   6.265
 9394SOL     OW29080   5.375   0.939   1.473
 9394SOL    HW129081   5.448   0.979   1.417
 9394SOL    HW229082   5.413   0.905   1.558
 9395SOL     OW29083   2.567   1.577   0.870
 9395SOL    HW129084   2.642   1.511   0.869
 9395SOL    HW229085   2.513   1.565   0.953
 9396SOL     OW29086   1.817   6.347   5.968
 9396SOL    HW129087   1.809   6.446   5.959
 9396SOL    HW229088   1.889   6.325   6.034
 9397SOL     OW29089   3.372   6.835   6.399
 9397SOL    HW129090   3.427   6.842   6.482
 9397SOL    HW229091   3.392   6.748   6.353
 9398SOL     OW29092   6.116   1.312   6.274
 9398SOL    HW129093   6.092   1.220   6.306
 9398SOL    HW229094   6.036   1.371   6.280
 9399SOL     OW29095   1.730   2.544   4.037
 9399SOL    HW129096   1.637   2.518   4.061
 9399SOL    HW229097   1.792   2.520   4.112
 9400SOL     OW29098   5.019   1.456   0.183
 9400SOL    HW129099   4.928   1.484   0.152
 9400SOL    HW229100   5.049   1.377   0.130
 9401SOL     OW29101   0.471   3.044   2.426
 9401SOL    HW129102   0.401   2.993   2.475
 9401SOL    HW229103   0.487   3.002   2.337
 9402SOL     OW29104   1.832   5.535   3.624
 9402SOL    HW129105   1.764   5.550   3.696
 9402SOL    HW229106   1.923   5.535   3.664
 9403SOL     OW29107   0.053   1.143   2.204
 9403SOL    HW129108   0.019   1.050   2.220
 9403SOL    HW229109   6.999   1.206   2.195
 9404SOL     OW29110   1.010   3.032   1.480
 9404SOL    HW129111   0.941   3.083   1.531
 9404SOL    HW229112   0.967   2.953   1.436
 9405SOL     OW29113   0.373   4.616   4.915
 9405SOL    HW129114   0.465   4.579   4.926
 9405SOL    HW229115   0.341   4.653   5.002
 9406SOL     OW29116   0.614   2.905   6.453
 9406SOL    HW129117   0.543   2.921   6.521
 9406SOL    HW229118   0.573   2.897   6.363
 9407SOL     OW29119   2.956   5.217   4.763
 9407SOL    HW129120   2.868   5.174   4.781
 9407SOL    HW229121   3.027   5.175   4.820
 9408SOL     OW29122   6.409   3.876   5.585
 9408SOL    HW129123   6.346   3.952   5.597
 9408SOL    HW229124   6.384   3.823   5.504
 9409SOL     OW29125   6.620   5.906   2.285
 9409SOL    HW129126   6.618   5.942   2.378
 9409SOL    HW229127   6.709   5.925   2.244
 9410SOL     OW29128   4.500   0.716   2.075
 9410SOL    HW129129   4.599   0.722   2.070
 9410SOL    HW229130   4.464   0.794   2.127
 9411SOL     OW29131   3.398   3.195   3.630
 9411SOL    HW129132   3.448   3.126   3.683
 9411SOL    HW229133   3.381   3.161   3.538
 9412SOL     OW29134   0.423   0.778   0.815
 9412SOL    HW129135   0.330   0.758   0.784
 9412SOL    HW229136   0.467   0.841   0.750
 9413SOL     OW29137   4.552   4.854   4.449
 9413SOL    HW129138   4.493   4.848   4.529
 9413SOL    HW229139   4.570   4.762   4.414
 9414SOL     OW29140   2.189   2.570   4.884
 9414SOL    HW129141   2.207   2.667   4.870
 9414SOL    HW229142   2.253   2.515   4.830
 9415SOL     OW29143   3.488   0.505   2.575
 9415SOL    HW129144   3.550   0.522   2.499
 9415SOL    HW229145   3.395   0.533   2.550
 9416SOL     OW29146   0.513   6.873   5.986
 9416SOL    HW129147   0.532   6.815   5.907
 9416SOL    HW229148   0.462   6.821   6.054
 9417SOL     OW29149   3.359   6.773   1.194
 9417SOL    HW129150   3.336   6.843   1.126
 9417SOL    HW229151   3.276   6.746   1.243
 9418SOL     OW29152   3.169   1.886   3.939
 9418SOL    HW129153   3.237   1.877   3.866
 9418SOL    HW229154   3.216   1.886   4.027
 9419SOL     OW29155   2.776   2.446   6.619
 9419SOL    HW129156   2.820   2.496   6.544
 9419SOL    HW229157   2.846   2.418   6.685
 9420SOL     OW29158   5.612   3.729   0.504
 9420SOL    HW129159   5.708   3.714   0.484
 9420SOL    HW229160   5.603   3.793   0.581
 9421SOL     OW29161   3.799   6.347   5.152
 9421SOL    HW129162   3.768   6.285   5.224
 9421SOL    HW229163   3.724   6.361   5.087
 9422SOL     OW29164   2.589   5.883   4.738
 9422SOL    HW129165   2.647   5.870   4.658
 9422SOL    HW229166   2.638   5.938   4.806
 9423SOL     OW29167   4.150   5.894   3.193
 9423SOL    HW129168   4.209   5.824   3.234
 9423SOL    HW229169   4.111   5.859   3.109
 9424SOL     OW29170   5.382   1.598   4.479
 9424SOL    HW129171   5.406   1.655   4.559
 9424SOL    HW229172   5.325   1.522   4.509
 9425SOL     OW29173   6.127   4.403   1.556
 9425SOL    HW129174   6.101   4.440   1.645
 9425SOL    HW229175   6.094   4.309   1.548
 9426SOL     OW29176   0.621   2.219   6.183
 9426SOL    HW129177   0.688   2.278   6.140
 9426SOL    HW229178   0.658   2.184   6.269
 9427SOL     OW29179   3.359   5.625   2.933
 9427SOL    HW129180   3.375   5.541   2.881
 9427SOL    HW229181   3.388   5.704   2.877
 9428SOL     OW29182   6.358   6.441   6.916
 9428SOL    HW129183   6.452   6.425   6.947
 9428SOL    HW229184   6.359   6.476   6.822
 9429SOL     OW29185   1.615   2.294   3.966
 9429SOL    HW129186   1.683   2.367   3.975
 9429SOL    HW229187   1.647   2.213   4.016
 9430SOL     OW29188   0.489   2.212   4.194
 9430SOL    HW129189   0.447   2.268   4.264
 9430SOL    HW229190   0.418   2.172   4.136
 9431SOL     OW29191   7.000   4.404   0.605
 9431SOL    HW129192   6.925   4.396   0.540
 9431SOL    HW229193   6.995   4.330   0.672
 9432SOL     OW29194   6.985   1.422   3.550
 9432SOL    HW129195   6.973   1.334   3.504
 9432SOL    HW229196   6.912   1.484   3.523
 9433SOL     OW29197   4.212   6.264   2.939
 9433SOL    HW129198   4.266   6.283   2.857
 9433SOL    HW229199   4.131   6.322   2.940
 9434SOL     OW29200   5.315   5.639   3.966
 9434SOL    HW129201   5.393   5.698   3.947
 9434SOL    HW229202   5.347   5.546   3.983
 9435SOL     OW29203   0.875   2.849   2.634
 9435SOL    HW129204   0.834   2.830   2.723
 9435SOL    HW229205   0.975   2.857   2.645
 9436SOL     OW29206   0.646   1.065   2.541
 9436SOL    HW129207   0.581   1.116   2.598
 9436SOL    HW229208   0.647   1.103   2.449
 9437SOL     OW29209   0.344   5.343   3.865
 9437SOL    HW129210   0.298   5.406   3.928
 9437SOL    HW229211   0.410   5.287   3.914
 9438SOL     OW29212   2.367   6.133   1.641
 9438SOL    HW129213   2.392   6.220   1.600
 9438SOL    HW229214   2.307   6.083   1.578
 9439SOL     OW29215   1.295   2.958   0.484
 9439SOL    HW129216   1.198   2.951   0.461
 9439SOL    HW229217   1.347   2.983   0.402
 9440SOL     OW29218   3.300   4.900   3.504
 9440SOL    HW129219   3.395   4.919   3.525
 9440SOL    HW229220   3.245   4.908   3.588
 9441SOL     OW29221   6.500   5.685   4.456
 9441SOL    HW129222   6.466   5.597   4.421
 9441SOL    HW229223   6.563   5.668   4.531
 9442SOL     OW29224   5.066   3.569   0.991
 9442SOL    HW129225   4.967   3.567   1.000
 9442SOL    HW229226   5.091   3.604   0.901
 9443SOL     OW29227   3.189   4.952   2.031
 9443SOL    HW129228   3.236   4.929   1.946
 9443SOL    HW229229   3.133   4.875   2.061
 9444SOL     OW29230   2.185   3.732   0.471
 9444SOL    HW129231   2.126   3.810   0.489
 9444SOL    HW229232   2.224   3.739   0.380
 9445SOL     OW29233   0.662   1.618   3.556
 9445SOL    HW129234   0.667   1.665   3.468
 9445SOL    HW229235   0.609   1.674   3.620
 9446SOL     OW29236   6.343   4.828   3.605
 9446SOL    HW129237   6.408   4.757   3.633
 9446SOL    HW229238   6.356   4.847   3.508
 9447SOL     OW29239   5.566   5.411   2.430
 9447SOL    HW129240   5.503   5.422   2.353
 9447SOL    HW229241   5.660   5.418   2.397
 9448SOL     OW29242   5.826   0.203   5.794
 9448SOL    HW129243   5.895   0.256   5.842
 9448SOL    HW229244   5.859   0.111   5.777
 9449SOL     OW29245   5.191   0.000   0.665
 9449SOL    HW129246   5.148   0.026   0.578
 9449SOL    HW229247   5.121   7.001   0.732
 9450SOL     OW29248   1.522   5.836   4.567
 9450SOL    HW129249   1.422   5.843   4.562
 9450SOL    HW229250   1.548   5.782   4.648
 9451SOL     OW29251   3.750   5.701   6.020
 9451SOL    HW129252   3.669   5.700   5.962
 9451SOL    HW229253   3.826   5.743   5.970
 9452SOL     OW29254   0.540   4.365   0.830
 9452SOL    HW129255   0.608   4.355   0.758
 9452SOL    HW229256   0.521   4.462   0.845
 9453SOL     OW29257   3.657   4.910   3.099
 9453SOL    HW129258   3.711   4.908   3.183
 9453SOL    HW229259   3.560   4.918   3.121
 9454SOL     OW29260   4.419   4.412   0.755
 9454SOL    HW129261   4.459   4.363   0.832
 9454SOL    HW229262   4.474   4.494   0.736
 9455SOL     OW29263   2.970   2.155   2.310
 9455SOL    HW129264   2.963   2.253   2.290
 9455SOL    HW229265   2.962   2.103   2.225
 9456SOL     OW29266   6.307   3.415   2.258
 9456SOL    HW129267   6.248   3.349   2.211
 9456SOL    HW229268   6.272   3.432   2.350
 9457SOL     OW29269   1.483   4.658   4.205
 9457SOL    HW129270   1.557   4.696   4.150
 9457SOL    HW229271   1.472   4.713   4.288
 9458SOL     OW29272   6.793   4.379   0.415
 9458SOL    HW129273   6.707   4.334   0.440
 9458SOL    HW229274   6.774   4.467   0.372
 9459SOL     OW29275   5.017   4.793   4.813
 9459SOL    HW129276   5.080   4.792   4.735
 9459SOL    HW229277   4.975   4.883   4.821
 9460SOL     OW29278   1.324   3.348   3.499
 9460SOL    HW129279   1.307   3.300   3.585
 9460SOL    HW229280   1.286   3.295   3.423
 9461SOL     OW29281   1.333   2.453   1.068
 9461SOL    HW129282   1.410   2.409   1.021
 9461SOL    HW229283   1.312   2.540   1.023
 9462SOL     OW29284   1.938   1.595   4.131
 9462SOL    HW129285   1.998   1.528   4.087
 9462SOL    HW229286   1.992   1.654   4.191
 9463SOL     OW29287   4.923   6.625   1.341
 9463SOL    HW129288   4.980   6.544   1.354
 9463SOL    HW229289   4.973   6.707   1.371
 9464SOL     OW29290   0.080   0.652   1.655
 9464SOL    HW129291   0.103   0.556   1.673
 9464SOL    HW229292   7.014   0.657   1.609
 9465SOL     OW29293   0.142   4.109   1.087
 9465SOL    HW129294   0.207   4.107   1.164
 9465SOL    HW229295   0.150   4.196   1.039
 9466SOL     OW29296   4.023   5.456   6.459
 9466SOL    HW129297   4.052   5.546   6.428
 9466SOL    HW229298   3.967   5.413   6.388
 9467SOL     OW29299   1.957   3.098   1.148
 9467SOL    HW129300   1.870   3.048   1.158
 9467SOL    HW229301   1.951   3.159   1.070
 9468SOL     OW29302   6.818   3.746   0.186
 9468SOL    HW129303   6.834   3.792   0.273
 9468SOL    HW229304   6.873   3.662   0.182
 9469SOL     OW29305   0.097   6.149   0.761
 9469SOL    HW129306   0.125   6.057   0.735
 9469SOL    HW229307   0.137   6.172   0.850
 9470SOL     OW29308   5.039   3.695   0.047
 9470SOL    HW129309   4.988   3.764   0.099
 9470SOL    HW229310   4.988   3.670   6.987
 9471SOL     OW29311   6.206   2.167   5.154
 9471SOL    HW129312   6.144   2.089   5.140
 9471SOL    HW229313   6.238   2.168   5.249
 9472SOL     OW29314   1.470   4.437   5.921
 9472SOL    HW129315   1.380   4.456   5.961
 9472SOL    HW229316   1.496   4.342   5.941
 9473SOL     OW29317   2.769   4.233   0.200
 9473SOL    HW129318   2.682   4.279   0.218
 9473SOL    HW229319   2.812   4.207   0.286
 9474SOL     OW29320   6.191   3.414   1.811
 9474SOL    HW129321   6.261   3.478   1.843
 9474SOL    HW229322   6.108   3.465   1.789
 9475SOL     OW29323   4.832   3.569   5.550
 9475SOL    HW129324   4.846   3.668   5.563
 9475SOL    HW229325   4.882   3.519   5.621
 9476SOL     OW29326   3.599   4.429   5.606
 9476SOL    HW129327   3.507   4.462   5.589
 9476SOL    HW229328   3.594   4.343   5.658
 9477SOL     OW29329   1.847   3.569   2.057
 9477SOL    HW129330   1.795   3.608   2.133
 9477SOL    HW229331   1.943   3.596   2.064
 9478SOL     OW29332   4.928   2.716   0.435
 9478SOL    HW129333   4.845   2.735   0.488
 9478SOL    HW229334   4.918   2.627   0.389
 9479SOL     OW29335   4.668   0.968   1.520
 9479SOL    HW129336   4.581   1.012   1.498
 9479SOL    HW229337   4.688   0.982   1.617
 9480SOL     OW29338   6.021   5.804   6.783
 9480SOL    HW129339   6.056   5.871   6.849
 9480SOL    HW229340   5.926   5.826   6.762
 9481SOL     OW29341   4.670   1.702   3.313
 9481SOL    HW129342   4.573   1.723   3.303
 9481SOL    HW229343   4.693   1.699   3.410
 9482SOL     OW29344   5.749   1.387   0.671
 9482SOL    HW129345   5.777   1.360   0.763
 9482SOL    HW229346   5.779   1.317   0.606
 9483SOL     OW29347   0.605   0.595   0.058
 9483SOL    HW129348   0.621   0.692   0.039
 9483SOL    HW229349   0.529   0.586   0.123
 9484SOL     OW29350   2.564   6.541   4.785
 9484SOL    HW129351   2.591   6.628   4.745
 9484SOL    HW229352   2.489   6.556   4.849
 9485SOL     OW29353   6.681   1.494   0.311
 9485SOL    HW129354   6.654   1.404   0.277
 9485SOL    HW229355   6.613   1.562   0.283
 9486SOL     OW29356   4.555   5.610   0.332
 9486SOL    HW129357   4.591   5.657   0.252
 9486SOL    HW229358   4.513   5.524   0.304
 9487SOL     OW29359   2.971   3.899   4.225
 9487SOL    HW129360   2.947   3.820   4.281
 9487SOL    HW229361   2.981   3.980   4.283
 9488SOL     OW29362   1.456   1.375   1.298
 9488SOL    HW129363   1.422   1.435   1.370
 9488SOL    HW229364   1.380   1.347   1.239
 9489SOL     OW29365   5.146   4.402   1.100
 9489SOL    HW129366   5.150   4.463   1.021
 9489SOL    HW229367   5.056   4.359   1.105
 9490SOL     OW29368   6.190   4.856   3.851
 9490SOL    HW129369   6.102   4.891   3.821
 9490SOL    HW229370   6.256   4.861   3.776
 9491SOL     OW29371   5.042   6.352   3.472
 9491SOL    HW129372   5.062   6.270   3.420
 9491SOL    HW229373   5.067   6.338   3.568
 9492SOL     OW29374   4.757   2.823   4.753
 9492SOL    HW129375   4.803   2.872   4.679
 9492SOL    HW229376   4.763   2.877   4.837
 9493SOL     OW29377   4.081   6.270   4.150
 9493SOL    HW129378   3.993   6.301   4.187
 9493SOL    HW229379   4.149   6.266   4.223
 9494SOL     OW29380   5.171   2.818   2.171
 9494SOL    HW129381   5.114   2.899   2.180
 9494SOL    HW229382   5.118   2.745   2.126
 9495SOL     OW29383   0.162   0.766   1.875
 9495SOL    HW129384   0.121   0.734   1.789
 9495SOL    HW229385   0.134   0.860   1.892
 9496SOL     OW29386   4.277   1.954   2.423
 9496SOL    HW129387   4.180   1.948   2.450
 9496SOL    HW229388   4.331   1.896   2.484
 9497SOL     OW29389   5.862   5.614   5.016
 9497SOL    HW129390   5.773   5.575   4.996
 9497SOL    HW229391   5.916   5.549   5.070
 9498SOL     OW29392   6.458   5.062   4.762
 9498SOL    HW129393   6.361   5.054   4.785
 9498SOL    HW229394   6.469   5.129   4.689
 9499SOL     OW29395   6.507   5.252   5.031
 9499SOL    HW129396   6.484   5.155   5.037
 9499SOL    HW229397   6.494   5.284   4.937
 9500SOL     OW29398   4.111   0.316   0.908
 9500SOL    HW129399   4.186   0.309   0.974
 9500SOL    HW229400   4.114   0.405   0.863
 9501SOL     OW29401   1.711   1.552   4.334
 9501SOL    HW129402   1.770   1.547   4.254
 9501SOL    HW229403   1.726   1.471   4.391
 9502SOL     OW29404   5.286   4.931   5.155
 9502SOL    HW129405   5.211   4.996   5.171
 9502SOL    HW229406   5.373   4.981   5.153
 9503SOL     OW29407   0.730   2.254   6.968
 9503SOL    HW129408   0.721   2.330   0.010
 9503SOL    HW229409   0.806   2.273   6.906
 9504SOL     OW29410   0.323   4.258   1.531
 9504SOL    HW129411   0.265   4.318   1.477
 9504SOL    HW229412   0.308   4.275   1.628
 9505SOL     OW29413   4.228   5.195   5.645
 9505SOL    HW129414   4.289   5.227   5.573
 9505SOL    HW229415   4.278   5.135   5.707
 9506SOL     OW29416   2.339   2.200   0.919
 9506SOL    HW129417   2.350   2.250   1.005
 9506SOL    HW229418   2.326   2.103   0.938
 9507SOL     OW29419   5.808   0.311   1.461
 9507SOL    HW129420   5.828   0.407   1.439
 9507SOL    HW229421   5.716   0.288   1.427
 9508SOL     OW29422   4.728   1.660   2.284
 9508SOL    HW129423   4.747   1.562   2.280
 9508SOL    HW229424   4.741   1.700   2.193
 9509SOL     OW29425   6.612   0.580   2.818
 9509SOL    HW129426   6.680   0.648   2.844
 9509SOL    HW229427   6.658   0.500   2.779
 9510SOL     OW29428   0.537   3.471   3.423
 9510SOL    HW129429   0.622   3.460   3.474
 9510SOL    HW229430   0.462   3.427   3.473
 9511SOL     OW29431   1.291   0.949   1.067
 9511SOL    HW129432   1.335   1.038   1.057
 9511SOL    HW229433   1.210   0.945   1.008
 9512SOL     OW29434   6.478   3.435   1.095
 9512SOL    HW129435   6.483   3.452   0.997
 9512SOL    HW229436   6.489   3.522   1.144
 9513SOL     OW29437   4.068   4.993   6.404
 9513SOL    HW129438   4.138   4.929   6.436
 9513SOL    HW229439   4.022   5.034   6.483
 9514SOL     OW29440   3.333   3.161   6.926
 9514SOL    HW129441   3.411   3.163   6.864
 9514SOL    HW229442   3.249   3.152   6.873
 9515SOL     OW29443   2.824   5.082   4.019
 9515SOL    HW129444   2.917   5.112   3.997
 9515SOL    HW229445   2.826   4.988   4.054
 9516SOL     OW29446   6.389   4.507   0.363
 9516SOL    HW129447   6.455   4.491   0.290
 9516SOL    HW229448   6.375   4.423   0.414
 9517SOL     OW29449   0.839   4.301   1.335
 9517SOL    HW129450   0.868   4.253   1.253
 9517SOL    HW229451   0.740   4.294   1.345
 9518SOL     OW29452   2.240   1.204   0.668
 9518SOL    HW129453   2.325   1.255   0.654
 9518SOL    HW229454   2.249   1.145   0.748
 9519SOL     OW29455   1.352   2.170   5.342
 9519SOL    HW129456   1.311   2.144   5.429
 9519SOL    HW229457   1.449   2.190   5.355
 9520SOL     OW29458   2.359   0.039   2.937
 9520SOL    HW129459   2.325   0.128   2.966
 9520SOL    HW229460   2.304   0.005   2.860
 9521SOL     OW29461   5.982   6.044   3.872
 9521SOL    HW129462   5.914   6.073   3.805
 9521SOL    HW229463   5.945   5.968   3.926
 9522SOL     OW29464   3.270   6.047   1.067
 9522SOL    HW129465   3.367   6.029   1.076
 9522SOL    HW229466   3.234   6.080   1.155
 9523SOL     OW29467   3.782   5.102   4.149
 9523SOL    HW129468   3.853   5.035   4.171
 9523SOL    HW229469   3.755   5.150   4.233
 9524SOL     OW29470   3.548   2.954   1.328
 9524SOL    HW129471   3.572   2.985   1.420
 9524SOL    HW229472   3.592   2.866   1.310
 9525SOL     OW29473   2.252   1.381   6.234
 9525SOL    HW129474   2.326   1.401   6.169
 9525SOL    HW229475   2.289   1.328   6.310
 9526SOL     OW29476   4.941   6.396   2.927
 9526SOL    HW129477   4.845   6.391   2.952
 9526SOL    HW229478   4.992   6.448   2.996
 9527SOL     OW29479   0.769   0.964   2.178
 9527SOL    HW129480   0.837   0.939   2.246
 9527SOL    HW229481   0.727   1.052   2.203
 9528SOL     OW29482   6.296   6.920   1.071
 9528SOL    HW129483   6.303   6.950   0.976
 9528SOL    HW229484   6.386   6.927   1.114
 9529SOL     OW29485   1.059   3.080   6.510
 9529SOL    HW129486   1.067   3.011   6.582
 9529SOL    HW229487   1.030   3.167   6.549
 9530SOL     OW29488   1.691   2.769   2.746
 9530SOL    HW129489   1.717   2.774   2.649
 9530SOL    HW229490   1.651   2.680   2.766
 9531SOL     OW29491   3.961   6.506   3.275
 9531SOL    HW129492   3.902   6.467   3.205
 9531SOL    HW229493   3.976   6.603   3.256
 9532SOL     OW29494   1.794   6.420   1.004
 9532SOL    HW129495   1.868   6.476   1.039
 9532SOL    HW229496   1.736   6.476   0.943
 9533SOL     OW29497   0.884   1.012   5.442
 9533SOL    HW129498   0.845   1.087   5.389
 9533SOL    HW229499   0.889   0.930   5.385
 9534SOL     OW29500   5.458   1.772   4.701
 9534SOL    HW129501   5.432   1.724   4.785
 9534SOL    HW229502   5.505   1.857   4.724
 9535SOL     OW29503   2.716   1.147   5.808
 9535SOL    HW129504   2.775   1.128   5.886
 9535SOL    HW229505   2.706   1.246   5.797
 9536SOL     OW29506   1.707   5.740   5.578
 9536SOL    HW129507   1.703   5.642   5.600
 9536SOL    HW229508   1.653   5.792   5.644
 9537SOL     OW29509   3.228   0.140   2.004
 9537SOL    HW129510   3.177   0.070   1.955
 9537SOL    HW229511   3.268   0.204   1.939
 9538SOL     OW29512   6.482   2.248   4.303
 9538SOL    HW129513   6.519   2.301   4.226
 9538SOL    HW229514   6.410   2.301   4.347
 9539SOL     OW29515   1.254   5.606   6.863
 9539SOL    HW129516   1.210   5.694   6.881
 9539SOL    HW229517   1.254   5.588   6.765
 9540SOL     OW29518   4.363   4.952   5.129
 9540SOL    HW129519   4.286   4.918   5.076
 9540SOL    HW229520   4.345   5.046   5.159
 9541SOL     OW29521   1.949   2.901   4.345
 9541SOL    HW129522   1.955   2.991   4.388
 9541SOL    HW229523   1.853   2.873   4.339
 9542SOL     OW29524   5.037   3.190   4.847
 9542SOL    HW129525   4.961   3.150   4.898
 9542SOL    HW229526   5.008   3.274   4.803
 9543SOL     OW29527   4.299   1.055   3.875
 9543SOL    HW129528   4.350   1.086   3.955
 9543SOL    HW229529   4.359   1.002   3.815
 9544SOL     OW29530   5.732   0.740   1.955
 9544SOL    HW129531   5.665   0.812   1.970
 9544SOL    HW229532   5.814   0.759   2.010
 9545SOL     OW29533   6.705   0.555   3.213
 9545SOL    HW129534   6.772   0.504   3.267
 9545SOL    HW229535   6.644   0.490   3.166
 9546SOL     OW29536   2.485   5.432   6.635
 9546SOL    HW129537   2.554   5.368   6.600
 9546SOL    HW229538   2.421   5.383   6.694
 9547SOL     OW29539   0.959   6.013   4.513
 9547SOL    HW129540   1.056   6.022   4.493
 9547SOL    HW229541   0.924   6.098   4.551
 9548SOL     OW29542   5.984   6.059   4.445
 9548SOL    HW129543   6.022   6.069   4.354
 9548SOL    HW229544   5.919   5.983   4.447
 9549SOL     OW29545   3.269   5.433   0.457
 9549SOL    HW129546   3.199   5.398   0.519
 9549SOL    HW229547   3.278   5.371   0.379
 9550SOL     OW29548   0.644   1.113   0.364
 9550SOL    HW129549   0.593   1.094   0.281
 9550SOL    HW229550   0.742   1.108   0.346
 9551SOL     OW29551   0.271   0.193   4.834
 9551SOL    HW129552   0.235   0.253   4.762
 9551SOL    HW229553   0.348   0.237   4.880
 9552SOL     OW29554   1.625   6.415   3.695
 9552SOL    HW129555   1.673   6.328   3.679
 9552SOL    HW229556   1.579   6.443   3.612
 9553SOL     OW29557   5.809   5.081   6.566
 9553SOL    HW129558   5.740   5.142   6.528
 9553SOL    HW229559   5.768   4.992   6.585
 9554SOL     OW29560   2.502   1.147   2.202
 9554SOL    HW129561   2.409   1.128   2.234
 9554SOL    HW229562   2.556   1.063   2.204
 9555SOL     OW29563   6.550   2.441   0.629
 9555SOL    HW129564   6.553   2.484   0.719
 9555SOL    HW229565   6.462   2.459   0.586
 9556SOL     OW29566   2.187   1.040   1.153
 9556SOL    HW129567   2.199   0.988   1.069
 9556SOL    HW229568   2.127   1.119   1.136
 9557SOL     OW29569   5.914   0.085   2.025
 9557SOL    HW129570   5.816   0.067   2.011
 9557SOL    HW229571   5.967   0.012   1.983
 9558SOL     OW29572   6.542   4.989   3.220
 9558SOL    HW129573   6.540   5.083   3.186
 9558SOL    HW229574   6.558   4.926   3.144
 9559SOL     OW29575   0.001   3.383   2.233
 9559SOL    HW129576   0.063   3.435   2.174
 9559SOL    HW229577   0.051   3.308   2.277
 9560SOL     OW29578   2.672   1.201   3.094
 9560SOL    HW129579   2.573   1.215   3.082
 9560SOL    HW229580   2.688   1.152   3.180
 9561SOL     OW29581   4.086   6.789   0.874
 9561SOL    HW129582   4.119   6.803   0.967
 9561SOL    HW229583   4.155   6.740   0.820
 9562SOL     OW29584   4.516   5.342   2.419
 9562SOL    HW129585   4.594   5.405   2.417
 9562SOL    HW229586   4.494   5.312   2.326
 9563SOL     OW29587   6.841   5.806   6.339
 9563SOL    HW129588   6.870   5.866   6.265
 9563SOL    HW229589   6.741   5.799   6.339
 9564SOL     OW29590   2.925   6.802   6.631
 9564SOL    HW129591   2.996   6.860   6.672
 9564SOL    HW229592   2.939   6.707   6.660
 9565SOL     OW29593   3.628   6.368   4.437
 9565SOL    HW129594   3.590   6.275   4.434
 9565SOL    HW229595   3.567   6.430   4.388
 9566SOL     OW29596   2.839   4.559   5.918
 9566SOL    HW129597   2.866   4.527   5.827
 9566SOL    HW229598   2.744   4.533   5.936
 9567SOL     OW29599   6.204   5.637   6.496
 9567SOL    HW129600   6.300   5.636   6.523
 9567SOL    HW229601   6.147   5.627   6.578
 9568SOL     OW29602   4.946   3.711   6.242
 9568SOL    HW129603   4.882   3.748   6.310
 9568SOL    HW229604   5.018   3.660   6.289
 9569SOL     OW29605   6.546   0.693   0.173
 9569SOL    HW129606   6.629   0.640   0.187
 9569SOL    HW229607   6.527   0.701   0.075
 9570SOL     OW29608   0.757   1.420   6.847
 9570SOL    HW129609   0.724   1.478   6.773
 9570SOL    HW229610   0.803   1.339   6.809
 9571SOL     OW29611   1.890   3.285   0.117
 9571SOL    HW129612   1.978   3.330   0.129
 9571SOL    HW229613   1.840   3.285   0.204
 9572SOL     OW29614   1.141   4.162   1.935
 9572SOL    HW129615   1.129   4.219   1.854
 9572SOL    HW229616   1.169   4.220   2.012
 9573SOL     OW29617   1.897   1.533   6.850
 9573SOL    HW129618   1.927   1.599   6.919
 9573SOL    HW229619   1.938   1.444   6.868
 9574SOL     OW29620   3.271   3.206   5.901
 9574SOL    HW129621   3.275   3.183   5.998
 9574SOL    HW229622   3.224   3.133   5.851
 9575SOL     OW29623   5.207   0.887   2.106
 9575SOL    HW129624   5.158   0.974   2.102
 9575SOL    HW229625   5.160   0.824   2.168
 9576SOL     OW29626   3.476   1.485   4.507
 9576SOL    HW129627   3.466   1.452   4.413
 9576SOL    HW229628   3.386   1.500   4.547
 9577SOL     OW29629   0.933   6.017   2.725
 9577SOL    HW129630   0.978   6.074   2.793
 9577SOL    HW229631   0.977   5.927   2.723
 9578SOL     OW29632   6.727   2.924   2.167
 9578SOL    HW129633   6.746   3.001   2.228
 9578SOL    HW229634   6.690   2.847   2.219
 9579SOL     OW29635   1.481   6.928   2.514
 9579SOL    HW129636   1.439   6.941   2.604
 9579SOL    HW229637   1.526   7.012   2.486
 9580SOL     OW29638   4.415   3.725   6.951
 9580SOL    HW129639   4.453   3.634   6.935
 9580SOL    HW229640   4.410   3.742   0.027
 9581SOL     OW29641   0.948   4.265   6.390
 9581SOL    HW129642   0.890   4.314   6.456
 9581SOL    HW229643   0.994   4.332   6.332
 9582SOL     OW29644   4.171   4.799   4.316
 9582SOL    HW129645   4.206   4.747   4.393
 9582SOL    HW229646   4.196   4.896   4.327
 9583SOL     OW29647   2.076   3.694   2.111
 9583SOL    HW129648   2.090   3.704   2.210
 9583SOL    HW229649   2.141   3.627   2.075
 9584SOL     OW29650   6.214   5.585   0.105
 9584SOL    HW129651   6.226   5.615   0.010
 9584SOL    HW229652   6.292   5.527   0.131
 9585SOL     OW29653   6.276   0.418   3.866
 9585SOL    HW129654   6.286   0.517   3.862
 9585SOL    HW229655   6.263   0.390   3.962
 9586SOL     OW29656   5.402   3.679   3.521
 9586SOL    HW129657   5.322   3.641   3.568
 9586SOL    HW229658   5.480   3.616   3.532
 9587SOL     OW29659   4.859   0.386   2.294
 9587SOL    HW129660   4.897   0.418   2.381
 9587SOL    HW229661   4.777   0.438   2.272
 9588SOL     OW29662   0.233   0.749   1.203
 9588SOL    HW129663   0.212   0.771   1.298
 9588SOL    HW229664   0.322   0.788   1.179
 9589SOL     OW29665   2.577   0.869   6.422
 9589SOL    HW129666   2.622   0.956   6.403
 9589SOL    HW229667   2.572   0.855   6.521
 9590SOL     OW29668   6.943   4.286   3.249
 9590SOL    HW129669   6.885   4.254   3.174
 9590SOL    HW229670   6.963   4.210   3.310
 9591SOL     OW29671   1.480   5.066   0.707
 9591SOL    HW129672   1.539   5.090   0.630
 9591SOL    HW229673   1.457   4.969   0.702
 9592SOL     OW29674   4.493   5.715   1.913
 9592SOL    HW129675   4.459   5.807   1.891
 9592SOL    HW229676   4.461   5.650   1.845
 9593SOL     OW29677   7.002   2.406   4.435
 9593SOL    HW129678   6.964   2.464   4.508
 9593SOL    HW229679   6.935   2.337   4.409
 9594SOL     OW29680   6.368   6.971   2.324
 9594SOL    HW129681   6.295   6.904   2.315
 9594SOL    HW229682   6.331   0.033   2.363
 9595SOL     OW29683   1.832   5.717   4.310
 9595SOL    HW129684   1.867   5.645   4.251
 9595SOL    HW229685   1.908   5.769   4.349
 9596SOL     OW29686   5.910   6.086   4.998
 9596SOL    HW129687   5.861   6.052   5.078
 9596SOL    HW229688   5.856   6.157   4.953
 9597SOL     OW29689   1.787   4.194   1.545
 9597SOL    HW129690   1.848   4.265   1.510
 9597SOL    HW229691   1.763   4.214   1.640
 9598SOL     OW29692   0.237   5.657   6.214
 9598SOL    HW129693   0.217   5.577   6.158
 9598SOL    HW229694   0.169   5.663   6.288
 9599SOL     OW29695   4.593   1.599   5.389
 9599SOL    HW129696   4.592   1.568   5.484
 9599SOL    HW229697   4.585   1.520   5.328
 9600SOL     OW29698   1.442   0.456   6.709
 9600SOL    HW129699   1.387   0.436   6.791
 9600SOL    HW229700   1.454   0.555   6.700
 9601SOL     OW29701   0.325   5.383   5.811
 9601SOL    HW129702   0.424   5.395   5.815
 9601SOL    HW229703   0.285   5.457   5.756
 9602SOL     OW29704   0.986   5.426   6.735
 9602SOL    HW129705   0.938   5.462   6.656
 9602SOL    HW229706   0.937   5.347   6.771
 9603SOL     OW29707   1.604   6.187   4.572
 9603SOL    HW129708   1.568   6.169   4.480
 9603SOL    HW229709   1.650   6.105   4.606
 9604SOL     OW29710   5.962   1.833   6.849
 9604SOL    HW129711   5.995   1.922   6.819
 9604SOL    HW229712   5.862   1.831   6.846
 9605SOL     OW29713   1.745   6.055   6.295
 9605SOL    HW129714   1.734   5.987   6.368
 9605SOL    HW229715   1.719   6.015   6.208
 9606SOL     OW29716   0.360   6.563   4.006
 9606SOL    HW129717   0.373   6.585   3.909
 9606SOL    HW229718   0.429   6.496   4.034
 9607SOL     OW29719   1.146   2.018   1.939
 9607SOL    HW129720   1.168   2.009   1.842
 9607SOL    HW229721   1.129   1.928   1.979
 9608SOL     OW29722   0.755   0.176   2.059
 9608SOL    HW129723   0.665   0.209   2.030
 9608SOL    HW229724   0.757   0.076   2.052
 9609SOL     OW29725   1.728   4.361   4.449
 9609SOL    HW129726   1.808   4.301   4.445
 9609SOL    HW229727   1.650   4.310   4.487
 9610SOL     OW29728   2.417   2.038   5.580
 9610SOL    HW129729   2.373   2.085   5.503
 9610SOL    HW229730   2.361   2.049   5.662
 9611SOL     OW29731   5.963   0.030   0.851
 9611SOL    HW129732   5.870   0.066   0.841
 9611SOL    HW229733   6.029   0.106   0.847
 9612SOL     OW29734   6.019   2.531   1.839
 9612SOL    HW129735   6.055   2.619   1.871
 9612SOL    HW229736   5.926   2.544   1.805
 9613SOL     OW29737   6.160   6.630   5.199
 9613SOL    HW129738   6.087   6.670   5.144
 9613SOL    HW229739   6.185   6.540   5.162
 9614SOL     OW29740   3.722   3.345   2.559
 9614SOL    HW129741   3.657   3.416   2.584
 9614SOL    HW229742   3.724   3.276   2.631
 9615SOL     OW29743   1.061   5.960   2.279
 9615SOL    HW129744   1.140   5.907   2.248
 9615SOL    HW229745   1.046   5.943   2.377
 9616SOL     OW29746   3.887   3.006   1.136
 9616SOL    HW129747   3.828   3.072   1.088
 9616SOL    HW229748   3.844   2.916   1.134
 9617SOL     OW29749   0.947   2.929   3.734
 9617SOL    HW129750   1.032   2.954   3.780
 9617SOL    HW229751   0.874   2.992   3.760
 9618SOL     OW29752   3.870   6.079   6.630
 9618SOL    HW129753   3.947   6.032   6.675
 9618SOL    HW229754   3.851   6.035   6.543
 9619SOL     OW29755   2.699   6.102   0.788
 9619SOL    HW129756   2.605   6.097   0.821
 9619SOL    HW229757   2.741   6.188   0.818
 9620SOL     OW29758   3.252   1.832   6.528
 9620SOL    HW129759   3.313   1.824   6.449
 9620SOL    HW229760   3.181   1.899   6.508
 9621SOL     OW29761   0.407   0.433   1.221
 9621SOL    HW129762   0.431   0.493   1.145
 9621SOL    HW229763   0.454   0.345   1.210
 9622SOL     OW29764   6.022   0.610   6.086
 9622SOL    HW129765   6.087   0.534   6.090
 9622SOL    HW229766   5.991   0.633   6.178
 9623SOL     OW29767   4.870   5.945   6.125
 9623SOL    HW129768   4.907   5.997   6.202
 9623SOL    HW229769   4.831   6.009   6.057
 9624SOL     OW29770   4.195   5.131   5.265
 9624SOL    HW129771   4.138   5.052   5.288
 9624SOL    HW229772   4.194   5.144   5.166
 9625SOL     OW29773   4.793   4.546   6.113
 9625SOL    HW129774   4.824   4.641   6.127
 9625SOL    HW229775   4.731   4.543   6.034
 9626SOL     OW29776   2.099   4.102   6.129
 9626SOL    HW129777   2.077   4.006   6.114
 9626SOL    HW229778   2.042   4.137   6.204
 9627SOL     OW29779   0.972   4.888   0.014
 9627SOL    HW129780   1.069   4.888   0.037
 9627SOL    HW229781   0.925   4.817   0.067
 9628SOL     OW29782   5.527   3.519   6.961
 9628SOL    HW129783   5.604   3.558   6.910
 9628SOL    HW229784   5.485   3.447   6.907
 9629SOL     OW29785   0.294   5.756   3.534
 9629SOL    HW129786   0.335   5.672   3.499
 9629SOL    HW229787   0.304   5.760   3.633
 9630SOL     OW29788   6.689   5.934   5.960
 9630SOL    HW129789   6.763   5.900   6.018
 9630SOL    HW229790   6.631   5.996   6.013
 9631SOL     OW29791   4.333   1.252   0.588
 9631SOL    HW129792   4.393   1.184   0.628
 9631SOL    HW229793   4.387   1.317   0.535
 9632SOL     OW29794   3.384   6.348   1.072
 9632SOL    HW129795   3.345   6.261   1.043
 9632SOL    HW229796   3.330   6.385   1.147
 9633SOL     OW29797   3.526   2.861   2.832
 9633SOL    HW129798   3.475   2.795   2.887
 9633SOL    HW229799   3.598   2.903   2.887
 9634SOL     OW29800   5.305   4.349   2.261
 9634SOL    HW129801   5.235   4.317   2.325
 9634SOL    HW229802   5.355   4.426   2.302
 9635SOL     OW29803   0.936   3.781   3.438
 9635SOL    HW129804   0.860   3.725   3.470
 9635SOL    HW229805   0.910   3.828   3.354
 9636SOL     OW29806   4.397   2.455   4.533
 9636SOL    HW129807   4.374   2.408   4.618
 9636SOL    HW229808   4.400   2.554   4.550
 9637SOL     OW29809   2.984   3.031   0.906
 9637SOL    HW129810   2.968   3.126   0.931
 9637SOL    HW229811   3.004   2.978   0.988
 9638SOL     OW29812   0.052   4.622   5.531
 9638SOL    HW129813   0.107   4.589   5.455
 9638SOL    HW229814   0.014   4.545   5.581
 9639SOL     OW29815   4.415   1.584   2.072
 9639SOL    HW129816   4.456   1.544   2.154
 9639SOL    HW229817   4.396   1.681   2.089
 9640SOL     OW29818   3.293   0.308   2.675
 9640SOL    HW129819   3.293   0.256   2.590
 9640SOL    HW229820   3.387   0.335   2.697
 9641SOL     OW29821   6.106   4.101   2.602
 9641SOL    HW129822   6.007   4.101   2.615
 9641SOL    HW229823   6.133   4.186   2.557
 9642SOL     OW29824   2.376   0.454   3.409
 9642SOL    HW129825   2.349   0.495   3.323
 9642SOL    HW229826   2.420   0.365   3.392
 9643SOL     OW29827   5.239   4.600   4.139
 9643SOL    HW129828   5.147   4.589   4.100
 9643SOL    HW229829   5.261   4.521   4.196
 9644SOL     OW29830   1.475   5.279   4.970
 9644SOL    HW129831   1.470   5.303   4.873
 9644SOL    HW229832   1.564   5.238   4.989
 9645SOL     OW29833   1.262   5.835   6.620
 9645SOL    HW129834   1.188   5.841   6.554
 9645SOL    HW229835   1.346   5.872   6.580
 9646SOL     OW29836   3.594   6.317   5.556
 9646SOL    HW129837   3.501   6.287   5.533
 9646SOL    HW229838   3.598   6.417   5.555
 9647SOL     OW29839   6.064   6.540   3.384
 9647SOL    HW129840   6.147   6.596   3.388
 9647SOL    HW229841   6.066   6.471   3.456
 9648SOL     OW29842   4.662   2.379   0.949
 9648SOL    HW129843   4.754   2.345   0.928
 9648SOL    HW229844   4.664   2.425   1.038
 9649SOL     OW29845   2.686   3.494   0.538
 9649SOL    HW129846   2.748   3.560   0.495
 9649SOL    HW229847   2.602   3.540   0.565
 9650SOL     OW29848   6.889   4.620   4.743
 9650SOL    HW129849   6.871   4.707   4.697
 9650SOL    HW229850   6.808   4.561   4.735
 9651SOL     OW29851   3.253   1.400   0.200
 9651SOL    HW129852   3.218   1.372   0.289
 9651SOL    HW229853   3.176   1.417   0.138
 9652SOL     OW29854   0.139   4.094   0.535
 9652SOL    HW129855   0.141   4.081   0.634
 9652SOL    HW229856   0.189   4.020   0.491
 9653SOL     OW29857   4.734   4.004   5.903
 9653SOL    HW129858   4.816   3.951   5.878
 9653SOL    HW229859   4.762   4.092   5.941
 9654SOL     OW29860   3.452   3.395   4.325
 9654SOL    HW129861   3.516   3.342   4.268
 9654SOL    HW229862   3.469   3.492   4.312
 9655SOL     OW29863   5.473   0.914   2.020
 9655SOL    HW129864   5.390   0.908   2.075
 9655SOL    HW229865   5.529   0.991   2.051
 9656SOL     OW29866   5.216   4.309   1.404
 9656SOL    HW129867   5.312   4.282   1.399
 9656SOL    HW229868   5.186   4.343   1.315
 9657SOL     OW29869   6.216   3.578   3.385
 9657SOL    HW129870   6.118   3.579   3.365
 9657SOL    HW229871   6.257   3.497   3.344
 9658SOL     OW29872   4.964   1.886   2.237
 9658SOL    HW129873   5.036   1.899   2.169
 9658SOL    HW229874   4.877   1.868   2.191
 9659SOL     OW29875   3.415   2.647   1.052
 9659SOL    HW129876   3.357   2.711   1.002
 9659SOL    HW229877   3.410   2.667   1.150
 9660SOL     OW29878   0.543   5.979   1.141
 9660SOL    HW129879   0.617   5.956   1.078
 9660SOL    HW229880   0.562   5.938   1.230
 9661SOL     OW29881   4.783   4.432   0.873
 9661SOL    HW129882   4.806   4.530   0.873
 9661SOL    HW229883   4.804   4.393   0.962
 9662SOL     OW29884   5.018   4.226   6.428
 9662SOL    HW129885   5.088   4.156   6.437
 9662SOL    HW229886   4.973   4.240   6.517
 9663SOL     OW29887   0.717   4.565   3.664
 9663SOL    HW129888   0.800   4.592   3.712
 9663SOL    HW229889   0.699   4.468   3.680
 9664SOL     OW29890   5.370   4.233   3.289
 9664SOL    HW129891   5.376   4.133   3.300
 9664SOL    HW229892   5.454   4.275   3.323
 9665SOL     OW29893   5.821   6.431   6.759
 9665SOL    HW129894   5.866   6.451   6.846
 9665SOL    HW229895   5.888   6.396   6.694
 9666SOL     OW29896   6.117   4.259   1.131
 9666SOL    HW129897   6.138   4.356   1.142
 9666SOL    HW229898   6.187   4.216   1.074
 9667SOL     OW29899   4.840   5.318   0.935
 9667SOL    HW129900   4.891   5.240   0.898
 9667SOL    HW229901   4.874   5.340   1.027
 9668SOL     OW29902   0.936   6.403   5.942
 9668SOL    HW129903   0.949   6.360   5.852
 9668SOL    HW229904   1.025   6.414   5.987
 9669SOL     OW29905   3.271   6.873   0.450
 9669SOL    HW129906   3.223   6.788   0.426
 9669SOL    HW229907   3.356   6.878   0.398
 9670SOL     OW29908   6.960   0.032   6.113
 9670SOL    HW129909   6.893   6.980   6.117
 9670SOL    HW229910   0.017   0.002   6.061
 9671SOL     OW29911   1.171   4.926   6.446
 9671SOL    HW129912   1.133   4.990   6.514
 9671SOL    HW229913   1.188   4.838   6.490
 9672SOL     OW29914   0.587   4.394   4.040
 9672SOL    HW129915   0.551   4.330   4.107
 9672SOL    HW229916   0.620   4.477   4.086
 9673SOL     OW29917   2.257   3.933   1.457
 9673SOL    HW129918   2.310   3.871   1.399
 9673SOL    HW229919   2.310   3.957   1.538
 9674SOL     OW29920   3.184   5.968   3.277
 9674SOL    HW129921   3.251   6.021   3.223
 9674SOL    HW229922   3.106   5.945   3.219
 9675SOL     OW29923   4.713   4.277   1.453
 9675SOL    HW129924   4.651   4.291   1.530
 9675SOL    HW229925   4.806   4.301   1.480
 9676SOL     OW29926   1.353   2.973   5.840
 9676SOL    HW129927   1.371   2.901   5.907
 9676SOL    HW229928   1.415   2.962   5.762
 9677SOL     OW29929   6.363   5.237   0.671
 9677SOL    HW129930   6.341   5.321   0.621
 9677SOL    HW229931   6.326   5.158   0.622
 9678SOL     OW29932   3.528   3.761   5.006
 9678SOL    HW129933   3.608   3.820   5.006
 9678SOL    HW229934   3.474   3.778   5.089
 9679SOL     OW29935   2.031   1.148   4.914
 9679SOL    HW129936   1.978   1.227   4.881
 9679SOL    HW229937   1.974   1.066   4.909
 9680SOL     OW29938   4.599   6.246   2.810
 9680SOL    HW129939   4.615   6.271   2.905
 9680SOL    HW229940   4.685   6.249   2.760
 9681SOL     OW29941   1.820   0.660   1.488
 9681SOL    HW129942   1.834   0.749   1.531
 9681SOL    HW229943   1.805   0.673   1.390
 9682SOL     OW29944   5.661   6.061   4.802
 9682SOL    HW129945   5.561   6.069   4.808
 9682SOL    HW229946   5.691   5.976   4.844
 9683SOL     OW29947   2.356   0.399   1.085
 9683SOL    HW129948   2.437   0.389   1.142
 9683SOL    HW229949   2.340   0.315   1.033
 9684SOL     OW29950   1.549   4.552   5.282
 9684SOL    HW129951   1.516   4.646   5.294
 9684SOL    HW229952   1.588   4.519   5.368
 9685SOL     OW29953   3.735   4.081   0.902
 9685SOL    HW129954   3.791   4.002   0.874
 9685SOL    HW229955   3.732   4.147   0.827
 9686SOL     OW29956   6.249   2.031   5.912
 9686SOL    HW129957   6.155   2.066   5.910
 9686SOL    HW229958   6.312   2.103   5.883
 9687SOL     OW29959   6.235   0.385   2.288
 9687SOL    HW129960   6.212   0.421   2.197
 9687SOL    HW229961   6.274   0.458   2.343
 9688SOL     OW29962   1.509   4.856   1.620
 9688SOL    HW129963   1.549   4.839   1.530
 9688SOL    HW229964   1.448   4.935   1.615
 9689SOL     OW29965   1.265   6.101   0.342
 9689SOL    HW129966   1.320   6.054   0.272
 9689SOL    HW229967   1.241   6.192   0.309
 9690SOL     OW29968   5.999   5.725   5.215
 9690SOL    HW129969   6.094   5.750   5.199
 9690SOL    HW229970   5.959   5.689   5.131
 9691SOL     OW29971   3.307   3.837   2.049
 9691SOL    HW129972   3.353   3.923   2.065
 9691SOL    HW229973   3.209   3.847   2.071
 9692SOL     OW29974   4.591   4.932   0.173
 9692SOL    HW129975   4.492   4.929   0.160
 9692SOL    HW229976   4.612   4.989   0.253
 9693SOL     OW29977   5.672   3.993   3.884
 9693SOL    HW129978   5.698   3.898   3.867
 9693SOL    HW229979   5.695   4.048   3.804
 9694SOL     OW29980   2.921   6.652   1.851
 9694SOL    HW129981   2.940   6.732   1.793
 9694SOL    HW229982   2.824   6.653   1.877
 9695SOL     OW29983   0.508   3.286   4.485
 9695SOL    HW129984   0.505   3.362   4.550
 9695SOL    HW229985   0.466   3.314   4.399
 9696SOL     OW29986   6.082   2.000   3.064
 9696SOL    HW129987   6.052   1.996   2.968
 9696SOL    HW229988   6.054   2.088   3.103
 9697SOL     OW29989   7.007   6.017   0.412
 9697SOL    HW129990   7.021   6.035   0.314
 9697SOL    HW229991   0.036   6.083   0.466
 9698SOL     OW29992   5.169   3.521   0.218
 9698SOL    HW129993   5.143   3.605   0.171
 9698SOL    HW229994   5.259   3.491   0.186
 9699SOL     OW29995   1.171   5.038   0.450
 9699SOL    HW129996   1.167   5.125   0.499
 9699SOL    HW229997   1.080   4.996   0.450
 9700SOL     OW29998   6.145   6.904   4.097
 9700SOL    HW129999   6.110   6.878   4.186
 9700SOL    HW230000   6.242   6.879   4.090
 9701SOL     OW30001   5.056   2.954   6.540
 9701SOL    HW130002   5.001   3.033   6.569
 9701SOL    HW230003   5.146   2.960   6.582
 9702SOL     OW30004   3.772   2.978   0.816
 9702SOL    HW130005   3.821   3.061   0.841
 9702SOL    HW230006   3.676   2.985   0.844
 9703SOL     OW30007   6.167   3.816   5.174
 9703SOL    HW130008   6.080   3.864   5.186
 9703SOL    HW230009   6.239   3.863   5.225
 9704SOL     OW30010   2.709   4.723   2.858
 9704SOL    HW130011   2.619   4.762   2.876
 9704SOL    HW230012   2.718   4.702   2.761
 9705SOL     OW30013   6.068   4.181   5.192
 9705SOL    HW130014   6.080   4.204   5.095
 9705SOL    HW230015   5.981   4.133   5.204
 9706SOL     OW30016   0.945   1.417   2.122
 9706SOL    HW130017   0.881   1.354   2.079
 9706SOL    HW230018   1.039   1.384   2.108
 9707SOL     OW30019   5.914   4.753   2.318
 9707SOL    HW130020   5.856   4.681   2.355
 9707SOL    HW230021   6.007   4.718   2.304
 9708SOL     OW30022   1.513   0.834   2.343
 9708SOL    HW130023   1.541   0.804   2.435
 9708SOL    HW230024   1.447   0.769   2.306
 9709SOL     OW30025   5.952   3.007   2.324
 9709SOL    HW130026   5.863   2.972   2.298
 9709SOL    HW230027   6.013   3.006   2.245
 9710SOL     OW30028   5.993   6.156   5.366
 9710SOL    HW130029   5.936   6.238   5.355
 9710SOL    HW230030   5.934   6.075   5.367
 9711SOL     OW30031   4.046   6.571   6.727
 9711SOL    HW130032   4.060   6.605   6.634
 9711SOL    HW230033   4.003   6.481   6.724
 9712SOL     OW30034   6.205   2.820   0.485
 9712SOL    HW130035   6.241   2.729   0.505
 9712SOL    HW230036   6.121   2.811   0.431
 9713SOL     OW30037   1.731   6.227   3.502
 9713SOL    HW130038   1.712   6.235   3.404
 9713SOL    HW230039   1.829   6.211   3.516
 9714SOL     OW30040   4.083   5.053   4.509
 9714SOL    HW130041   4.129   5.070   4.422
 9714SOL    HW230042   3.984   5.055   4.495
 9715SOL     OW30043   6.160   4.873   0.995
 9715SOL    HW130044   6.254   4.839   1.002
 9715SOL    HW230045   6.130   4.866   0.900
 9716SOL     OW30046   3.604   4.774   0.094
 9716SOL    HW130047   3.685   4.827   0.070
 9716SOL    HW230048   3.607   4.685   0.047
 9717SOL     OW30049   4.672   1.039   5.835
 9717SOL    HW130050   4.577   1.067   5.836
 9717SOL    HW230051   4.679   0.942   5.812
 9718SOL     OW30052   3.215   2.065   0.239
 9718SOL    HW130053   3.184   2.084   0.146
 9718SOL    HW230054   3.244   2.150   0.283
 9719SOL     OW30055   4.628   6.165   5.014
 9719SOL    HW130056   4.530   6.162   5.033
 9719SOL    HW230057   4.653   6.090   4.954
 9720SOL     OW30058   1.691   4.334   3.220
 9720SOL    HW130059   1.782   4.347   3.181
 9720SOL    HW230060   1.693   4.259   3.286
 9721SOL     OW30061   0.894   1.850   0.080
 9721SOL    HW130062   0.985   1.833   0.119
 9721SOL    HW230063   0.847   1.763   0.067
 9722SOL     OW30064   3.681   2.562   5.576
 9722SOL    HW130065   3.672   2.662   5.584
 9722SOL    HW230066   3.590   2.520   5.575
 9723SOL     OW30067   6.120   4.541   4.525
 9723SOL    HW130068   6.039   4.497   4.565
 9723SOL    HW230069   6.131   4.632   4.564
 9724SOL     OW30070   1.374   5.352   7.007
 9724SOL    HW130071   1.470   5.374   0.000
 9724SOL    HW230072   1.330   5.429   6.960
 9725SOL     OW30073   3.497   5.439   5.039
 9725SOL    HW130074   3.538   5.530   5.046
 9725SOL    HW230075   3.515   5.388   5.123
 9726SOL     OW30076   6.213   0.719   3.988
 9726SOL    HW130077   6.146   0.687   4.055
 9726SOL    HW230078   6.179   0.701   3.895
 9727SOL     OW30079   0.674   2.368   6.606
 9727SOL    HW130080   0.747   2.390   6.672
 9727SOL    HW230081   0.585   2.374   6.652
 9728SOL     OW30082   5.494   0.409   5.916
 9728SOL    HW130083   5.515   0.331   5.856
 9728SOL    HW230084   5.576   0.434   5.967
 9729SOL     OW30085   0.943   4.253   3.494
 9729SOL    HW130086   0.933   4.342   3.448
 9729SOL    HW230087   1.040   4.236   3.510
 9730SOL     OW30088   0.353   4.511   2.866
 9730SOL    HW130089   0.257   4.497   2.841
 9730SOL    HW230090   0.366   4.489   2.962
 9731SOL     OW30091   5.127   3.709   2.826
 9731SOL    HW130092   5.076   3.668   2.751
 9731SOL    HW230093   5.207   3.757   2.790
 9732SOL     OW30094   1.783   2.744   2.494
 9732SOL    HW130095   1.834   2.799   2.427
 9732SOL    HW230096   1.785   2.648   2.466
 9733SOL     OW30097   6.061   5.658   2.731
 9733SOL    HW130098   6.131   5.710   2.681
 9733SOL    HW230099   6.103   5.608   2.806
 9734SOL     OW30100   6.407   6.581   6.379
 9734SOL    HW130101   6.313   6.552   6.396
 9734SOL    HW230102   6.413   6.681   6.381
 9735SOL     OW30103   1.276   1.617   2.423
 9735SOL    HW130104   1.243   1.680   2.493
 9735SOL    HW230105   1.261   1.522   2.453
 9736SOL     OW30106   4.933   2.258   5.079
 9736SOL    HW130107   4.873   2.199   5.133
 9736SOL    HW230108   4.955   2.212   4.993
 9737SOL     OW30109   6.161   1.729   2.314
 9737SOL    HW130110   6.111   1.648   2.343
 9737SOL    HW230111   6.257   1.721   2.343
 9738SOL     OW30112   2.290   5.771   1.089
 9738SOL    HW130113   2.343   5.725   1.018
 9738SOL    HW230114   2.192   5.757   1.072
 9739SOL     OW30115   4.756   0.152   0.118
 9739SOL    HW130116   4.725   0.214   0.190
 9739SOL    HW230117   4.818   0.201   0.056
 9740SOL     OW30118   6.513   0.912   2.343
 9740SOL    HW130119   6.541   0.938   2.251
 9740SOL    HW230120   6.488   0.815   2.344
 9741SOL     OW30121   3.148   1.820   4.766
 9741SOL    HW130122   3.084   1.746   4.746
 9741SOL    HW230123   3.100   1.895   4.811
 9742SOL     OW30124   4.292   1.239   6.407
 9742SOL    HW130125   4.258   1.146   6.389
 9742SOL    HW230126   4.218   1.295   6.444
 9743SOL     OW30127   6.637   2.930   3.604
 9743SOL    HW130128   6.700   2.950   3.529
 9743SOL    HW230129   6.560   2.876   3.569
 9744SOL     OW30130   1.898   6.497   3.763
 9744SOL    HW130131   1.911   6.502   3.664
 9744SOL    HW230132   1.812   6.543   3.787
 9745SOL     OW30133   5.695   1.253   5.762
 9745SOL    HW130134   5.757   1.183   5.797
 9745SOL    HW230135   5.601   1.233   5.790
 9746SOL     OW30136   5.141   6.061   6.612
 9746SOL    HW130137   5.114   6.157   6.606
 9746SOL    HW230138   5.236   6.055   6.644
 9747SOL     OW30139   2.364   2.175   2.065
 9747SOL    HW130140   2.395   2.234   2.140
 9747SOL    HW230141   2.439   2.163   2.000
 9748SOL     OW30142   0.631   0.614   3.163
 9748SOL    HW130143   0.578   0.557   3.226
 9748SOL    HW230144   0.568   0.668   3.106
 9749SOL     OW30145   0.744   1.674   2.378
 9749SOL    HW130146   0.694   1.618   2.311
 9749SOL    HW230147   0.781   1.615   2.449
 9750SOL     OW30148   6.032   4.851   4.242
 9750SOL    HW130149   5.943   4.821   4.207
 9750SOL    HW230150   6.098   4.777   4.231
 9751SOL     OW30151   2.484   0.508   1.855
 9751SOL    HW130152   2.529   0.421   1.877
 9751SOL    HW230153   2.539   0.557   1.787
 9752SOL     OW30154   4.521   2.490   0.411
 9752SOL    HW130155   4.473   2.506   0.497
 9752SOL    HW230156   4.562   2.576   0.379
 9753SOL     OW30157   6.980   6.146   6.462
 9753SOL    HW130158   6.900   6.105   6.505
 9753SOL    HW230159   0.022   6.074   6.436
 9754SOL     OW30160   3.950   0.888   0.524
 9754SOL    HW130161   3.939   0.984   0.501
 9754SOL    HW230162   3.932   0.831   0.444
 9755SOL     OW30163   3.378   4.152   5.434
 9755SOL    HW130164   3.464   4.197   5.411
 9755SOL    HW230165   3.311   4.221   5.462
 9756SOL     OW30166   5.488   1.497   6.095
 9756SOL    HW130167   5.539   1.558   6.035
 9756SOL    HW230168   5.430   1.551   6.156
 9757SOL     OW30169   5.586   4.194   4.337
 9757SOL    HW130170   5.508   4.169   4.394
 9757SOL    HW230171   5.606   4.121   4.273
 9758SOL     OW30172   1.128   0.778   0.518
 9758SOL    HW130173   1.057   0.820   0.462
 9758SOL    HW230174   1.202   0.844   0.533
 9759SOL     OW30175   0.713   1.368   0.468
 9759SOL    HW130176   0.803   1.407   0.447
 9759SOL    HW230177   0.703   1.281   0.419
 9760SOL     OW30178   4.898   2.476   6.987
 9760SOL    HW130179   4.837   2.403   7.017
 9760SOL    HW230180   4.981   2.436   6.949
 9761SOL     OW30181   1.374   0.920   1.851
 9761SOL    HW130182   1.288   0.878   1.882
 9761SOL    HW230183   1.379   0.916   1.751
 9762SOL     OW30184   2.984   1.597   4.708
 9762SOL    HW130185   2.973   1.527   4.637
 9762SOL    HW230186   2.894   1.636   4.729
 9763SOL     OW30187   6.365   1.614   1.730
 9763SOL    HW130188   6.271   1.621   1.764
 9763SOL    HW230189   6.398   1.705   1.704
 9764SOL     OW30190   5.819   2.283   2.237
 9764SOL    HW130191   5.821   2.240   2.327
 9764SOL    HW230192   5.852   2.219   2.168
 9765SOL     OW30193   6.464   1.292   1.949
 9765SOL    HW130194   6.413   1.210   1.976
 9765SOL    HW230195   6.431   1.324   1.860
 9766SOL     OW30196   2.599   0.545   3.606
 9766SOL    HW130197   2.506   0.535   3.572
 9766SOL    HW230198   2.665   0.531   3.532
 9767SOL     OW30199   2.099   3.199   5.821
 9767SOL    HW130200   2.041   3.207   5.740
 9767SOL    HW230201   2.053   3.243   5.899
 9768SOL     OW30202   6.125   2.406   0.560
 9768SOL    HW130203   6.152   2.440   0.651
 9768SOL    HW230204   6.029   2.379   0.563
 9769SOL     OW30205   3.153   1.651   5.451
 9769SOL    HW130206   3.110   1.739   5.431
 9769SOL    HW230207   3.082   1.582   5.464
 9770SOL     OW30208   3.873   2.733   6.541
 9770SOL    HW130209   3.963   2.768   6.565
 9770SOL    HW230210   3.838   2.781   6.461
 9771SOL     OW30211   2.514   6.394   2.326
 9771SOL    HW130212   2.526   6.327   2.253
 9771SOL    HW230213   2.471   6.351   2.405
 9772SOL     OW30214   1.535   6.016   2.070
 9772SOL    HW130215   1.563   6.109   2.044
 9772SOL    HW230216   1.449   6.021   2.121
 9773SOL     OW30217   5.296   6.015   2.573
 9773SOL    HW130218   5.281   5.963   2.656
 9773SOL    HW230219   5.222   6.082   2.561
 9774SOL     OW30220   0.901   5.319   3.737
 9774SOL    HW130221   0.947   5.384   3.798
 9774SOL    HW230222   0.818   5.362   3.700
 9775SOL     OW30223   2.906   0.699   3.735
 9775SOL    HW130224   2.893   0.778   3.796
 9775SOL    HW230225   2.839   0.628   3.758
 9776SOL     OW30226   1.632   4.867   5.852
 9776SOL    HW130227   1.694   4.899   5.924
 9776SOL    HW230228   1.542   4.849   5.892
 9777SOL     OW30229   5.422   6.820   6.582
 9777SOL    HW130230   5.489   6.747   6.569
 9777SOL    HW230231   5.338   6.782   6.623
 9778SOL     OW30232   0.447   1.927   4.612
 9778SOL    HW130233   0.505   1.951   4.534
 9778SOL    HW230234   0.405   2.011   4.648
 9779SOL     OW30235   0.731   1.962   3.208
 9779SOL    HW130236   0.791   1.997   3.281
 9779SOL    HW230237   0.787   1.933   3.131
 9780SOL     OW30238   1.600   1.939   1.373
 9780SOL    HW130239   1.629   1.975   1.461
 9780SOL    HW230240   1.674   1.886   1.332
 9781SOL     OW30241   1.398   3.758   3.625
 9781SOL    HW130242   1.380   3.731   3.720
 9781SOL    HW230243   1.440   3.683   3.576
 9782SOL     OW30244   0.471   2.468   0.326
 9782SOL    HW130245   0.419   2.546   0.362
 9782SOL    HW230246   0.408   2.396   0.298
 9783SOL     OW30247   4.047   1.780   3.286
 9783SOL    HW130248   4.026   1.832   3.369
 9783SOL    HW230249   3.965   1.733   3.254
 9784SOL     OW30250   2.945   1.379   6.899
 9784SOL    HW130251   3.043   1.359   6.900
 9784SOL    HW230252   2.928   1.459   6.956
 9785SOL     OW30253   7.010   2.647   4.644
 9785SOL    HW130254   6.981   2.620   4.736
 9785SOL    HW230255   0.086   2.664   4.644
 9786SOL     OW30256   2.870   4.256   0.688
 9786SOL    HW130257   2.836   4.200   0.764
 9786SOL    HW230258   2.945   4.314   0.720
 9787SOL     OW30259   3.677   3.914   3.648
 9787SOL    HW130260   3.712   3.900   3.741
 9787SOL    HW230261   3.579   3.930   3.650
 9788SOL     OW30262   0.627   5.894   1.829
 9788SOL    HW130263   0.666   5.954   1.900
 9788SOL    HW230264   0.555   5.838   1.869
 9789SOL     OW30265   2.960   0.122   6.505
 9789SOL    HW130266   2.883   0.061   6.486
 9789SOL    HW230267   3.046   0.071   6.498
 9790SOL     OW30268   6.563   4.045   4.862
 9790SOL    HW130269   6.649   3.994   4.863
 9790SOL    HW230270   6.570   4.120   4.797
 9791SOL     OW30271   0.716   6.287   0.385
 9791SOL    HW130272   0.791   6.338   0.344
 9791SOL    HW230273   0.702   6.319   0.479
 9792SOL     OW30274   3.481   5.347   0.683
 9792SOL    HW130275   3.575   5.335   0.714
 9792SOL    HW230276   3.480   5.359   0.583
 9793SOL     OW30277   4.583   1.294   1.729
 9793SOL    HW130278   4.681   1.300   1.709
 9793SOL    HW230279   4.534   1.269   1.645
 9794SOL     OW30280   4.850   4.574   4.749
 9794SOL    HW130281   4.888   4.483   4.729
 9794SOL    HW230282   4.919   4.628   4.797
 9795SOL     OW30283   0.763   3.204   4.108
 9795SOL    HW130284   0.796   3.115   4.077
 9795SOL    HW230285   0.759   3.267   4.031
 9796SOL     OW30286   3.909   3.901   3.453
 9796SOL    HW130287   3.823   3.907   3.503
 9796SOL    HW230288   3.952   3.812   3.470
 9797SOL     OW30289   3.176   6.312   6.772
 9797SOL    HW130290   3.213   6.265   6.692
 9797SOL    HW230291   3.135   6.399   6.745
 9798SOL     OW30292   2.139   2.576   1.094
 9798SOL    HW130293   2.092   2.664   1.093
 9798SOL    HW230294   2.097   2.516   1.162
 9799SOL     OW30295   2.678   5.280   6.535
 9799SOL    HW130296   2.685   5.189   6.577
 9799SOL    HW230297   2.761   5.300   6.484
 9800SOL     OW30298   5.617   2.959   3.959
 9800SOL    HW130299   5.694   2.982   3.899
 9800SOL    HW230300   5.628   2.865   3.991
 9801SOL     OW30301   5.306   4.922   6.855
 9801SOL    HW130302   5.307   4.922   6.955
 9801SOL    HW230303   5.391   4.883   6.821
 9802SOL     OW30304   4.018   5.285   0.572
 9802SOL    HW130305   4.003   5.335   0.657
 9802SOL    HW230306   4.026   5.188   0.591
 9803SOL     OW30307   1.784   3.148   6.407
 9803SOL    HW130308   1.714   3.191   6.464
 9803SOL    HW230309   1.875   3.173   6.442
 9804SOL     OW30310   6.510   5.907   2.937
 9804SOL    HW130311   6.543   5.858   3.018
 9804SOL    HW230312   6.414   5.886   2.922
 9805SOL     OW30313   0.547   6.697   3.412
 9805SOL    HW130314   0.479   6.766   3.440
 9805SOL    HW230315   0.639   6.733   3.426
 9806SOL     OW30316   4.090   2.131   6.096
 9806SOL    HW130317   4.038   2.048   6.079
 9806SOL    HW230318   4.054   2.178   6.177
 9807SOL     OW30319   3.412   2.870   2.352
 9807SOL    HW130320   3.509   2.890   2.364
 9807SOL    HW230321   3.368   2.862   2.441
 9808SOL     OW30322   4.161   6.087   3.967
 9808SOL    HW130323   4.133   6.162   4.027
 9808SOL    HW230324   4.243   6.115   3.916
 9809SOL     OW30325   0.441   2.848   0.514
 9809SOL    HW130326   0.416   2.930   0.462
 9809SOL    HW230327   0.390   2.770   0.479
 9810SOL     OW30328   2.552   1.693   5.320
 9810SOL    HW130329   2.649   1.673   5.336
 9810SOL    HW230330   2.535   1.695   5.221
 9811SOL     OW30331   6.633   3.688   4.262
 9811SOL    HW130332   6.680   3.774   4.246
 9811SOL    HW230333   6.612   3.679   4.360
 9812SOL     OW30334   2.522   6.918   4.840
 9812SOL    HW130335   2.609   6.882   4.807
 9812SOL    HW230336   2.538   7.004   4.890
 9813SOL     OW30337   5.370   2.657   0.645
 9813SOL    HW130338   5.288   2.684   0.695
 9813SOL    HW230339   5.451   2.696   0.689
 9814SOL     OW30340   5.650   2.052   0.306
 9814SOL    HW130341   5.644   2.111   0.387
 9814SOL    HW230342   5.648   1.957   0.334
 9815SOL     OW30343   4.684   2.585   4.500
 9815SOL    HW130344   4.709   2.665   4.446
 9815SOL    HW230345   4.634   2.614   4.581
 9816SOL     OW30346   1.214   6.810   6.196
 9816SOL    HW130347   1.166   6.779   6.113
 9816SOL    HW230348   1.149   6.850   6.260
 9817SOL     OW30349   0.783   6.871   3.210
 9817SOL    HW130350   0.703   6.827   3.168
 9817SOL    HW230351   0.866   6.832   3.171
 9818SOL     OW30352   5.888   1.779   5.239
 9818SOL    HW130353   5.900   1.684   5.267
 9818SOL    HW230354   5.807   1.787   5.182
 9819SOL     OW30355   4.104   2.255   3.223
 9819SOL    HW130356   4.166   2.333   3.235
 9819SOL    HW230357   4.128   2.207   3.138
 9820SOL     OW30358   3.102   4.403   6.393
 9820SOL    HW130359   3.139   4.496   6.386
 9820SOL    HW230360   3.034   4.389   6.320
 9821SOL     OW30361   5.867   6.768   6.901
 9821SOL    HW130362   5.779   6.729   6.926
 9821SOL    HW230363   5.858   6.819   6.816
 9822SOL     OW30364   0.741   6.782   2.855
 9822SOL    HW130365   0.774   6.721   2.783
 9822SOL    HW230366   0.803   6.860   2.864
 9823SOL     OW30367   3.340   0.755   1.507
 9823SOL    HW130368   3.303   0.723   1.420
 9823SOL    HW230369   3.284   0.719   1.582
 9824SOL     OW30370   1.210   3.953   6.055
 9824SOL    HW130371   1.210   4.052   6.069
 9824SOL    HW230372   1.164   3.908   6.133
 9825SOL     OW30373   3.578   5.951   5.632
 9825SOL    HW130374   3.676   5.969   5.642
 9825SOL    HW230375   3.542   6.006   5.557
 9826SOL     OW30376   4.853   6.177   5.979
 9826SOL    HW130377   4.775   6.239   5.977
 9826SOL    HW230378   4.895   6.172   5.888
 9827SOL     OW30379   1.588   4.199   4.625
 9827SOL    HW130380   1.491   4.214   4.646
 9827SOL    HW230381   1.597   4.117   4.568
 9828SOL     OW30382   3.390   2.790   6.487
 9828SOL    HW130383   3.400   2.811   6.390
 9828SOL    HW230384   3.292   2.784   6.510
 9829SOL     OW30385   3.403   6.571   0.471
 9829SOL    HW130386   3.337   6.560   0.545
 9829SOL    HW230387   3.473   6.637   0.499
 9830SOL     OW30388   6.133   1.913   1.433
 9830SOL    HW130389   6.085   1.952   1.355
 9830SOL    HW230390   6.173   1.825   1.408
 9831SOL     OW30391   1.267   6.107   0.850
 9831SOL    HW130392   1.224   6.195   0.871
 9831SOL    HW230393   1.354   6.123   0.803
 9832SOL     OW30394   4.628   4.853   2.592
 9832SOL    HW130395   4.554   4.919   2.583
 9832SOL    HW230396   4.663   4.829   2.502
 9833SOL     OW30397   3.383   3.167   5.095
 9833SOL    HW130398   3.430   3.101   5.153
 9833SOL    HW230399   3.321   3.120   5.033
 9834SOL     OW30400   2.763   3.659   5.901
 9834SOL    HW130401   2.732   3.590   5.836
 9834SOL    HW230402   2.817   3.728   5.853
 9835SOL     OW30403   4.554   1.846   4.813
 9835SOL    HW130404   4.577   1.912   4.884
 9835SOL    HW230405   4.614   1.766   4.821
 9836SOL     OW30406   6.448   3.672   3.457
 9836SOL    HW130407   6.359   3.629   3.446
 9836SOL    HW230408   6.442   3.769   3.432
 9837SOL     OW30409   1.707   6.974   3.242
 9837SOL    HW130410   1.664   6.933   3.162
 9837SOL    HW230411   1.642   0.015   3.286
 9838SOL     OW30412   0.422   6.783   5.686
 9838SOL    HW130413   0.330   6.764   5.721
 9838SOL    HW230414   0.490   6.740   5.745
 9839SOL     OW30415   6.709   1.308   2.660
 9839SOL    HW130416   6.730   1.396   2.704
 9839SOL    HW230417   6.786   1.280   2.603
 9840SOL     OW30418   0.261   0.373   0.730
 9840SOL    HW130419   0.335   0.330   0.679
 9840SOL    HW230420   0.233   0.457   0.683
 9841SOL     OW30421   1.491   4.421   4.314
 9841SOL    HW130422   1.470   4.512   4.278
 9841SOL    HW230423   1.587   4.416   4.341
 9842SOL     OW30424   3.210   3.499   3.394
 9842SOL    HW130425   3.225   3.496   3.493
 9842SOL    HW230426   3.125   3.549   3.375
 9843SOL     OW30427   6.443   1.929   1.343
 9843SOL    HW130428   6.395   1.866   1.282
 9843SOL    HW230429   6.540   1.933   1.316
 9844SOL     OW30430   4.807   6.840   3.163
 9844SOL    HW130431   4.708   6.824   3.171
 9844SOL    HW230432   4.854   6.752   3.157
 9845SOL     OW30433   2.098   1.152   5.189
 9845SOL    HW130434   2.129   1.246   5.175
 9845SOL    HW230435   2.039   1.124   5.114
 9846SOL     OW30436   3.320   4.107   3.112
 9846SOL    HW130437   3.314   4.136   3.207
 9846SOL    HW230438   3.252   4.035   3.095
 9847SOL     OW30439   2.248   2.709   6.184
 9847SOL    HW130440   2.339   2.732   6.152
 9847SOL    HW230441   2.252   2.683   6.280
 9848SOL     OW30442   3.842   2.483   6.685
 9848SOL    HW130443   3.759   2.438   6.654
 9848SOL    HW230444   3.855   2.569   6.635
 9849SOL     OW30445   5.763   0.609   6.769
 9849SOL    HW130446   5.831   0.651   6.828
 9849SOL    HW230447   5.691   0.676   6.747
 9850SOL     OW30448   4.900   5.787   2.294
 9850SOL    HW130449   4.804   5.815   2.301
 9850SOL    HW230450   4.929   5.791   2.198
 9851SOL     OW30451   4.508   2.016   5.056
 9851SOL    HW130452   4.516   1.959   5.138
 9851SOL    HW230453   4.416   2.054   5.052
 9852SOL     OW30454   4.135   1.997   3.058
 9852SOL    HW130455   4.210   1.952   3.009
 9852SOL    HW230456   4.099   1.935   3.128
 9853SOL     OW30457   4.718   4.234   3.080
 9853SOL    HW130458   4.678   4.301   3.017
 9853SOL    HW230459   4.674   4.145   3.067
 9854SOL     OW30460   6.060   5.155   5.206
 9854SOL    HW130461   6.158   5.156   5.226
 9854SOL    HW230462   6.015   5.085   5.262
 9855SOL     OW30463   1.254   4.336   1.499
 9855SOL    HW130464   1.334   4.326   1.440
 9855SOL    HW230465   1.178   4.373   1.446
 9856SOL     OW30466   4.404   3.839   0.183
 9856SOL    HW130467   4.501   3.862   0.180
 9856SOL    HW230468   4.385   3.784   0.264
 9857SOL     OW30469   5.434   2.283   3.339
 9857SOL    HW130470   5.434   2.233   3.253
 9857SOL    HW230471   5.357   2.347   3.340
 9858SOL     OW30472   5.906   0.274   1.121
 9858SOL    HW130473   5.960   0.331   1.058
 9858SOL    HW230474   5.846   0.214   1.068
 9859SOL     OW30475   6.552   6.712   0.947
 9859SOL    HW130476   6.647   6.704   0.920
 9859SOL    HW230477   6.542   6.787   1.012
 9860SOL     OW30478   0.306   1.049   1.615
 9860SOL    HW130479   0.327   1.133   1.664
 9860SOL    HW230480   0.378   1.030   1.548
 9861SOL     OW30481   3.489   6.895   4.221
 9861SOL    HW130482   3.496   6.797   4.200
 9861SOL    HW230483   3.535   6.947   4.149
 9862SOL     OW30484   2.808   3.582   0.925
 9862SOL    HW130485   2.801   3.499   0.869
 9862SOL    HW230486   2.847   3.559   1.014
 9863SOL     OW30487   3.215   6.743   2.950
 9863SOL    HW130488   3.171   6.670   2.898
 9863SOL    HW230489   3.153   6.777   3.020
 9864SOL     OW30490   3.883   5.752   3.625
 9864SOL    HW130491   3.809   5.715   3.569
 9864SOL    HW230492   3.849   5.831   3.677
 9865SOL     OW30493   0.838   0.790   4.104
 9865SOL    HW130494   0.894   0.871   4.094
 9865SOL    HW230495   0.875   0.715   4.049
 9866SOL     OW30496   5.199   4.419   4.557
 9866SOL    HW130497   5.194   4.352   4.483
 9866SOL    HW230498   5.239   4.504   4.523
 9867SOL     OW30499   4.643   0.706   1.379
 9867SOL    HW130500   4.543   0.702   1.374
 9867SOL    HW230501   4.670   0.744   1.467
 9868SOL     OW30502   1.719   4.550   5.873
 9868SOL    HW130503   1.771   4.486   5.816
 9868SOL    HW230504   1.632   4.507   5.899
 9869SOL     OW30505   2.014   3.770   2.705
 9869SOL    HW130506   1.946   3.809   2.766
 9869SOL    HW230507   2.024   3.672   2.725
 9870SOL     OW30508   3.815   5.998   2.425
 9870SOL    HW130509   3.906   6.014   2.461
 9870SOL    HW230510   3.750   6.062   2.467
 9871SOL     OW30511   0.812   6.641   6.026
 9871SOL    HW130512   0.792   6.722   5.971
 9871SOL    HW230513   0.834   6.564   5.965
 9872SOL     OW30514   2.902   5.076   3.348
 9872SOL    HW130515   2.996   5.042   3.348
 9872SOL    HW230516   2.848   5.025   3.280
 9873SOL     OW30517   2.091   2.461   1.338
 9873SOL    HW130518   2.078   2.543   1.394
 9873SOL    HW230519   2.095   2.381   1.397
 9874SOL     OW30520   0.996   2.504   4.128
 9874SOL    HW130521   0.918   2.455   4.090
 9874SOL    HW230522   0.975   2.534   4.221
 9875SOL     OW30523   0.460   6.738   2.061
 9875SOL    HW130524   0.413   6.795   1.993
 9875SOL    HW230525   0.535   6.791   2.102
 9876SOL     OW30526   0.107   1.045   1.825
 9876SOL    HW130527   0.109   1.129   1.880
 9876SOL    HW230528   0.181   1.048   1.757
 9877SOL     OW30529   1.164   5.826   2.782
 9877SOL    HW130530   1.209   5.843   2.870
 9877SOL    HW230531   1.214   5.874   2.710
 9878SOL     OW30532   2.409   5.250   4.728
 9878SOL    HW130533   2.453   5.337   4.750
 9878SOL    HW230534   2.374   5.208   4.811
 9879SOL     OW30535   5.889   5.241   4.912
 9879SOL    HW130536   5.819   5.169   4.910
 9879SOL    HW230537   5.971   5.206   4.957
 9880SOL     OW30538   1.748   2.078   5.510
 9880SOL    HW130539   1.729   1.996   5.565
 9880SOL    HW230540   1.804   2.054   5.431
 9881SOL     OW30541   1.838   1.399   4.975
 9881SOL    HW130542   1.803   1.403   5.069
 9881SOL    HW230543   1.765   1.425   4.912
 9882SOL     OW30544   0.743   2.144   3.755
 9882SOL    HW130545   0.805   2.221   3.745
 9882SOL    HW230546   0.649   2.176   3.748
 9883SOL     OW30547   1.378   5.297   0.253
 9883SOL    HW130548   1.282   5.281   0.277
 9883SOL    HW230549   1.384   5.329   0.159
 9884SOL     OW30550   4.337   1.786   3.266
 9884SOL    HW130551   4.370   1.845   3.339
 9884SOL    HW230552   4.237   1.779   3.270
 9885SOL     OW30553   0.319   3.088   5.415
 9885SOL    HW130554   0.362   3.160   5.360
 9885SOL    HW230555   0.391   3.029   5.454
 9886SOL     OW30556   0.899   3.994   2.041
 9886SOL    HW130557   0.804   4.000   2.069
 9886SOL    HW230558   0.948   4.076   2.069
 9887SOL     OW30559   2.894   1.694   6.469
 9887SOL    HW130560   2.880   1.597   6.447
 9887SOL    HW230561   2.875   1.750   6.389
 9888SOL     OW30562   6.861   4.169   1.606
 9888SOL    HW130563   6.902   4.178   1.515
 9888SOL    HW230564   6.761   4.163   1.596
 9889SOL     OW30565   6.401   4.868   1.380
 9889SOL    HW130566   6.344   4.857   1.461
 9889SOL    HW230567   6.371   4.948   1.328
 9890SOL     OW30568   1.508   2.321   0.372
 9890SOL    HW130569   1.582   2.351   0.311
 9890SOL    HW230570   1.473   2.400   0.422
 9891SOL     OW30571   5.554   3.173   1.299
 9891SOL    HW130572   5.545   3.232   1.379
 9891SOL    HW230573   5.587   3.083   1.328
 9892SOL     OW30574   6.688   5.168   0.581
 9892SOL    HW130575   6.652   5.170   0.675
 9892SOL    HW230576   6.665   5.081   0.539
 9893SOL     OW30577   1.154   0.005   1.040
 9893SOL    HW130578   1.185   0.041   1.128
 9893SOL    HW230579   1.139   0.081   0.976
 9894SOL     OW30580   2.016   2.083   1.698
 9894SOL    HW130581   2.030   1.985   1.712
 9894SOL    HW230582   2.067   2.135   1.767
 9895SOL     OW30583   6.037   3.490   5.536
 9895SOL    HW130584   6.102   3.423   5.499
 9895SOL    HW230585   5.960   3.441   5.578
 9896SOL     OW30586   6.188   0.042   5.999
 9896SOL    HW130587   6.277   7.021   5.982
 9896SOL    HW230588   6.122   6.997   6.030
 9897SOL     OW30589   6.009   5.493   3.883
 9897SOL    HW130590   6.012   5.492   3.783
 9897SOL    HW230591   6.095   5.530   3.918
 9898SOL     OW30592   2.179   6.382   5.512
 9898SOL    HW130593   2.188   6.472   5.470
 9898SOL    HW230594   2.153   6.392   5.608
 9899SOL     OW30595   0.582   5.491   6.745
 9899SOL    HW130596   0.609   5.456   6.835
 9899SOL    HW230597   0.554   5.415   6.686
 9900SOL     OW30598   1.869   3.733   3.252
 9900SOL    HW130599   1.965   3.728   3.228
 9900SOL    HW230600   1.859   3.728   3.352
 9901SOL     OW30601   3.216   1.576   6.291
 9901SOL    HW130602   3.216   1.666   6.248
 9901SOL    HW230603   3.194   1.506   6.224
 9902SOL     OW30604   3.126   4.758   0.312
 9902SOL    HW130605   3.126   4.812   0.396
 9902SOL    HW230606   3.049   4.695   0.313
 9903SOL     OW30607   4.702   1.411   1.346
 9903SOL    HW130608   4.602   1.404   1.348
 9903SOL    HW230609   4.740   1.328   1.305
 9904SOL     OW30610   0.528   3.675   0.260
 9904SOL    HW130611   0.610   3.711   0.215
 9904SOL    HW230612   0.468   3.752   0.285
 9905SOL     OW30613   2.598   0.598   6.602
 9905SOL    HW130614   2.691   0.635   6.607
 9905SOL    HW230615   2.532   0.671   6.622
 9906SOL     OW30616   3.038   3.026   1.736
 9906SOL    HW130617   3.014   3.121   1.720
 9906SOL    HW230618   3.026   3.004   1.833
 9907SOL     OW30619   6.486   0.463   0.709
 9907SOL    HW130620   6.453   0.512   0.789
 9907SOL    HW230621   6.573   0.502   0.679
 9908SOL     OW30622   5.752   1.555   4.169
 9908SOL    HW130623   5.793   1.538   4.259
 9908SOL    HW230624   5.652   1.556   4.178
 9909SOL     OW30625   4.070   0.659   3.922
 9909SOL    HW130626   4.119   0.576   3.949
 9909SOL    HW230627   3.971   0.642   3.927
 9910SOL     OW30628   1.423   3.824   2.750
 9910SOL    HW130629   1.371   3.781   2.824
 9910SOL    HW230630   1.502   3.768   2.728
 9911SOL     OW30631   3.051   6.411   1.846
 9911SOL    HW130632   2.985   6.350   1.889
 9911SOL    HW230633   3.014   6.504   1.843
 9912SOL     OW30634   3.916   1.372   2.053
 9912SOL    HW130635   4.003   1.363   2.004
 9912SOL    HW230636   3.896   1.468   2.068
 9913SOL     OW30637   6.461   4.208   0.912
 9913SOL    HW130638   6.516   4.200   0.995
 9913SOL    HW230639   6.464   4.303   0.880
 9914SOL     OW30640   5.650   2.372   4.789
 9914SOL    HW130641   5.587   2.394   4.864
 9914SOL    HW230642   5.690   2.456   4.753
 9915SOL     OW30643   5.653   0.900   3.955
 9915SOL    HW130644   5.644   0.801   3.952
 9915SOL    HW230645   5.594   0.937   4.027
 9916SOL     OW30646   1.595   2.327   3.185
 9916SOL    HW130647   1.669   2.370   3.237
 9916SOL    HW230648   1.513   2.384   3.190
 9917SOL     OW30649   5.667   3.954   0.175
 9917SOL    HW130650   5.727   4.033   0.185
 9917SOL    HW230651   5.664   3.902   0.261
 9918SOL     OW30652   2.906   1.376   3.317
 9918SOL    HW130653   2.920   1.411   3.224
 9918SOL    HW230654   2.809   1.361   3.332
 9919SOL     OW30655   6.469   5.103   1.085
 9919SOL    HW130656   6.419   5.018   1.065
 9919SOL    HW230657   6.412   5.161   1.143
 9920SOL     OW30658   5.063   1.656   2.346
 9920SOL    HW130659   5.016   1.741   2.319
 9920SOL    HW230660   5.031   1.628   2.436
 9921SOL     OW30661   4.390   0.129   6.013
 9921SOL    HW130662   4.341   0.126   5.926
 9921SOL    HW230663   4.353   0.059   6.074
 9922SOL     OW30664   2.266   4.583   0.814
 9922SOL    HW130665   2.355   4.556   0.850
 9922SOL    HW230666   2.278   4.631   0.727
 9923SOL     OW30667   4.797   4.526   0.226
 9923SOL    HW130668   4.736   4.566   0.158
 9923SOL    HW230669   4.883   4.499   0.182
 9924SOL     OW30670   6.557   1.997   4.831
 9924SOL    HW130671   6.464   1.962   4.834
 9924SOL    HW230672   6.563   2.070   4.763
 9925SOL     OW30673   6.462   3.473   4.020
 9925SOL    HW130674   6.441   3.476   3.922
 9925SOL    HW230675   6.561   3.462   4.033
 9926SOL     OW30676   4.079   2.754   0.694
 9926SOL    HW130677   4.113   2.847   0.691
 9926SOL    HW230678   4.002   2.744   0.631
 9927SOL     OW30679   6.581   6.541   0.728
 9927SOL    HW130680   6.613   6.619   0.674
 9927SOL    HW230681   6.577   6.567   0.824
 9928SOL     OW30682   5.528   5.730   1.852
 9928SOL    HW130683   5.557   5.825   1.848
 9928SOL    HW230684   5.598   5.675   1.896
 9929SOL     OW30685   3.113   5.107   4.992
 9929SOL    HW130686   3.185   5.043   5.017
 9929SOL    HW230687   3.037   5.099   5.057
 9930SOL     OW30688   0.021   6.927   4.504
 9930SOL    HW130689   0.045   6.858   4.436
 9930SOL    HW230690   7.006   6.881   4.585
 9931SOL     OW30691   0.883   4.841   4.479
 9931SOL    HW130692   0.877   4.883   4.569
 9931SOL    HW230693   0.976   4.807   4.464
 9932SOL     OW30694   2.278   5.577   6.988
 9932SOL    HW130695   2.325   5.659   6.958
 9932SOL    HW230696   2.180   5.586   6.968
 9933SOL     OW30697   1.041   5.319   4.065
 9933SOL    HW130698   0.957   5.273   4.036
 9933SOL    HW230699   1.105   5.251   4.101
 9934SOL     OW30700   5.206   1.349   5.409
 9934SOL    HW130701   5.299   1.314   5.416
 9934SOL    HW230702   5.205   1.446   5.431
 9935SOL     OW30703   2.871   6.745   0.264
 9935SOL    HW130704   2.873   6.836   0.306
 9935SOL    HW230705   2.844   6.752   0.168
 9936SOL     OW30706   6.707   5.164   6.558
 9936SOL    HW130707   6.615   5.203   6.555
 9936SOL    HW230708   6.771   5.227   6.514
 9937SOL     OW30709   6.897   1.643   0.147
 9937SOL    HW130710   6.904   1.543   0.153
 9937SOL    HW230711   6.873   1.670   0.054
 9938SOL     OW30712   6.983   5.374   2.291
 9938SOL    HW130713   0.007   5.302   2.343
 9938SOL    HW230714   6.954   5.447   2.353
 9939SOL     OW30715   4.188   2.471   1.067
 9939SOL    HW130716   4.245   2.417   1.130
 9939SOL    HW230717   4.210   2.446   0.973
 9940SOL     OW30718   0.793   0.461   1.295
 9940SOL    HW130719   0.773   0.520   1.216
 9940SOL    HW230720   0.715   0.464   1.358
 9941SOL     OW30721   2.802   3.840   5.684
 9941SOL    HW130722   2.850   3.802   5.604
 9941SOL    HW230723   2.750   3.921   5.657
 9942SOL     OW30724   2.586   5.178   2.226
 9942SOL    HW130725   2.629   5.093   2.197
 9942SOL    HW230726   2.646   5.255   2.205
 9943SOL     OW30727   6.969   5.138   5.471
 9943SOL    HW130728   6.905   5.135   5.395
 9943SOL    HW230729   6.999   5.232   5.485
 9944SOL     OW30730   1.939   4.193   6.352
 9944SOL    HW130731   1.942   4.269   6.418
 9944SOL    HW230732   1.989   4.115   6.390
 9945SOL     OW30733   6.446   5.237   6.559
 9945SOL    HW130734   6.355   5.272   6.584
 9945SOL    HW230735   6.442   5.199   6.467
 9946SOL     OW30736   4.774   0.998   4.080
 9946SOL    HW130737   4.866   0.995   4.040
 9946SOL    HW230738   4.776   0.959   4.171
 9947SOL     OW30739   1.436   2.998   5.139
 9947SOL    HW130740   1.535   2.999   5.151
 9947SOL    HW230741   1.413   3.042   5.052
 9948SOL     OW30742   5.212   4.824   4.608
 9948SOL    HW130743   5.199   4.789   4.516
 9948SOL    HW230744   5.286   4.772   4.653
 9949SOL     OW30745   5.771   4.780   4.178
 9949SOL    HW130746   5.787   4.717   4.102
 9949SOL    HW230747   5.677   4.769   4.211
 9950SOL     OW30748   5.745   6.353   4.945
 9950SOL    HW130749   5.829   6.404   4.932
 9950SOL    HW230750   5.677   6.381   4.877
 9951SOL     OW30751   6.352   1.282   4.938
 9951SOL    HW130752   6.376   1.343   5.014
 9951SOL    HW230753   6.264   1.239   4.956
 9952SOL     OW30754   0.818   3.360   1.515
 9952SOL    HW130755   0.769   3.412   1.585
 9952SOL    HW230756   0.916   3.362   1.535
 9953SOL     OW30757   6.315   2.634   4.010
 9953SOL    HW130758   6.411   2.612   3.992
 9953SOL    HW230759   6.309   2.704   4.081
 9954SOL     OW30760   6.229   0.465   6.036
 9954SOL    HW130761   6.292   0.451   6.112
 9954SOL    HW230762   6.279   0.501   5.957
 9955SOL     OW30763   6.346   3.690   5.386
 9955SOL    HW130764   6.251   3.710   5.364
 9955SOL    HW230765   6.397   3.670   5.302
 9956SOL     OW30766   1.762   0.224   1.806
 9956SOL    HW130767   1.717   0.232   1.895
 9956SOL    HW230768   1.851   0.269   1.808
 9957SOL     OW30769   5.373   5.736   2.536
 9957SOL    HW130770   5.391   5.826   2.576
 9957SOL    HW230771   5.304   5.745   2.464
 9958SOL     OW30772   3.348   5.243   1.234
 9958SOL    HW130773   3.377   5.337   1.213
 9958SOL    HW230774   3.257   5.244   1.274
 9959SOL     OW30775   4.167   3.637   5.364
 9959SOL    HW130776   4.243   3.576   5.386
 9959SOL    HW230777   4.165   3.653   5.265
 9960SOL     OW30778   6.655   6.656   2.443
 9960SOL    HW130779   6.681   6.673   2.538
 9960SOL    HW230780   6.697   6.570   2.412
 9961SOL     OW30781   1.459   5.296   3.918
 9961SOL    HW130782   1.397   5.234   3.967
 9961SOL    HW230783   1.469   5.381   3.970
 9962SOL     OW30784   6.809   0.224   2.884
 9962SOL    HW130785   6.722   0.214   2.933
 9962SOL    HW230786   6.885   0.209   2.948
 9963SOL     OW30787   3.292   2.624   6.980
 9963SOL    HW130788   3.263   2.532   6.954
 9963SOL    HW230789   3.391   2.631   6.974
 9964SOL     OW30790   4.724   5.150   5.323
 9964SOL    HW130791   4.686   5.060   5.308
 9964SOL    HW230792   4.797   5.168   5.256
 9965SOL     OW30793   3.958   6.584   6.996
 9965SOL    HW130794   3.946   6.588   6.897
 9965SOL    HW230795   4.055   6.573   7.017
 9966SOL     OW30796   1.700   5.264   1.559
 9966SOL    HW130797   1.762   5.342   1.561
 9966SOL    HW230798   1.741   5.190   1.506
 9967SOL     OW30799   0.232   6.082   2.335
 9967SOL    HW130800   0.240   5.987   2.305
 9967SOL    HW230801   0.309   6.105   2.394
 9968SOL     OW30802   3.312   3.718   1.211
 9968SOL    HW130803   3.378   3.779   1.256
 9968SOL    HW230804   3.352   3.628   1.200
 9969SOL     OW30805   1.551   2.911   2.074
 9969SOL    HW130806   1.602   2.979   2.021
 9969SOL    HW230807   1.562   2.930   2.172
 9970SOL     OW30808   4.766   3.969   2.949
 9970SOL    HW130809   4.795   4.063   2.931
 9970SOL    HW230810   4.845   3.908   2.941
 9971SOL     OW30811   1.770   5.089   1.365
 9971SOL    HW130812   1.810   5.014   1.418
 9971SOL    HW230813   1.752   5.057   1.272
 9972SOL     OW30814   5.533   5.049   1.255
 9972SOL    HW130815   5.626   5.058   1.221
 9972SOL    HW230816   5.501   5.137   1.289
 9973SOL     OW30817   6.062   1.529   3.717
 9973SOL    HW130818   6.088   1.470   3.793
 9973SOL    HW230819   6.092   1.487   3.631
 9974SOL     OW30820   1.474   2.303   2.899
 9974SOL    HW130821   1.385   2.259   2.889
 9974SOL    HW230822   1.540   2.238   2.936
 9975SOL     OW30823   5.886   3.711   0.514
 9975SOL    HW130824   5.903   3.809   0.520
 9975SOL    HW230825   5.957   3.662   0.564
 9976SOL     OW30826   1.143   6.511   5.524
 9976SOL    HW130827   1.192   6.494   5.610
 9976SOL    HW230828   1.083   6.434   5.504
 9977SOL     OW30829   6.726   5.838   5.518
 9977SOL    HW130830   6.783   5.795   5.449
 9977SOL    HW230831   6.647   5.780   5.538
 9978SOL     OW30832   0.825   2.616   4.587
 9978SOL    HW130833   0.808   2.562   4.669
 9978SOL    HW230834   0.760   2.692   4.582
 9979SOL     OW30835   6.535   4.974   5.639
 9979SOL    HW130836   6.582   4.925   5.565
 9979SOL    HW230837   6.484   5.050   5.600
 9980SOL     OW30838   2.145   0.588   6.588
 9980SOL    HW130839   2.225   0.544   6.628
 9980SOL    HW230840   2.104   0.527   6.520
 9981SOL     OW30841   2.544   1.513   3.095
 9981SOL    HW130842   2.606   1.583   3.130
 9981SOL    HW230843   2.485   1.553   3.025
 9982SOL     OW30844   6.338   6.180   4.303
 9982SOL    HW130845   6.287   6.265   4.294
 9982SOL    HW230846   6.424   6.187   4.252
 9983SOL     OW30847   6.876   2.116   2.493
 9983SOL    HW130848   6.934   2.115   2.574
 9983SOL    HW230849   6.861   2.022   2.461
 9984SOL     OW30850   2.541   1.059   0.234
 9984SOL    HW130851   2.492   1.146   0.225
 9984SOL    HW230852   2.638   1.072   0.213
 9985SOL     OW30853   1.228   0.669   0.831
 9985SOL    HW130854   1.149   0.677   0.770
 9985SOL    HW230855   1.233   0.750   0.890
 9986SOL     OW30856   6.038   4.528   5.780
 9986SOL    HW130857   5.969   4.468   5.738
 9986SOL    HW230858   6.005   4.622   5.778
 9987SOL     OW30859   6.810   2.980   4.263
 9987SOL    HW130860   6.763   3.055   4.309
 9987SOL    HW230861   6.909   2.993   4.271
 9988SOL     OW30862   0.353   5.931   4.222
 9988SOL    HW130863   0.383   5.986   4.144
 9988SOL    HW230864   0.260   5.898   4.206
 9989SOL     OW30865   6.727   3.445   4.044
 9989SOL    HW130866   6.762   3.538   4.033
 9989SOL    HW230867   6.793   3.389   4.093
 9990SOL     OW30868   2.167   4.874   3.253
 9990SOL    HW130869   2.248   4.819   3.275
 9990SOL    HW230870   2.179   4.916   3.163
 9991SOL     OW30871   2.626   2.015   3.927
 9991SOL    HW130872   2.556   2.018   3.998
 9991SOL    HW230873   2.643   1.920   3.900
 9992SOL     OW30874   5.839   4.916   0.371
 9992SOL    HW130875   5.747   4.930   0.335
 9992SOL    HW230876   5.864   4.994   0.429
 9993SOL     OW30877   2.953   0.866   0.875
 9993SOL    HW130878   2.854   0.883   0.872
 9993SOL    HW230879   3.003   0.950   0.858
 9994SOL     OW30880   5.893   4.605   3.058
 9994SOL    HW130881   5.902   4.512   3.093
 9994SOL    HW230882   5.983   4.644   3.041
 9995SOL     OW30883   4.894   1.695   3.163
 9995SOL    HW130884   4.809   1.697   3.216
 9995SOL    HW230885   4.927   1.788   3.149
 9996SOL     OW30886   3.028   3.968   0.092
 9996SOL    HW130887   3.081   3.885   0.111
 9996SOL    HW230888   3.070   4.046   0.139
 9997SOL     OW30889   3.051   1.713   5.794
 9997SOL    HW130890   3.001   1.779   5.850
 9997SOL    HW230891   2.988   1.667   5.732
 9998SOL     OW30892   6.131   5.101   5.811
 9998SOL    HW130893   6.186   5.177   5.846
 9998SOL    HW230894   6.077   5.062   5.885
 9999SOL     OW30895   6.176   2.886   6.040
 9999SOL    HW130896   6.143   2.943   6.115
 9999SOL    HW230897   6.165   2.934   5.953
10000SOL     OW30898   6.652   4.347   6.724
10000SOL    HW130899   6.714   4.305   6.658
10000SOL    HW230900   6.676   4.316   6.816
10001SOL     OW30901   4.443   0.007   2.019
10001SOL    HW130902   4.489   6.951   2.060
10001SOL    HW230903   4.482   0.092   2.055
10002SOL     OW30904   1.613   6.634   1.776
10002SOL    HW130905   1.581   6.687   1.855
10002SOL    HW230906   1.552   6.556   1.761
10003SOL     OW30907   3.520   2.049   3.674
10003SOL    HW130908   3.452   2.099   3.620
10003SOL    HW230909   3.605   2.044   3.623
10004SOL     OW30910   6.987   2.664   4.289
10004SOL    HW130911   7.010   2.572   4.321
10004SOL    HW230912   6.888   2.671   4.277
10005SOL     OW30913   5.992   0.578   3.862
10005SOL    HW130914   5.984   0.607   3.958
10005SOL    HW230915   5.962   0.483   3.853
10006SOL     OW30916   4.942   6.176   4.326
10006SOL    HW130917   4.842   6.186   4.318
10006SOL    HW230918   4.964   6.082   4.353
10007SOL     OW30919   0.249   4.053   5.047
10007SOL    HW130920   0.244   3.956   5.068
10007SOL    HW230921   0.343   4.085   5.058
10008SOL     OW30922   3.937   1.180   5.184
10008SOL    HW130923   3.917   1.117   5.259
10008SOL    HW230924   3.916   1.135   5.097
10009SOL     OW30925   1.794   3.294   2.197
10009SOL    HW130926   1.792   3.289   2.097
10009SOL    HW230927   1.868   3.354   2.226
10010SOL     OW30928   2.362   1.054   6.206
10010SOL    HW130929   2.283   1.067   6.267
10010SOL    HW230930   2.445   1.082   6.253
10011SOL     OW30931   6.761   0.628   5.781
10011SOL    HW130932   6.859   0.624   5.767
10011SOL    HW230933   6.720   0.690   5.715
10012SOL     OW30934   6.190   0.706   2.737
10012SOL    HW130935   6.100   0.700   2.694
10012SOL    HW230936   6.205   0.626   2.795
10013SOL     OW30937   0.484   1.003   3.199
10013SOL    HW130938   0.552   0.951   3.148
10013SOL    HW230939   0.424   1.052   3.136
10014SOL     OW30940   0.479   4.429   6.612
10014SOL    HW130941   0.441   4.339   6.635
10014SOL    HW230942   0.578   4.423   6.607
10015SOL     OW30943   2.271   4.815   0.986
10015SOL    HW130944   2.242   4.766   0.904
10015SOL    HW230945   2.234   4.908   0.985
10016SOL     OW30946   0.974   1.406   6.131
10016SOL    HW130947   1.029   1.337   6.084
10016SOL    HW230948   1.035   1.467   6.183
10017SOL     OW30949   3.328   2.081   3.456
10017SOL    HW130950   3.239   2.124   3.441
10017SOL    HW230951   3.315   1.991   3.500
10018SOL     OW30952   5.198   0.243   6.858
10018SOL    HW130953   5.177   0.201   6.946
10018SOL    HW230954   5.169   0.338   6.859
10019SOL     OW30955   1.180   1.545   3.068
10019SOL    HW130956   1.247   1.581   3.133
10019SOL    HW230957   1.124   1.476   3.112
10020SOL     OW30958   0.909   2.267   1.695
10020SOL    HW130959   0.934   2.280   1.599
10020SOL    HW230960   0.881   2.172   1.709
10021SOL     OW30961   6.840   3.262   1.167
10021SOL    HW130962   6.747   3.237   1.195
10021SOL    HW230963   6.882   3.185   1.120
10022SOL     OW30964   2.672   1.735   5.803
10022SOL    HW130965   2.749   1.780   5.849
10022SOL    HW230966   2.633   1.797   5.735
10023SOL     OW30967   6.774   4.636   0.769
10023SOL    HW130968   6.805   4.631   0.864
10023SOL    HW230969   6.747   4.545   0.737
10024SOL     OW30970   1.495   6.069   3.579
10024SOL    HW130971   1.538   5.979   3.572
10024SOL    HW230972   1.561   6.140   3.553
10025SOL     OW30973   1.695   0.593   0.930
10025SOL    HW130974   1.712   0.579   0.833
10025SOL    HW230975   1.782   0.587   0.980
10026SOL     OW30976   5.418   0.203   3.787
10026SOL    HW130977   5.339   0.197   3.849
10026SOL    HW230978   5.400   0.274   3.718
10027SOL     OW30979   5.651   3.025   4.458
10027SOL    HW130980   5.591   3.102   4.436
10027SOL    HW230981   5.638   2.951   4.392
10028SOL     OW30982   0.939   0.795   0.853
10028SOL    HW130983   0.885   0.835   0.927
10028SOL    HW230984   0.885   0.724   0.807
10029SOL     OW30985   5.779   1.905   3.496
10029SOL    HW130986   5.791   1.990   3.444
10029SOL    HW230987   5.856   1.891   3.557
10030SOL     OW30988   1.856   0.489   3.270
10030SOL    HW130989   1.841   0.580   3.309
10030SOL    HW230990   1.786   0.426   3.303
10031SOL     OW30991   5.673   4.694   3.740
10031SOL    HW130992   5.585   4.658   3.709
10031SOL    HW230993   5.688   4.666   3.835
10032SOL     OW30994   2.826   1.395   5.202
10032SOL    HW130995   2.843   1.493   5.191
10032SOL    HW230996   2.798   1.376   5.296
10033SOL     OW30997   6.426   3.070   4.190
10033SOL    HW130998   6.342   3.122   4.179
10033SOL    HW230999   6.471   3.096   4.276
10034SOL     OW31000   3.419   0.688   4.370
10034SOL    HW131001   3.450   0.616   4.432
10034SOL    HW231002   3.365   0.755   4.422
10035SOL     OW31003   6.405   5.177   2.041
10035SOL    HW131004   6.306   5.166   2.052
10035SOL    HW231005   6.427   5.274   2.031
10036SOL     OW31006   6.526   2.168   0.405
10036SOL    HW131007   6.487   2.239   0.346
10036SOL    HW231008   6.612   2.135   0.364
10037SOL     OW31009   6.563   1.510   6.280
10037SOL    HW131010   6.491   1.485   6.343
10037SOL    HW231011   6.544   1.601   6.242
10038SOL     OW31012   6.575   6.786   0.535
10038SOL    HW131013   6.591   6.749   0.443
10038SOL    HW231014   6.480   6.815   0.542
10039SOL     OW31015   3.094   6.698   3.587
10039SOL    HW131016   3.017   6.693   3.524
10039SOL    HW231017   3.079   6.633   3.662
10040SOL     OW31018   5.893   4.108   0.288
10040SOL    HW131019   5.960   4.047   0.245
10040SOL    HW231020   5.940   4.185   0.329
10041SOL     OW31021   3.555   6.396   0.291
10041SOL    HW131022   3.507   6.469   0.340
10041SOL    HW231023   3.643   6.431   0.259
10042SOL     OW31024   6.872   2.213   3.337
10042SOL    HW131025   6.861   2.301   3.291
10042SOL    HW231026   6.865   2.139   3.270
10043SOL     OW31027   6.612   1.987   5.964
10043SOL    HW131028   6.663   2.059   5.918
10043SOL    HW231029   6.561   1.933   5.897
10044SOL     OW31030   2.729   3.008   6.018
10044SOL    HW131031   2.772   3.078   5.960
10044SOL    HW231032   2.700   2.931   5.961
10045SOL     OW31033   4.472   1.025   0.676
10045SOL    HW131034   4.502   0.937   0.711
10045SOL    HW231035   4.473   1.023   0.576
10046SOL     OW31036   1.414   4.392   1.282
10046SOL    HW131037   1.382   4.300   1.263
10046SOL    HW231038   1.343   4.443   1.331
10047SOL     OW31039   1.175   3.277   6.271
10047SOL    HW131040   1.266   3.317   6.278
10047SOL    HW231041   1.154   3.226   6.354
10048SOL     OW31042   6.788   6.728   2.676
10048SOL    HW131043   6.868   6.674   2.699
10048SOL    HW231044   6.711   6.702   2.734
10049SOL     OW31045   0.109   2.655   6.040
10049SOL    HW131046   0.031   2.689   5.988
10049SOL    HW231047   0.128   2.717   6.116
10050SOL     OW31048   5.076   3.522   4.997
10050SOL    HW131049   4.982   3.552   4.983
10050SOL    HW231050   5.115   3.493   4.909
10051SOL     OW31051   1.095   3.949   4.639
10051SOL    HW131052   1.089   4.006   4.557
10051SOL    HW231053   1.171   3.884   4.630
10052SOL     OW31054   1.091   0.743   3.385
10052SOL    HW131055   1.150   0.690   3.446
10052SOL    HW231056   1.033   0.681   3.332
10053SOL     OW31057   4.776   5.250   4.592
10053SOL    HW131058   4.690   5.296   4.571
10053SOL    HW231059   4.848   5.285   4.532
10054SOL     OW31060   5.443   3.854   4.696
10054SOL    HW131061   5.375   3.822   4.630
10054SOL    HW231062   5.411   3.835   4.789
10055SOL     OW31063   6.615   2.386   6.606
10055SOL    HW131064   6.564   2.356   6.525
10055SOL    HW231065   6.701   2.429   6.577
10056SOL     OW31066   5.473   3.323   3.336
10056SOL    HW131067   5.421   3.305   3.253
10056SOL    HW231068   5.410   3.346   3.411
10057SOL     OW31069   5.314   4.301   6.396
10057SOL    HW131070   5.389   4.332   6.454
10057SOL    HW231071   5.230   4.349   6.421
10058SOL     OW31072   6.330   2.653   5.143
10058SOL    HW131073   6.386   2.678   5.064
10058SOL    HW231074   6.261   2.586   5.115
10059SOL     OW31075   6.914   1.342   0.098
10059SOL    HW131076   6.939   1.352   0.194
10059SOL    HW231077   6.996   1.340   0.042
10060SOL     OW31078   2.516   1.967   2.476
10060SOL    HW131079   2.530   1.977   2.378
10060SOL    HW231080   2.426   2.002   2.501
10061SOL     OW31081   3.648   0.895   3.583
10061SOL    HW131082   3.727   0.942   3.544
10061SOL    HW231083   3.578   0.961   3.609
10062SOL     OW31084   0.736   0.109   3.778
10062SOL    HW131085   0.706   0.202   3.796
10062SOL    HW231086   0.767   0.066   3.862
10063SOL     OW31087   1.542   2.737   4.872
10063SOL    HW131088   1.453   2.735   4.918
10063SOL    HW231089   1.613   2.711   4.937
10064SOL     OW31090   3.139   6.346   0.362
10064SOL    HW131091   3.188   6.432   0.373
10064SOL    HW231092   3.044   6.365   0.337
10065SOL     OW31093   0.835   0.798   1.980
10065SOL    HW131094   0.789   0.853   2.050
10065SOL    HW231095   0.768   0.735   1.939
10066SOL     OW31096   6.800   3.755   4.642
10066SOL    HW131097   6.791   3.848   4.605
10066SOL    HW231098   6.727   3.698   4.606
10067SOL     OW31099   0.551   2.222   5.830
10067SOL    HW131100   0.594   2.272   5.756
10067SOL    HW231101   0.537   2.282   5.909
10068SOL     OW31102   2.298   2.796   2.956
10068SOL    HW131103   2.311   2.781   3.054
10068SOL    HW231104   2.368   2.745   2.906
10069SOL     OW31105   3.540   5.246   1.687
10069SOL    HW131106   3.567   5.280   1.777
10069SOL    HW231107   3.440   5.249   1.679
10070SOL     OW31108   3.151   5.825   5.037
10070SOL    HW131109   3.119   5.850   5.129
10070SOL    HW231110   3.193   5.735   5.040
10071SOL     OW31111   6.851   0.081   3.121
10071SOL    HW131112   6.790   0.037   3.186
10071SOL    HW231113   6.927   0.020   3.099
10072SOL     OW31114   6.654   1.749   2.307
10072SOL    HW131115   6.567   1.741   2.258
10072SOL    HW231116   6.701   1.661   2.306
10073SOL     OW31117   6.006   3.164   4.602
10073SOL    HW131118   6.034   3.102   4.529
10073SOL    HW231119   5.961   3.112   4.674
10074SOL     OW31120   1.783   4.743   0.559
10074SOL    HW131121   1.828   4.663   0.518
10074SOL    HW231122   1.713   4.713   0.623
10075SOL     OW31123   1.775   2.751   2.153
10075SOL    HW131124   1.705   2.804   2.106
10075SOL    HW231125   1.826   2.696   2.086
10076SOL     OW31126   5.198   5.071   3.210
10076SOL    HW131127   5.250   5.109   3.287
10076SOL    HW231128   5.192   5.140   3.138
10077SOL     OW31129   6.549   3.351   6.949
10077SOL    HW131130   6.562   3.335   0.025
10077SOL    HW231131   6.598   3.434   6.923
10078SOL     OW31132   0.131   6.185   4.959
10078SOL    HW131133   0.037   6.172   4.991
10078SOL    HW231134   0.194   6.137   5.020
10079SOL     OW31135   5.055   2.732   3.055
10079SOL    HW131136   5.092   2.641   3.035
10079SOL    HW231137   4.966   2.742   3.011
10080SOL     OW31138   5.740   0.601   6.051
10080SOL    HW131139   5.710   0.525   6.109
10080SOL    HW231140   5.839   0.598   6.042
10081SOL     OW31141   1.875   2.628   0.678
10081SOL    HW131142   1.974   2.643   0.676
10081SOL    HW231143   1.839   2.660   0.765
10082SOL     OW31144   1.274   4.377   2.494
10082SOL    HW131145   1.352   4.331   2.536
10082SOL    HW231146   1.195   4.315   2.493
10083SOL     OW31147   4.323   5.226   3.829
10083SOL    HW131148   4.344   5.317   3.866
10083SOL    HW231149   4.405   5.187   3.788
10084SOL     OW31150   1.153   0.523   5.016
10084SOL    HW131151   1.087   0.472   5.071
10084SOL    HW231152   1.109   0.558   4.934
10085SOL     OW31153   4.098   6.678   0.453
10085SOL    HW131154   4.137   6.683   0.361
10085SOL    HW231155   4.150   6.738   0.514
10086SOL     OW31156   6.791   6.040   1.549
10086SOL    HW131157   6.781   6.072   1.455
10086SOL    HW231158   6.705   6.051   1.599
10087SOL     OW31159   1.680   6.751   4.679
10087SOL    HW131160   1.753   6.702   4.726
10087SOL    HW231161   1.691   6.849   4.695
10088SOL     OW31162   6.820   3.125   0.249
10088SOL    HW131163   6.732   3.085   0.225
10088SOL    HW231164   6.883   3.116   0.172
10089SOL     OW31165   3.869   1.663   2.078
10089SOL    HW131166   3.954   1.710   2.056
10089SOL    HW231167   3.817   1.717   2.145
10090SOL     OW31168   1.454   5.999   1.094
10090SOL    HW131169   1.503   6.068   1.041
10090SOL    HW231170   1.507   5.914   1.097
10091SOL     OW31171   6.577   4.549   6.135
10091SOL    HW131172   6.546   4.570   6.042
10091SOL    HW231173   6.507   4.496   6.183
10092SOL     OW31174   0.460   2.363   5.481
10092SOL    HW131175   0.443   2.426   5.406
10092SOL    HW231176   0.414   2.396   5.563
10093SOL     OW31177   5.515   4.595   6.024
10093SOL    HW131178   5.517   4.549   6.113
10093SOL    HW231179   5.545   4.531   5.953
10094SOL     OW31180   3.066   1.016   1.139
10094SOL    HW131181   3.075   0.967   1.052
10094SOL    HW231182   3.068   0.951   1.215
10095SOL     OW31183   4.948   2.540   5.176
10095SOL    HW131184   4.953   2.443   5.156
10095SOL    HW231185   4.853   2.567   5.188
10096SOL     OW31186   4.996   1.140   2.940
10096SOL    HW131187   5.062   1.073   2.908
10096SOL    HW231188   5.029   1.182   3.025
10097SOL     OW31189   1.252   1.536   6.832
10097SOL    HW131190   1.264   1.627   6.873
10097SOL    HW231191   1.304   1.531   6.747
10098SOL     OW31192   3.738   5.118   3.883
10098SOL    HW131193   3.744   5.084   3.977
10098SOL    HW231194   3.777   5.210   3.878
10099SOL     OW31195   6.857   4.514   1.839
10099SOL    HW131196   6.804   4.566   1.772
10099SOL    HW231197   6.937   4.568   1.867
10100SOL     OW31198   4.698   5.492   4.857
10100SOL    HW131199   4.788   5.461   4.827
10100SOL    HW231200   4.696   5.592   4.859
10101SOL     OW31201   1.266   2.085   0.969
10101SOL    HW131202   1.313   1.997   0.971
10101SOL    HW231203   1.333   2.158   0.955
10102SOL     OW31204   6.318   6.067   1.243
10102SOL    HW131205   6.346   5.973   1.262
10102SOL    HW231206   6.378   6.130   1.293
10103SOL     OW31207   6.953   6.656   6.154
10103SOL    HW131208   0.019   6.702   6.150
10103SOL    HW231209   6.960   6.575   6.211
10104SOL     OW31210   2.113   0.702   5.156
10104SOL    HW131211   2.124   0.736   5.250
10104SOL    HW231212   2.203   0.687   5.115
10105SOL     OW31213   2.435   0.840   6.050
10105SOL    HW131214   2.369   0.824   5.977
10105SOL    HW231215   2.422   0.932   6.087
10106SOL     OW31216   4.718   5.988   1.146
10106SOL    HW131217   4.717   5.929   1.065
10106SOL    HW231218   4.641   6.051   1.143
10107SOL     OW31219   4.809   4.090   6.605
10107SOL    HW131220   4.810   4.017   6.537
10107SOL    HW231221   4.751   4.165   6.573
10108SOL     OW31222   1.914   2.602   0.381
10108SOL    HW131223   1.948   2.511   0.359
10108SOL    HW231224   1.881   2.603   0.476
10109SOL     OW31225   1.099   1.873   0.596
10109SOL    HW131226   1.004   1.886   0.622
10109SOL    HW231227   1.127   1.945   0.533
10110SOL     OW31228   4.823   6.309   2.679
10110SOL    HW131229   4.840   6.341   2.772
10110SOL    HW231230   4.854   6.378   2.614
10111SOL     OW31231   1.324   1.174   1.924
10111SOL    HW131232   1.232   1.184   1.963
10111SOL    HW231233   1.336   1.081   1.892
10112SOL     OW31234   6.264   2.073   3.848
10112SOL    HW131235   6.228   2.107   3.935
10112SOL    HW231236   6.268   1.973   3.850
10113SOL     OW31237   5.676   1.151   6.616
10113SOL    HW131238   5.756   1.209   6.626
10113SOL    HW231239   5.685   1.096   6.533
10114SOL     OW31240   4.467   1.836   2.589
10114SOL    HW131241   4.420   1.787   2.662
10114SOL    HW231242   4.561   1.802   2.581
10115SOL     OW31243   3.195   2.628   5.746
10115SOL    HW131244   3.289   2.614   5.716
10115SOL    HW231245   3.169   2.723   5.732
10116SOL     OW31246   6.279   0.237   4.699
10116SOL    HW131247   6.221   0.256   4.778
10116SOL    HW231248   6.255   0.147   4.662
10117SOL     OW31249   6.281   4.933   4.379
10117SOL    HW131250   6.279   5.017   4.432
10117SOL    HW231251   6.194   4.885   4.389
10118SOL     OW31252   3.628   5.272   4.283
10118SOL    HW131253   3.624   5.307   4.377
10118SOL    HW231254   3.561   5.199   4.272
10119SOL     OW31255   0.195   4.943   5.088
10119SOL    HW131256   0.165   5.026   5.134
10119SOL    HW231257   0.116   4.896   5.049
10120SOL     OW31258   2.300   2.825   2.412
10120SOL    HW131259   2.367   2.764   2.454
10120SOL    HW231260   2.279   2.900   2.475
10121SOL     OW31261   6.171   4.078   0.936
10121SOL    HW131262   6.229   4.003   0.969
10121SOL    HW231263   6.078   4.043   0.921
10122SOL     OW31264   1.345   0.609   3.951
10122SOL    HW131265   1.405   0.540   3.911
10122SOL    HW231266   1.249   0.581   3.939
10123SOL     OW31267   5.754   5.735   0.318
10123SOL    HW131268   5.845   5.697   0.304
10123SOL    HW231269   5.685   5.664   0.307
10124SOL     OW31270   1.494   4.386   3.034
10124SOL    HW131271   1.566   4.367   3.100
10124SOL    HW231272   1.418   4.322   3.049
10125SOL     OW31273   1.163   1.596   6.221
10125SOL    HW131274   1.140   1.673   6.280
10125SOL    HW231275   1.164   1.626   6.125
10126SOL     OW31276   6.488   6.564   6.633
10126SOL    HW131277   6.531   6.641   6.679
10126SOL    HW231278   6.460   6.591   6.541
10127SOL     OW31279   2.107   5.701   5.958
10127SOL    HW131280   2.043   5.675   6.031
10127SOL    HW231281   2.194   5.653   5.971
10128SOL     OW31282   2.667   1.117   6.896
10128SOL    HW131283   2.730   1.195   6.896
10128SOL    HW231284   2.588   1.137   6.838
10129SOL     OW31285   6.079   1.430   3.960
10129SOL    HW131286   6.011   1.502   3.973
10129SOL    HW231287   6.124   1.410   4.047
10130SOL     OW31288   1.630   1.788   2.651
10130SOL    HW131289   1.692   1.778   2.729
10130SOL    HW231290   1.539   1.814   2.683
10131SOL     OW31291   2.032   0.489   4.530
10131SOL    HW131292   1.932   0.497   4.532
10131SOL    HW231293   2.059   0.402   4.571
10132SOL     OW31294   6.727   0.824   1.779
10132SOL    HW131295   6.729   0.728   1.808
10132SOL    HW231296   6.633   0.855   1.771
10133SOL     OW31297   5.080   0.071   0.419
10133SOL    HW131298   5.061   7.008   0.372
10133SOL    HW231299   5.059   0.148   0.358
10134SOL     OW31300   6.254   0.791   1.955
10134SOL    HW131301   6.241   0.840   1.870
10134SOL    HW231302   6.351   0.767   1.966
10135SOL     OW31303   6.564   0.400   2.566
10135SOL    HW131304   6.505   0.327   2.599
10135SOL    HW231305   6.650   0.399   2.616
10136SOL     OW31306   5.664   1.682   2.936
10136SOL    HW131307   5.712   1.656   3.020
10136SOL    HW231308   5.617   1.769   2.951
10137SOL     OW31309   6.423   5.676   5.743
10137SOL    HW131310   6.401   5.773   5.744
10137SOL    HW231311   6.356   5.626   5.798
10138SOL     OW31312   6.776   1.690   0.463
10138SOL    HW131313   6.715   1.619   0.428
10138SOL    HW231314   6.854   1.701   0.402
10139SOL     OW31315   3.278   3.075   6.168
10139SOL    HW131316   3.226   3.112   6.244
10139SOL    HW231317   3.221   3.012   6.115
10140SOL     OW31318   0.198   6.101   5.966
10140SOL    HW131319   0.198   6.200   5.980
10140SOL    HW231320   0.196   6.054   6.054
10141SOL     OW31321   2.025   1.938   4.641
10141SOL    HW131322   2.024   1.929   4.740
10141SOL    HW231323   2.065   1.857   4.599
10142SOL     OW31324   5.285   6.186   4.514
10142SOL    HW131325   5.215   6.256   4.497
10142SOL    HW231326   5.372   6.231   4.533
10143SOL     OW31327   5.329   3.656   6.503
10143SOL    HW131328   5.344   3.749   6.535
10143SOL    HW231329   5.371   3.592   6.568
10144SOL     OW31330   3.788   6.614   5.809
10144SOL    HW131331   3.808   6.517   5.795
10144SOL    HW231332   3.790   6.634   5.906
10145SOL     OW31333   5.722   6.103   6.808
10145SOL    HW131334   5.789   6.160   6.855
10145SOL    HW231335   5.632   6.117   6.851
10146SOL     OW31336   0.186   2.247   4.359
10146SOL    HW131337   0.116   2.310   4.393
10146SOL    HW231338   0.273   2.266   4.403
10147SOL     OW31339   5.204   5.529   5.649
10147SOL    HW131340   5.209   5.494   5.556
10147SOL    HW231341   5.264   5.476   5.709
10148SOL     OW31342   1.327   4.753   6.992
10148SOL    HW131343   1.267   4.815   6.940
10148SOL    HW231344   1.280   4.722   0.051
10149SOL     OW31345   4.208   4.483   0.080
10149SOL    HW131346   4.204   4.400   0.136
10149SOL    HW231347   4.129   4.541   0.102
10150SOL     OW31348   4.247   4.814   6.923
10150SOL    HW131349   4.298   4.829   7.008
10150SOL    HW231350   4.282   4.733   6.877
10151SOL     OW31351   5.421   6.669   5.241
10151SOL    HW131352   5.466   6.682   5.329
10151SOL    HW231353   5.367   6.750   5.218
10152SOL     OW31354   5.275   6.433   2.869
10152SOL    HW131355   5.231   6.366   2.809
10152SOL    HW231356   5.205   6.478   2.924
10153SOL     OW31357   4.736   4.141   3.480
10153SOL    HW131358   4.791   4.075   3.531
10153SOL    HW231359   4.669   4.184   3.542
10154SOL     OW31360   5.505   5.314   5.366
10154SOL    HW131361   5.537   5.404   5.397
10154SOL    HW231362   5.489   5.256   5.446
10155SOL     OW31363   3.967   1.807   4.782
10155SOL    HW131364   3.927   1.730   4.733
10155SOL    HW231365   3.970   1.887   4.722
10156SOL     OW31366   5.067   2.327   6.808
10156SOL    HW131367   4.979   2.290   6.778
10156SOL    HW231368   5.125   2.252   6.840
10157SOL     OW31369   0.521   2.632   0.763
10157SOL    HW131370   0.464   2.697   0.713
10157SOL    HW231371   0.615   2.637   0.730
10158SOL     OW31372   5.690   5.364   0.970
10158SOL    HW131373   5.715   5.281   1.018
10158SOL    HW231374   5.598   5.393   0.998
10159SOL     OW31375   3.659   3.580   2.793
10159SOL    HW131376   3.658   3.662   2.736
10159SOL    HW231377   3.668   3.606   2.889
10160SOL     OW31378   1.366   5.162   3.393
10160SOL    HW131379   1.447   5.110   3.365
10160SOL    HW231380   1.381   5.200   3.484
10161SOL     OW31381   5.189   3.413   5.512
10161SOL    HW131382   5.107   3.377   5.558
10161SOL    HW231383   5.207   3.506   5.545
10162SOL     OW31384   1.108   3.166   2.681
10162SOL    HW131385   1.167   3.087   2.698
10162SOL    HW231386   1.163   3.250   2.687
10163SOL     OW31387   1.493   5.958   5.304
10163SOL    HW131388   1.461   5.934   5.212
10163SOL    HW231389   1.518   6.055   5.306
10164SOL     OW31390   1.189   2.590   3.007
10164SOL    HW131391   1.122   2.543   2.951
10164SOL    HW231392   1.260   2.630   2.949
10165SOL     OW31393   6.843   3.364   4.669
10165SOL    HW131394   6.808   3.395   4.580
10165SOL    HW231395   6.924   3.416   4.693
10166SOL     OW31396   1.538   0.809   0.842
10166SOL    HW131397   1.448   0.790   0.881
10166SOL    HW231398   1.600   0.732   0.860
10167SOL     OW31399   2.071   0.264   6.747
10167SOL    HW131400   2.041   0.259   6.652
10167SOL    HW231401   2.162   0.305   6.751
10168SOL     OW31402   0.209   0.947   0.514
10168SOL    HW131403   0.201   0.875   0.445
10168SOL    HW231404   0.136   0.939   0.581
10169SOL     OW31405   6.391   2.831   3.494
10169SOL    HW131406   6.382   2.838   3.395
10169SOL    HW231407   6.311   2.786   3.532
10170SOL     OW31408   6.278   5.835   6.097
10170SOL    HW131409   6.223   5.833   6.180
10170SOL    HW231410   6.310   5.742   6.075
10171SOL     OW31411   2.324   3.634   5.962
10171SOL    HW131412   2.389   3.687   5.907
10171SOL    HW231413   2.240   3.622   5.910
10172SOL     OW31414   6.414   0.164   2.622
10172SOL    HW131415   6.472   0.083   2.612
10172SOL    HW231416   6.349   0.169   2.546
10173SOL     OW31417   3.046   4.292   5.277
10173SOL    HW131418   3.098   4.267   5.195
10173SOL    HW231419   2.981   4.365   5.254
10174SOL     OW31420   4.399   5.769   2.991
10174SOL    HW131421   4.434   5.848   2.940
10174SOL    HW231422   4.301   5.758   2.971
10175SOL     OW31423   0.399   1.067   3.958
10175SOL    HW131424   0.446   1.103   3.878
10175SOL    HW231425   0.311   1.113   3.968
10176SOL     OW31426   5.770   1.945   5.936
10176SOL    HW131427   5.772   2.011   6.012
10176SOL    HW231428   5.776   1.994   5.849
10177SOL     OW31429   2.376   0.413   2.882
10177SOL    HW131430   2.396   0.366   2.796
10177SOL    HW231431   2.284   0.388   2.913
10178SOL     OW31432   1.994   1.779   0.319
10178SOL    HW131433   1.959   1.809   0.408
10178SOL    HW231434   2.065   1.710   0.333
10179SOL     OW31435   1.005   4.539   0.984
10179SOL    HW131436   1.088   4.499   1.023
10179SOL    HW231437   0.961   4.599   1.051
10180SOL     OW31438   4.498   0.317   6.151
10180SOL    HW131439   4.519   0.276   6.240
10180SOL    HW231440   4.458   0.247   6.091
10181SOL     OW31441   6.960   3.423   1.690
10181SOL    HW131442   6.866   3.401   1.665
10181SOL    HW231443   7.021   3.399   1.615
10182SOL     OW31444   5.765   2.384   0.026
10182SOL    HW131445   5.816   2.428   0.100
10182SOL    HW231446   5.729   2.296   0.059
10183SOL     OW31447   6.198   2.425   6.823
10183SOL    HW131448   6.263   2.488   6.780
10183SOL    HW231449   6.106   2.463   6.816
10184SOL     OW31450   5.752   3.561   6.055
10184SOL    HW131451   5.814   3.483   6.054
10184SOL    HW231452   5.689   3.553   6.133
10185SOL     OW31453   3.721   5.743   2.393
10185SOL    HW131454   3.761   5.830   2.424
10185SOL    HW231455   3.639   5.762   2.339
10186SOL     OW31456   3.819   3.387   6.039
10186SOL    HW131457   3.761   3.348   5.968
10186SOL    HW231458   3.890   3.444   5.998
10187SOL     OW31459   1.568   5.744   5.903
10187SOL    HW131460   1.634   5.806   5.944
10187SOL    HW231461   1.514   5.793   5.834
10188SOL     OW31462   2.983   0.430   6.635
10188SOL    HW131463   2.908   0.378   6.676
10188SOL    HW231464   3.009   0.388   6.547
10189SOL     OW31465   1.155   1.882   6.279
10189SOL    HW131466   1.122   1.943   6.207
10189SOL    HW231467   1.254   1.895   6.292
10190SOL     OW31468   2.930   5.443   2.073
10190SOL    HW131469   2.979   5.528   2.056
10190SOL    HW231470   2.975   5.368   2.024
10191SOL     OW31471   5.970   5.472   0.019
10191SOL    HW131472   6.053   5.518   0.050
10191SOL    HW231473   5.973   5.375   0.044
10192SOL     OW31474   1.834   1.439   4.592
10192SOL    HW131475   1.755   1.462   4.649
10192SOL    HW231476   1.914   1.487   4.627
10193SOL     OW31477   3.369   4.121   3.509
10193SOL    HW131478   3.352   4.060   3.586
10193SOL    HW231479   3.291   4.119   3.446
10194SOL     OW31480   3.545   0.014   3.625
10194SOL    HW131481   3.596   0.095   3.598
10194SOL    HW231482   3.606   6.957   3.625
10195SOL     OW31483   3.869   6.305   1.945
10195SOL    HW131484   3.958   6.350   1.951
10195SOL    HW231485   3.798   6.365   1.981
10196SOL     OW31486   6.397   1.774   3.352
10196SOL    HW131487   6.368   1.727   3.269
10196SOL    HW231488   6.452   1.854   3.327
10197SOL     OW31489   5.482   0.644   2.145
10197SOL    HW131490   5.459   0.694   2.061
10197SOL    HW231491   5.579   0.618   2.143
10198SOL     OW31492   2.786   0.199   1.008
10198SOL    HW131493   2.750   0.288   0.980
10198SOL    HW231494   2.723   0.157   1.074
10199SOL     OW31495   0.648   0.856   7.017
10199SOL    HW131496   0.735   0.874   6.972
10199SOL    HW231497   0.621   0.938   0.046
10200SOL     OW31498   5.110   4.542   5.299
10200SOL    HW131499   5.061   4.468   5.253
10200SOL    HW231500   5.119   4.619   5.236
10201SOL     OW31501   1.352   4.607   2.366
10201SOL    HW131502   1.332   4.528   2.424
10201SOL    HW231503   1.294   4.604   2.285
10202SOL     OW31504   1.339   3.183   2.402
10202SOL    HW131505   1.286   3.262   2.368
10202SOL    HW231506   1.279   3.123   2.454
10203SOL     OW31507   2.204   2.978   2.631
10203SOL    HW131508   2.221   3.022   2.719
10203SOL    HW231509   2.170   2.885   2.646
10204SOL     OW31510   3.039   4.722   5.301
10204SOL    HW131511   3.016   4.702   5.396
10204SOL    HW231512   2.988   4.660   5.240
10205SOL     OW31513   5.025   2.270   3.242
10205SOL    HW131514   4.938   2.224   3.259
10205SOL    HW231515   5.017   2.327   3.160
10206SOL     OW31516   5.257   6.987   6.156
10206SOL    HW131517   5.274   6.913   6.220
10206SOL    HW231518   5.172   6.968   6.106
10207SOL     OW31519   3.837   0.863   2.880
10207SOL    HW131520   3.919   0.905   2.840
10207SOL    HW231521   3.770   0.846   2.808
10208SOL     OW31522   6.098   4.250   5.449
10208SOL    HW131523   6.118   4.348   5.450
10208SOL    HW231524   6.058   4.225   5.362
10209SOL     OW31525   6.407   6.400   6.144
10209SOL    HW131526   6.412   6.463   6.221
10209SOL    HW231527   6.351   6.321   6.169
10210SOL     OW31528   5.139   6.058   2.289
10210SOL    HW131529   5.108   6.086   2.380
10210SOL    HW231530   5.069   5.999   2.248
10211SOL     OW31531   3.796   5.868   4.817
10211SOL    HW131532   3.705   5.826   4.820
10211SOL    HW231533   3.824   5.894   4.910
10212SOL     OW31534   0.044   1.295   5.055
10212SOL    HW131535   0.136   1.335   5.064
10212SOL    HW231536   0.052   1.196   5.044
10213SOL     OW31537   6.427   1.414   3.298
10213SOL    HW131538   6.404   1.331   3.349
10213SOL    HW231539   6.410   1.398   3.201
10214SOL     OW31540   6.589   1.083   1.750
10214SOL    HW131541   6.602   1.141   1.669
10214SOL    HW231542   6.520   1.013   1.730
10215SOL     OW31543   3.787   4.328   6.156
10215SOL    HW131544   3.811   4.235   6.128
10215SOL    HW231545   3.735   4.373   6.082
10216SOL     OW31546   5.092   0.649   1.495
10216SOL    HW131547   4.999   0.622   1.470
10216SOL    HW231548   5.090   0.700   1.581
10217SOL     OW31549   2.471   1.713   5.043
10217SOL    HW131550   2.403   1.787   5.037
10217SOL    HW231551   2.442   1.637   4.986
10218SOL     OW31552   1.912   0.973   0.406
10218SOL    HW131553   1.903   0.929   0.316
10218SOL    HW231554   1.846   0.934   0.469
10219SOL     OW31555   1.053   2.362   1.466
10219SOL    HW131556   1.094   2.444   1.508
10219SOL    HW231557   1.108   2.334   1.388
10220SOL     OW31558   4.354   2.010   1.470
10220SOL    HW131559   4.329   2.026   1.374
10220SOL    HW231560   4.286   2.052   1.529
10221SOL     OW31561   2.947   0.362   5.166
10221SOL    HW131562   2.855   0.354   5.128
10221SOL    HW231563   2.956   0.449   5.215
10222SOL     OW31564   2.048   4.954   5.433
10222SOL    HW131565   1.975   5.022   5.444
10222SOL    HW231566   2.046   4.917   5.340
10223SOL     OW31567   1.595   4.036   0.102
10223SOL    HW131568   1.643   4.107   0.051
10223SOL    HW231569   1.548   4.077   0.180
10224SOL     OW31570   1.281   0.255   4.266
10224SOL    HW131571   1.370   0.295   4.288
10224SOL    HW231572   1.281   0.158   4.289
10225SOL     OW31573   6.687   5.423   4.846
10225SOL    HW131574   6.594   5.447   4.872
10225SOL    HW231575   6.751   5.489   4.887
10226SOL     OW31576   1.958   1.263   6.942
10226SOL    HW131577   1.893   1.224   7.008
10226SOL    HW231578   2.050   1.262   6.981
10227SOL     OW31579   5.021   5.271   6.653
10227SOL    HW131580   5.077   5.246   6.574
10227SOL    HW231581   4.924   5.270   6.628
10228SOL     OW31582   0.995   5.389   3.340
10228SOL    HW131583   0.970   5.482   3.365
10228SOL    HW231584   0.922   5.349   3.284
10229SOL     OW31585   1.000   0.241   3.078
10229SOL    HW131586   1.051   0.256   2.993
10229SOL    HW231587   1.045   0.290   3.153
10230SOL     OW31588   6.662   0.504   3.858
10230SOL    HW131589   6.748   0.536   3.897
10230SOL    HW231590   6.598   0.580   3.852
10231SOL     OW31591   5.593   6.991   4.997
10231SOL    HW131592   5.634   0.059   5.010
10231SOL    HW231593   5.611   6.960   4.904
10232SOL     OW31594   3.401   2.127   4.960
10232SOL    HW131595   3.371   2.032   4.953
10232SOL    HW231596   3.325   2.184   4.993
10233SOL     OW31597   4.764   1.965   5.739
10233SOL    HW131598   4.787   1.869   5.750
10233SOL    HW231599   4.667   1.979   5.759
10234SOL     OW31600   5.467   6.997   1.540
10234SOL    HW131601   5.564   6.971   1.534
10234SOL    HW231602   5.458   0.057   1.595
10235SOL     OW31603   5.100   1.234   0.050
10235SOL    HW131604   5.098   1.138   0.076
10235SOL    HW231605   5.178   1.251   7.013
10236SOL     OW31606   1.824   5.840   2.057
10236SOL    HW131607   1.806   5.762   2.116
10236SOL    HW231608   1.751   5.848   1.989
10237SOL     OW31609   6.240   3.650   2.442
10237SOL    HW131610   6.214   3.715   2.514
10237SOL    HW231611   6.239   3.696   2.354
10238SOL     OW31612   4.369   4.949   4.714
10238SOL    HW131613   4.308   4.873   4.738
10238SOL    HW231614   4.319   5.035   4.718
10239SOL     OW31615   0.262   4.085   4.315
10239SOL    HW131616   0.271   4.113   4.411
10239SOL    HW231617   0.335   4.127   4.261
10240SOL     OW31618   1.026   3.462   3.620
10240SOL    HW131619   0.964   3.474   3.543
10240SOL    HW231620   1.110   3.416   3.588
10241SOL     OW31621   1.155   1.940   2.310
10241SOL    HW131622   1.064   1.900   2.305
10241SOL    HW231623   1.150   2.037   2.285
10242SOL     OW31624   0.048   1.159   6.250
10242SOL    HW131625   0.112   1.149   6.326
10242SOL    HW231626   0.020   1.068   6.219
10243SOL     OW31627   0.541   5.446   1.813
10243SOL    HW131628   0.494   5.442   1.901
10243SOL    HW231629   0.630   5.490   1.824
10244SOL     OW31630   2.057   5.609   6.719
10244SOL    HW131631   2.081   5.573   6.629
10244SOL    HW231632   2.010   5.538   6.772
10245SOL     OW31633   1.982   2.658   6.099
10245SOL    HW131634   2.080   2.658   6.120
10245SOL    HW231635   1.957   2.747   6.059
10246SOL     OW31636   3.220   3.980   5.002
10246SOL    HW131637   3.150   3.911   4.983
10246SOL    HW231638   3.275   3.952   5.081
10247SOL     OW31639   6.965   5.480   5.955
10247SOL    HW131640   6.973   5.408   5.887
10247SOL    HW231641   0.034   5.512   5.982
10248SOL     OW31642   2.925   6.944   2.092
10248SOL    HW131643   2.959   6.931   2.000
10248SOL    HW231644   2.905   6.855   2.133
10249SOL     OW31645   4.578   1.478   5.652
10249SOL    HW131646   4.624   1.550   5.705
10249SOL    HW231647   4.644   1.407   5.627
10250SOL     OW31648   6.089   1.421   0.775
10250SOL    HW131649   6.150   1.483   0.825
10250SOL    HW231650   6.117   1.418   0.679
10251SOL     OW31651   2.505   2.959   0.050
10251SOL    HW131652   2.458   2.892   7.015
10251SOL    HW231653   2.579   2.915   0.101
10252SOL     OW31654   5.577   6.085   1.089
10252SOL    HW131655   5.592   5.993   1.053
10252SOL    HW231656   5.665   6.130   1.104
10253SOL     OW31657   4.788   4.683   6.832
10253SOL    HW131658   4.826   4.591   6.840
10253SOL    HW231659   4.727   4.688   6.753
10254SOL     OW31660   2.842   1.674   5.233
10254SOL    HW131661   2.816   1.742   5.163
10254SOL    HW231662   2.845   1.718   5.322
10255SOL     OW31663   2.277   5.405   2.272
10255SOL    HW131664   2.330   5.345   2.212
10255SOL    HW231665   2.215   5.461   2.217
10256SOL     OW31666   4.830   0.658   0.142
10256SOL    HW131667   4.863   0.668   0.236
10256SOL    HW231668   4.731   0.672   0.140
10257SOL     OW31669   1.199   5.915   5.826
10257SOL    HW131670   1.240   5.832   5.862
10257SOL    HW231671   1.247   5.995   5.862
10258SOL     OW31672   4.526   6.792   3.202
10258SOL    HW131673   4.491   6.698   3.208
10258SOL    HW231674   4.486   6.847   3.274
10259SOL     OW31675   0.205   3.880   3.807
10259SOL    HW131676   0.138   3.941   3.766
10259SOL    HW231677   0.280   3.865   3.743
10260SOL     OW31678   0.938   0.277   2.232
10260SOL    HW131679   0.903   0.370   2.220
10260SOL    HW231680   0.885   0.214   2.177
10261SOL     OW31681   1.105   5.796   1.928
10261SOL    HW131682   1.099   5.890   1.963
10261SOL    HW231683   1.155   5.796   1.841
10262SOL     OW31684   3.074   4.864   4.537
10262SOL    HW131685   3.004   4.878   4.607
10262SOL    HW231686   3.154   4.920   4.559
10263SOL     OW31687   5.191   1.944   5.540
10263SOL    HW131688   5.203   1.989   5.451
10263SOL    HW231689   5.130   1.865   5.529
10264SOL     OW31690   6.440   1.159   6.349
10264SOL    HW131691   6.380   1.082   6.329
10264SOL    HW231692   6.386   1.240   6.371
10265SOL     OW31693   3.654   1.501   2.941
10265SOL    HW131694   3.595   1.513   3.021
10265SOL    HW231695   3.711   1.420   2.954
10266SOL     OW31696   3.514   4.126   6.510
10266SOL    HW131697   3.420   4.155   6.530
10266SOL    HW231698   3.571   4.207   6.499
10267SOL     OW31699   0.192   2.243   6.483
10267SOL    HW131700   0.257   2.245   6.408
10267SOL    HW231701   0.108   2.197   6.454
10268SOL     OW31702   5.092   5.305   1.882
10268SOL    HW131703   5.095   5.287   1.980
10268SOL    HW231704   5.009   5.266   1.843
10269SOL     OW31705   2.235   2.404   6.364
10269SOL    HW131706   2.289   2.321   6.374
10269SOL    HW231707   2.152   2.397   6.419
10270SOL     OW31708   1.730   5.838   0.771
10270SOL    HW131709   1.708   5.743   0.796
10270SOL    HW231710   1.709   5.852   0.674
10271SOL     OW31711   3.970   3.625   1.699
10271SOL    HW131712   4.027   3.637   1.617
10271SOL    HW231713   3.984   3.534   1.736
10272SOL     OW31714   0.276   0.766   4.436
10272SOL    HW131715   0.284   0.865   4.442
10272SOL    HW231716   0.255   0.728   4.526
10273SOL     OW31717   3.768   5.473   4.571
10273SOL    HW131718   3.759   5.553   4.511
10273SOL    HW231719   3.844   5.416   4.539
10274SOL     OW31720   0.886   4.959   5.821
10274SOL    HW131721   0.802   4.905   5.827
10274SOL    HW231722   0.880   5.023   5.744
10275SOL     OW31723   0.912   6.642   3.048
10275SOL    HW131724   0.881   6.703   2.975
10275SOL    HW231725   0.834   6.593   3.086
10276SOL     OW31726   0.057   5.498   4.993
10276SOL    HW131727   0.047   5.562   4.917
10276SOL    HW231728   0.121   5.425   4.966
10277SOL     OW31729   2.641   6.656   4.499
10277SOL    HW131730   2.719   6.599   4.524
10277SOL    HW231731   2.624   6.649   4.401
10278SOL     OW31732   6.033   0.257   5.933
10278SOL    HW131733   6.069   0.173   5.973
10278SOL    HW231734   6.092   0.334   5.959
10279SOL     OW31735   2.870   0.183   4.400
10279SOL    HW131736   2.935   0.167   4.326
10279SOL    HW231737   2.794   0.240   4.366
10280SOL     OW31738   1.856   3.971   0.608
10280SOL    HW131739   1.779   3.934   0.659
10280SOL    HW231740   1.905   4.037   0.665
10281SOL     OW31741   4.593   1.235   3.096
10281SOL    HW131742   4.635   1.169   3.034
10281SOL    HW231743   4.652   1.248   3.176
10282SOL     OW31744   1.012   1.936   3.950
10282SOL    HW131745   1.014   1.960   3.852
10282SOL    HW231746   0.930   1.884   3.970
10283SOL     OW31747   1.486   3.574   1.081
10283SOL    HW131748   1.463   3.487   1.037
10283SOL    HW231749   1.520   3.557   1.173
10284SOL     OW31750   5.500   3.777   5.383
10284SOL    HW131751   5.587   3.780   5.334
10284SOL    HW231752   5.446   3.700   5.347
10285SOL     OW31753   4.880   1.004   0.794
10285SOL    HW131754   4.965   0.983   0.842
10285SOL    HW231755   4.871   0.945   0.714
10286SOL     OW31756   4.177   0.618   3.039
10286SOL    HW131757   4.248   0.683   3.014
10286SOL    HW231758   4.150   0.565   2.958
10287SOL     OW31759   1.972   6.930   1.564
10287SOL    HW131760   1.936   6.837   1.566
10287SOL    HW231761   2.029   6.946   1.644
10288SOL     OW31762   5.827   5.832   3.325
10288SOL    HW131763   5.833   5.887   3.241
10288SOL    HW231764   5.920   5.808   3.355
10289SOL     OW31765   3.073   1.520   1.428
10289SOL    HW131766   3.061   1.600   1.369
10289SOL    HW231767   2.991   1.462   1.424
10290SOL     OW31768   3.739   3.365   2.957
10290SOL    HW131769   3.731   3.415   2.871
10290SOL    HW231770   3.660   3.387   3.015
10291SOL     OW31771   3.536   0.754   4.763
10291SOL    HW131772   3.551   0.718   4.855
10291SOL    HW231773   3.517   0.852   4.768
10292SOL     OW31774   0.577   1.553   4.455
10292SOL    HW131775   0.503   1.487   4.441
10292SOL    HW231776   0.577   1.581   4.551
10293SOL     OW31777   2.418   6.138   3.312
10293SOL    HW131778   2.446   6.169   3.221
10293SOL    HW231779   2.446   6.043   3.325
10294SOL     OW31780   5.097   1.269   3.176
10294SOL    HW131781   5.053   1.298   3.261
10294SOL    HW231782   5.193   1.294   3.178
10295SOL     OW31783   0.200   5.170   5.660
10295SOL    HW131784   0.212   5.246   5.723
10295SOL    HW231785   0.253   5.187   5.577
10296SOL     OW31786   6.702   3.604   6.893
10296SOL    HW131787   6.654   3.648   6.818
10296SOL    HW231788   6.715   3.669   6.968
10297SOL     OW31789   1.003   5.286   4.567
10297SOL    HW131790   0.916   5.279   4.519
10297SOL    HW231791   0.994   5.352   4.643
10298SOL     OW31792   5.363   4.236   3.727
10298SOL    HW131793   5.268   4.256   3.703
10298SOL    HW231794   5.367   4.149   3.775
10299SOL     OW31795   4.458   4.578   3.401
10299SOL    HW131796   4.512   4.518   3.342
10299SOL    HW231797   4.364   4.581   3.369
10300SOL     OW31798   0.695   3.821   2.477
10300SOL    HW131799   0.742   3.904   2.448
10300SOL    HW231800   0.746   3.741   2.446
10301SOL     OW31801   5.944   1.311   2.929
10301SOL    HW131802   5.886   1.357   2.861
10301SOL    HW231803   5.963   1.218   2.898
10302SOL     OW31804   1.434   5.618   2.746
10302SOL    HW131805   1.389   5.583   2.828
10302SOL    HW231806   1.365   5.640   2.678
10303SOL     OW31807   4.273   3.499   1.167
10303SOL    HW131808   4.273   3.406   1.206
10303SOL    HW231809   4.299   3.564   1.238
10304SOL     OW31810   6.956   6.957   2.871
10304SOL    HW131811   6.858   6.949   2.889
10304SOL    HW231812   6.974   6.939   2.775
10305SOL     OW31813   1.580   5.944   6.829
10305SOL    HW131814   1.549   6.034   6.861
10305SOL    HW231815   1.550   5.874   6.893
10306SOL     OW31816   4.235   5.602   0.190
10306SOL    HW131817   4.324   5.571   0.156
10306SOL    HW231818   4.199   5.534   0.255
10307SOL     OW31819   1.811   1.190   6.596
10307SOL    HW131820   1.834   1.101   6.557
10307SOL    HW231821   1.895   1.233   6.632
10308SOL     OW31822   3.393   5.750   3.672
10308SOL    HW131823   3.334   5.705   3.605
10308SOL    HW231824   3.398   5.848   3.652
10309SOL     OW31825   6.990   6.578   2.826
10309SOL    HW131826   6.947   6.545   2.910
10309SOL    HW231827   0.041   6.642   2.850
10310SOL     OW31828   3.497   3.505   2.563
10310SOL    HW131829   3.413   3.550   2.596
10310SOL    HW231830   3.563   3.575   2.534
10311SOL     OW31831   0.672   5.141   0.211
10311SOL    HW131832   0.621   5.200   0.274
10311SOL    HW231833   0.754   5.106   0.256
10312SOL     OW31834   2.776   4.436   0.490
10312SOL    HW131835   2.822   4.375   0.555
10312SOL    HW231836   2.844   4.476   0.428
10313SOL     OW31837   4.586   0.542   2.311
10313SOL    HW131838   4.526   0.603   2.260
10313SOL    HW231839   4.546   0.451   2.314
10314SOL     OW31840   6.121   6.518   0.875
10314SOL    HW131841   6.048   6.451   0.864
10314SOL    HW231842   6.089   6.595   0.930
10315SOL     OW31843   6.268   6.085   4.571
10315SOL    HW131844   6.170   6.080   4.548
10315SOL    HW231845   6.320   6.109   4.490
10316SOL     OW31846   0.506   3.704   4.034
10316SOL    HW131847   0.422   3.679   3.985
10316SOL    HW231848   0.586   3.670   3.984
10317SOL     OW31849   4.237   5.697   6.682
10317SOL    HW131850   4.195   5.708   6.592
10317SOL    HW231851   4.337   5.689   6.672
10318SOL     OW31852   5.998   5.378   1.987
10318SOL    HW131853   6.047   5.458   2.022
10318SOL    HW231854   6.044   5.294   2.018
10319SOL     OW31855   6.724   5.823   3.596
10319SOL    HW131856   6.647   5.884   3.611
10319SOL    HW231857   6.706   5.735   3.639
10320SOL     OW31858   6.957   6.378   1.129
10320SOL    HW131859   6.914   6.393   1.218
10320SOL    HW231860   6.890   6.389   1.056
10321SOL     OW31861   4.556   5.492   4.353
10321SOL    HW131862   4.599   5.556   4.416
10321SOL    HW231863   4.520   5.414   4.404
10322SOL     OW31864   6.257   4.227   0.579
10322SOL    HW131865   6.211   4.240   0.667
10322SOL    HW231866   6.329   4.158   0.588
10323SOL     OW31867   5.297   3.236   5.897
10323SOL    HW131868   5.349   3.321   5.908
10323SOL    HW231869   5.266   3.205   5.987
10324SOL     OW31870   3.306   3.450   3.653
10324SOL    HW131871   3.346   3.359   3.648
10324SOL    HW231872   3.319   3.487   3.745
10325SOL     OW31873   0.743   2.704   2.878
10325SOL    HW131874   0.660   2.688   2.824
10325SOL    HW231875   0.732   2.787   2.932
10326SOL     OW31876   5.488   2.687   0.400
10326SOL    HW131877   5.445   2.703   0.311
10326SOL    HW231878   5.418   2.680   0.471
10327SOL     OW31879   0.498   0.466   2.823
10327SOL    HW131880   0.466   0.541   2.881
10327SOL    HW231881   0.564   0.411   2.872
10328SOL     OW31882   5.849   3.529   2.364
10328SOL    HW131883   5.890   3.566   2.447
10328SOL    HW231884   5.896   3.445   2.338
10329SOL     OW31885   2.838   6.844   2.947
10329SOL    HW131886   2.891   6.904   3.007
10329SOL    HW231887   2.748   6.827   2.988
10330SOL     OW31888   4.329   5.119   2.099
10330SOL    HW131889   4.268   5.181   2.148
10330SOL    HW231890   4.384   5.067   2.165
10331SOL     OW31891   5.343   1.026   3.748
10331SOL    HW131892   5.390   0.945   3.711
10331SOL    HW231893   5.376   1.108   3.700
10332SOL     OW31894   6.940   2.146   6.388
10332SOL    HW131895   6.983   2.072   6.336
10332SOL    HW231896   6.842   2.128   6.397
10333SOL     OW31897   5.933   5.536   4.185
10333SOL    HW131898   5.861   5.540   4.115
10333SOL    HW231899   5.891   5.536   4.276
10334SOL     OW31900   1.882   4.505   4.278
10334SOL    HW131901   1.828   4.443   4.334
10334SOL    HW231902   1.904   4.588   4.330
10335SOL     OW31903   1.716   5.358   1.266
10335SOL    HW131904   1.673   5.402   1.344
10335SOL    HW231905   1.755   5.270   1.294
10336SOL     OW31906   3.978   6.274   2.310
10336SOL    HW131907   4.028   6.202   2.261
10336SOL    HW231908   3.883   6.277   2.278
10337SOL     OW31909   0.869   5.022   4.987
10337SOL    HW131910   0.783   4.976   5.011
10337SOL    HW231911   0.882   5.019   4.888
10338SOL     OW31912   2.719   6.448   2.757
10338SOL    HW131913   2.773   6.500   2.823
10338SOL    HW231914   2.729   6.350   2.776
10339SOL     OW31915   2.468   6.365   1.524
10339SOL    HW131916   2.381   6.415   1.532
10339SOL    HW231917   2.509   6.385   1.435
10340SOL     OW31918   1.736   6.590   0.403
10340SOL    HW131919   1.740   6.544   0.492
10340SOL    HW231920   1.827   6.623   0.379
10341SOL     OW31921   2.001   1.660   2.354
10341SOL    HW131922   1.956   1.577   2.388
10341SOL    HW231923   2.083   1.678   2.409
10342SOL     OW31924   2.153   0.427   5.233
10342SOL    HW131925   2.057   0.401   5.235
10342SOL    HW231926   2.162   0.524   5.208
10343SOL     OW31927   2.911   3.687   6.165
10343SOL    HW131928   2.831   3.693   6.225
10343SOL    HW231929   2.884   3.708   6.071
10344SOL     OW31930   3.955   3.748   4.880
10344SOL    HW131931   4.046   3.752   4.920
10344SOL    HW231932   3.923   3.653   4.878
10345SOL     OW31933   2.537   1.694   6.641
10345SOL    HW131934   2.510   1.775   6.693
10345SOL    HW231935   2.558   1.719   6.547
10346SOL     OW31936   5.192   6.688   0.270
10346SOL    HW131937   5.177   6.774   0.319
10346SOL    HW231938   5.148   6.694   0.180
10347SOL     OW31939   5.708   1.566   1.647
10347SOL    HW131940   5.621   1.529   1.613
10347SOL    HW231941   5.691   1.649   1.700
10348SOL     OW31942   6.636   0.288   5.878
10348SOL    HW131943   6.576   0.357   5.918
10348SOL    HW231944   6.651   0.309   5.781
10349SOL     OW31945   6.899   1.690   1.395
10349SOL    HW131946   6.817   1.741   1.370
10349SOL    HW231947   6.922   1.627   1.321
10350SOL     OW31948   2.818   5.058   4.333
10350SOL    HW131949   2.724   5.048   4.365
10350SOL    HW231950   2.869   4.974   4.351
10351SOL     OW31951   5.701   5.011   5.268
10351SOL    HW131952   5.678   5.103   5.236
10351SOL    HW231953   5.786   5.015   5.320
10352SOL     OW31954   5.949   2.197   0.340
10352SOL    HW131955   6.047   2.217   0.350
10352SOL    HW231956   5.938   2.118   0.280
10353SOL     OW31957   0.083   2.321   3.411
10353SOL    HW131958   0.132   2.308   3.324
10353SOL    HW231959   7.012   2.289   3.401
10354SOL     OW31960   0.598   3.158   0.469
10354SOL    HW131961   0.503   3.143   0.442
10354SOL    HW231962   0.600   3.207   0.556
10355SOL     OW31963   1.144   0.259   0.929
10355SOL    HW131964   1.213   0.316   0.886
10355SOL    HW231965   1.114   0.301   1.015
10356SOL     OW31966   6.919   4.308   6.501
10356SOL    HW131967   7.012   4.340   6.517
10356SOL    HW231968   6.915   4.209   6.518
10357SOL     OW31969   1.099   2.945   6.012
10357SOL    HW131970   1.187   2.979   5.979
10357SOL    HW231971   1.102   2.937   6.112
10358SOL     OW31972   1.235   2.218   2.821
10358SOL    HW131973   1.235   2.244   2.725
10358SOL    HW231974   1.211   2.121   2.829
10359SOL     OW31975   6.079   1.844   2.079
10359SOL    HW131976   6.159   1.898   2.052
10359SOL    HW231977   6.095   1.804   2.169
10360SOL     OW31978   5.754   4.493   2.442
10360SOL    HW131979   5.723   4.409   2.398
10360SOL    HW231980   5.789   4.473   2.533
10361SOL     OW31981   0.641   1.865   1.068
10361SOL    HW131982   0.637   1.863   0.968
10361SOL    HW231983   0.550   1.843   1.105
10362SOL     OW31984   1.184   4.770   2.532
10362SOL    HW131985   1.195   4.698   2.600
10362SOL    HW231986   1.245   4.753   2.455
10363SOL     OW31987   5.172   4.178   0.891
10363SOL    HW131988   5.172   4.248   0.962
10363SOL    HW231989   5.093   4.118   0.904
10364SOL     OW31990   5.686   4.270   2.320
10364SOL    HW131991   5.747   4.191   2.320
10364SOL    HW231992   5.659   4.291   2.226
10365SOL     OW31993   6.098   5.943   0.206
10365SOL    HW131994   6.159   5.923   0.283
10365SOL    HW231995   6.034   6.015   0.231
10366SOL     OW31996   3.156   6.313   2.892
10366SOL    HW131997   3.068   6.267   2.875
10366SOL    HW231998   3.142   6.393   2.950
10367SOL     OW31999   6.635   2.193   0.687
10367SOL    HW132000   6.597   2.283   0.666
10367SOL    HW232001   6.619   2.131   0.610
10368SOL     OW32002   2.078   5.929   1.986
10368SOL    HW132003   1.999   5.873   2.012
10368SOL    HW232004   2.046   6.020   1.958
10369SOL     OW32005   3.273   6.907   6.146
10369SOL    HW132006   3.191   6.866   6.107
10369SOL    HW232007   3.290   6.868   6.237
10370SOL     OW32008   0.667   1.346   4.915
10370SOL    HW132009   0.661   1.386   4.824
10370SOL    HW232010   0.674   1.419   4.983
10371SOL     OW32011   3.161   5.733   3.469
10371SOL    HW132012   3.080   5.676   3.460
10371SOL    HW232013   3.174   5.786   3.385
10372SOL     OW32014   2.830   0.051   1.366
10372SOL    HW132015   2.743   0.049   1.318
10372SOL    HW232016   2.815   0.035   1.463
10373SOL     OW32017   0.108   1.810   5.303
10373SOL    HW132018   0.136   1.896   5.346
10373SOL    HW232019   0.153   1.734   5.351
10374SOL     OW32020   3.101   6.918   4.764
10374SOL    HW132021   3.080   6.820   4.770
10374SOL    HW232022   3.058   6.957   4.683
10375SOL     OW32023   3.528   3.525   0.302
10375SOL    HW132024   3.481   3.607   0.335
10375SOL    HW232025   3.461   3.459   0.269
10376SOL     OW32026   2.301   5.363   2.711
10376SOL    HW132027   2.379   5.316   2.669
10376SOL    HW232028   2.240   5.398   2.640
10377SOL     OW32029   1.069   1.125   2.533
10377SOL    HW132030   1.036   1.060   2.464
10377SOL    HW232031   0.996   1.143   2.599
10378SOL     OW32032   6.890   4.844   5.556
10378SOL    HW132033   6.963   4.777   5.541
10378SOL    HW232034   6.930   4.935   5.567
10379SOL     OW32035   2.344   6.695   4.520
10379SOL    HW132036   2.438   6.685   4.489
10379SOL    HW232037   2.298   6.606   4.517
10380SOL     OW32038   1.537   2.515   4.700
10380SOL    HW132039   1.539   2.452   4.778
10380SOL    HW232040   1.546   2.609   4.733
10381SOL     OW32041   4.225   4.476   1.604
10381SOL    HW132042   4.266   4.554   1.556
10381SOL    HW232043   4.266   4.466   1.694
10382SOL     OW32044   3.119   4.471   1.466
10382SOL    HW132045   3.179   4.551   1.465
10382SOL    HW232046   3.100   4.442   1.372
10383SOL     OW32047   2.085   4.548   0.542
10383SOL    HW132048   2.165   4.495   0.512
10383SOL    HW232049   2.109   4.645   0.543
10384SOL     OW32050   5.478   6.612   1.460
10384SOL    HW132051   5.428   6.673   1.521
10384SOL    HW232052   5.576   6.614   1.483
10385SOL     OW32053   3.617   4.732   6.180
10385SOL    HW132054   3.664   4.723   6.092
10385SOL    HW232055   3.581   4.643   6.208
10386SOL     OW32056   6.988   0.661   6.242
10386SOL    HW132057   6.915   0.598   6.214
10386SOL    HW232058   0.019   0.618   6.314
10387SOL     OW32059   4.855   3.068   2.929
10387SOL    HW132060   4.953   3.086   2.917
10387SOL    HW232061   4.819   3.024   2.847
10388SOL     OW32062   2.902   0.342   5.502
10388SOL    HW132063   2.835   0.273   5.476
10388SOL    HW232064   2.878   0.381   5.591
10389SOL     OW32065   0.479   3.407   0.281
10389SOL    HW132066   0.509   3.502   0.270
10389SOL    HW232067   0.440   3.395   0.373
10390SOL     OW32068   2.587   2.356   0.836
10390SOL    HW132069   2.634   2.272   0.806
10390SOL    HW232070   2.488   2.344   0.826
10391SOL     OW32071   0.598   6.832   3.747
10391SOL    HW132072   0.676   6.841   3.809
10391SOL    HW232073   0.614   6.886   3.665
10392SOL     OW32074   6.724   4.885   4.846
10392SOL    HW132075   6.660   4.959   4.867
10392SOL    HW232076   6.750   4.890   4.749
10393SOL     OW32077   1.986   3.998   4.096
10393SOL    HW132078   1.994   4.079   4.038
10393SOL    HW232079   1.890   3.984   4.122
10394SOL     OW32080   3.390   5.979   4.072
10394SOL    HW132081   3.413   5.977   4.169
10394SOL    HW232082   3.344   5.894   4.046
10395SOL     OW32083   6.425   6.505   1.171
10395SOL    HW132084   6.406   6.559   1.089
10395SOL    HW232085   6.521   6.515   1.196
10396SOL     OW32086   2.992   2.252   4.125
10396SOL    HW132087   3.082   2.232   4.162
10396SOL    HW232088   2.968   2.184   4.055
10397SOL     OW32089   3.236   2.143   2.457
10397SOL    HW132090   3.275   2.117   2.368
10397SOL    HW232091   3.159   2.206   2.442
10398SOL     OW32092   0.130   3.345   1.505
10398SOL    HW132093   0.094   3.356   1.413
10398SOL    HW232094   0.211   3.287   1.503
10399SOL     OW32095   6.366   2.683   2.541
10399SOL    HW132096   6.440   2.618   2.527
10399SOL    HW232097   6.362   2.709   2.638
10400SOL     OW32098   4.248   0.031   0.329
10400SOL    HW132099   4.318   0.084   0.281
10400SOL    HW232100   4.249   6.959   0.297
10401SOL     OW32101   6.901   0.597   3.983
10401SOL    HW132102   6.969   0.621   3.914
10401SOL    HW232103   6.831   0.668   3.987
10402SOL     OW32104   6.481   2.867   4.969
10402SOL    HW132105   6.392   2.878   4.925
10402SOL    HW232106   6.511   2.954   5.007
10403SOL     OW32107   3.164   0.652   3.231
10403SOL    HW132108   3.078   0.704   3.224
10403SOL    HW232109   3.234   0.697   3.175
10404SOL     OW32110   5.926   0.042   5.400
10404SOL    HW132111   5.982   0.045   5.317
10404SOL    HW232112   5.950   0.117   5.461
10405SOL     OW32113   1.178   1.897   5.821
10405SOL    HW132114   1.092   1.869   5.779
10405SOL    HW232115   1.244   1.919   5.749
10406SOL     OW32116   2.981   4.771   2.149
10406SOL    HW132117   2.907   4.807   2.207
10406SOL    HW232118   2.941   4.715   2.077
10407SOL     OW32119   3.349   5.965   5.473
10407SOL    HW132120   3.390   5.938   5.386
10407SOL    HW232121   3.308   5.885   5.517
10408SOL     OW32122   4.577   1.628   0.699
10408SOL    HW132123   4.614   1.622   0.607
10408SOL    HW232124   4.477   1.631   0.695
10409SOL     OW32125   0.239   4.696   0.883
10409SOL    HW132126   0.197   4.606   0.874
10409SOL    HW232127   0.197   4.745   0.959
10410SOL     OW32128   5.497   1.433   0.019
10410SOL    HW132129   5.584   1.407   6.999
10410SOL    HW232130   5.490   1.391   0.109
10411SOL     OW32131   3.354   6.129   2.895
10411SOL    HW132132   3.299   6.213   2.897
10411SOL    HW232133   3.446   6.149   2.928
10412SOL     OW32134   6.342   0.816   0.614
10412SOL    HW132135   6.301   0.725   0.603
10412SOL    HW232136   6.359   0.834   0.711
10413SOL     OW32137   6.688   1.946   1.207
10413SOL    HW132138   6.738   1.888   1.143
10413SOL    HW232139   6.752   1.992   1.268
10414SOL     OW32140   4.415   4.278   5.555
10414SOL    HW132141   4.409   4.369   5.597
10414SOL    HW232142   4.493   4.229   5.594
10415SOL     OW32143   0.345   4.724   5.753
10415SOL    HW132144   0.294   4.771   5.825
10415SOL    HW232145   0.356   4.785   5.674
10416SOL     OW32146   6.809   1.163   3.157
10416SOL    HW132147   6.846   1.143   3.067
10416SOL    HW232148   6.756   1.248   3.153
10417SOL     OW32149   3.957   5.347   4.437
10417SOL    HW132150   3.985   5.343   4.341
10417SOL    HW232151   4.038   5.353   4.495
10418SOL     OW32152   6.671   4.555   5.605
10418SOL    HW132153   6.631   4.504   5.529
10418SOL    HW232154   6.719   4.635   5.570
10419SOL     OW32155   1.269   0.347   6.887
10419SOL    HW132156   1.261   0.359   6.985
10419SOL    HW232157   1.180   0.323   6.849
10420SOL     OW32158   6.696   3.142   2.340
10420SOL    HW132159   6.650   3.073   2.396
10420SOL    HW232160   6.697   3.229   2.389
10421SOL     OW32161   0.613   1.743   3.311
10421SOL    HW132162   0.519   1.767   3.287
10421SOL    HW232163   0.674   1.818   3.285
10422SOL     OW32164   6.514   2.478   6.067
10422SOL    HW132165   6.425   2.515   6.094
10422SOL    HW232166   6.583   2.502   6.136
10423SOL     OW32167   4.815   5.124   4.840
10423SOL    HW132168   4.719   5.115   4.867
10423SOL    HW232169   4.819   5.167   4.750
10424SOL     OW32170   5.558   3.167   0.579
10424SOL    HW132171   5.490   3.143   0.648
10424SOL    HW232172   5.639   3.111   0.592
10425SOL     OW32173   2.310   6.610   2.006
10425SOL    HW132174   2.217   6.640   2.027
10425SOL    HW232175   2.307   6.532   1.944
10426SOL     OW32176   6.523   3.877   0.350
10426SOL    HW132177   6.441   3.932   0.364
10426SOL    HW232178   6.561   3.897   0.259
10427SOL     OW32179   4.112   1.425   0.205
10427SOL    HW132180   4.081   1.343   0.158
10427SOL    HW232181   4.102   1.504   0.144
10428SOL     OW32182   3.162   2.016   5.184
10428SOL    HW132183   3.140   2.063   5.098
10428SOL    HW232184   3.259   1.992   5.185
10429SOL     OW32185   0.093   5.365   1.215
10429SOL    HW132186   0.056   5.288   1.162
10429SOL    HW232187   0.056   5.451   1.180
10430SOL     OW32188   4.221   0.023   3.804
10430SOL    HW132189   4.264   6.974   3.859
10430SOL    HW232190   4.193   7.009   3.716
10431SOL     OW32191   3.148   6.831   5.253
10431SOL    HW132192   3.248   6.828   5.242
10431SOL    HW232193   3.125   6.883   5.335
10432SOL     OW32194   6.478   0.766   4.063
10432SOL    HW132195   6.381   0.758   4.040
10432SOL    HW232196   6.500   0.705   4.139
10433SOL     OW32197   1.521   5.972   1.460
10433SOL    HW132198   1.471   6.052   1.492
10433SOL    HW232199   1.496   5.952   1.365
10434SOL     OW32200   3.526   6.494   3.049
10434SOL    HW132201   3.436   6.474   3.087
10434SOL    HW232202   3.521   6.577   2.993
10435SOL     OW32203   6.756   0.520   4.966
10435SOL    HW132204   6.831   0.496   5.027
10435SOL    HW232205   6.772   0.479   4.876
10436SOL     OW32206   0.868   5.100   5.243
10436SOL    HW132207   0.858   5.075   5.147
10436SOL    HW232208   0.787   5.070   5.293
10437SOL     OW32209   6.366   4.987   5.064
10437SOL    HW132210   6.320   4.980   5.152
10437SOL    HW232211   6.300   5.018   4.995
10438SOL     OW32212   5.414   6.517   0.178
10438SOL    HW132213   5.500   6.541   0.221
10438SOL    HW232214   5.346   6.589   0.197
10439SOL     OW32215   3.702   1.460   6.111
10439SOL    HW132216   3.607   1.438   6.087
10439SOL    HW232217   3.760   1.447   6.030
10440SOL     OW32218   0.905   5.883   0.455
10440SOL    HW132219   0.843   5.855   0.381
10440SOL    HW232220   0.853   5.893   0.540
10441SOL     OW32221   5.116   1.960   6.998
10441SOL    HW132222   5.104   1.866   6.965
10441SOL    HW232223   5.078   1.969   0.067
10442SOL     OW32224   2.940   5.694   5.508
10442SOL    HW132225   2.998   5.659   5.434
10442SOL    HW232226   2.979   5.667   5.596
10443SOL     OW32227   5.194   3.500   4.509
10443SOL    HW132228   5.191   3.483   4.410
10443SOL    HW232229   5.282   3.471   4.545
10444SOL     OW32230   4.246   5.812   4.895
10444SOL    HW132231   4.188   5.791   4.973
10444SOL    HW232232   4.234   5.743   4.824
10445SOL     OW32233   0.710   5.078   4.355
10445SOL    HW132234   0.622   5.030   4.351
10445SOL    HW232235   0.782   5.013   4.379
10446SOL     OW32236   1.360   3.915   5.832
10446SOL    HW132237   1.307   3.934   5.750
10446SOL    HW232238   1.301   3.921   5.913
10447SOL     OW32239   0.227   1.510   1.832
10447SOL    HW132240   0.155   1.520   1.763
10447SOL    HW232241   0.186   1.478   1.918
10448SOL     OW32242   4.341   2.752   1.235
10448SOL    HW132243   4.242   2.746   1.225
10448SOL    HW232244   4.373   2.841   1.202
10449SOL     OW32245   2.655   5.426   4.643
10449SOL    HW132246   2.748   5.403   4.614
10449SOL    HW232247   2.590   5.387   4.578
10450SOL     OW32248   0.659   2.640   6.821
10450SOL    HW132249   0.578   2.637   6.879
10450SOL    HW232250   0.674   2.733   6.788
10451SOL     OW32251   2.582   5.179   2.690
10451SOL    HW132252   2.649   5.106   2.683
10451SOL    HW232253   2.574   5.226   2.602
10452SOL     OW32254   6.717   3.183   3.703
10452SOL    HW132255   6.709   3.094   3.659
10452SOL    HW232256   6.808   3.221   3.685
10453SOL     OW32257   5.746   5.946   1.898
10453SOL    HW132258   5.825   6.007   1.906
10453SOL    HW232259   5.674   5.975   1.961
10454SOL     OW32260   5.433   2.805   1.980
10454SOL    HW132261   5.424   2.867   2.057
10454SOL    HW232262   5.522   2.818   1.936
10455SOL     OW32263   0.549   5.051   3.370
10455SOL    HW132264   0.464   5.004   3.345
10455SOL    HW232265   0.627   4.995   3.342
10456SOL     OW32266   2.862   6.446   1.465
10456SOL    HW132267   2.833   6.405   1.551
10456SOL    HW232268   2.927   6.519   1.483
10457SOL     OW32269   3.733   3.016   4.149
10457SOL    HW132270   3.676   3.010   4.231
10457SOL    HW232271   3.691   2.965   4.075
10458SOL     OW32272   6.959   6.832   0.222
10458SOL    HW132273   6.917   6.891   0.291
10458SOL    HW232274   7.016   6.764   0.267
10459SOL     OW32275   5.420   5.491   2.649
10459SOL    HW132276   5.380   5.578   2.619
10459SOL    HW232277   5.476   5.453   2.575
10460SOL     OW32278   1.749   5.662   1.265
10460SOL    HW132279   1.676   5.627   1.324
10460SOL    HW232280   1.717   5.746   1.220
10461SOL     OW32281   1.279   6.193   5.476
10461SOL    HW132282   1.237   6.110   5.512
10461SOL    HW232283   1.218   6.236   5.410
10462SOL     OW32284   5.931   0.873   1.778
10462SOL    HW132285   5.874   0.951   1.753
10462SOL    HW232286   5.900   0.837   1.866
10463SOL     OW32287   3.347   4.027   5.679
10463SOL    HW132288   3.363   4.054   5.584
10463SOL    HW232289   3.267   4.076   5.715
10464SOL     OW32290   4.561   0.408   0.788
10464SOL    HW132291   4.661   0.407   0.787
10464SOL    HW232292   4.529   0.476   0.854
10465SOL     OW32293   6.958   0.102   6.388
10465SOL    HW132294   6.965   0.072   6.292
10465SOL    HW232295   6.889   0.174   6.395
10466SOL     OW32296   4.927   5.787   5.076
10466SOL    HW132297   4.910   5.688   5.076
10466SOL    HW232298   5.021   5.805   5.048
10467SOL     OW32299   2.022   1.592   5.201
10467SOL    HW132300   2.066   1.661   5.259
10467SOL    HW232301   1.931   1.572   5.237
10468SOL     OW32302   3.808   6.268   4.234
10468SOL    HW132303   3.766   6.310   4.314
10468SOL    HW232304   3.749   6.282   4.154
10469SOL     OW32305   2.592   3.816   1.334
10469SOL    HW132306   2.608   3.907   1.373
10469SOL    HW232307   2.614   3.817   1.237
10470SOL     OW32308   2.381   1.894   3.719
10470SOL    HW132309   2.343   1.819   3.665
10470SOL    HW232310   2.335   1.897   3.808
10471SOL     OW32311   2.057   3.693   1.451
10471SOL    HW132312   2.102   3.782   1.466
10471SOL    HW232313   2.126   3.621   1.456
10472SOL     OW32314   3.866   0.006   1.820
10472SOL    HW132315   3.816   0.040   1.740
10472SOL    HW232316   3.879   0.080   1.885
10473SOL     OW32317   5.389   6.795   0.961
10473SOL    HW132318   5.392   6.879   0.908
10473SOL    HW232319   5.349   6.814   1.052
10474SOL     OW32320   4.782   0.691   4.504
10474SOL    HW132321   4.862   0.648   4.546
10474SOL    HW232322   4.727   0.735   4.575
10475SOL     OW32323   4.252   5.719   1.297
10475SOL    HW132324   4.208   5.715   1.208
10475SOL    HW232325   4.297   5.808   1.308
10476SOL     OW32326   6.629   5.523   0.189
10476SOL    HW132327   6.555   5.456   0.177
10476SOL    HW232328   6.595   5.614   0.166
10477SOL     OW32329   5.605   3.390   5.210
10477SOL    HW132330   5.615   3.324   5.136
10477SOL    HW232331   5.636   3.349   5.296
10478SOL     OW32332   1.191   6.688   6.710
10478SOL    HW132333   1.108   6.713   6.662
10478SOL    HW232334   1.268   6.685   6.646
10479SOL     OW32335   1.578   2.561   2.134
10479SOL    HW132336   1.582   2.549   2.034
10479SOL    HW232337   1.654   2.619   2.163
10480SOL     OW32338   5.023   6.336   1.640
10480SOL    HW132339   5.106   6.377   1.602
10480SOL    HW232340   5.046   6.284   1.722
10481SOL     OW32341   2.267   1.007   4.829
10481SOL    HW132342   2.327   0.995   4.908
10481SOL    HW232343   2.186   1.058   4.856
10482SOL     OW32344   0.908   6.282   5.066
10482SOL    HW132345   0.838   6.275   4.995
10482SOL    HW232346   0.891   6.363   5.122
10483SOL     OW32347   6.280   5.708   0.724
10483SOL    HW132348   6.269   5.753   0.812
10483SOL    HW232349   6.374   5.718   0.693
10484SOL     OW32350   6.950   0.912   1.301
10484SOL    HW132351   6.993   0.999   1.323
10484SOL    HW232352   6.985   0.879   1.213
10485SOL     OW32353   3.115   3.987   2.837
10485SOL    HW132354   3.078   4.006   2.928
10485SOL    HW232355   3.070   3.905   2.800
10486SOL     OW32356   6.916   0.291   5.860
10486SOL    HW132357   6.958   0.292   5.950
10486SOL    HW232358   6.816   0.292   5.870
10487SOL     OW32359   4.985   1.525   1.694
10487SOL    HW132360   4.950   1.442   1.651
10487SOL    HW232361   4.911   1.571   1.743
10488SOL     OW32362   0.941   2.398   5.094
10488SOL    HW132363   0.889   2.371   5.175
10488SOL    HW232364   0.946   2.321   5.031
10489SOL     OW32365   6.282   5.549   3.922
10489SOL    HW132366   6.302   5.647   3.912
10489SOL    HW232367   6.367   5.500   3.941
10490SOL     OW32368   5.689   0.215   0.637
10490SOL    HW132369   5.705   0.234   0.734
10490SOL    HW232370   5.646   0.126   0.627
10491SOL     OW32371   1.631   3.308   6.580
10491SOL    HW132372   1.616   3.277   6.674
10491SOL    HW232373   1.555   3.367   6.552
10492SOL     OW32374   4.741   0.150   0.610
10492SOL    HW132375   4.726   0.126   0.706
10492SOL    HW232376   4.690   0.233   0.588
10493SOL     OW32377   4.055   5.325   1.293
10493SOL    HW132378   4.004   5.255   1.243
10493SOL    HW232379   4.083   5.398   1.231
10494SOL     OW32380   0.990   4.559   6.262
10494SOL    HW132381   0.947   4.588   6.177
10494SOL    HW232382   0.969   4.625   6.334
10495SOL     OW32383   6.776   6.278   6.609
10495SOL    HW132384   6.739   6.196   6.566
10495SOL    HW232385   6.765   6.356   6.548
10496SOL     OW32386   0.181   3.604   5.548
10496SOL    HW132387   0.247   3.541   5.589
10496SOL    HW232388   0.088   3.577   5.575
10497SOL     OW32389   2.683   0.047   1.915
10497SOL    HW132390   2.772   0.015   1.946
10497SOL    HW232391   2.612   0.013   1.976
10498SOL     OW32392   4.800   5.367   0.542
10498SOL    HW132393   4.848   5.445   0.503
10498SOL    HW232394   4.855   5.327   0.616
10499SOL     OW32395   6.093   5.724   1.818
10499SOL    HW132396   6.090   5.822   1.800
10499SOL    HW232397   6.011   5.697   1.869
10500SOL     OW32398   5.435   4.680   5.114
10500SOL    HW132399   5.410   4.585   5.101
10500SOL    HW232400   5.360   4.739   5.084
10501SOL     OW32401   2.116   5.622   2.145
10501SOL    HW132402   2.027   5.621   2.191
10501SOL    HW232403   2.172   5.695   2.183
10502SOL     OW32404   3.133   3.503   2.520
10502SOL    HW132405   3.072   3.562   2.467
10502SOL    HW232406   3.194   3.453   2.458
10503SOL     OW32407   6.728   3.822   6.275
10503SOL    HW132408   6.676   3.883   6.215
10503SOL    HW232409   6.821   3.812   6.240
10504SOL     OW32410   2.093   3.645   6.268
10504SOL    HW132411   2.159   3.672   6.339
10504SOL    HW232412   2.017   3.595   6.310
10505SOL     OW32413   5.844   6.529   2.132
10505SOL    HW132414   5.909   6.531   2.056
10505SOL    HW232415   5.855   6.611   2.187
10506SOL     OW32416   0.670   3.264   6.969
10506SOL    HW132417   0.727   3.242   6.890
10506SOL    HW232418   0.647   3.362   6.968
10507SOL     OW32419   2.380   4.735   0.253
10507SOL    HW132420   2.325   4.654   0.275
10507SOL    HW232421   2.449   4.748   0.325
10508SOL     OW32422   1.080   5.397   5.507
10508SOL    HW132423   1.035   5.388   5.418
10508SOL    HW232424   1.129   5.484   5.510
10509SOL     OW32425   4.856   3.520   4.272
10509SOL    HW132426   4.770   3.554   4.309
10509SOL    HW232427   4.928   3.588   4.288
10510SOL     OW32428   4.865   6.329   5.139
10510SOL    HW132429   4.937   6.374   5.087
10510SOL    HW232430   4.776   6.367   5.113
10511SOL     OW32431   2.808   1.292   1.829
10511SOL    HW132432   2.907   1.295   1.812
10511SOL    HW232433   2.791   1.295   1.927
10512SOL     OW32434   4.286   0.446   5.685
10512SOL    HW132435   4.319   0.360   5.724
10512SOL    HW232436   4.354   0.518   5.699
10513SOL     OW32437   5.398   2.943   2.262
10513SOL    HW132438   5.310   2.898   2.248
10513SOL    HW232439   5.391   3.008   2.338
10514SOL     OW32440   1.331   2.473   1.851
10514SOL    HW132441   1.260   2.405   1.833
10514SOL    HW232442   1.421   2.428   1.850
10515SOL     OW32443   1.928   3.094   4.801
10515SOL    HW132444   1.893   3.171   4.854
10515SOL    HW232445   1.856   3.027   4.789
10516SOL     OW32446   3.492   2.722   0.250
10516SOL    HW132447   3.487   2.811   0.206
10516SOL    HW232448   3.583   2.709   0.290
10517SOL     OW32449   1.381   2.840   3.409
10517SOL    HW132450   1.337   2.845   3.498
10517SOL    HW232451   1.472   2.880   3.414
10518SOL     OW32452   0.655   5.243   2.433
10518SOL    HW132453   0.599   5.242   2.350
10518SOL    HW232454   0.679   5.337   2.457
10519SOL     OW32455   2.198   6.021   1.469
10519SOL    HW132456   2.114   6.075   1.475
10519SOL    HW232457   2.176   5.926   1.447
10520SOL     OW32458   6.300   1.483   6.134
10520SOL    HW132459   6.252   1.410   6.182
10520SOL    HW232460   6.373   1.444   6.078
10521SOL     OW32461   5.943   3.307   1.889
10521SOL    HW132462   5.849   3.339   1.871
10521SOL    HW232463   5.988   3.371   1.951
10522SOL     OW32464   5.757   2.182   3.167
10522SOL    HW132465   5.734   2.279   3.163
10522SOL    HW232466   5.706   2.132   3.097
10523SOL     OW32467   0.724   4.248   3.635
10523SOL    HW132468   0.739   4.268   3.731
10523SOL    HW232469   0.812   4.247   3.587
10524SOL     OW32470   6.921   5.463   3.852
10524SOL    HW132471   6.918   5.440   3.949
10524SOL    HW232472   6.980   5.399   3.804
10525SOL     OW32473   4.139   1.177   4.235
10525SOL    HW132474   4.193   1.112   4.288
10525SOL    HW232475   4.157   1.270   4.267
10526SOL     OW32476   0.496   5.478   0.218
10526SOL    HW132477   0.595   5.493   0.217
10526SOL    HW232478   0.464   5.473   0.313
10527SOL     OW32479   0.759   1.598   5.183
10527SOL    HW132480   0.795   1.679   5.230
10527SOL    HW232481   0.833   1.552   5.134
10528SOL     OW32482   0.650   5.031   6.514
10528SOL    HW132483   0.600   4.994   6.592
10528SOL    HW232484   0.647   4.966   6.438
10529SOL     OW32485   1.982   6.579   6.107
10529SOL    HW132486   1.914   6.646   6.137
10529SOL    HW232487   2.000   6.514   6.180
10530SOL     OW32488   0.886   6.770   6.278
10530SOL    HW132489   0.881   6.690   6.218
10530SOL    HW232490   0.840   6.847   6.234
10531SOL     OW32491   2.936   2.581   5.320
10531SOL    HW132492   2.951   2.491   5.360
10531SOL    HW232493   3.024   2.621   5.294
10532SOL     OW32494   5.925   6.545   6.241
10532SOL    HW132495   5.896   6.468   6.299
10532SOL    HW232496   5.856   6.617   6.246
10533SOL     OW32497   3.686   5.720   3.943
10533SOL    HW132498   3.637   5.708   4.029
10533SOL    HW232499   3.756   5.649   3.935
10534SOL     OW32500   0.529   5.849   3.013
10534SOL    HW132501   0.550   5.898   2.928
10534SOL    HW232502   0.612   5.806   3.048
10535SOL     OW32503   2.742   1.355   2.477
10535SOL    HW132504   2.714   1.430   2.417
10535SOL    HW232505   2.800   1.291   2.426
10536SOL     OW32506   5.026   1.056   4.327
10536SOL    HW132507   5.054   1.125   4.261
10536SOL    HW232508   5.013   0.968   4.280
10537SOL     OW32509   4.766   6.909   2.890
10537SOL    HW132510   4.708   6.869   2.819
10537SOL    HW232511   4.737   6.877   2.980
10538SOL     OW32512   6.260   3.295   2.721
10538SOL    HW132513   6.176   3.331   2.681
10538SOL    HW232514   6.300   3.228   2.658
10539SOL     OW32515   6.022   6.166   2.723
10539SOL    HW132516   6.083   6.185   2.645
10539SOL    HW232517   5.969   6.084   2.705
10540SOL     OW32518   2.737   3.944   6.539
10540SOL    HW132519   2.789   3.866   6.575
10540SOL    HW232520   2.796   4.025   6.537
10541SOL     OW32521   3.043   3.254   4.997
10541SOL    HW132522   3.105   3.176   5.003
10541SOL    HW232523   3.024   3.289   5.089
10542SOL     OW32524   6.664   7.010   4.586
10542SOL    HW132525   6.683   6.912   4.576
10542SOL    HW232526   6.568   0.005   4.565
10543SOL     OW32527   6.915   2.763   5.888
10543SOL    HW132528   6.868   2.713   5.816
10543SOL    HW232529   6.857   2.838   5.920
10544SOL     OW32530   0.849   1.066   3.908
10544SOL    HW132531   0.820   1.096   4.000
10544SOL    HW232532   0.930   1.008   3.916
10545SOL     OW32533   1.749   2.192   2.957
10545SOL    HW132534   1.716   2.263   3.019
10545SOL    HW232535   1.828   2.147   2.997
10546SOL     OW32536   3.035   6.464   1.147
10546SOL    HW132537   2.951   6.439   1.195
10546SOL    HW232538   3.092   6.520   1.207
10547SOL     OW32539   4.383   0.012   4.923
10547SOL    HW132540   4.413   0.046   5.012
10547SOL    HW232541   4.325   6.954   4.936
10548SOL     OW32542   0.847   4.901   4.728
10548SOL    HW132543   0.752   4.879   4.749
10548SOL    HW232544   0.906   4.824   4.755
10549SOL     OW32545   0.330   1.423   0.566
10549SOL    HW132546   0.397   1.468   0.508
10549SOL    HW232547   0.350   1.325   0.570
10550SOL     OW32548   3.825   5.996   3.187
10550SOL    HW132549   3.785   6.077   3.142
10550SOL    HW232550   3.915   6.020   3.222
10551SOL     OW32551   3.058   2.046   5.859
10551SOL    HW132552   3.116   2.124   5.836
10551SOL    HW232553   3.111   1.961   5.851
10552SOL     OW32554   3.455   1.015   4.771
10552SOL    HW132555   3.397   0.980   4.843
10552SOL    HW232556   3.470   1.113   4.784
10553SOL     OW32557   0.394   5.255   0.810
10553SOL    HW132558   0.371   5.159   0.792
10553SOL    HW232559   0.439   5.262   0.898
10554SOL     OW32560   6.210   5.334   2.694
10554SOL    HW132561   6.178   5.335   2.789
10554SOL    HW232562   6.144   5.283   2.638
10555SOL     OW32563   3.453   2.202   0.622
10555SOL    HW132564   3.453   2.115   0.672
10555SOL    HW232565   3.503   2.270   0.675
10556SOL     OW32566   1.839   1.165   3.097
10556SOL    HW132567   1.887   1.127   3.019
10556SOL    HW232568   1.811   1.259   3.077
10557SOL     OW32569   2.167   3.789   4.060
10557SOL    HW132570   2.135   3.702   4.023
10557SOL    HW232571   2.089   3.847   4.082
10558SOL     OW32572   3.047   5.406   5.128
10558SOL    HW132573   2.990   5.476   5.171
10558SOL    HW232574   2.989   5.331   5.096
10559SOL     OW32575   3.534   0.362   0.028
10559SOL    HW132576   3.475   0.329   0.102
10559SOL    HW232577   3.570   0.284   6.999
10560SOL     OW32578   4.295   6.422   1.426
10560SOL    HW132579   4.252   6.332   1.435
10560SOL    HW232580   4.344   6.444   1.511
10561SOL     OW32581   5.485   4.244   1.351
10561SOL    HW132582   5.495   4.263   1.448
10561SOL    HW232583   5.536   4.161   1.328
10562SOL     OW32584   3.073   0.166   1.473
10562SOL    HW132585   3.037   0.143   1.383
10562SOL    HW232586   3.093   0.264   1.477
10563SOL     OW32587   0.576   7.020   0.629
10563SOL    HW132588   0.494   6.991   0.579
10563SOL    HW232589   0.647   6.950   0.620
10564SOL     OW32590   6.535   5.913   4.321
10564SOL    HW132591   6.567   5.986   4.382
10564SOL    HW232592   6.519   5.830   4.374
10565SOL     OW32593   6.572   6.757   5.369
10565SOL    HW132594   6.579   6.838   5.311
10565SOL    HW232595   6.657   6.705   5.364
10566SOL     OW32596   2.587   2.568   0.116
10566SOL    HW132597   2.617   2.661   0.137
10566SOL    HW232598   2.494   2.571   0.079
10567SOL     OW32599   1.719   2.577   6.047
10567SOL    HW132600   1.698   2.496   5.993
10567SOL    HW232601   1.816   2.575   6.073
10568SOL     OW32602   5.412   2.904   6.088
10568SOL    HW132603   5.335   2.941   6.140
10568SOL    HW232604   5.467   2.979   6.052
10569SOL     OW32605   5.226   0.264   2.131
10569SOL    HW132606   5.263   0.330   2.198
10569SOL    HW232607   5.137   0.232   2.163
10570SOL     OW32608   0.111   5.230   4.254
10570SOL    HW132609   0.071   5.310   4.298
10570SOL    HW232610   0.206   5.251   4.227
10571SOL     OW32611   6.709   4.739   6.268
10571SOL    HW132612   6.670   4.820   6.225
10571SOL    HW232613   6.675   4.657   6.222
10572SOL     OW32614   6.645   4.312   1.368
10572SOL    HW132615   6.609   4.392   1.415
10572SOL    HW232616   6.637   4.232   1.428
10573SOL     OW32617   5.707   0.295   3.520
10573SOL    HW132618   5.715   0.376   3.578
10573SOL    HW232619   5.722   0.213   3.576
10574SOL     OW32620   0.163   1.068   3.213
10574SOL    HW132621   0.193   1.111   3.127
10574SOL    HW232622   0.146   0.971   3.196
10575SOL     OW32623   6.144   0.959   2.602
10575SOL    HW132624   6.224   1.008   2.569
10575SOL    HW232625   6.173   0.874   2.646
10576SOL     OW32626   2.584   4.878   3.376
10576SOL    HW132627   2.528   4.847   3.299
10576SOL    HW232628   2.591   4.978   3.375
10577SOL     OW32629   4.037   5.893   0.636
10577SOL    HW132630   4.039   5.917   0.539
10577SOL    HW232631   3.961   5.940   0.680
10578SOL     OW32632   6.266   1.712   3.807
10578SOL    HW132633   6.187   1.664   3.770
10578SOL    HW232634   6.339   1.713   3.739
10579SOL     OW32635   2.738   3.136   1.040
10579SOL    HW132636   2.736   3.070   1.115
10579SOL    HW232637   2.774   3.092   0.957
10580SOL     OW32638   6.395   6.902   5.986
10580SOL    HW132639   6.335   6.824   6.006
10580SOL    HW232640   6.447   6.883   5.903
10581SOL     OW32641   5.756   6.994   3.405
10581SOL    HW132642   5.669   6.957   3.439
10581SOL    HW232643   5.738   0.050   3.346
10582SOL     OW32644   5.340   4.585   6.658
10582SOL    HW132645   5.408   4.557   6.725
10582SOL    HW232646   5.384   4.595   6.568
10583SOL     OW32647   2.771   6.786   3.612
10583SOL    HW132648   2.825   6.733   3.677
10583SOL    HW232649   2.775   6.883   3.636
10584SOL     OW32650   6.696   0.533   5.377
10584SOL    HW132651   6.784   0.563   5.341
10584SOL    HW232652   6.675   0.442   5.343
10585SOL     OW32653   0.665   1.826   5.987
10585SOL    HW132654   0.567   1.808   5.994
10585SOL    HW232655   0.716   1.754   6.032
10586SOL     OW32656   4.643   4.721   5.537
10586SOL    HW132657   4.681   4.810   5.562
10586SOL    HW232658   4.547   4.731   5.514
10587SOL     OW32659   0.945   5.746   5.537
10587SOL    HW132660   0.871   5.687   5.571
10587SOL    HW232661   1.030   5.721   5.583
10588SOL     OW32662   1.209   3.446   4.025
10588SOL    HW132663   1.172   3.360   4.061
10588SOL    HW232664   1.293   3.469   4.073
10589SOL     OW32665   5.155   6.375   4.228
10589SOL    HW132666   5.208   6.292   4.209
10589SOL    HW232667   5.076   6.351   4.285
10590SOL     OW32668   0.538   6.158   1.756
10590SOL    HW132669   0.522   6.065   1.790
10590SOL    HW232670   0.630   6.188   1.782
10591SOL     OW32671   1.129   1.375   1.475
10591SOL    HW132672   1.066   1.428   1.531
10591SOL    HW232673   1.198   1.332   1.534
10592SOL     OW32674   5.884   2.240   4.898
10592SOL    HW132675   5.950   2.314   4.905
10592SOL    HW232676   5.801   2.274   4.853
10593SOL     OW32677   2.491   6.556   0.894
10593SOL    HW132678   2.455   6.464   0.911
10593SOL    HW232679   2.587   6.560   0.924
10594SOL     OW32680   4.026   0.796   3.199
10594SOL    HW132681   4.080   0.731   3.145
10594SOL    HW232682   3.929   0.773   3.192
10595SOL     OW32683   5.961   0.834   0.953
10595SOL    HW132684   5.906   0.873   0.880
10595SOL    HW232685   6.015   0.906   0.997
10596SOL     OW32686   4.783   1.655   6.682
10596SOL    HW132687   4.807   1.564   6.715
10596SOL    HW232688   4.788   1.657   6.582
10597SOL     OW32689   2.265   0.377   6.032
10597SOL    HW132690   2.345   0.422   5.991
10597SOL    HW232691   2.282   0.363   6.130
10598SOL     OW32692   2.848   1.881   5.973
10598SOL    HW132693   2.756   1.906   6.002
10598SOL    HW232694   2.901   1.963   5.952
10599SOL     OW32695   6.651   4.207   5.858
10599SOL    HW132696   6.602   4.238   5.777
10599SOL    HW232697   6.748   4.199   5.837
10600SOL     OW32698   2.674   1.800   2.031
10600SOL    HW132699   2.612   1.729   1.997
10600SOL    HW232700   2.705   1.856   1.954
10601SOL     OW32701   0.361   6.811   6.786
10601SOL    HW132702   0.298   6.743   6.750
10601SOL    HW232703   0.444   6.813   6.730
10602SOL     OW32704   0.086   0.170   6.946
10602SOL    HW132705   0.033   0.099   6.994
10602SOL    HW232706   0.032   0.253   6.938
10603SOL     OW32707   3.950   6.574   1.911
10603SOL    HW132708   3.928   6.635   1.987
10603SOL    HW232709   4.045   6.589   1.882
10604SOL     OW32710   0.066   6.719   4.971
10604SOL    HW132711   0.083   6.640   5.029
10604SOL    HW232712   0.153   6.765   4.952
10605SOL     OW32713   2.467   0.725   0.785
10605SOL    HW132714   2.414   0.754   0.705
10605SOL    HW232715   2.510   0.637   0.766
10606SOL     OW32716   6.109   0.894   1.434
10606SOL    HW132717   6.086   0.821   1.498
10606SOL    HW232718   6.146   0.973   1.484
10607SOL     OW32719   4.258   4.800   6.432
10607SOL    HW132720   4.336   4.800   6.370
10607SOL    HW232721   4.203   4.718   6.415
10608SOL     OW32722   6.380   2.851   3.176
10608SOL    HW132723   6.469   2.898   3.181
10608SOL    HW232724   6.334   2.878   3.091
10609SOL     OW32725   3.445   0.611   0.088
10609SOL    HW132726   3.462   0.528   0.035
10609SOL    HW232727   3.519   0.677   0.071
10610SOL     OW32728   0.241   1.462   4.747
10610SOL    HW132729   0.252   1.548   4.697
10610SOL    HW232730   0.195   1.396   4.688
10611SOL     OW32731   2.842   5.586   5.153
10611SOL    HW132732   2.786   5.661   5.190
10611SOL    HW232733   2.788   5.533   5.088
10612SOL     OW32734   5.411   1.312   3.678
10612SOL    HW132735   5.359   1.348   3.601
10612SOL    HW232736   5.418   1.383   3.748
10613SOL     OW32737   6.669   6.113   4.457
10613SOL    HW132738   6.669   6.186   4.526
10613SOL    HW232739   6.684   6.153   4.367
10614SOL     OW32740   5.323   0.445   6.235
10614SOL    HW132741   5.318   0.414   6.141
10614SOL    HW232742   5.419   0.460   6.261
10615SOL     OW32743   2.618   2.324   6.185
10615SOL    HW132744   2.589   2.405   6.133
10615SOL    HW232745   2.555   2.308   6.261
10616SOL     OW32746   3.189   5.919   6.508
10616SOL    HW132747   3.246   5.882   6.581
10616SOL    HW232748   3.163   6.013   6.531
10617SOL     OW32749   2.823   3.382   1.744
10617SOL    HW132750   2.898   3.377   1.678
10617SOL    HW232751   2.859   3.408   1.834
10618SOL     OW32752   0.465   5.372   5.225
10618SOL    HW132753   0.560   5.390   5.249
10618SOL    HW232754   0.456   5.280   5.188
10619SOL     OW32755   0.694   1.761   2.953
10619SOL    HW132756   0.686   1.687   2.886
10619SOL    HW232757   0.603   1.786   2.986
10620SOL     OW32758   2.390   6.958   5.776
10620SOL    HW132759   2.431   6.989   5.690
10620SOL    HW232760   2.400   0.008   5.845
10621SOL     OW32761   1.063   3.881   3.013
10621SOL    HW132762   1.096   3.913   2.924
10621SOL    HW232763   1.098   3.790   3.031
10622SOL     OW32764   4.578   3.066   0.880
10622SOL    HW132765   4.673   3.046   0.905
10622SOL    HW232766   4.549   3.151   0.925
10623SOL     OW32767   6.113   6.070   5.718
10623SOL    HW132768   6.106   6.017   5.634
10623SOL    HW232769   6.094   6.012   5.797
10624SOL     OW32770   0.878   2.657   5.062
10624SOL    HW132771   0.914   2.565   5.042
10624SOL    HW232772   0.949   2.725   5.042
10625SOL     OW32773   6.932   4.004   0.054
10625SOL    HW132774   7.019   4.033   0.095
10625SOL    HW232775   6.906   3.914   0.091
10626SOL     OW32776   3.853   3.052   1.895
10626SOL    HW132777   3.933   3.068   1.837
10626SOL    HW232778   3.814   2.962   1.873
10627SOL     OW32779   5.620   6.787   5.987
10627SOL    HW132780   5.575   6.797   6.075
10627SOL    HW232781   5.630   6.690   5.965
10628SOL     OW32782   4.238   0.559   0.189
10628SOL    HW132783   4.172   0.492   0.156
10628SOL    HW232784   4.256   0.542   0.286
10629SOL     OW32785   3.660   5.450   5.304
10629SOL    HW132786   3.735   5.392   5.336
10629SOL    HW232787   3.573   5.402   5.312
10630SOL     OW32788   4.609   0.516   2.689
10630SOL    HW132789   4.688   0.503   2.628
10630SOL    HW232790   4.639   0.557   2.775
10631SOL     OW32791   4.894   5.690   6.796
10631SOL    HW132792   4.990   5.672   6.775
10631SOL    HW232793   4.869   5.780   6.760
10632SOL     OW32794   5.021   6.063   3.043
10632SOL    HW132795   5.120   6.051   3.040
10632SOL    HW232796   4.994   6.092   3.134
10633SOL     OW32797   2.164   2.897   2.169
10633SOL    HW132798   2.123   2.988   2.180
10633SOL    HW232799   2.205   2.869   2.255
10634SOL     OW32800   1.395   5.156   6.699
10634SOL    HW132801   1.473   5.201   6.743
10634SOL    HW232802   1.429   5.086   6.636
10635SOL     OW32803   2.327   3.280   0.525
10635SOL    HW132804   2.244   3.270   0.469
10635SOL    HW232805   2.384   3.353   0.487
10636SOL     OW32806   6.574   2.630   6.976
10636SOL    HW132807   6.670   2.655   6.990
10636SOL    HW232808   6.515   2.689   0.008
10637SOL     OW32809   2.692   6.509   6.370
10637SOL    HW132810   2.761   6.483   6.302
10637SOL    HW232811   2.713   6.464   6.457
10638SOL     OW32812   6.679   5.678   2.030
10638SOL    HW132813   6.747   5.739   2.071
10638SOL    HW232814   6.630   5.727   1.957
10639SOL     OW32815   2.308   3.610   1.706
10639SOL    HW132816   2.307   3.531   1.768
10639SOL    HW232817   2.400   3.622   1.669
10640SOL     OW32818   3.693   0.245   3.522
10640SOL    HW132819   3.785   0.274   3.549
10640SOL    HW232820   3.692   0.222   3.425
10641SOL     OW32821   1.353   0.440   3.336
10641SOL    HW132822   1.411   0.385   3.396
10641SOL    HW232823   1.354   0.535   3.367
10642SOL     OW32824   6.537   2.367   0.042
10642SOL    HW132825   6.457   2.329   7.019
10642SOL    HW232826   6.552   2.461   0.011
10643SOL     OW32827   2.033   5.454   5.188
10643SOL    HW132828   2.095   5.531   5.200
10643SOL    HW232829   1.938   5.487   5.186
10644SOL     OW32830   6.439   2.629   1.936
10644SOL    HW132831   6.425   2.628   2.035
10644SOL    HW232832   6.403   2.545   1.896
10645SOL     OW32833   1.988   2.985   3.304
10645SOL    HW132834   1.991   2.921   3.381
10645SOL    HW232835   1.986   3.079   3.340
10646SOL     OW32836   5.298   1.357   4.572
10646SOL    HW132837   5.212   1.353   4.622
10646SOL    HW232838   5.289   1.306   4.486
10647SOL     OW32839   4.247   5.373   5.430
10647SOL    HW132840   4.228   5.288   5.382
10647SOL    HW232841   4.160   5.415   5.458
10648SOL     OW32842   6.316   5.273   5.928
10648SOL    HW132843   6.414   5.285   5.944
10648SOL    HW232844   6.271   5.254   6.015
10649SOL     OW32845   0.379   3.244   3.854
10649SOL    HW132846   0.284   3.274   3.850
10649SOL    HW232847   0.393   3.166   3.792
10650SOL     OW32848   0.016   0.092   4.073
10650SOL    HW132849   0.025   0.094   4.172
10650SOL    HW232850   6.942   0.082   4.049
10651SOL     OW32851   5.497   6.614   6.245
10651SOL    HW132852   5.399   6.617   6.266
10651SOL    HW232853   5.509   6.592   6.148
10652SOL     OW32854   1.485   6.375   5.919
10652SOL    HW132855   1.511   6.279   5.932
10652SOL    HW232856   1.410   6.397   5.982
10653SOL     OW32857   3.727   6.131   4.756
10653SOL    HW132858   3.752   6.035   4.767
10653SOL    HW232859   3.762   6.165   4.668
10654SOL     OW32860   5.490   1.503   4.224
10654SOL    HW132861   5.510   1.405   4.219
10654SOL    HW232862   5.444   1.523   4.311
10655SOL     OW32863   1.757   4.639   1.454
10655SOL    HW132864   1.660   4.653   1.436
10655SOL    HW232865   1.768   4.588   1.539
10656SOL     OW32866   6.314   1.077   2.055
10656SOL    HW132867   6.241   1.089   1.988
10656SOL    HW232868   6.293   0.998   2.113
10657SOL     OW32869   5.828   0.881   4.420
10657SOL    HW132870   5.896   0.843   4.357
10657SOL    HW232871   5.747   0.822   4.420
10658SOL     OW32872   5.540   3.814   5.073
10658SOL    HW132873   5.456   3.771   5.038
10658SOL    HW232874   5.604   3.744   5.104
10659SOL     OW32875   0.823   4.917   0.940
10659SOL    HW132876   0.831   4.965   1.027
10659SOL    HW232877   0.902   4.939   0.883
10660SOL     OW32878   6.209   3.647   5.695
10660SOL    HW132879   6.166   3.588   5.626
10660SOL    HW232880   6.298   3.679   5.662
10661SOL     OW32881   1.546   4.688   0.319
10661SOL    HW132882   1.466   4.748   0.330
10661SOL    HW232883   1.595   4.681   0.406
10662SOL     OW32884   2.950   1.225   2.325
10662SOL    HW132885   3.011   1.153   2.355
10662SOL    HW232886   2.988   1.314   2.350
10663SOL     OW32887   1.113   1.376   3.648
10663SOL    HW132888   1.179   1.365   3.722
10663SOL    HW232889   1.086   1.473   3.641
10664SOL     OW32890   0.507   5.340   4.705
10664SOL    HW132891   0.540   5.356   4.798
10664SOL    HW232892   0.586   5.329   4.644
10665SOL     OW32893   2.286   3.081   6.760
10665SOL    HW132894   2.368   3.090   6.817
10665SOL    HW232895   2.248   3.172   6.742
10666SOL     OW32896   4.142   3.335   2.419
10666SOL    HW132897   4.139   3.269   2.344
10666SOL    HW232898   4.163   3.426   2.382
10667SOL     OW32899   4.937   1.482   3.353
10667SOL    HW132900   5.002   1.490   3.429
10667SOL    HW232901   4.949   1.558   3.290
10668SOL     OW32902   3.447   2.007   5.423
10668SOL    HW132903   3.402   2.095   5.433
10668SOL    HW232904   3.464   1.988   5.327
10669SOL     OW32905   5.827   0.942   0.743
10669SOL    HW132906   5.799   0.872   0.678
10669SOL    HW232907   5.749   0.970   0.799
10670SOL     OW32908   5.379   4.033   4.464
10670SOL    HW132909   5.440   4.024   4.543
10670SOL    HW232910   5.295   4.078   4.493
10671SOL     OW32911   0.846   1.582   4.439
10671SOL    HW132912   0.890   1.596   4.350
10671SOL    HW232913   0.753   1.548   4.425
10672SOL     OW32914   6.335   4.227   1.626
10672SOL    HW132915   6.331   4.230   1.726
10672SOL    HW232916   6.307   4.315   1.588
10673SOL     OW32917   1.904   0.013   0.774
10673SOL    HW132918   1.993   0.057   0.762
10673SOL    HW232919   1.905   6.982   0.859
10674SOL     OW32920   4.091   3.267   4.296
10674SOL    HW132921   4.166   3.324   4.263
10674SOL    HW232922   4.004   3.314   4.283
10675SOL     OW32923   3.306   1.151   6.422
10675SOL    HW132924   3.315   1.085   6.497
10675SOL    HW232925   3.389   1.205   6.414
10676SOL     OW32926   0.446   5.591   5.059
10676SOL    HW132927   0.393   5.670   5.090
10676SOL    HW232928   0.411   5.508   5.101
10677SOL     OW32929   1.426   1.187   1.041
10677SOL    HW132930   1.360   1.258   1.068
10677SOL    HW232931   1.470   1.213   0.956
10678SOL     OW32932   4.229   4.716   3.828
10678SOL    HW132933   4.207   4.693   3.923
10678SOL    HW232934   4.147   4.709   3.772
10679SOL     OW32935   3.958   4.834   6.982
10679SOL    HW132936   3.961   4.767   0.034
10679SOL    HW232937   4.027   4.809   6.914
10680SOL     OW32938   3.522   1.543   4.097
10680SOL    HW132939   3.567   1.454   4.082
10680SOL    HW232940   3.425   1.529   4.117
10681SOL     OW32941   0.076   3.365   0.055
10681SOL    HW132942   0.004   3.408   0.001
10681SOL    HW232943   0.104   3.279   0.011
10682SOL     OW32944   6.927   3.212   4.948
10682SOL    HW132945   6.904   3.137   4.887
10682SOL    HW232946   6.854   3.224   5.016
10683SOL     OW32947   4.286   0.812   3.460
10683SOL    HW132948   4.211   0.789   3.522
10683SOL    HW232949   4.281   0.909   3.437
10684SOL     OW32950   4.373   5.127   1.454
10684SOL    HW132951   4.404   5.216   1.487
10684SOL    HW232952   4.312   5.139   1.375
10685SOL     OW32953   0.046   5.716   0.947
10685SOL    HW132954   0.094   5.788   0.996
10685SOL    HW232955   0.112   5.647   0.916
10686SOL     OW32956   2.529   4.152   6.362
10686SOL    HW132957   2.547   4.054   6.349
10686SOL    HW232958   2.433   4.171   6.340
10687SOL     OW32959   6.124   4.816   3.356
10687SOL    HW132960   6.100   4.912   3.371
10687SOL    HW232961   6.222   4.808   3.342
10688SOL     OW32962   5.717   1.624   2.573
10688SOL    HW132963   5.687   1.681   2.496
10688SOL    HW232964   5.775   1.678   2.634
10689SOL     OW32965   0.085   6.881   1.204
10689SOL    HW132966   0.015   6.818   1.170
10689SOL    HW232967   0.108   6.856   1.298
10690SOL     OW32968   0.224   5.090   3.502
10690SOL    HW132969   0.140   5.127   3.463
10690SOL    HW232970   0.241   4.999   3.463
10691SOL     OW32971   1.854   1.458   1.699
10691SOL    HW132972   1.827   1.536   1.756
10691SOL    HW232973   1.941   1.421   1.732
10692SOL     OW32974   2.933   0.704   4.362
10692SOL    HW132975   2.999   0.629   4.353
10692SOL    HW232976   2.848   0.668   4.401
10693SOL     OW32977   0.867   6.291   1.371
10693SOL    HW132978   0.850   6.202   1.415
10693SOL    HW232979   0.781   6.341   1.363
10694SOL     OW32980   5.098   6.842   6.618
10694SOL    HW132981   5.131   6.933   6.595
10694SOL    HW232982   5.010   6.849   6.665
10695SOL     OW32983   1.241   2.576   1.395
10695SOL    HW132984   1.199   2.649   1.341
10695SOL    HW232985   1.297   2.518   1.336
10696SOL     OW32986   6.532   3.669   4.853
10696SOL    HW132987   6.526   3.768   4.840
10696SOL    HW232988   6.446   3.627   4.824
10697SOL     OW32989   6.946   6.844   5.724
10697SOL    HW132990   6.909   6.894   5.646
10697SOL    HW232991   6.890   6.763   5.742
10698SOL     OW32992   4.733   4.186   0.099
10698SOL    HW132993   4.733   4.286   0.099
10698SOL    HW232994   4.826   4.153   0.084
10699SOL     OW32995   3.753   4.453   1.000
10699SOL    HW132996   3.830   4.470   1.062
10699SOL    HW232997   3.675   4.509   1.027
10700SOL     OW32998   5.414   0.019   0.809
10700SOL    HW132999   5.327   0.039   0.764
10700SOL    HW233000   5.483   7.021   0.739
10701SOL     OW33001   3.270   0.401   6.017
10701SOL    HW133002   3.183   0.424   5.973
10701SOL    HW233003   3.273   0.302   6.035
10702SOL     OW33004   4.908   3.646   2.647
10702SOL    HW133005   4.894   3.558   2.691
10702SOL    HW233006   4.922   3.633   2.549
10703SOL     OW33007   2.008   2.905   5.404
10703SOL    HW133008   2.102   2.930   5.378
10703SOL    HW233009   1.999   2.806   5.403
10704SOL     OW33010   6.762   4.828   3.072
10704SOL    HW133011   6.832   4.758   3.086
10704SOL    HW233012   6.803   4.908   3.027
10705SOL     OW33013   5.765   5.390   1.612
10705SOL    HW133014   5.774   5.359   1.707
10705SOL    HW233015   5.822   5.333   1.553
10706SOL     OW33016   3.788   0.195   1.604
10706SOL    HW133017   3.810   0.285   1.567
10706SOL    HW233018   3.827   0.124   1.546
10707SOL     OW33019   0.660   6.899   4.189
10707SOL    HW133020   0.569   6.857   4.189
10707SOL    HW233021   0.715   6.860   4.263
10708SOL     OW33022   4.436   1.105   1.564
10708SOL    HW133023   4.372   1.103   1.640
10708SOL    HW233024   4.385   1.110   1.478
10709SOL     OW33025   5.566   4.706   4.871
10709SOL    HW133026   5.504   4.702   4.949
10709SOL    HW233027   5.640   4.770   4.891
10710SOL     OW33028   6.107   1.141   3.858
10710SOL    HW133029   6.122   1.231   3.899
10710SOL    HW233030   6.047   1.087   3.917
10711SOL     OW33031   2.348   6.400   4.101
10711SOL    HW133032   2.351   6.308   4.062
10711SOL    HW233033   2.430   6.415   4.157
10712SOL     OW33034   3.220   0.006   2.777
10712SOL    HW133035   3.225   0.097   2.737
10712SOL    HW233036   3.164   0.009   2.860
10713SOL     OW33037   0.883   2.628   0.748
10713SOL    HW133038   0.833   2.544   0.728
10713SOL    HW233039   0.833   2.707   0.712
10714SOL     OW33040   4.381   3.223   5.469
10714SOL    HW133041   4.477   3.203   5.450
10714SOL    HW233042   4.360   3.316   5.440
10715SOL     OW33043   4.206   0.161   2.111
10715SOL    HW133044   4.275   0.090   2.093
10715SOL    HW233045   4.250   0.240   2.153
10716SOL     OW33046   6.024   2.856   3.263
10716SOL    HW133047   5.957   2.905   3.320
10716SOL    HW233048   6.029   2.761   3.293
10717SOL     OW33049   2.036   2.892   0.910
10717SOL    HW133050   1.938   2.888   0.925
10717SOL    HW233051   2.059   2.838   0.829
10718SOL     OW33052   1.196   3.652   0.268
10718SOL    HW133053   1.221   3.698   0.184
10718SOL    HW233054   1.279   3.631   0.321
10719SOL     OW33055   6.804   5.666   3.344
10719SOL    HW133056   6.845   5.684   3.434
10719SOL    HW233057   6.862   5.604   3.293
10720SOL     OW33058   6.198   5.116   4.886
10720SOL    HW133059   6.126   5.080   4.826
10720SOL    HW233060   6.181   5.213   4.904
10721SOL     OW33061   5.262   3.787   5.224
10721SOL    HW133062   5.330   3.821   5.289
10721SOL    HW233063   5.251   3.688   5.236
10722SOL     OW33064   0.536   4.984   0.987
10722SOL    HW133065   0.499   4.978   0.895
10722SOL    HW233066   0.629   4.946   0.988
10723SOL     OW33067   0.178   2.244   6.064
10723SOL    HW133068   0.228   2.191   5.995
10723SOL    HW233069   0.237   2.263   6.142
10724SOL     OW33070   5.984   6.848   6.010
10724SOL    HW133071   5.890   6.814   6.020
10724SOL    HW233072   6.006   6.856   5.913
10725SOL     OW33073   1.929   6.009   5.177
10725SOL    HW133074   1.888   5.965   5.257
10725SOL    HW233075   1.857   6.048   5.120
10726SOL     OW33076   5.906   1.014   3.989
10726SOL    HW133077   5.810   0.985   3.985
10726SOL    HW233078   5.956   0.953   4.052
10727SOL     OW33079   0.674   5.196   5.767
10727SOL    HW133080   0.767   5.217   5.736
10727SOL    HW233081   0.639   5.272   5.821
10728SOL     OW33082   1.594   4.703   6.489
10728SOL    HW133083   1.537   4.708   6.407
10728SOL    HW233084   1.681   4.659   6.467
10729SOL     OW33085   5.793   1.273   3.156
10729SOL    HW133086   5.850   1.292   3.076
10729SOL    HW233087   5.842   1.297   3.239
10730SOL     OW33088   2.260   0.705   1.212
10730SOL    HW133089   2.353   0.680   1.237
10730SOL    HW233090   2.198   0.678   1.286
10731SOL     OW33091   3.213   1.493   0.804
10731SOL    HW133092   3.194   1.590   0.788
10731SOL    HW233093   3.237   1.480   0.901
10732SOL     OW33094   0.528   4.697   5.396
10732SOL    HW133095   0.478   4.748   5.466
10732SOL    HW233096   0.479   4.701   5.310
10733SOL     OW33097   6.849   1.785   6.479
10733SOL    HW133098   6.826   1.812   6.386
10733SOL    HW233099   6.916   1.849   6.517
10734SOL     OW33100   0.951   0.859   0.177
10734SOL    HW133101   0.954   0.769   0.133
10734SOL    HW233102   0.892   0.854   0.258
10735SOL     OW33103   0.174   2.909   2.053
10735SOL    HW133104   0.219   2.996   2.071
10735SOL    HW233105   0.240   2.843   2.016
10736SOL     OW33106   1.145   0.432   3.784
10736SOL    HW133107   1.078   0.394   3.721
10736SOL    HW233108   1.201   0.357   3.822
10737SOL     OW33109   0.929   1.454   0.318
10737SOL    HW133110   1.027   1.442   0.300
10737SOL    HW233111   0.914   1.546   0.355
10738SOL     OW33112   2.315   6.662   2.911
10738SOL    HW133113   2.320   6.618   3.000
10738SOL    HW233114   2.389   6.729   2.903
10739SOL     OW33115   1.769   1.141   1.160
10739SOL    HW133116   1.773   1.061   1.101
10739SOL    HW233117   1.701   1.126   1.232
10740SOL     OW33118   0.460   5.084   5.119
10740SOL    HW133119   0.528   5.012   5.110
10740SOL    HW233120   0.368   5.044   5.109
10741SOL     OW33121   4.283   0.958   1.295
10741SOL    HW133122   4.339   1.004   1.226
10741SOL    HW233123   4.312   0.863   1.305
10742SOL     OW33124   5.127   6.833   1.411
10742SOL    HW133125   5.220   6.814   1.379
10742SOL    HW233126   5.124   6.922   1.457
10743SOL     OW33127   1.640   2.284   5.393
10743SOL    HW133128   1.639   2.209   5.459
10743SOL    HW233129   1.682   2.365   5.434
10744SOL     OW33130   2.916   1.400   1.017
10744SOL    HW133131   2.997   1.417   1.073
10744SOL    HW233132   2.897   1.481   0.961
10745SOL     OW33133   6.615   5.664   5.956
10745SOL    HW133134   6.554   5.651   5.878
10745SOL    HW233135   6.613   5.760   5.984
10746SOL     OW33136   2.346   4.714   1.221
10746SOL    HW133137   2.420   4.651   1.194
10746SOL    HW233138   2.295   4.741   1.140
10747SOL     OW33139   3.959   1.312   4.735
10747SOL    HW133140   3.996   1.325   4.827
10747SOL    HW233141   3.874   1.365   4.725
10748SOL     OW33142   5.474   1.328   0.308
10748SOL    HW133143   5.395   1.385   0.332
10748SOL    HW233144   5.556   1.385   0.307
10749SOL     OW33145   0.105   5.329   3.718
10749SOL    HW133146   0.130   5.344   3.622
10749SOL    HW233147   0.188   5.325   3.774
10750SOL     OW33148   4.647   6.216   4.550
10750SOL    HW133149   4.706   6.296   4.539
10750SOL    HW233150   4.695   6.147   4.604
10751SOL     OW33151   1.984   4.663   4.516
10751SOL    HW133152   1.987   4.582   4.574
10751SOL    HW233153   1.959   4.743   4.570
10752SOL     OW33154   5.955   4.974   5.418
10752SOL    HW133155   6.045   4.957   5.456
10752SOL    HW233156   5.889   4.909   5.456
10753SOL     OW33157   5.868   4.478   4.625
10753SOL    HW133158   5.845   4.565   4.581
10753SOL    HW233159   5.819   4.471   4.712
10754SOL     OW33160   0.588   0.026   3.572
10754SOL    HW133161   0.595   0.088   3.494
10754SOL    HW233162   0.649   0.057   3.645
10755SOL     OW33163   0.155   0.336   1.022
10755SOL    HW133164   0.184   0.397   1.096
10755SOL    HW233165   0.153   0.386   0.936
10756SOL     OW33166   6.507   4.991   6.679
10756SOL    HW133167   6.451   4.922   6.634
10756SOL    HW233168   6.480   5.082   6.647
10757SOL     OW33169   1.906   2.765   0.180
10757SOL    HW133170   1.837   2.714   0.128
10757SOL    HW233171   1.927   2.716   0.264
10758SOL     OW33172   0.946   5.733   4.862
10758SOL    HW133173   1.010   5.678   4.808
10758SOL    HW233174   0.990   5.760   4.948
10759SOL     OW33175   1.607   3.543   1.904
10759SOL    HW133176   1.695   3.557   1.951
10759SOL    HW233177   1.602   3.606   1.826
10760SOL     OW33178   5.075   0.407   2.513
10760SOL    HW133179   5.116   0.404   2.422
10760SOL    HW233180   5.147   0.410   2.582
10761SOL     OW33181   0.546   6.096   5.901
10761SOL    HW133182   0.516   6.000   5.906
10761SOL    HW233183   0.639   6.100   5.865
10762SOL     OW33184   2.973   1.968   4.390
10762SOL    HW133185   3.017   2.023   4.319
10762SOL    HW233186   2.995   2.006   4.480
10763SOL     OW33187   4.221   6.511   2.541
10763SOL    HW133188   4.255   6.604   2.524
10763SOL    HW233189   4.285   6.462   2.601
10764SOL     OW33190   5.462   2.185   5.713
10764SOL    HW133191   5.475   2.251   5.639
10764SOL    HW233192   5.410   2.228   5.787
10765SOL     OW33193   5.028   2.610   0.775
10765SOL    HW133194   5.118   2.587   0.811
10765SOL    HW233195   4.974   2.527   0.764
10766SOL     OW33196   4.150   5.020   0.553
10766SOL    HW133197   4.206   5.101   0.572
10766SOL    HW233198   4.179   4.946   0.614
10767SOL     OW33199   2.092   0.451   1.242
10767SOL    HW133200   2.157   0.380   1.214
10767SOL    HW233201   2.083   0.450   1.341
10768SOL     OW33202   5.187   5.152   1.111
10768SOL    HW133203   5.097   5.138   1.153
10768SOL    HW233204   5.178   5.146   1.011
10769SOL     OW33205   2.345   4.040   5.401
10769SOL    HW133206   2.380   3.989   5.323
10769SOL    HW233207   2.377   3.998   5.486
10770SOL     OW33208   5.099   6.656   4.045
10770SOL    HW133209   5.045   6.580   4.009
10770SOL    HW233210   5.091   6.658   4.144
10771SOL     OW33211   5.224   0.201   3.296
10771SOL    HW133212   5.159   0.133   3.263
10771SOL    HW233213   5.308   0.156   3.326
10772SOL     OW33214   6.440   0.165   4.192
10772SOL    HW133215   6.513   0.230   4.171
10772SOL    HW233216   6.423   0.164   4.291
10773SOL     OW33217   5.924   5.542   6.497
10773SOL    HW133218   5.970   5.531   6.584
10773SOL    HW233219   5.944   5.633   6.460
10774SOL     OW33220   2.393   1.673   5.965
10774SOL    HW133221   2.402   1.578   5.935
10774SOL    HW233222   2.469   1.727   5.928
10775SOL     OW33223   0.219   4.508   2.537
10775SOL    HW133224   0.129   4.504   2.493
10775SOL    HW233225   0.261   4.596   2.518
10776SOL     OW33226   0.713   0.545   6.127
10776SOL    HW133227   0.760   0.532   6.214
10776SOL    HW233228   0.617   0.565   6.144
10777SOL     OW33229   3.907   5.407   1.986
10777SOL    HW133230   3.932   5.378   2.078
10777SOL    HW233231   3.889   5.327   1.929
10778SOL     OW33232   4.530   0.347   3.948
10778SOL    HW133233   4.532   0.334   3.849
10778SOL    HW233234   4.448   0.400   3.973
10779SOL     OW33235   5.803   2.890   3.451
10779SOL    HW133236   5.793   2.858   3.546
10779SOL    HW233237   5.721   2.867   3.399
10780SOL     OW33238   1.558   0.331   4.341
10780SOL    HW133239   1.542   0.426   4.369
10780SOL    HW233240   1.561   0.272   4.421
10781SOL     OW33241   4.581   1.325   4.359
10781SOL    HW133242   4.640   1.370   4.291
10781SOL    HW233243   4.486   1.352   4.343
10782SOL     OW33244   0.178   0.510   3.089
10782SOL    HW133245   0.085   0.503   3.053
10782SOL    HW233246   0.234   0.562   3.026
10783SOL     OW33247   0.808   2.106   2.559
10783SOL    HW133248   0.862   2.098   2.476
10783SOL    HW233249   0.850   2.175   2.619
10784SOL     OW33250   4.159   0.419   4.161
10784SOL    HW133251   4.257   0.402   4.157
10784SOL    HW233252   4.143   0.515   4.185
10785SOL     OW33253   0.188   4.420   0.044
10785SOL    HW133254   0.096   4.397   0.075
10785SOL    HW233255   0.242   4.453   0.122
10786SOL     OW33256   6.399   4.771   3.310
10786SOL    HW133257   6.452   4.851   3.283
10786SOL    HW233258   6.462   4.695   3.329
10787SOL     OW33259   1.742   1.107   6.207
10787SOL    HW133260   1.823   1.154   6.243
10787SOL    HW233261   1.678   1.090   6.282
10788SOL     OW33262   1.033   4.202   0.326
10788SOL    HW133263   0.947   4.190   0.276
10788SOL    HW233264   1.039   4.134   0.399
10789SOL     OW33265   6.512   3.746   6.709
10789SOL    HW133266   6.432   3.700   6.747
10789SOL    HW233267   6.512   3.737   6.610
10790SOL     OW33268   1.205   6.937   2.292
10790SOL    HW133269   1.218   6.850   2.244
10790SOL    HW233270   1.295   6.977   2.312
10791SOL     OW33271   0.255   5.843   1.493
10791SOL    HW133272   0.283   5.766   1.551
10791SOL    HW233273   0.302   5.927   1.524
10792SOL     OW33274   3.171   3.012   4.974
10792SOL    HW133275   3.083   2.984   4.936
10792SOL    HW233276   3.237   3.024   4.900
10793SOL     OW33277   5.952   3.363   6.043
10793SOL    HW133278   6.026   3.408   5.994
10793SOL    HW233279   5.946   3.267   6.015
10794SOL     OW33280   4.014   3.828   4.109
10794SOL    HW133281   3.968   3.763   4.048
10794SOL    HW233282   4.075   3.886   4.057
10795SOL     OW33283   6.975   5.046   2.679
10795SOL    HW133284   6.981   4.960   2.628
10795SOL    HW233285   7.009   5.031   2.773
10796SOL     OW33286   6.498   0.045   5.456
10796SOL    HW133287   6.420   7.008   5.436
10796SOL    HW233288   6.519   0.040   5.554
10797SOL     OW33289   3.003   2.414   1.097
10797SOL    HW133290   2.980   2.492   1.038
10797SOL    HW233291   2.920   2.370   1.129
10798SOL     OW33292   2.925   0.686   0.402
10798SOL    HW133293   2.963   0.629   0.329
10798SOL    HW233294   2.827   0.668   0.410
10799SOL     OW33295   4.482   1.180   2.471
10799SOL    HW133296   4.467   1.276   2.494
10799SOL    HW233297   4.432   1.159   2.387
10800SOL     OW33298   0.939   6.227   5.498
10800SOL    HW133299   0.892   6.145   5.531
10800SOL    HW233300   1.008   6.202   5.431
10801SOL     OW33301   1.093   6.888   6.945
10801SOL    HW133302   1.026   6.836   6.998
10801SOL    HW233303   1.117   6.837   6.862
10802SOL     OW33304   0.499   0.314   2.025
10802SOL    HW133305   0.438   0.244   2.062
10802SOL    HW233306   0.514   0.297   1.927
10803SOL     OW33307   1.570   5.495   5.316
10803SOL    HW133308   1.492   5.448   5.275
10803SOL    HW233309   1.611   5.558   5.249
10804SOL     OW33310   5.909   3.366   2.835
10804SOL    HW133311   5.909   3.266   2.831
10804SOL    HW233312   5.965   3.402   2.760
10805SOL     OW33313   4.780   0.622   5.084
10805SOL    HW133314   4.710   0.667   5.029
10805SOL    HW233315   4.840   0.690   5.125
10806SOL     OW33316   3.496   4.219   5.790
10806SOL    HW133317   3.456   4.157   5.722
10806SOL    HW233318   3.534   4.166   5.866
10807SOL     OW33319   1.478   6.516   3.492
10807SOL    HW133320   1.446   6.451   3.423
10807SOL    HW233321   1.420   6.598   3.491
10808SOL     OW33322   0.408   2.730   5.869
10808SOL    HW133323   0.309   2.730   5.884
10808SOL    HW233324   0.427   2.695   5.777
10809SOL     OW33325   2.353   4.314   3.824
10809SOL    HW133326   2.363   4.408   3.789
10809SOL    HW233327   2.327   4.317   3.920
10810SOL     OW33328   0.232   0.378   4.310
10810SOL    HW133329   0.180   0.293   4.301
10810SOL    HW233330   0.170   0.456   4.305
10811SOL     OW33331   4.378   4.679   5.468
10811SOL    HW133332   4.278   4.677   5.461
10811SOL    HW233333   4.418   4.669   5.377
10812SOL     OW33334   0.168   4.099   0.123
10812SOL    HW133335   0.230   4.171   0.094
10812SOL    HW233336   0.221   4.021   0.158
10813SOL     OW33337   0.768   3.288   6.094
10813SOL    HW133338   0.766   3.206   6.151
10813SOL    HW233339   0.863   3.317   6.080
10814SOL     OW33340   2.062   6.957   6.728
10814SOL    HW133341   2.006   0.005   6.686
10814SOL    HW233342   2.005   6.880   6.756
10815SOL     OW33343   5.202   3.040   3.280
10815SOL    HW133344   5.113   3.073   3.310
10815SOL    HW233345   5.204   2.940   3.283
10816SOL     OW33346   3.207   3.280   2.673
10816SOL    HW133347   3.261   3.320   2.748
10816SOL    HW233348   3.183   3.352   2.608
10817SOL     OW33349   3.587   0.347   3.839
10817SOL    HW133350   3.502   0.363   3.889
10817SOL    HW233351   3.580   0.388   3.748
10818SOL     OW33352   4.782   4.289   5.750
10818SOL    HW133353   4.812   4.275   5.844
10818SOL    HW233354   4.722   4.214   5.722
10819SOL     OW33355   6.054   5.523   6.765
10819SOL    HW133356   6.089   5.611   6.798
10819SOL    HW233357   5.985   5.489   6.828
10820SOL     OW33358   6.990   5.027   4.485
10820SOL    HW133359   0.024   4.979   4.418
10820SOL    HW233360   0.016   5.029   4.573
10821SOL     OW33361   4.373   0.054   2.779
10821SOL    HW133362   4.434   0.125   2.814
10821SOL    HW233363   4.412   6.987   2.798
10822SOL     OW33364   6.389   1.693   2.124
10822SOL    HW133365   6.355   1.783   2.152
10822SOL    HW233366   6.443   1.702   2.040
10823SOL     OW33367   0.565   0.135   2.483
10823SOL    HW133368   0.530   0.064   2.544
10823SOL    HW233369   0.504   0.145   2.405
10824SOL     OW33370   0.303   0.967   2.340
10824SOL    HW133371   0.206   0.956   2.317
10824SOL    HW233372   0.358   0.951   2.258
10825SOL     OW33373   1.862   2.064   0.520
10825SOL    HW133374   1.950   2.029   0.553
10825SOL    HW233375   1.805   1.987   0.490
10826SOL     OW33376   0.921   1.342   2.388
10826SOL    HW133377   0.981   1.268   2.359
10826SOL    HW233378   0.873   1.379   2.309
10827SOL     OW33379   0.082   3.429   4.908
10827SOL    HW133380   0.018   3.360   4.941
10827SOL    HW233381   0.093   3.421   4.809
10828SOL     OW33382   1.191   4.253   0.606
10828SOL    HW133383   1.102   4.257   0.652
10828SOL    HW233384   1.235   4.342   0.610
10829SOL     OW33385   4.722   3.109   0.153
10829SOL    HW133386   4.797   3.059   0.110
10829SOL    HW233387   4.651   3.129   0.085
10830SOL     OW33388   4.507   1.955   3.117
10830SOL    HW133389   4.449   1.878   3.142
10830SOL    HW233390   4.470   2.039   3.158
10831SOL     OW33391   2.660   6.261   2.119
10831SOL    HW133392   2.634   6.301   2.031
10831SOL    HW233393   2.641   6.163   2.119
10832SOL     OW33394   6.550   4.025   6.672
10832SOL    HW133395   6.486   3.969   6.619
10832SOL    HW233396   6.611   3.965   6.723
10833SOL     OW33397   0.708   2.044   0.159
10833SOL    HW133398   0.775   1.972   0.140
10833SOL    HW233399   0.722   2.120   0.095
10834SOL     OW33400   6.535   1.657   0.051
10834SOL    HW133401   6.598   1.595   0.003
10834SOL    HW233402   6.452   1.607   0.076
10835SOL     OW33403   5.291   3.781   7.003
10835SOL    HW133404   5.193   3.762   7.009
10835SOL    HW233405   5.336   3.708   6.952
10836SOL     OW33406   0.347   1.382   2.867
10836SOL    HW133407   0.310   1.438   2.794
10836SOL    HW233408   0.367   1.440   2.946
10837SOL     OW33409   6.782   4.934   2.238
10837SOL    HW133410   6.775   5.017   2.183
10837SOL    HW233411   6.861   4.880   2.209
10838SOL     OW33412   6.095   6.503   3.755
10838SOL    HW133413   6.085   6.489   3.854
10838SOL    HW233414   6.150   6.585   3.739
10839SOL     OW33415   4.694   3.379   0.845
10839SOL    HW133416   4.628   3.326   0.898
10839SOL    HW233417   4.743   3.319   0.782
10840SOL     OW33418   3.455   6.582   2.186
10840SOL    HW133419   3.369   6.547   2.224
10840SOL    HW233420   3.496   6.646   2.251
10841SOL     OW33421   6.571   4.790   5.182
10841SOL    HW133422   6.606   4.737   5.105
10841SOL    HW233423   6.547   4.882   5.152
10842SOL     OW33424   5.040   2.117   1.385
10842SOL    HW133425   5.102   2.083   1.455
10842SOL    HW233426   5.000   2.040   1.335
10843SOL     OW33427   1.549   1.105   1.324
10843SOL    HW133428   1.469   1.046   1.322
10843SOL    HW233429   1.521   1.201   1.313
10844SOL     OW33430   6.532   4.629   3.701
10844SOL    HW133431   6.553   4.542   3.655
10844SOL    HW233432   6.616   4.682   3.711
10845SOL     OW33433   4.216   6.113   5.407
10845SOL    HW133434   4.282   6.039   5.419
10845SOL    HW233435   4.264   6.196   5.381
10846SOL     OW33436   5.370   0.562   0.068
10846SOL    HW133437   5.352   0.621   7.012
10846SOL    HW233438   5.468   0.556   0.083
10847SOL     OW33439   3.022   2.286   0.138
10847SOL    HW133440   2.953   2.335   0.191
10847SOL    HW233441   3.105   2.341   0.132
10848SOL     OW33442   0.301   3.658   1.069
10848SOL    HW133443   0.256   3.743   1.097
10848SOL    HW233444   0.284   3.641   0.972
10849SOL     OW33445   2.581   4.612   4.036
10849SOL    HW133446   2.538   4.617   3.945
10849SOL    HW233447   2.549   4.530   4.083
10850SOL     OW33448   3.638   6.194   6.682
10850SOL    HW133449   3.585   6.169   6.763
10850SOL    HW233450   3.713   6.129   6.670
10851SOL     OW33451   3.114   3.907   1.111
10851SOL    HW133452   3.182   3.849   1.157
10851SOL    HW233453   3.103   3.876   1.016
10852SOL     OW33454   1.549   1.249   6.705
10852SOL    HW133455   1.648   1.237   6.696
10852SOL    HW233456   1.516   1.195   6.782
10853SOL     OW33457   2.401   3.150   5.833
10853SOL    HW133458   2.319   3.199   5.860
10853SOL    HW233459   2.429   3.088   5.906
10854SOL     OW33460   4.332   5.561   5.208
10854SOL    HW133461   4.384   5.556   5.294
10854SOL    HW233462   4.339   5.474   5.160
10855SOL     OW33463   3.821   1.058   0.307
10855SOL    HW133464   3.890   1.103   0.249
10855SOL    HW233465   3.815   1.107   0.394
10856SOL     OW33466   6.095   1.375   0.336
10856SOL    HW133467   6.064   1.450   0.395
10856SOL    HW233468   6.194   1.366   0.343
10857SOL     OW33469   0.499   2.723   2.726
10857SOL    HW133470   0.453   2.810   2.743
10857SOL    HW233471   0.492   2.700   2.629
10858SOL     OW33472   0.892   0.211   0.354
10858SOL    HW133473   0.851   0.248   0.438
10858SOL    HW233474   0.839   0.132   0.323
10859SOL     OW33475   0.467   4.647   4.402
10859SOL    HW133476   0.565   4.631   4.388
10859SOL    HW233477   0.439   4.603   4.487
10860SOL     OW33478   0.521   3.024   4.365
10860SOL    HW133479   0.532   3.124   4.368
10860SOL    HW233480   0.432   3.001   4.325
10861SOL     OW33481   3.286   3.325   3.197
10861SOL    HW133482   3.271   3.397   3.265
10861SOL    HW233483   3.200   3.279   3.178
10862SOL     OW33484   1.193   1.126   5.489
10862SOL    HW133485   1.138   1.175   5.557
10862SOL    HW233486   1.134   1.064   5.437
10863SOL     OW33487   2.323   0.327   4.644
10863SOL    HW133488   2.377   0.253   4.684
10863SOL    HW233489   2.324   0.406   4.705
10864SOL     OW33490   3.308   5.973   0.437
10864SOL    HW133491   3.401   5.959   0.471
10864SOL    HW233492   3.311   5.994   0.340
10865SOL     OW33493   6.756   1.308   0.749
10865SOL    HW133494   6.709   1.365   0.681
10865SOL    HW233495   6.732   1.340   0.841
10866SOL     OW33496   5.148   4.563   0.887
10866SOL    HW133497   5.088   4.578   0.809
10866SOL    HW233498   5.243   4.561   0.857
10867SOL     OW33499   3.084   4.113   0.874
10867SOL    HW133500   3.130   4.034   0.832
10867SOL    HW233501   2.990   4.088   0.897
10868SOL     OW33502   4.719   1.823   3.783
10868SOL    HW133503   4.635   1.779   3.814
10868SOL    HW233504   4.750   1.780   3.698
10869NA      NA33505   6.617   2.983   5.489
10870NA      NA33506   4.602   4.440   5.094
10871NA      NA33507   1.331   2.887   1.695
10872NA      NA33508   5.034   3.861   5.187
10873NA      NA33509   4.255   2.290   5.192
10874NA      NA33510   3.575   4.873   1.761
10875NA      NA33511   6.757   4.986   6.693
10876NA      NA33512   3.180   3.579   4.836
10877NA      NA33513   4.435   6.223   6.937
10878NA      NA33514   4.058   6.467   5.098
10879NA      NA33515   6.462   5.315   2.665
10880NA      NA33516   2.114   0.095   3.600
10881NA      NA33517   4.022   5.597   1.916
10882NA      NA33518   3.906   3.432   2.414
   7.02258   7.02258   7.02258
